G4NPOcore-PETIM betagalactose in water
125316
    1aaa     O1    1   3.441   6.378   2.759 -0.2778 -0.0704  0.5355
    1aaa     C1    2   3.527   6.365   2.648 -0.8604 -0.0965 -0.9895
    1aaa     H1    3   3.531   6.454   2.585 -1.5115 -0.4618 -1.5550
    1aaa     H2    4   3.482   6.286   2.587  0.9981 -0.7727 -1.5836
    1aaa     C2    5   3.306   6.412   2.720 -0.7707 -0.2735 -0.2510
    1aaa     H3    6   3.281   6.349   2.633  2.1935 -1.5759 -0.2921
    1aaa     H4    7   3.314   6.517   2.692  0.6073 -0.2148  0.2734
    1aaa     C3    8   3.664   6.325   2.707 -0.4250  0.8095  0.0307
    1aaa     H5    9   3.707   6.267   2.625 -1.0813 -0.6275  0.6776
    1aaa     H6   10   3.655   6.247   2.783 -0.2461 -1.2063 -1.9433
    1aaa     C4   11   3.214   6.387   2.839 -0.1400  0.3530  0.4295
    1aaa     H7   12   3.248   6.457   2.917 -0.6689  1.2796 -0.1504
    1aaa     H8   13   3.233   6.283   2.867  0.6404 -0.7878 -3.7723
    1aaa     C5   14   3.750   6.443   2.758 -0.6172  0.6804 -0.0644
    1aaa     H9   15   3.754   6.519   2.679  0.7676 -0.8389 -1.5272
    1aaa    H10   16   3.689   6.475   2.844 -1.6660  0.4337 -0.7077
    1aaa     C6   17   3.067   6.397   2.801 -0.0193 -0.1432 -0.5443
    1aaa    H11   18   3.052   6.331   2.715 -1.6897  0.6079 -0.8638
    1aaa    H12   19   3.047   6.497   2.762  1.6352  0.2567 -0.4524
    1aaa     N1   20   3.891   6.405   2.797  0.3768  0.2862 -0.3497
    1aaa     N2   21   2.970   6.367   2.909 -0.2429 -0.1749  0.0675
    1aaa     C7   22   2.829   6.366   2.855 -0.6090  0.6550  0.5981
    1aaa    H13   23   2.806   6.289   2.780 -0.3353 -0.7370  1.8782
    1aaa    H14   24   2.760   6.346   2.938 -0.2385  0.7731  0.9365
    1aaa     C8   25   3.012   6.240   2.980  0.6307 -0.0404 -0.0851
    1aaa    H15   26   3.036   6.160   2.908  0.8581  0.6901 -0.8444
    1aaa    H16   27   3.101   6.266   3.039 -0.4299 -0.4310  1.7616
    1aaa     C9   28   3.974   6.320   2.702  0.2665  0.0881 -0.5193
    1aaa    H17   29   3.916   6.238   2.658 -1.3716  0.5848  0.6151
    1aaa    H18   30   4.007   6.375   2.613 -0.9739  1.6183 -0.0720
    1aaa    C10   31   3.963   6.522   2.861 -0.8324 -0.0622 -0.3718
    1aaa    H19   32   3.896   6.572   2.932  0.3812 -1.1237  1.5893
    1aaa    H20   33   4.048   6.483   2.919  0.0558  0.4585 -1.2933
    1aaa    C11   34   2.789   6.507   2.799 -0.4676 -0.0284 -0.0434
    1aaa    H21   35   2.820   6.581   2.874 -0.1299  2.5198 -2.5110
    1aaa    H22   36   2.852   6.531   2.712  1.3341 -0.1951  1.1642
    1aaa    C12   37   2.917   6.186   3.087 -0.0064  0.1904 -0.0837
    1aaa    H23   38   2.826   6.146   3.042  0.9313 -1.2307 -0.7565
    1aaa    H24   39   2.973   6.100   3.125  2.0528  1.7863  0.7321
    1aaa    C13   40   4.094   6.253   2.775 -1.0251  0.3037 -0.0320
    1aaa    H25   41   4.141   6.201   2.691 -0.6991 -1.4333  1.1757
    1aaa    H26   42   4.153   6.337   2.814 -2.0723  1.9168 -1.7717
    1aaa    C14   43   4.007   6.628   2.757  0.0312 -0.1221 -0.8874
    1aaa    H27   44   4.103   6.606   2.710  0.5167  1.1456 -0.5328
    1aaa    H28   45   3.931   6.642   2.678  2.1385  1.9253 -2.6912
    1aaa    C15   46   4.032   6.765   2.825  0.6601 -0.1245  0.4515
    1aaa    H29   47   4.029   6.841   2.746 -0.3602 -0.0944  0.5090
    1aaa    H30   48   3.953   6.791   2.896 -0.5291  2.1845 -1.5800
    1aaa    C16   49   4.070   6.140   2.884 -0.0881  0.0395 -0.1073
    1aaa    H31   50   3.996   6.185   2.951  0.1015  1.2059 -0.6468
    1aaa    H32   51   4.021   6.059   2.830 -1.5874 -0.1387  1.4425
    1aaa    C17   52   2.875   6.284   3.196 -0.1514  0.7906  0.3364
    1aaa    H33   53   2.873   6.250   3.300 -1.5469  3.3097  1.2379
    1aaa    H34   54   2.954   6.360   3.200  0.0793  0.5312  0.7970
    1aaa    C18   55   2.641   6.528   2.764 -0.3915  0.4368 -0.2321
    1aaa    H35   56   2.583   6.536   2.857 -0.3245 -1.2101 -0.0158
    1aaa    H36   57   2.625   6.620   2.707  0.0247  1.0243  0.5915
    2bbb     N1   58   4.527   7.002   3.079 -0.0621 -0.6433  0.2556
    2bbb     C1   59   4.609   6.908   3.162  0.1863  0.6659 -0.0100
    2bbb     H1   60   4.587   6.803   3.140 -0.3002  0.8119 -0.2446
    2bbb     H2   61   4.582   6.909   3.268 -1.4005 -0.1246 -0.3718
    2bbb     C2   62   4.560   7.146   3.098 -0.1323 -0.6765 -0.1790
    2bbb     H3   63   4.526   7.198   3.008  2.4139 -0.5838 -1.1446
    2bbb     H4   64   4.668   7.161   3.097 -0.1817  1.2331  3.3893
    2bbb     C3   65   4.384   6.980   3.077 -0.4665  0.3651 -0.0783
    2bbb     H5   66   4.338   7.071   3.037 -0.5444  0.5085  0.3281
    2bbb     H6   67   4.350   6.956   3.179  0.3317  0.8645  0.3190
    2bbb     C4   68   4.347   6.870   2.978  0.8240  0.4111 -0.0060
    2bbb     H7   69   4.389   6.771   3.002  0.8769  0.4707  0.1446
    2bbb     H8   70   4.378   6.893   2.875 -0.0113  3.0751  0.2642
    2bbb     C5   71   4.762   6.923   3.163 -0.0225  0.2930  0.6735
    2bbb     H9   72   4.816   6.861   3.236  1.2850 -1.0530 -1.3325
    2bbb    H10   73   4.782   7.026   3.194 -1.5912  0.4100  1.4114
    2bbb     C6   74   4.514   7.209   3.237 -0.2703 -0.6910  0.5082
    2bbb    H11   75   4.545   7.140   3.316 -0.6225  0.0145  1.2826
    2bbb    H12   76   4.404   7.212   3.239 -0.3313 -0.9594 -1.0061
    2bbb     C7   77   4.196   6.862   2.972  0.1705  0.3623 -0.4165
    2bbb    H13   78   4.169   6.952   2.915  2.0146 -0.3230 -2.4968
    2bbb    H14   79   4.146   6.854   3.069 -2.7047  0.1247 -1.8187
    2bbb     C8   80   4.576   7.342   3.274  1.3371  0.0790 -0.3726
    2bbb    H15   81   4.682   7.354   3.250  1.2815 -0.8070 -1.1670
    2bbb    H16   82   4.558   7.351   3.382  1.4142  1.1613 -0.4457
    2bbb     C9   83   4.818   6.886   3.023 -0.0996 -0.1292  0.2926
    2bbb    H17   84   4.789   6.957   2.945  0.5659 -1.9813 -1.7340
    2bbb    H18   85   4.776   6.787   3.002  0.7835 -0.2363 -1.0493
    2bbb     O1   86   4.161   6.753   2.889 -0.3624 -0.2246  0.2690
    3bbb     N1   87   4.409   6.014   3.349  0.2725  0.5526  0.0592
    3bbb     C1   88   4.414   5.869   3.287  0.2098  0.2482  0.0707
    3bbb     H1   89   4.473   5.867   3.195 -0.0450 -0.9362 -0.0819
    3bbb     H2   90   4.319   5.825   3.256  0.6787 -0.6275 -0.1443
    3bbb     C2   91   4.542   6.069   3.374 -0.5770 -0.1457  0.5245
    3bbb     H3   92   4.587   6.113   3.284 -0.4259  0.6087  0.9604
    3bbb     H4   93   4.604   5.982   3.398  0.5508  0.2771 -0.7446
    3bbb     C3   94   4.323   6.102   3.273 -0.2437 -0.1196 -0.2977
    3bbb     H5   95   4.325   6.199   3.322 -0.9871 -0.1597 -0.1784
    3bbb     H6   96   4.221   6.063   3.279  0.0323 -0.7344  0.7435
    3bbb     C4   97   4.357   6.117   3.125 -1.2187 -0.1104 -0.1598
    3bbb     H7   98   4.360   6.018   3.078 -1.2344  0.2395 -0.9233
    3bbb     H8   99   4.458   6.159   3.113 -0.2909 -2.1982 -0.1163
    3bbb     C5  100   4.466   5.762   3.388 -0.4976  0.3040 -0.3554
    3bbb     H9  101   4.572   5.776   3.410 -0.4543  1.2105 -1.0552
    3bbb    H10  102   4.464   5.668   3.332  0.4824 -0.2852  0.5679
    3bbb     C6  103   4.547   6.176   3.488 -0.0601 -0.3863 -0.2198
    3bbb    H11  104   4.476   6.256   3.461  1.0274  0.7136  0.0752
    3bbb    H12  105   4.647   6.221   3.489 -0.7218  1.1447  1.3522
    3bbb     C7  106   4.250   6.189   3.055 -0.6801  0.2794 -0.3079
    3bbb    H13  107   4.295   6.279   3.012  0.2016 -0.8837 -1.9133
    3bbb    H14  108   4.166   6.219   3.119  0.3643 -0.2779  1.3741
    3bbb     C8  109   4.510   6.124   3.627 -0.4935 -0.0034 -0.5353
    3bbb    H15  110   4.590   6.058   3.665 -1.7828  0.2237  2.9574
    3bbb    H16  111   4.427   6.055   3.612  0.2377 -0.6760 -1.6033
    3bbb     C9  112   4.370   5.752   3.514 -0.2299 -0.3362  0.0658
    3bbb    H17  113   4.363   5.854   3.554  0.8381  0.9380 -2.7102
    3bbb    H18  114   4.407   5.690   3.597 -1.8291 -1.8964 -0.3179
    3bbb     O1  115   4.195   6.106   2.947 -0.3621  0.1025  0.0871
    4bbb     N1  116   2.638   6.729   3.270  0.0820  0.2319  0.9984
    4bbb     C1  117   2.672   6.762   3.126 -0.3395 -0.1343 -0.3588
    4bbb     H1  118   2.579   6.792   3.077 -1.1355  2.1874  2.3243
    4bbb     H2  119   2.717   6.672   3.082  1.2291  1.0460 -1.3023
    4bbb     C2  120   2.601   6.833   3.365  0.3478 -0.7512  0.2256
    4bbb     H3  121   2.683   6.905   3.377 -0.9872  0.9189 -0.2007
    4bbb     H4  122   2.585   6.797   3.467  1.4975 -0.2018  0.6136
    4bbb     C3  123   2.528   6.626   3.268  0.4870  0.0077 -0.0858
    4bbb     H5  124   2.447   6.663   3.205  2.1428  2.1837 -1.0704
    4bbb     H6  125   2.495   6.601   3.370  0.6033 -2.5638 -0.6221
    4bbb     C4  126   2.572   6.492   3.207  0.1952  0.2169  0.5043
    4bbb     H7  127   2.575   6.505   3.098 -0.7457 -1.3603  0.2639
    4bbb     H8  128   2.487   6.427   3.233  0.1445  0.6452  1.4807
    4bbb     C5  129   2.778   6.885   3.120  0.1232  0.0323 -0.0919
    4bbb     H9  130   2.858   6.870   3.193 -0.8505  0.4056  1.0913
    4bbb    H10  131   2.729   6.973   3.164 -1.7436 -1.0555  0.0930
    4bbb     C6  132   2.481   6.923   3.321 -0.2724  0.2217  0.0988
    4bbb    H11  133   2.389   6.862   3.315 -0.9770  1.4122 -2.9296
    4bbb    H12  134   2.487   6.961   3.219 -1.8301 -0.4835 -0.2984
    4bbb     C7  135   2.700   6.431   3.266  0.8534  0.1858 -0.4759
    4bbb    H13  136   2.669   6.404   3.368 -1.0619  0.8733 -0.8258
    4bbb    H14  137   2.779   6.507   3.269 -0.2924  1.4498  2.5641
    4bbb     C8  138   2.474   7.047   3.409  0.4868  0.2605  0.3011
    4bbb    H15  139   2.426   7.130   3.354  2.0987  0.6483 -0.6073
    4bbb    H16  140   2.576   7.080   3.436  1.0433 -1.2597  0.1458
    4bbb     C9  141   2.841   6.916   2.980 -0.7667  0.1206  0.1434
    4bbb    H17  142   2.922   6.988   2.994 -0.3891 -0.5083  1.2686
    4bbb    H18  143   2.769   6.953   2.905  0.9148 -0.9531 -2.1261
    4bbb     O1  144   2.742   6.327   3.174 -0.0776  0.6437 -0.0457
    5bbb     N1  145   2.553   6.001   2.639  0.0102 -0.1239 -0.5541
    5bbb     C1  146   2.430   5.935   2.587  0.1780 -0.1245 -0.2042
    5bbb     H1  147   2.372   5.993   2.514  0.1027 -1.8328 -1.5659
    5bbb     H2  148   2.367   5.919   2.676  1.2293  0.2724  0.6369
    5bbb     C2  149   2.661   5.918   2.706  0.2855  0.2972 -0.0029
    5bbb     H3  150   2.685   5.834   2.639 -0.1628  0.5835 -0.5227
    5bbb     H4  151   2.629   5.875   2.801 -0.7168  0.2713 -0.3466
    5bbb     C3  152   2.530   6.136   2.708 -0.6140 -0.0685 -0.1964
    5bbb     H5  153   2.625   6.190   2.718  0.5786 -2.1533  0.4036
    5bbb     H6  154   2.497   6.136   2.813  0.6401  3.1061  0.3267
    5bbb     C4  155   2.433   6.232   2.634  0.5892  0.3692  0.2759
    5bbb     H7  156   2.326   6.210   2.639 -0.0145  2.8686 -0.1728
    5bbb     H8  157   2.460   6.218   2.528 -0.8978 -1.9886  0.1574
    5bbb     C5  158   2.446   5.798   2.519 -0.8153 -0.3891 -0.2458
    5bbb     H9  159   2.489   5.727   2.591 -1.8323  0.5238  1.3153
    5bbb    H10  160   2.513   5.815   2.434 -0.6493  0.2678  0.0102
    5bbb     C6  161   2.792   5.989   2.738  0.2911 -0.2022 -0.7334
    5bbb    H11  162   2.860   5.916   2.785 -0.1030 -0.0605  0.0850
    5bbb    H12  163   2.775   6.065   2.816 -0.5850 -2.4713  1.4484
    5bbb     C7  164   2.459   6.383   2.677 -0.4859  0.0676 -0.0453
    5bbb    H13  165   2.400   6.395   2.769  0.8257  1.2108  0.6806
    5bbb    H14  166   2.418   6.448   2.599  1.2446  1.7013  0.3284
    5bbb     C8  167   2.856   6.050   2.615  0.6708 -1.2032  0.9699
    5bbb    H15  168   2.826   6.155   2.609  0.5880 -1.1269  2.2647
    5bbb    H16  169   2.819   5.998   2.527 -2.0195  1.5025  0.3509
    5bbb     C9  170   2.317   5.736   2.468  0.2473  0.4722 -0.1762
    5bbb    H17  171   2.350   5.643   2.422  0.2247  0.5968 -0.4455
    5bbb    H18  172   2.271   5.802   2.393 -1.3461  0.1973  0.5377
    5bbb     O1  173   2.607   6.407   2.684  0.3100  0.4417  0.0860
    6bbb     N1  174   4.342   7.577   2.867 -0.0134 -0.3313 -0.4661
    6bbb     C1  175   4.387   7.546   2.732 -0.0456 -0.8424  0.5485
    6bbb     H1  176   4.301   7.511   2.674 -0.1538 -0.7639  0.6603
    6bbb     H2  177   4.463   7.468   2.725 -0.1380 -0.8436 -0.5078
    6bbb     C2  178   4.221   7.499   2.915 -0.4128 -0.2664 -0.7093
    6bbb     H3  179   4.137   7.505   2.845 -0.8030  0.1006 -0.2177
    6bbb     H4  180   4.187   7.554   3.003 -2.2924  1.9007 -2.6316
    6bbb     C3  181   4.455   7.597   2.966  0.4621 -0.0392  0.5597
    6bbb     H5  182   4.532   7.661   2.920 -0.1057  1.8550  2.0911
    6bbb     H6  183   4.511   7.504   2.972 -0.1465 -0.4705 -0.1829
    6bbb     C4  184   4.425   7.641   3.119  0.2746  0.8795 -0.0847
    6bbb     H7  185   4.321   7.624   3.148  0.6221  0.2619  0.8500
    6bbb     H8  186   4.428   7.750   3.131  0.2381  0.9437 -0.6069
    6bbb     C5  187   4.450   7.672   2.667  0.2495 -0.2252  0.6300
    6bbb     H9  188   4.556   7.681   2.692  1.5306  0.8280 -4.1854
    6bbb    H10  189   4.407   7.767   2.703  2.9690  1.3922 -0.0750
    6bbb     C6  190   4.258   7.348   2.936  0.9246  0.7402 -0.7338
    6bbb    H11  191   4.162   7.301   2.961  1.3835 -0.9749 -1.9595
    6bbb    H12  192   4.309   7.348   3.033 -3.0942  1.8299  1.5680
    6bbb     C7  193   4.513   7.576   3.223  0.0792 -0.2394 -0.4618
    6bbb    H13  194   4.475   7.593   3.324 -0.2052 -1.2417 -0.3840
    6bbb    H14  195   4.616   7.611   3.209 -0.0003 -0.1563 -0.8459
    6bbb     C8  196   4.317   7.264   2.824 -0.1496 -0.4766  0.0606
    6bbb    H15  197   4.316   7.161   2.862 -1.0163 -0.6842 -0.5146
    6bbb    H16  198   4.415   7.305   2.797 -0.2685  1.0667  1.7560
    6bbb     C9  199   4.451   7.676   2.513 -0.3395 -0.0366 -0.0086
    6bbb    H17  200   4.487   7.775   2.484 -1.9368  1.4925  2.7186
    6bbb    H18  201   4.345   7.664   2.485 -0.2490 -0.4014 -0.1970
    6bbb     O1  202   4.495   7.435   3.203 -0.1400 -0.0740  0.0368
    7bbb     N1  203   5.390   6.779   3.015  0.1468  0.1476 -0.2796
    7bbb     C1  204   5.456   6.758   2.889  0.1265 -0.3220 -0.2431
    7bbb     H1  205   5.565   6.758   2.900 -0.0330  0.8196  1.9145
    7bbb     H2  206   5.442   6.841   2.819  0.1434 -1.2791 -1.4187
    7bbb     C2  207   5.453   6.699   3.125 -0.4449  0.1348  0.4083
    7bbb     H3  208   5.560   6.724   3.117 -0.9455  2.9369  1.2832
    7bbb     H4  209   5.439   6.593   3.102  0.9799 -0.2759  1.3054
    7bbb     C3  210   5.236   6.793   3.017 -0.8247 -0.1762 -0.2454
    7bbb     H5  211   5.200   6.844   3.107  0.3347  1.8517 -0.8694
    7bbb     H6  212   5.205   6.688   3.026 -2.2685  0.3732  2.1331
    7bbb     C4  213   5.174   6.867   2.899  1.2932 -0.2386 -0.1914
    7bbb     H7  214   5.211   6.831   2.802  3.1870  4.2559 -1.4053
    7bbb     H8  215   5.189   6.975   2.892 -1.9303  0.2956 -0.7469
    7bbb     C5  216   5.417   6.623   2.824  0.3630 -0.0203  0.4583
    7bbb     H9  217   5.308   6.615   2.826  0.3083 -1.4174 -2.7125
    7bbb    H10  218   5.462   6.544   2.887 -1.9525  0.1870  2.5430
    7bbb     C6  219   5.408   6.736   3.270 -0.3972  0.4888 -0.1150
    7bbb    H11  220   5.303   6.705   3.278 -1.0359  1.8454 -2.4149
    7bbb    H12  221   5.400   6.845   3.272  1.3614  0.7113 -1.9868
    7bbb     C7  222   5.019   6.854   2.901  0.1724 -0.0351 -0.0591
    7bbb    H13  223   4.988   6.749   2.894 -2.1435  0.4715  1.4749
    7bbb    H14  224   4.985   6.919   2.819  0.2929  0.5522  0.3445
    7bbb     C8  225   5.494   6.677   3.386  0.3792 -0.0418  0.6589
    7bbb    H15  226   5.588   6.734   3.396  1.1165 -0.9751 -0.6231
    7bbb    H16  227   5.517   6.574   3.356  0.2511  0.1909 -0.2527
    7bbb     C9  228   5.446   6.614   2.667  0.2055 -0.1702  0.2595
    7bbb    H17  229   5.471   6.510   2.643 -0.2166 -0.6836  1.8978
    7bbb    H18  230   5.525   6.686   2.644 -0.3979  0.8289  1.2093
    7bbb     O1  231   4.961   6.888   3.029  0.7436 -0.2823  0.5442
    8bbb     N1  232   4.678   6.404   4.015  0.8795 -0.7862  0.2182
    8bbb     C1  233   4.670   6.362   4.156  0.4825 -0.4829  0.1126
    8bbb     H1  234   4.587   6.290   4.155 -1.8866  2.0933 -0.0362
    8bbb     H2  235   4.642   6.445   4.223 -2.5858  0.0307 -1.6148
    8bbb     C2  236   4.732   6.546   3.995  0.6105 -0.3329 -0.1037
    8bbb     H3  237   4.837   6.535   3.967  0.8795  0.9192  0.3359
    8bbb     H4  238   4.731   6.607   4.086  1.0851 -1.9638  1.0485
    8bbb     C3  239   4.710   6.303   3.909  0.7080  0.4687 -0.2088
    8bbb     H5  240   4.817   6.279   3.906  0.4102 -1.0008  0.1397
    8bbb     H6  241   4.689   6.350   3.812 -0.5132  1.3189  0.4335
    8bbb     C4  242   4.627   6.176   3.918  0.0606  0.0261  0.8935
    8bbb     H7  243   4.623   6.139   4.022  1.7893  1.0954  1.3680
    8bbb     H8  244   4.684   6.099   3.865 -0.6003  0.4828 -0.5218
    8bbb     C5  245   4.797   6.296   4.215 -0.5073 -0.2277 -0.5581
    8bbb     H9  246   4.873   6.375   4.212 -0.7011  0.1931  2.1838
    8bbb    H10  247   4.826   6.212   4.151 -2.2026 -0.6257 -0.8610
    8bbb     C6  248   4.659   6.623   3.879  1.1510 -0.1905  0.8965
    8bbb    H11  249   4.553   6.644   3.896  0.5668 -1.6086 -0.6389
    8bbb    H12  250   4.660   6.571   3.782  1.0901  1.7747 -0.2118
    8bbb     C7  251   4.483   6.185   3.861  0.0645 -0.3399 -0.7307
    8bbb    H13  252   4.424   6.254   3.924 -0.5492 -2.5828  1.3142
    8bbb    H14  253   4.430   6.091   3.877 -0.3578  0.0101  0.0037
    8bbb     C8  254   4.728   6.761   3.859  0.3055 -0.4841  0.1692
    8bbb    H15  255   4.703   6.812   3.953 -0.7055 -0.3083 -0.1750
    8bbb    H16  256   4.679   6.816   3.777 -0.2680 -1.9321 -0.5004
    8bbb     C9  257   4.784   6.253   4.367 -0.1705  0.2347 -0.1843
    8bbb    H17  258   4.878   6.211   4.404 -1.4493 -0.3743  2.6559
    8bbb    H18  259   4.720   6.166   4.384 -0.0004 -0.2319 -1.8144
    8bbb     O1  260   4.487   6.229   3.722 -0.3409  0.1021  0.1933
    9bbb     N1  261   3.802   5.567   3.601 -0.0043 -0.4626  0.3479
    9bbb     C1  262   3.734   5.536   3.470 -0.4275 -0.6848 -0.3746
    9bbb     H1  263   3.799   5.487   3.397  0.7774  1.5729 -0.9167
    9bbb     H2  264   3.704   5.634   3.431  1.0355  0.1161  0.4455
    9bbb     C2  265   3.763   5.708   3.643  0.2494 -0.3004 -0.1005
    9bbb     H3  266   3.654   5.709   3.653 -0.3219  0.6783 -4.2858
    9bbb     H4  267   3.796   5.781   3.567 -0.6807  0.7520  0.4798
    9bbb     C3  268   3.939   5.528   3.609  0.0208 -0.0762  0.2145
    9bbb     H5  269   3.936   5.420   3.587 -3.1005 -0.5793  2.4493
    9bbb     H6  270   3.984   5.545   3.708  0.2938  0.9360 -0.0766
    9bbb     C4  271   4.034   5.605   3.510  0.7229  0.3339 -0.8021
    9bbb     H7  272   3.989   5.703   3.491  0.0127  0.5531  1.6319
    9bbb     H8  273   4.034   5.549   3.416  1.9941  0.5385 -0.9395
    9bbb     C5  274   3.609   5.451   3.497 -0.6379  0.7038 -1.0966
    9bbb     H9  275   3.541   5.496   3.570  2.2798  3.2170  0.3165
    9bbb    H10  276   3.649   5.366   3.554  3.1404  1.6593 -1.9770
    9bbb     C6  277   3.827   5.761   3.771  0.5600  0.2027 -0.2547
    9bbb    H11  278   3.936   5.754   3.767  0.5973  0.1256  0.6199
    9bbb    H12  279   3.793   5.694   3.851 -0.9458 -0.3707 -1.3267
    9bbb     C7  280   4.171   5.631   3.572  0.1022  0.7055  0.4567
    9bbb    H13  281   4.209   5.530   3.591 -0.8298  0.0215 -1.1141
    9bbb    H14  282   4.154   5.687   3.665  0.3692 -0.9533  1.5575
    9bbb     C8  283   3.787   5.900   3.801 -0.5347 -0.5343  0.2069
    9bbb    H15  284   3.807   5.969   3.718  0.2419  1.4301  1.9204
    9bbb    H16  285   3.848   5.930   3.887  3.3278 -2.8590 -1.4496
    9bbb     C9  286   3.538   5.389   3.373 -0.1555  0.0254 -0.7042
    9bbb    H17  287   3.476   5.469   3.331 -1.3761 -0.0284  0.9009
    9bbb    H18  288   3.469   5.314   3.412 -0.7531  0.9670  0.0998
    9bbb     O1  289   4.245   5.705   3.470  0.0788  0.8964 -0.0718
   10bbb     N1  290   2.110   7.094   3.871  0.1153  0.4178  0.1044
   10bbb     C1  291   1.967   7.137   3.863 -0.0610  0.0003 -0.2548
   10bbb     H1  292   1.912   7.044   3.886 -0.0799  0.3236  1.1252
   10bbb     H2  293   1.944   7.175   3.763 -0.2530  0.4312 -0.0488
   10bbb     C2  294   2.147   6.966   3.950 -0.7874 -0.5361 -0.9122
   10bbb     H3  295   2.100   6.972   4.049  2.3760 -0.5865  0.7011
   10bbb     H4  296   2.254   6.959   3.974 -0.9449 -1.1978 -0.4003
   10bbb     C3  297   2.184   7.114   3.745  0.4356  0.0813 -0.0491
   10bbb     H5  298   2.156   7.215   3.710  0.6500 -0.0930 -0.7417
   10bbb     H6  299   2.139   7.046   3.672  0.2996 -0.3710  0.4494
   10bbb     C4  300   2.338   7.101   3.750 -0.3821 -0.2866 -0.1109
   10bbb     H7  301   2.373   7.008   3.798 -1.6535  0.9185  3.4252
   10bbb     H8  302   2.368   7.179   3.821  0.0776  0.1623 -0.7868
   10bbb     C5  303   1.925   7.243   3.978 -0.1477  0.9322 -0.0190
   10bbb     H9  304   1.967   7.338   3.945 -1.3788  0.9293 -1.7258
   10bbb    H10  305   1.966   7.222   4.077 -0.1961  0.5840 -0.0718
   10bbb     C6  306   2.108   6.835   3.885 -0.0003  0.4251  0.2533
   10bbb    H11  307   2.008   6.838   3.839  0.1202  0.9628  0.0174
   10bbb    H12  308   2.100   6.766   3.970 -1.1388 -0.0665 -0.2286
   10bbb     C7  309   2.412   7.130   3.621  0.5882 -0.4183 -0.2738
   10bbb    H13  310   2.515   7.145   3.653  0.0803 -0.6909  1.6202
   10bbb    H14  311   2.378   7.222   3.572  0.4591 -0.6643 -0.6601
   10bbb     C8  312   2.206   6.775   3.779 -0.1247 -0.2869  0.1161
   10bbb    H15  313   2.302   6.756   3.828 -0.2035  1.6524  1.1351
   10bbb    H16  314   2.224   6.852   3.703  0.1855 -0.6588 -0.1895
   10bbb     C9  315   1.767   7.255   3.999 -0.0706 -0.1273  0.2323
   10bbb    H17  316   1.740   7.310   4.090  3.7395  1.8177  0.3745
   10bbb    H18  317   1.719   7.157   4.011 -0.4734 -0.0056 -0.3058
   10bbb     O1  318   2.401   7.015   3.534  0.1229 -0.3716 -0.0182
   11bbb     N1  319   3.322   6.865   2.966 -0.0653 -0.0323 -0.9447
   11bbb     C1  320   3.408   6.896   2.852 -0.5636  0.0903 -0.1713
   11bbb     H1  321   3.479   6.974   2.883 -1.1204  1.8230 -2.8960
   11bbb     H2  322   3.354   6.947   2.771  1.0353  2.8035  0.3180
   11bbb     C2  323   3.380   6.824   3.098 -0.1301 -0.2040  0.1676
   11bbb     H3  324   3.401   6.716   3.095 -1.9694 -0.5780 -2.3638
   11bbb     H4  325   3.305   6.857   3.170 -2.5755 -1.6988 -1.5510
   11bbb     C3  326   3.198   6.792   2.932  0.5615 -0.2667 -0.0630
   11bbb     H5  327   3.132   6.795   3.021 -0.0080 -3.4799 -0.2630
   11bbb     H6  328   3.227   6.692   2.898 -0.7033 -0.7772  0.3035
   11bbb     C4  329   3.112   6.870   2.825  0.2117 -0.0130 -0.4261
   11bbb     H7  330   3.167   6.863   2.730  2.6710 -1.2869  0.9883
   11bbb     H8  331   3.110   6.971   2.866  2.8698 -0.5973  1.3757
   11bbb     C5  332   3.488   6.766   2.805 -0.0055 -0.3732  0.0346
   11bbb     H9  333   3.417   6.687   2.778 -1.7708  0.7260  1.3058
   11bbb    H10  334   3.550   6.715   2.880 -0.5116  0.6074  1.1395
   11bbb     C6  335   3.506   6.898   3.148  0.1599 -0.5952 -0.0661
   11bbb    H11  336   3.487   7.006   3.153 -0.5800 -0.7636  1.3620
   11bbb    H12  337   3.585   6.878   3.075  0.4633 -0.2633  0.1675
   11bbb     C7  338   2.968   6.810   2.800  0.9189  0.5747 -0.0072
   11bbb    H13  339   2.975   6.708   2.761 -1.5225  0.6712 -0.8469
   11bbb    H14  340   2.918   6.866   2.721  1.1551 -2.2339 -2.2866
   11bbb     C8  341   3.559   6.845   3.284  0.2766  0.1425 -0.6438
   11bbb    H15  342   3.473   6.847   3.352 -0.8890  0.8487 -2.0779
   11bbb    H16  343   3.639   6.911   3.316  2.4122 -1.6150 -2.0492
   11bbb     C9  344   3.580   6.803   2.691  0.6519 -0.4507 -0.2707
   11bbb    H17  345   3.516   6.869   2.632  0.5112  0.1139  0.4952
   11bbb    H18  346   3.625   6.724   2.630  1.4462  0.1392 -0.4516
   11bbb     O1  347   2.890   6.798   2.925  0.1011  0.2075 -0.0709
   12bbb     N1  348   3.399   5.909   2.543  0.0090  0.2395 -0.2949
   12bbb     C1  349   3.428   5.777   2.488  0.1027 -0.0965 -0.3835
   12bbb     H1  350   3.369   5.698   2.536 -0.0818  0.3254  0.0927
   12bbb     H2  351   3.536   5.756   2.491 -0.5227 -4.3306 -1.1741
   12bbb     C2  352   3.491   5.969   2.645 -0.1960 -0.4580  0.6034
   12bbb     H3  353   3.478   6.077   2.651  1.2154 -0.1623 -1.0694
   12bbb     H4  354   3.593   5.955   2.606 -0.5680  1.3280 -1.1322
   12bbb     C3  355   3.259   5.942   2.571  0.4852  0.1164 -0.2699
   12bbb     H5  356   3.238   5.900   2.670 -2.6110 -0.8980 -1.2408
   12bbb     H6  357   3.184   5.892   2.509  1.1255  0.0668 -1.0308
   12bbb     C4  358   3.215   6.090   2.573 -0.1618  0.3114 -0.1986
   12bbb     H7  359   3.272   6.162   2.513  2.4576 -0.1575  1.5635
   12bbb     H8  360   3.226   6.132   2.673  0.3504  2.5153 -1.1236
   12bbb     C5  361   3.389   5.757   2.336 -0.1584  0.5958  0.7688
   12bbb     H9  362   3.434   5.846   2.289 -0.0622  0.5586  0.7905
   12bbb    H10  363   3.283   5.777   2.322  0.1833  1.5423 -0.7035
   12bbb     C6  364   3.490   5.902   2.782 -0.5434  0.4093 -0.4606
   12bbb    H11  365   3.392   5.922   2.826 -0.8952 -1.1023 -0.4867
   12bbb    H12  366   3.571   5.959   2.830 -0.4018 -1.2293  1.3762
   12bbb     C7  367   3.070   6.105   2.537  0.8976  0.1491 -0.0637
   12bbb    H13  368   3.051   6.068   2.435 -2.2604  0.5809  0.2678
   12bbb    H14  369   3.039   6.210   2.533  0.2000 -0.0875 -2.1687
   12bbb     C8  370   3.535   5.752   2.784  0.1919  0.7784  0.7269
   12bbb    H15  371   3.595   5.739   2.693  0.5112  2.7745  0.6198
   12bbb    H16  372   3.453   5.685   2.755  2.0913 -1.9390  1.1838
   12bbb     C9  373   3.439   5.629   2.281  0.2658  0.7187  0.3407
   12bbb    H17  374   3.549   5.627   2.276  0.3272  1.8731  0.8388
   12bbb    H18  375   3.406   5.624   2.177 -1.4970  2.4084  0.7718
   12bbb     O1  376   2.992   6.044   2.640 -0.3242  0.4457 -0.4494
   13bbb     N1  377   2.034   5.630   2.951  0.2958  0.1497  0.4514
   13bbb     C1  378   1.908   5.553   2.957  0.0779 -0.8630  0.0623
   13bbb     H1  379   1.868   5.542   2.855 -0.2524 -0.7542  0.1785
   13bbb     H2  380   1.838   5.616   3.013 -0.4456 -2.0845  0.7997
   13bbb     C2  381   2.058   5.716   3.064 -0.0232 -0.1923  0.0626
   13bbb     H3  382   2.154   5.767   3.055 -0.5735  0.4540 -3.3095
   13bbb     H4  383   2.060   5.648   3.150 -0.4634 -1.0236 -0.5581
   13bbb     C3  384   2.067   5.677   2.818 -0.5626  0.2083 -0.0813
   13bbb     H5  385   2.162   5.731   2.829  0.9666 -1.9416 -1.7222
   13bbb     H6  386   1.985   5.743   2.789 -0.9751  0.4148  1.4531
   13bbb     C4  387   2.086   5.560   2.715 -0.3012 -0.7837  0.2039
   13bbb     H7  388   1.993   5.503   2.698  0.0224 -0.4619 -3.4072
   13bbb     H8  389   2.164   5.497   2.759  1.2065  1.3379  0.7136
   13bbb     C5  390   1.928   5.414   3.027 -0.1820 -0.1741  0.5177
   13bbb     H9  391   1.998   5.430   3.110 -1.1300 -1.4189  1.6073
   13bbb    H10  392   1.977   5.353   2.950  0.2895  0.4885  0.2876
   13bbb     C6  393   1.957   5.835   3.080 -0.0513  0.1054 -0.3525
   13bbb    H11  394   1.855   5.799   3.101  0.3305 -0.2532  1.0146
   13bbb    H12  395   1.974   5.895   2.990 -0.7114 -0.1281 -0.6456
   13bbb     C7  396   2.133   5.611   2.573 -0.1667  0.4743  0.2767
   13bbb    H13  397   2.045   5.649   2.520 -0.3595  0.5172  0.6226
   13bbb    H14  398   2.163   5.524   2.514  1.2527  0.3289  1.1672
   13bbb     C8  399   1.995   5.928   3.200  0.5079  0.5993 -0.3487
   13bbb    H15  400   1.910   5.995   3.221  0.1353  0.3476 -1.0198
   13bbb    H16  401   2.078   5.989   3.164  0.4010  1.1852  0.3576
   13bbb     C9  402   1.801   5.343   3.080 -0.3090  0.2308  0.5150
   13bbb    H17  403   1.822   5.258   3.145 -0.9054  0.2598  0.7583
   13bbb    H18  404   1.738   5.301   3.000 -0.3792  0.0929  0.6417
   13bbb     O1  405   2.236   5.711   2.586 -0.1373 -0.2112 -0.5096
   14bbb     N1  406   3.982   7.395   2.384 -0.3061 -0.2972  0.5661
   14bbb     C1  407   3.858   7.331   2.435  0.4560  0.6896 -0.5686
   14bbb     H1  408   3.809   7.400   2.506  0.2645 -0.3792  0.3672
   14bbb     H2  409   3.878   7.239   2.492  1.9493  1.8581  0.9123
   14bbb     C2  410   3.975   7.537   2.330  0.1978  0.5461 -0.0447
   14bbb     H3  411   3.894   7.534   2.255 -0.3769 -1.3274  0.5875
   14bbb     H4  412   4.064   7.571   2.277 -0.3115 -0.7233 -1.8155
   14bbb     C3  413   4.086   7.381   2.485 -0.2799 -0.4757  0.0640
   14bbb     H5  414   4.067   7.429   2.582 -0.6863 -0.1053 -0.1944
   14bbb     H6  415   4.181   7.430   2.459 -0.9297  0.8653  0.1341
   14bbb     C4  416   4.130   7.233   2.509  0.5084  0.5752 -0.0539
   14bbb     H7  417   4.159   7.196   2.410 -0.0956 -0.5960  0.1973
   14bbb     H8  418   4.046   7.173   2.545  3.3055 -2.7796  1.5325
   14bbb     C5  419   3.760   7.293   2.324  0.2179 -0.1870  0.5959
   14bbb     H9  420   3.819   7.235   2.251  0.4868  1.0572 -0.1991
   14bbb    H10  421   3.727   7.386   2.277 -0.6764 -0.9478 -0.3259
   14bbb     C6  422   3.918   7.638   2.432  0.0822  0.0191 -0.0508
   14bbb    H11  423   3.971   7.646   2.528 -2.4344  1.9026  1.3078
   14bbb    H12  424   3.813   7.621   2.458  1.2590 -2.7717  3.8919
   14bbb     C7  425   4.253   7.205   2.601  0.0958  0.2758  0.2755
   14bbb    H13  426   4.349   7.238   2.560 -0.2473 -1.1388 -1.8577
   14bbb    H14  427   4.265   7.096   2.601  0.1088  0.2366 -1.6430
   14bbb     C8  428   3.922   7.775   2.369  0.1894  0.0773  0.0168
   14bbb    H15  429   3.857   7.848   2.421 -1.4142 -0.3489 -1.3064
   14bbb    H16  430   3.872   7.771   2.272 -1.6129  1.0250  0.8473
   14bbb     C9  431   3.637   7.209   2.372 -0.7700  0.2225 -0.2846
   14bbb    H17  432   3.658   7.104   2.396  0.6310  0.4338 -0.5111
   14bbb    H18  433   3.564   7.207   2.290 -0.8759 -0.7365 -0.1731
   14bbb     O1  434   4.223   7.270   2.722  0.0846  0.4162  0.2119
   15bbb     N1  435   4.588   7.174   2.254 -0.3940 -0.0867 -0.1499
   15bbb     C1  436   4.732   7.150   2.289  0.0060  0.0423 -0.2151
   15bbb     H1  437   4.747   7.100   2.386 -0.7879  2.5940  1.3439
   15bbb     H2  438   4.788   7.245   2.289 -1.0649  0.7472 -2.4800
   15bbb     C2  439   4.500   7.056   2.240 -0.0407  0.1208 -0.3711
   15bbb     H3  440   4.527   6.990   2.156  0.7484 -0.3763  0.2556
   15bbb     H4  441   4.401   7.095   2.217  1.2205  5.3245  1.6434
   15bbb     C3  442   4.524   7.288   2.315  0.1700  0.4097 -0.4087
   15bbb     H5  443   4.526   7.282   2.424 -0.3150  1.5233 -0.3189
   15bbb     H6  444   4.418   7.280   2.286  0.2393 -0.6443 -0.4019
   15bbb     C4  445   4.590   7.427   2.275  0.6370  0.1826 -0.3416
   15bbb     H7  446   4.602   7.441   2.167  2.2982  1.9404  0.0175
   15bbb     H8  447   4.691   7.431   2.318  0.4898  0.9722 -0.0334
   15bbb     C5  448   4.803   7.067   2.174 -0.0629 -0.3587  0.3806
   15bbb     H9  449   4.772   7.124   2.086 -1.1713 -1.4857  0.0180
   15bbb    H10  450   4.758   6.968   2.163 -2.5360  0.8114 -0.6586
   15bbb     C6  451   4.485   6.970   2.366 -0.0172  0.2513  0.9660
   15bbb    H11  452   4.417   7.020   2.436  0.3117  1.0470  0.7227
   15bbb    H12  453   4.588   6.959   2.401  0.7525  0.8559 -0.9533
   15bbb     C7  454   4.516   7.543   2.322 -0.5819 -0.0977 -0.7335
   15bbb    H13  455   4.412   7.539   2.285 -0.6314 -0.1424 -0.5883
   15bbb    H14  456   4.570   7.629   2.279  2.2197 -0.9013  1.0175
   15bbb     C8  457   4.430   6.834   2.326 -0.5384 -0.4667 -0.7786
   15bbb    H15  458   4.497   6.780   2.258  1.0876  0.1614  0.2510
   15bbb    H16  459   4.334   6.854   2.278 -0.4196  2.4484  0.0138
   15bbb     C9  460   4.954   7.069   2.190 -0.2222 -0.3449 -0.0309
   15bbb    H17  461   5.001   7.014   2.107 -1.2692 -1.4525  0.0731
   15bbb    H18  462   4.966   7.013   2.284 -0.3734  0.7244  0.6354
   15bbb     O1  463   4.519   7.557   2.469 -0.3535 -0.0180 -0.6076
   16bbb     N1  464   5.228   6.425   3.888  0.2474  0.5402 -0.1566
   16bbb     C1  465   5.234   6.540   3.988  0.4929 -0.2102  0.8656
   16bbb     H1  466   5.190   6.624   3.933  2.3773 -1.1511 -2.3547
   16bbb     H2  467   5.342   6.558   3.996  0.7571  0.3867 -2.5685
   16bbb     C2  468   5.083   6.395   3.839 -0.1483 -0.1259  0.2157
   16bbb     H3  469   5.037   6.491   3.813 -0.1347  0.7962  3.2666
   16bbb     H4  470   5.033   6.347   3.923 -0.9946 -0.2318 -0.3358
   16bbb     C3  471   5.332   6.437   3.783 -0.6138 -0.1844 -0.9633
   16bbb     H5  472   5.329   6.352   3.714  1.2090 -1.0511 -0.0371
   16bbb     H6  473   5.428   6.435   3.836 -0.2971  0.7848 -1.4830
   16bbb     C4  474   5.324   6.563   3.694  0.5516  0.6472 -0.0733
   16bbb     H7  475   5.335   6.658   3.747 -0.2218  2.7325 -3.3637
   16bbb     H8  476   5.223   6.576   3.653  0.9337  1.2658 -0.8375
   16bbb     C5  477   5.169   6.526   4.121  0.6286  0.4345  0.2098
   16bbb     H9  478   5.200   6.432   4.170 -0.2972  0.6150  1.1696
   16bbb    H10  479   5.064   6.524   4.092  0.0804  0.4167  2.0670
   16bbb     C6  480   5.067   6.302   3.718  1.1957 -0.0899 -0.3389
   16bbb    H11  481   5.130   6.327   3.632 -1.1861  1.4174 -1.7359
   16bbb    H12  482   4.966   6.314   3.678  0.3288  0.0036  1.7403
   16bbb     C7  483   5.429   6.553   3.582  0.2120 -0.2889  0.5614
   16bbb    H13  484   5.412   6.466   3.517  2.0511 -0.9179  0.8700
   16bbb    H14  485   5.529   6.551   3.625  1.5831  2.7081 -2.0991
   16bbb     C8  486   5.098   6.153   3.773  0.1320  0.3667  0.2027
   16bbb    H15  487   5.032   6.120   3.854  1.6011 -1.8779  0.5864
   16bbb    H16  488   5.204   6.150   3.798  0.6823  0.7484 -1.8366
   16bbb     C9  489   5.189   6.646   4.209  0.0909 -0.4532 -0.2981
   16bbb    H17  490   5.113   6.643   4.288 -1.0360 -2.3769 -1.3862
   16bbb    H18  491   5.177   6.736   4.147 -0.9389 -0.9012 -0.7752
   16bbb     O1  492   5.415   6.674   3.506 -0.5167 -0.4668 -1.0382
   17bbb     N1  493   4.948   6.653   2.374  0.0629  0.9625  0.1709
   17bbb     C1  494   4.960   6.670   2.232  0.3998 -0.0563 -0.1094
   17bbb     H1  495   5.009   6.582   2.189 -1.3097 -0.2642 -1.7124
   17bbb     H2  496   5.011   6.760   2.196 -3.4549  1.7092 -1.6764
   17bbb     C2  497   4.867   6.754   2.451  0.0678 -0.6295 -0.1176
   17bbb     H3  498   4.769   6.777   2.408 -0.0844  2.1646  1.5064
   17bbb     H4  499   4.923   6.848   2.450  3.1541 -2.2799 -2.8836
   17bbb     C3  500   5.075   6.605   2.427 -0.5939  0.5078 -0.7353
   17bbb     H5  501   5.093   6.507   2.381  0.1334  0.7598 -1.0029
   17bbb     H6  502   5.073   6.600   2.536  0.3915  0.2363 -0.7204
   17bbb     C4  503   5.198   6.687   2.391 -0.1247  0.2086  0.1838
   17bbb     H7  504   5.200   6.792   2.423 -1.4663  0.1389  0.5781
   17bbb     H8  505   5.215   6.696   2.283  0.0436  2.6898  0.3525
   17bbb     C5  506   4.824   6.671   2.164  0.1497  0.3379 -0.0267
   17bbb     H9  507   4.769   6.761   2.192 -0.4319  0.0333 -0.1858
   17bbb    H10  508   4.764   6.589   2.206  0.0222 -0.2455 -1.2954
   17bbb     C6  509   4.828   6.712   2.592  0.8483  0.6402 -0.4885
   17bbb    H11  510   4.917   6.720   2.656  2.5486 -0.8679 -2.5101
   17bbb    H12  511   4.794   6.608   2.595 -2.2868  1.4817 -2.2985
   17bbb     C7  512   5.317   6.626   2.455  0.2622 -0.3314 -0.0769
   17bbb    H13  513   5.407   6.671   2.412  1.6789 -1.3316  1.7103
   17bbb    H14  514   5.315   6.517   2.446  0.6452 -0.3766  0.3699
   17bbb     C8  515   4.715   6.795   2.658  0.5899  0.6325  0.5631
   17bbb    H15  516   4.692   6.767   2.762 -0.3127 -1.0859 -0.0497
   17bbb    H16  517   4.622   6.775   2.602 -0.3014  1.6019  1.6539
   17bbb     C9  518   4.827   6.662   2.011 -0.1591 -0.5234  0.2661
   17bbb    H17  519   4.726   6.677   1.973 -0.2945 -1.4871  0.2353
   17bbb    H18  520   4.864   6.567   1.970 -1.9882 -1.6137  1.0173
   17bbb     O1  521   5.331   6.658   2.594 -0.1460 -0.2843  0.1230
   18bbb     N1  522   5.270   7.009   3.927 -0.0899  0.0726 -0.5507
   18bbb     C1  523   5.360   6.903   3.883 -0.3376 -0.0704  0.4398
   18bbb     H1  524   5.344   6.888   3.776  2.0837 -1.0453  0.1391
   18bbb     H2  525   5.344   6.805   3.931 -1.1916 -1.2910 -2.1702
   18bbb     C2  526   5.270   7.022   4.079  0.0011  0.3495 -0.4492
   18bbb     H3  527   5.363   6.992   4.128 -0.1179  1.0295  0.2065
   18bbb     H4  528   5.200   6.954   4.128  1.7014 -1.6514 -0.6419
   18bbb     C3  529   5.141   7.012   3.862 -0.2061  0.1334 -1.0266
   18bbb     H5  530   5.157   7.016   3.754  1.3301 -1.5017 -0.8996
   18bbb     H6  531   5.082   7.096   3.900 -0.9207 -0.0830 -1.6356
   18bbb     C4  532   5.064   6.882   3.881  0.0023 -0.1203 -0.0121
   18bbb     H7  533   5.057   6.848   3.985 -0.9895  0.3677  0.0921
   18bbb     H8  534   5.118   6.806   3.823  0.9010  2.5603 -3.0138
   18bbb     C5  535   5.513   6.929   3.904  0.6903 -0.1585 -0.4672
   18bbb     H9  536   5.532   6.950   4.010 -0.1630  1.5994 -0.6434
   18bbb    H10  537   5.543   7.021   3.853  0.1653 -0.1910 -0.8404
   18bbb     C6  538   5.245   7.168   4.124  0.0681 -0.2290 -0.3845
   18bbb    H11  539   5.162   7.204   4.063  0.3066  0.4644 -0.3148
   18bbb    H12  540   5.330   7.234   4.100 -0.8058  1.2247  0.3513
   18bbb     C7  541   4.917   6.889   3.834  0.4532 -0.8117  0.8740
   18bbb    H13  542   4.926   6.919   3.729  0.1632 -3.1676  0.1158
   18bbb    H14  543   4.869   6.969   3.892 -0.8197 -1.0027  0.1251
   18bbb     C8  544   5.206   7.171   4.276  0.0256  0.2612  0.6093
   18bbb    H15  545   5.196   7.275   4.311 -2.3876  1.0793 -2.0575
   18bbb    H16  546   5.284   7.113   4.325 -0.0821  1.1802  1.9104
   18bbb     C9  547   5.602   6.814   3.859 -0.3335 -0.7737  0.4967
   18bbb    H17  548   5.700   6.856   3.836 -1.0400  0.6082 -0.1044
   18bbb    H18  549   5.561   6.768   3.769 -0.5880 -0.4806  0.4609
   18bbb     O1  550   4.871   6.756   3.841  0.5559  0.1869  0.3005
   19bbb     N1  551   4.338   6.273   4.602 -0.1722  0.6286  0.0913
   19bbb     C1  552   4.309   6.180   4.490 -0.3569  0.2561  0.2495
   19bbb     H1  553   4.202   6.156   4.496 -1.1309  3.1527 -0.3308
   19bbb     H2  554   4.363   6.085   4.495 -0.2965  0.1424 -1.6277
   19bbb     C2  555   4.297   6.206   4.728 -0.6795  0.4174  0.1650
   19bbb     H3  556   4.352   6.112   4.720 -0.6219  0.6220 -2.8642
   19bbb     H4  557   4.189   6.189   4.732 -0.9393  1.0937 -2.3394
   19bbb     C3  558   4.467   6.352   4.595  0.0314  0.1002  0.1438
   19bbb     H5  559   4.468   6.428   4.675 -0.9317 -0.8981  1.1419
   19bbb     H6  560   4.458   6.408   4.501  2.1436  0.4390  0.1040
   19bbb     C4  561   4.594   6.263   4.612 -0.6597 -0.2515 -0.0182
   19bbb     H7  562   4.590   6.166   4.561 -0.6149 -0.1611 -0.1953
   19bbb     H8  563   4.586   6.244   4.720 -2.3934 -1.5079 -0.3083
   19bbb     C5  564   4.324   6.240   4.347  0.0108  0.3120 -0.0268
   19bbb     H9  565   4.430   6.268   4.336  0.1538 -0.0465  0.4173
   19bbb    H10  566   4.268   6.334   4.341  0.2104  0.4102 -0.4340
   19bbb     C6  567   4.334   6.286   4.861 -0.7962  0.1930 -0.3628
   19bbb    H11  568   4.286   6.384   4.860 -0.6368  0.2748 -0.1539
   19bbb    H12  569   4.442   6.307   4.868 -1.0081  0.8573  1.0364
   19bbb     C7  570   4.731   6.336   4.585 -0.2625  0.9143  0.1042
   19bbb    H13  571   4.812   6.266   4.606  1.0818  2.0965 -0.9613
   19bbb    H14  572   4.750   6.417   4.657  0.4619 -0.3531  1.3955
   19bbb     C8  573   4.294   6.203   4.988 -0.6743 -0.6638  0.0568
   19bbb    H15  574   4.299   6.264   5.079  0.4338 -1.2853  0.4390
   19bbb    H16  575   4.360   6.115   4.991  1.0072  0.5323 -0.1165
   19bbb     C9  576   4.293   6.148   4.224  0.0119  0.6121 -0.1165
   19bbb    H17  577   4.321   6.197   4.129  0.9005 -0.6168 -0.5118
   19bbb    H18  578   4.186   6.127   4.216 -0.1352  1.0321  0.6320
   19bbb     O1  579   4.743   6.362   4.443  0.0190  0.5943 -0.5494
   20bbb     N1  580   3.228   5.901   3.751  0.2820 -0.4797  0.0766
   20bbb     C1  581   3.188   5.840   3.883  0.9227 -0.2893  0.0039
   20bbb     H1  582   3.080   5.821   3.881  1.0649 -1.1526 -0.2767
   20bbb     H2  583   3.215   5.911   3.962  2.2436 -0.6520 -0.0830
   20bbb     C2  584   3.147   6.025   3.728  0.0047  0.2916 -0.2343
   20bbb     H3  585   3.215   6.095   3.677  1.4436 -1.6941 -1.1716
   20bbb     H4  586   3.125   6.055   3.831  1.7009 -1.1085  0.5941
   20bbb     C3  587   3.377   5.917   3.735 -1.2834 -0.5204 -0.0670
   20bbb     H5  588   3.396   5.950   3.632 -0.9196 -0.0429  0.1491
   20bbb     H6  589   3.430   5.821   3.740  1.1417  0.7761  0.5611
   20bbb     C4  590   3.446   6.013   3.836 -0.9301 -0.1724  0.2517
   20bbb     H7  591   3.433   5.986   3.941 -0.5754  2.1688  0.9513
   20bbb     H8  592   3.402   6.113   3.827 -1.6764 -0.4406  0.8550
   20bbb     C5  593   3.247   5.703   3.911 -0.5132  0.6549 -0.3441
   20bbb     H9  594   3.355   5.704   3.896 -0.2933  2.2415  1.1142
   20bbb    H10  595   3.199   5.631   3.843 -0.8056 -0.3361  0.8499
   20bbb     C6  596   3.012   5.998   3.654  0.1771 -0.2987  0.7046
   20bbb    H11  597   2.966   5.906   3.691  0.2099 -0.1347  1.1492
   20bbb    H12  598   3.043   5.974   3.551 -0.5851 -0.7206  0.5645
   20bbb     C7  599   3.593   6.029   3.805  0.1748 -0.0141 -0.0977
   20bbb    H13  600   3.635   6.113   3.863  0.3836 -1.2127  1.5549
   20bbb    H14  601   3.611   6.041   3.698  1.0343  0.6966  0.1115
   20bbb     C8  602   2.909   6.116   3.658  0.0380  0.3058 -0.1834
   20bbb    H15  603   2.970   6.207   3.661 -0.2056  0.5002 -0.8927
   20bbb    H16  604   2.851   6.128   3.750 -0.0961  0.9854 -0.3474
   20bbb     C9  605   3.214   5.648   4.058 -0.3610 -0.3336  0.3490
   20bbb    H17  606   3.257   5.720   4.128 -1.3168 -0.4505  1.0896
   20bbb    H18  607   3.264   5.551   4.070  0.7020  0.2272  0.5583
   20bbb     O1  608   3.653   5.910   3.834  0.0304 -0.8467  0.0886
   21bbb     N1  609   3.773   5.026   3.000 -0.3625  0.1169 -0.4272
   21bbb     C1  610   3.835   4.900   3.045  0.2638  0.3846 -0.0345
   21bbb     H1  611   3.759   4.823   3.024  0.0718  0.1595  1.3544
   21bbb     H2  612   3.850   4.903   3.154  1.6717 -0.5549 -0.1762
   21bbb     C2  613   3.713   5.018   2.858  0.2754  0.6899  0.1068
   21bbb     H3  614   3.631   4.945   2.855  0.8813  0.0393 -1.6772
   21bbb     H4  615   3.789   4.983   2.787  0.1456  0.8994 -0.1383
   21bbb     C3  616   3.695   5.101   3.103 -0.4020  0.2665  0.2391
   21bbb     H5  617   3.619   5.038   3.150 -1.1978  0.1305 -1.1765
   21bbb     H6  618   3.646   5.188   3.058  0.1004 -0.1111 -1.1016
   21bbb     C4  619   3.773   5.159   3.219 -0.0786  1.0412  0.4192
   21bbb     H7  620   3.847   5.233   3.184  1.6803 -0.0686  1.6186
   21bbb     H8  621   3.837   5.079   3.259 -0.4035 -0.5244 -1.9561
   21bbb     C5  622   3.973   4.868   2.979  0.7543 -0.2781  0.0253
   21bbb     H9  623   4.037   4.953   3.006 -1.3026  1.8858 -1.4469
   21bbb    H10  624   3.959   4.873   2.871 -0.6490 -0.6618  0.1720
   21bbb     C6  625   3.654   5.151   2.805  0.2586  0.9626  0.3208
   21bbb    H11  626   3.558   5.179   2.850 -0.5836  2.1161 -1.9925
   21bbb    H12  627   3.633   5.139   2.698 -2.6151  0.4484  0.8591
   21bbb     C7  628   3.686   5.211   3.325 -0.8501 -0.0003  0.4891
   21bbb    H13  629   3.759   5.225   3.406 -0.5952  1.8557 -0.0084
   21bbb    H14  630   3.611   5.133   3.343 -0.7445 -0.0817  0.5766
   21bbb     C8  631   3.754   5.267   2.806 -0.1415 -0.0765 -0.2565
   21bbb    H15  632   3.770   5.298   2.910  0.2724  2.8793 -1.1289
   21bbb    H16  633   3.716   5.354   2.752  0.1083 -0.3275 -0.8466
   21bbb     C9  634   4.012   4.715   3.003 -0.5278 -0.1512 -0.6982
   21bbb    H17  635   3.937   4.648   2.958 -0.5308 -0.2637 -0.5287
   21bbb    H18  636   4.014   4.681   3.107  2.1473 -2.5523 -1.4066
   21bbb     O1  637   3.628   5.338   3.274 -0.3664  0.5843  0.5934
   22bbb     N1  638   2.555   6.452   3.803 -0.4063  0.1028  0.5001
   22bbb     C1  639   2.668   6.351   3.812  0.2208  0.0253 -0.7101
   22bbb     H1  640   2.754   6.378   3.749  1.1460 -0.9683  0.0912
   22bbb     H2  641   2.626   6.257   3.777 -0.4880  0.9243 -2.3993
   22bbb     C2  642   2.590   6.594   3.840  0.4420 -0.2049 -0.1832
   22bbb     H3  643   2.623   6.593   3.945 -0.7363 -1.3207  0.2044
   22bbb     H4  644   2.501   6.658   3.832 -0.1513 -1.1005 -0.9113
   22bbb     C3  645   2.484   6.442   3.677  0.3649  0.9130  0.0533
   22bbb     H5  646   2.436   6.345   3.659  1.1093  0.7475 -1.1789
   22bbb     H6  647   2.558   6.462   3.598 -0.9574 -0.9942 -1.7623
   22bbb     C4  648   2.366   6.544   3.648 -0.1617  0.3083  0.1508
   22bbb     H7  649   2.336   6.522   3.544  0.1103  3.0999 -0.5946
   22bbb     H8  650   2.410   6.644   3.640  1.7651 -0.6295 -3.0854
   22bbb     C5  651   2.714   6.334   3.958 -0.1879  0.4016  0.2112
   22bbb     H9  652   2.630   6.338   4.029  1.7438  0.0289  2.6829
   22bbb    H10  653   2.757   6.430   3.988 -0.1108  0.4162  0.0522
   22bbb     C6  654   2.703   6.657   3.756  0.2928 -0.6060  0.3878
   22bbb    H11  655   2.692   6.635   3.649 -1.9563 -3.5904  1.1030
   22bbb    H12  656   2.793   6.614   3.801  0.9640 -0.7124 -1.0083
   22bbb     C7  657   2.244   6.533   3.736 -0.2930 -0.6217  0.4256
   22bbb    H13  658   2.261   6.511   3.843 -2.9800 -0.8393  0.8639
   22bbb    H14  659   2.186   6.447   3.700 -0.6788  0.5148 -1.7948
   22bbb     C8  660   2.705   6.810   3.771  0.4748  0.3098 -0.0176
   22bbb    H15  661   2.722   6.854   3.870 -0.7050 -0.6180  0.6314
   22bbb    H16  662   2.611   6.856   3.739  1.0293  1.8112  0.4620
   22bbb     C9  663   2.811   6.214   3.985  0.1231 -0.0076 -0.7710
   22bbb    H17  664   2.844   6.234   4.088  1.1488  0.4099 -1.1658
   22bbb    H18  665   2.899   6.208   3.919  0.1897  3.4429 -1.1914
   22bbb     O1  666   2.157   6.648   3.725 -0.0904  0.1996  0.4943
   23bbb     N1  667   1.327   7.487   3.617 -0.6245  0.1197 -0.0412
   23bbb     C1  668   1.354   7.427   3.487 -0.3210 -0.1672  0.5413
   23bbb     H1  669   1.462   7.422   3.469  0.0144  2.4814  1.3347
   23bbb     H2  670   1.309   7.488   3.408  0.3406 -0.9202 -0.4495
   23bbb     C2  671   1.366   7.634   3.607  0.7509 -0.8010 -1.4010
   23bbb     H3  672   1.323   7.672   3.514 -0.0395 -0.9083 -1.0901
   23bbb     H4  673   1.475   7.629   3.599  0.9883 -3.2177  1.5341
   23bbb     C3  674   1.372   7.412   3.736  0.0629  0.5206  0.0563
   23bbb     H5  675   1.342   7.307   3.737  1.3101  0.1425  0.3763
   23bbb     H6  676   1.330   7.454   3.829 -0.9981  1.7978 -0.9574
   23bbb     C4  677   1.528   7.415   3.748 -0.9974  0.7233 -0.4865
   23bbb     H7  678   1.572   7.515   3.752  1.2540 -0.2170  0.2184
   23bbb     H8  679   1.567   7.362   3.660 -0.5561  1.6179 -0.8468
   23bbb     C5  680   1.282   7.292   3.467 -0.6386 -0.0357  0.6126
   23bbb     H9  681   1.173   7.310   3.463 -0.5337  0.6439  0.6855
   23bbb    H10  682   1.297   7.233   3.558 -0.5825 -0.4022  0.3706
   23bbb     C6  683   1.320   7.724   3.721 -0.4609  0.1850  0.1584
   23bbb    H11  684   1.360   7.676   3.811 -0.0442  0.7076  0.2552
   23bbb    H12  685   1.210   7.726   3.729 -0.5022 -0.9500  0.0920
   23bbb     C7  686   1.570   7.350   3.887 -0.1496  0.3507 -0.0839
   23bbb    H13  687   1.524   7.251   3.884  0.6006  0.0316 -1.6170
   23bbb    H14  688   1.527   7.413   3.967 -2.0487  0.6560 -1.2704
   23bbb     C8  689   1.368   7.871   3.711  0.8501  0.4246 -0.3610
   23bbb    H15  690   1.344   7.928   3.802  1.1520  0.5244 -0.3411
   23bbb    H16  691   1.325   7.925   3.626 -0.2867 -0.7862 -0.5852
   23bbb     C9  692   1.341   7.212   3.347  0.2029 -0.0915 -0.6811
   23bbb    H17  693   1.448   7.188   3.349  0.3411  0.5536  0.9439
   23bbb    H18  694   1.335   7.277   3.259 -1.0222 -0.3045 -0.7804
   23bbb     O1  695   1.711   7.333   3.892 -0.0217 -0.1206  0.3422
   24bbb     N1  696   4.071   6.565   3.304 -0.3493 -0.4181 -0.5829
   24bbb     C1  697   4.091   6.661   3.421 -0.1008 -0.4999 -0.5996
   24bbb     H1  698   4.159   6.617   3.495  0.1295 -1.1360 -1.1889
   24bbb     H2  699   4.005   6.676   3.488 -0.6535  0.0656 -1.4278
   24bbb     C2  700   4.187   6.540   3.223 -0.1101  0.3478  0.4617
   24bbb     H3  701   4.205   6.624   3.154  0.0695 -1.2567 -1.5632
   24bbb     H4  702   4.165   6.454   3.159 -0.3694  0.5333  0.2969
   24bbb     C3  703   3.965   6.604   3.214  0.3635  0.3657  0.1178
   24bbb     H5  704   3.956   6.524   3.140  1.6359  0.6676 -0.3920
   24bbb     H6  705   3.996   6.687   3.150 -3.3451  1.7119 -0.1784
   24bbb     C4  706   3.831   6.636   3.287  0.2995  0.0354  0.0034
   24bbb     H7  707   3.858   6.716   3.357  2.0305 -0.3410 -0.1824
   24bbb     H8  708   3.800   6.552   3.349  0.0970 -0.8143 -1.2083
   24bbb     C5  709   4.149   6.801   3.389 -0.7168 -0.0797 -0.4676
   24bbb     H9  710   4.120   6.833   3.289  1.5414  0.8862 -0.8835
   24bbb    H10  711   4.258   6.789   3.377 -0.5860 -2.1290  1.9021
   24bbb     C6  712   4.316   6.505   3.305  0.0212 -0.3152  0.3082
   24bbb    H11  713   4.293   6.412   3.358  0.1985 -1.0389 -0.8683
   24bbb    H12  714   4.359   6.581   3.372  0.9431 -0.2306 -0.3648
   24bbb     C7  715   3.725   6.694   3.194  0.5942  0.2400  0.0508
   24bbb    H13  716   3.717   6.614   3.119 -0.7395 -0.6526  1.1008
   24bbb    H14  717   3.762   6.793   3.165 -0.6296  0.8005  0.3434
   24bbb     C8  718   4.424   6.471   3.201 -1.0903  0.1595 -0.9838
   24bbb    H15  719   4.415   6.534   3.111  2.3191  1.4968 -0.5641
   24bbb    H16  720   4.411   6.368   3.165 -0.2254  0.0589 -1.0512
   24bbb     C9  721   4.116   6.904   3.503 -0.2822 -0.2228  0.6045
   24bbb    H17  722   4.131   6.859   3.602  0.7464 -1.0920  0.0733
   24bbb    H18  723   4.012   6.935   3.486  0.7461  2.8293 -0.8519
   24bbb     O1  724   3.601   6.705   3.270  0.0258  0.3022  0.4596
   25bbb     N1  725   3.877   7.230   2.936  0.0741  0.2251 -0.6403
   25bbb     C1  726   3.795   7.201   3.057 -0.1066  0.4139 -0.3280
   25bbb     H1  727   3.690   7.175   3.040 -0.5338  0.2809  2.0860
   25bbb     H2  728   3.795   7.294   3.116  0.7281  0.2434 -0.0374
   25bbb     C2  729   3.844   7.346   2.859 -0.1031 -0.4323  0.6557
   25bbb     H3  730   3.739   7.343   2.830  0.2767 -0.6729 -0.7833
   25bbb     H4  731   3.914   7.347   2.774  0.5016 -2.4787  1.0511
   25bbb     C3  732   3.891   7.119   2.844 -0.5751 -0.2121  0.0325
   25bbb     H5  733   3.918   7.027   2.898  0.2762  0.3731  0.6171
   25bbb     H6  734   3.976   7.142   2.779 -1.1671 -0.3424 -0.8061
   25bbb     C4  735   3.760   7.095   2.762  0.0267  0.1189 -0.0537
   25bbb     H7  736   3.745   7.175   2.689  0.1796 -0.8019 -1.1105
   25bbb     H8  737   3.674   7.093   2.830  0.5326  0.4617  0.6108
   25bbb     C5  738   3.844   7.081   3.149  0.2183 -0.3309 -0.1196
   25bbb     H9  739   3.844   6.984   3.099  1.3602 -0.0014 -0.7926
   25bbb    H10  740   3.782   7.084   3.239  0.9521 -0.8222  0.4167
   25bbb     C6  741   3.869   7.480   2.930  0.1631 -0.4999 -0.2147
   25bbb    H11  742   3.971   7.491   2.968 -0.3272 -0.3690  1.1175
   25bbb    H12  743   3.794   7.496   3.009 -0.0478  1.3237 -0.7479
   25bbb     C7  744   3.758   6.970   2.676 -0.3990  0.2389  0.3957
   25bbb    H13  745   3.861   6.934   2.662 -0.0977  1.4537 -0.7078
   25bbb    H14  746   3.710   6.980   2.578 -0.9103  1.0686  0.7272
   25bbb     C8  747   3.848   7.592   2.823 -0.4059  0.9313  0.2026
   25bbb    H15  748   3.884   7.567   2.722 -1.4622  2.4980 -0.5984
   25bbb    H16  749   3.904   7.682   2.849  0.2775  0.7090 -0.4526
   25bbb     C9  750   3.985   7.108   3.209 -0.5974  0.6430  0.2738
   25bbb    H17  751   4.056   7.084   3.129 -2.4023 -4.1496 -0.2504
   25bbb    H18  752   4.003   7.028   3.283  1.1201 -0.3522 -1.1357
   25bbb     O1  753   3.684   6.882   2.759  0.2248  0.0566  0.7832
   26bbb     N1  754   3.992   5.593   3.062  0.0976  0.3824  0.2212
   26bbb     C1  755   4.118   5.577   2.983 -0.3107  0.3169  0.2930
   26bbb     H1  756   4.122   5.653   2.904  1.2019  0.8599  0.8584
   26bbb     H2  757   4.117   5.477   2.938  1.1119  0.5521 -0.3080
   26bbb     C2  758   3.987   5.698   3.165  0.3900  0.4778  0.2663
   26bbb     H3  759   4.061   5.658   3.235  2.4216  0.4985 -1.7523
   26bbb     H4  760   3.890   5.700   3.215 -0.8631  1.0410 -2.0581
   26bbb     C3  761   3.874   5.579   2.973 -0.2536 -0.2253 -0.0856
   26bbb     H5  762   3.896   5.504   2.896  1.9787  0.8354 -0.5541
   26bbb     H6  763   3.861   5.671   2.916 -0.0440 -0.6616 -0.8469
   26bbb     C4  764   3.734   5.562   3.032  0.3386 -0.1262  0.1223
   26bbb     H7  765   3.718   5.614   3.127  0.7454 -1.6094  1.0417
   26bbb     H8  766   3.722   5.458   3.065  0.3270 -0.5409 -1.1353
   26bbb     C5  767   4.248   5.579   3.075 -0.6672  0.2258  0.8614
   26bbb     H9  768   4.234   5.492   3.140 -1.5507 -0.7645 -0.5980
   26bbb    H10  769   4.249   5.674   3.129  0.4502  0.9713 -0.4044
   26bbb     C6  770   4.015   5.835   3.112  0.8671  0.3707  0.0417
   26bbb    H11  771   3.985   5.834   3.007  1.0798 -1.6266 -0.0374
   26bbb    H12  772   4.124   5.843   3.115  0.9316 -0.1621 -0.6681
   26bbb     C7  773   3.618   5.583   2.933 -0.4547 -0.0864 -0.4280
   26bbb    H13  774   3.533   5.540   2.987  0.3941 -1.0133  0.1954
   26bbb    H14  775   3.630   5.535   2.835  1.2906  3.0723 -1.9060
   26bbb     C8  776   3.962   5.952   3.203 -0.5173  0.2004  0.3344
   26bbb    H15  777   3.983   6.043   3.145 -0.8348 -0.0114 -0.1214
   26bbb    H16  778   4.019   5.967   3.296  1.1880  3.0111 -1.0080
   26bbb     C9  779   4.377   5.557   2.986 -0.2733  0.3926  0.1217
   26bbb    H17  780   4.377   5.635   2.909  0.4726 -1.2962 -1.6403
   26bbb    H18  781   4.374   5.461   2.934 -1.4846  0.0396  0.7979
   26bbb     O1  782   3.595   5.717   2.907 -0.3538  0.1958 -0.0559
   27bbb     N1  783   3.360   5.165   2.599  0.4032 -1.2274  0.2020
   27bbb     C1  784   3.388   5.028   2.559 -0.0983 -0.4181  0.2344
   27bbb     H1  785   3.497   5.018   2.553  0.0085  0.1418  1.1143
   27bbb     H2  786   3.354   5.007   2.456  0.6624 -1.1359  0.1191
   27bbb     C2  787   3.215   5.194   2.626  0.1942  0.4014 -0.2889
   27bbb     H3  788   3.173   5.121   2.697  1.8668 -0.3202  0.0094
   27bbb     H4  789   3.163   5.186   2.530 -0.0359  1.7343 -0.2935
   27bbb     C3  790   3.429   5.273   2.517  0.1095 -0.1595  0.0968
   27bbb     H5  791   3.534   5.243   2.531 -0.2569 -1.4781  0.2230
   27bbb     H6  792   3.417   5.371   2.564  0.9435  0.4662 -0.9223
   27bbb     C4  793   3.393   5.273   2.367 -0.3391 -0.4369 -0.6302
   27bbb     H7  794   3.285   5.266   2.356 -0.3109 -1.3461 -0.4363
   27bbb     H8  795   3.429   5.180   2.321 -1.5846 -2.3482  1.9821
   27bbb     C5  796   3.340   4.916   2.665  0.2824 -1.0015  0.3830
   27bbb     H9  797   3.232   4.909   2.686  0.3485 -0.5611  0.8836
   27bbb    H10  798   3.395   4.929   2.759 -0.5845  0.3008  0.7332
   27bbb     C6  799   3.163   5.334   2.679  0.0242  0.2116  0.1154
   27bbb    H11  800   3.055   5.327   2.696  0.1287 -0.5197  0.5253
   27bbb    H12  801   3.168   5.407   2.598 -4.0584 -0.2454 -0.7563
   27bbb     C7  802   3.448   5.394   2.301 -0.0254 -0.2371  0.5055
   27bbb    H13  803   3.418   5.392   2.195  0.7866  1.6790  0.1862
   27bbb    H14  804   3.557   5.405   2.307 -0.2741  3.2311  1.1956
   27bbb     C8  805   3.246   5.390   2.793  0.5689  0.0018  0.3912
   27bbb    H15  806   3.212   5.489   2.825  0.4143 -0.7174  2.6384
   27bbb    H16  807   3.352   5.392   2.765  0.6267 -3.1258 -0.0289
   27bbb     C9  808   3.376   4.777   2.606  0.7520  0.0780  0.4652
   27bbb    H17  809   3.332   4.764   2.506  2.7116  0.2477 -0.4681
   27bbb    H18  810   3.331   4.695   2.664  1.7706 -2.2735 -1.8556
   27bbb     O1  811   3.396   5.519   2.359  0.1717 -0.2061  0.4522
   28bbb     N1  812   2.108   6.040   3.720  0.2814 -0.0110 -0.0027
   28bbb     C1  813   2.203   6.121   3.797 -0.2929 -0.3227 -0.0513
   28bbb     H1  814   2.153   6.203   3.849  0.1452 -0.7875  1.1485
   28bbb     H2  815   2.277   6.165   3.729 -1.3454 -1.0201 -1.7171
   28bbb     C2  816   1.970   6.016   3.774  0.2274 -0.2750  0.5279
   28bbb     H3  817   1.979   5.958   3.867  0.4311  2.1213  2.0892
   28bbb     H4  818   1.908   5.953   3.708 -1.5173  2.4809 -0.6169
   28bbb     C3  819   2.171   5.911   3.658 -0.3573 -0.3523 -0.4326
   28bbb     H5  820   2.192   5.832   3.732 -0.5187  0.6112  0.6527
   28bbb     H6  821   2.272   5.923   3.617 -0.3735  0.1362 -0.3329
   28bbb     C4  822   2.091   5.842   3.553 -0.0132 -0.3853 -0.2749
   28bbb     H7  823   1.992   5.809   3.588  0.1573 -2.1678 -1.3509
   28bbb     H8  824   2.138   5.749   3.519 -0.2579 -0.7529  0.3828
   28bbb     C5  825   2.287   6.046   3.902  0.0114 -0.3173 -0.3042
   28bbb     H9  826   2.347   5.969   3.854  0.4494  0.2725 -0.7170
   28bbb    H10  827   2.222   5.990   3.970  1.7857 -2.7231 -0.4794
   28bbb     C6  828   1.880   6.146   3.794 -0.9916  0.0556 -0.5661
   28bbb    H11  829   1.920   6.182   3.890 -1.9423 -1.2088  0.3443
   28bbb    H12  830   1.772   6.128   3.804 -1.2081  0.6670 -1.7674
   28bbb     C7  831   2.073   5.933   3.429 -0.1139  1.0031  0.2505
   28bbb    H13  832   2.175   5.964   3.405  1.0545 -1.6283  1.4820
   28bbb    H14  833   2.010   6.018   3.458 -0.5548 -0.0876  2.7377
   28bbb     C8  834   1.890   6.252   3.675 -0.0728 -0.1470  0.0986
   28bbb    H15  835   1.864   6.198   3.582  0.6221  0.7826 -0.6480
   28bbb    H16  836   1.992   6.290   3.667 -0.3325  0.6530  0.5449
   28bbb     C9  837   2.378   6.149   3.988 -0.2411  0.1457  0.3989
   28bbb    H17  838   2.470   6.173   3.934  0.5664 -2.1442  0.6471
   28bbb    H18  839   2.413   6.093   4.075  1.6898  1.9346  0.8393
   28bbb     O1  840   2.032   5.846   3.319  0.5621 -0.6924  0.6356
   29bbb     N1  841   1.572   5.698   3.490  1.0084  0.4473  0.3889
   29bbb     C1  842   1.639   5.729   3.617  0.1280 -0.3766 -0.4953
   29bbb     H1  843   1.737   5.779   3.610 -1.0151  1.9053 -1.2492
   29bbb     H2  844   1.658   5.642   3.681  1.2553 -0.2045 -0.5730
   29bbb     C2  845   1.539   5.817   3.406 -0.0783  0.5550  0.6023
   29bbb     H3  846   1.468   5.875   3.465  1.6949  0.3877  3.0427
   29bbb     H4  847   1.490   5.797   3.309 -0.2353 -0.7332  0.9200
   29bbb     C3  848   1.639   5.578   3.430 -0.1007  0.2436  0.1265
   29bbb     H5  849   1.670   5.501   3.501  0.4251  0.1715 -0.1744
   29bbb     H6  850   1.736   5.606   3.386  0.2673 -0.6783  0.3419
   29bbb     C4  851   1.562   5.526   3.303 -0.3609  0.1062  0.5204
   29bbb     H7  852   1.545   5.607   3.231 -0.5288  0.5305  1.0271
   29bbb     H8  853   1.463   5.495   3.341 -0.3823  0.4758  0.7695
   29bbb     C5  854   1.548   5.819   3.706 -0.4579 -0.6393 -0.7652
   29bbb     H9  855   1.545   5.920   3.663 -0.8544  0.3357  1.3650
   29bbb    H10  856   1.595   5.827   3.805 -1.5531  0.5936 -0.3074
   29bbb     C6  857   1.671   5.901   3.371 -0.3316 -0.1678  0.3012
   29bbb    H11  858   1.737   5.841   3.307 -0.3557  0.1459 -0.0196
   29bbb    H12  859   1.722   5.937   3.461  1.3992  1.2200 -1.1755
   29bbb     C7  860   1.620   5.403   3.240  0.3340 -0.2033  0.6137
   29bbb    H13  861   1.542   5.356   3.179 -0.3624  2.7404 -0.9800
   29bbb    H14  862   1.656   5.331   3.315  0.2111 -0.4760  0.4115
   29bbb     C8  863   1.639   6.024   3.290  0.4454 -0.9893  0.1415
   29bbb    H15  864   1.589   5.983   3.202  0.1121 -0.6664  0.1813
   29bbb    H16  865   1.723   6.090   3.265 -1.0681  1.9691  2.2049
   29bbb     C9  866   1.406   5.783   3.743 -0.4531 -0.3405 -0.4401
   29bbb    H17  867   1.353   5.763   3.649 -1.4729 -0.2047  0.0846
   29bbb    H18  868   1.359   5.861   3.805 -0.9669 -0.7558 -0.2937
   29bbb     O1  869   1.726   5.449   3.152  0.5682  0.7251  0.3824
   30bbb     N1  870   4.404   7.914   2.101  0.3186  0.1398  0.2524
   30bbb     C1  871   4.408   7.831   1.978 -0.6588  0.0669 -0.0879
   30bbb     H1  872   4.473   7.883   1.907 -0.7521 -1.3688 -1.2697
   30bbb     H2  873   4.304   7.828   1.944 -0.4859  0.9257 -0.7072
   30bbb     C2  874   4.532   7.960   2.144 -0.3066 -0.1245  0.1185
   30bbb     H3  875   4.600   7.990   2.064  0.4115  0.7916  1.0467
   30bbb     H4  876   4.585   7.883   2.202  1.0877  0.2913 -0.5724
   30bbb     C3  877   4.306   7.876   2.213 -0.5193  0.7860 -0.3936
   30bbb     H5  878   4.343   7.894   2.314 -2.9152  2.1717  0.3198
   30bbb     H6  879   4.293   7.768   2.204  1.1412  0.3754  1.5956
   30bbb     C4  880   4.178   7.951   2.180  0.5766 -0.6644  0.1945
   30bbb     H7  881   4.128   7.907   2.093 -1.9197  1.2771  0.5262
   30bbb     H8  882   4.208   8.048   2.138  1.8620 -0.4076  1.5952
   30bbb     C5  883   4.450   7.685   1.999  0.2369  0.5035  0.9606
   30bbb     H9  884   4.380   7.622   2.055  1.9419 -3.9709 -1.4184
   30bbb    H10  885   4.547   7.679   2.049  0.6019 -0.0007  0.2115
   30bbb     C6  886   4.516   8.087   2.229  0.2622 -0.3757 -0.6097
   30bbb    H11  887   4.466   8.062   2.324 -1.3537 -0.1362 -1.3764
   30bbb    H12  888   4.448   8.159   2.183  1.5549  0.2250 -1.6504
   30bbb     C7  889   4.068   7.956   2.293 -0.2507  0.2572  0.2661
   30bbb    H13  890   3.971   7.985   2.251 -1.0692 -0.0939  1.8509
   30bbb    H14  891   4.083   8.030   2.372 -2.0273  0.5344  0.3912
   30bbb     C8  892   4.650   8.152   2.273  0.5007 -0.4135 -0.5833
   30bbb    H15  893   4.609   8.224   2.345 -0.9584  0.7789 -2.4978
   30bbb    H16  894   4.694   8.215   2.195 -1.0968 -0.2702 -1.4218
   30bbb     C9  895   4.481   7.608   1.866  0.2292 -0.1861  0.5119
   30bbb    H17  896   4.392   7.609   1.802  0.6671 -3.8120 -0.3745
   30bbb    H18  897   4.499   7.502   1.887 -0.9082 -0.1805  1.6712
   30bbb     O1  898   4.056   7.832   2.362 -0.0421  0.2880  0.1495
   31bbb     N1  899   3.175   7.328   2.548 -0.6736  0.4358 -0.6155
   31bbb     C1  900   3.090   7.250   2.638 -0.2813 -0.1336 -0.1811
   31bbb     H1  901   3.159   7.193   2.701  0.5624 -0.8104 -1.6656
   31bbb     H2  902   3.034   7.177   2.579 -1.9855  1.1653 -0.2586
   31bbb     C2  903   3.099   7.407   2.451  0.4568  0.0995 -0.1265
   31bbb     H3  904   3.046   7.491   2.497  0.9146 -0.3237  1.2383
   31bbb     H4  905   3.029   7.336   2.404  1.6057  0.7258 -2.9726
   31bbb     C3  906   3.288   7.394   2.615  0.0993 -0.0209  0.3025
   31bbb     H5  907   3.261   7.439   2.711 -0.0160  1.4511 -0.4003
   31bbb     H6  908   3.341   7.472   2.560  1.9787 -0.6238  1.1459
   31bbb     C4  909   3.404   7.296   2.653  0.3337  0.3268  0.0740
   31bbb     H7  910   3.366   7.237   2.737 -2.9250  0.9371 -0.8363
   31bbb     H8  911   3.476   7.367   2.694  0.2436  0.8491 -0.6516
   31bbb     C5  912   2.982   7.332   2.713 -0.0224 -0.1632  0.2585
   31bbb     H9  913   2.910   7.382   2.647 -1.5949  0.0666  2.0312
   31bbb    H10  914   3.018   7.414   2.777 -1.3411 -0.4253  1.3866
   31bbb     C6  915   3.178   7.460   2.332  0.0297 -0.0457  0.2125
   31bbb    H11  916   3.243   7.541   2.368 -0.8216  0.1859  1.2446
   31bbb    H12  917   3.108   7.509   2.263 -0.0401 -0.8826 -0.3185
   31bbb     C7  918   3.475   7.200   2.555  0.0330 -0.4104 -0.5177
   31bbb    H13  919   3.400   7.165   2.483  0.6605 -0.2095 -1.2853
   31bbb    H14  920   3.517   7.122   2.621 -1.8023 -0.1773  1.0069
   31bbb     C8  921   3.267   7.360   2.259 -0.4329  0.0353 -0.0606
   31bbb    H15  922   3.204   7.286   2.210 -0.2177 -0.2425  0.0818
   31bbb    H16  923   3.322   7.298   2.331  1.0670  1.0541 -0.2902
   31bbb     C9  924   2.893   7.238   2.797 -0.2578 -0.1534  0.5958
   31bbb    H17  925   2.954   7.205   2.882  0.0745  0.0071  0.4241
   31bbb    H18  926   2.868   7.147   2.741 -1.7772  1.2646 -1.1564
   31bbb     O1  927   3.577   7.273   2.488  0.1255  0.0419  0.2278
   32bbb     N1  928   4.603   6.384   2.381  0.1834 -0.2177  0.0151
   32bbb     C1  929   4.740   6.366   2.441 -0.0662 -0.6084 -0.1124
   32bbb     H1  930   4.727   6.345   2.548  1.9851 -0.3513  0.2335
   32bbb     H2  931   4.802   6.456   2.435 -1.4820  0.4499  0.6655
   32bbb     C2  932   4.520   6.263   2.389  0.0365  0.4526  0.0943
   32bbb     H3  933   4.575   6.191   2.327 -0.9377 -0.6502  0.4578
   32bbb     H4  934   4.427   6.268   2.332  0.7316  0.0122 -1.1115
   32bbb     C3  935   4.531   6.499   2.439  0.1483 -0.7119 -0.2899
   32bbb     H5  936   4.587   6.592   2.429 -1.1210 -0.0023 -1.1355
   32bbb     H6  937   4.529   6.482   2.548 -2.2906 -0.1406 -0.1920
   32bbb     C4  938   4.388   6.530   2.391  0.3588  0.0158 -0.2498
   32bbb     H7  939   4.318   6.446   2.402 -2.4347  2.3819  1.3240
   32bbb     H8  940   4.387   6.564   2.287 -2.0531  0.3067 -0.1774
   32bbb     C5  941   4.833   6.265   2.375 -0.2731 -0.0083 -0.2283
   32bbb     H9  942   4.802   6.164   2.403  0.6947 -0.4889 -0.8417
   32bbb    H10  943   4.930   6.286   2.422 -0.8174 -1.6412  1.7834
   32bbb     C6  944   4.490   6.195   2.531  0.0820 -0.1153  0.6119
   32bbb    H11  945   4.432   6.270   2.588  1.4548  1.4839 -0.0060
   32bbb    H12  946   4.583   6.182   2.587  0.9889  0.2572 -0.7817
   32bbb     C7  947   4.329   6.650   2.465  0.3077  0.2487 -1.0123
   32bbb    H13  948   4.323   6.620   2.570  0.4704  0.3803 -0.9638
   32bbb    H14  949   4.227   6.668   2.429  0.9475  1.4916 -2.3012
   32bbb     C8  950   4.414   6.063   2.524  0.0368 -0.1844 -0.1522
   32bbb    H15  951   4.317   6.095   2.487  0.9179 -0.2467 -2.6621
   32bbb    H16  952   4.400   6.016   2.623 -1.9390  2.9434  1.1847
   32bbb     C9  953   4.832   6.273   2.221 -0.4451  0.3859  0.1765
   32bbb    H17  954   4.874   6.361   2.171  0.8903 -0.2027  0.2148
   32bbb    H18  955   4.735   6.253   2.173 -0.5017  1.7193 -0.3101
   32bbb     O1  956   4.417   6.763   2.455  0.5109 -0.4813  0.0505
   33bbb     N1  957   5.411   7.440   2.103 -0.1945 -0.4114  0.1449
   33bbb     C1  958   5.411   7.429   1.954  0.1537  0.3780 -0.1058
   33bbb     H1  959   5.355   7.342   1.916  1.2065 -0.6312  0.6120
   33bbb     H2  960   5.513   7.403   1.926  0.1057  0.2239 -0.1398
   33bbb     C2  961   5.533   7.508   2.147  0.9105  0.1966 -0.4203
   33bbb     H3  962   5.565   7.587   2.079  1.1871  2.5003  2.2365
   33bbb     H4  963   5.618   7.439   2.138  0.4624 -0.2673 -1.3466
   33bbb     C3  964   5.352   7.337   2.181 -1.0469 -0.0321  0.2088
   33bbb     H5  965   5.354   7.354   2.290 -0.2459 -1.5379  0.4621
   33bbb     H6  966   5.411   7.246   2.166  1.7701  1.7805 -0.5761
   33bbb     C4  967   5.206   7.312   2.143  0.0945 -0.0116 -0.2568
   33bbb     H7  968   5.202   7.277   2.039  1.7113 -1.0931  0.0203
   33bbb     H8  969   5.150   7.406   2.144 -0.9249 -0.6000  0.0024
   33bbb     C5  970   5.374   7.554   1.873 -0.0440 -0.2905  0.3600
   33bbb     H9  971   5.352   7.523   1.770 -0.5106 -2.3564  1.0404
   33bbb    H10  972   5.461   7.621   1.881 -0.9998  1.0134  0.2696
   33bbb     C6  973   5.533   7.573   2.286 -0.1360 -0.2031 -0.4053
   33bbb    H11  974   5.530   7.489   2.357  0.7930 -0.3517 -0.5185
   33bbb    H12  975   5.447   7.638   2.303  0.5072  0.3418  0.8837
   33bbb     C7  976   5.130   7.216   2.232  0.1421 -0.2361 -0.1740
   33bbb    H13  977   5.138   7.254   2.335 -1.2767 -0.2236 -0.0419
   33bbb    H14  978   5.180   7.119   2.229  1.0158  0.2241 -1.3968
   33bbb     C8  979   5.661   7.653   2.310  0.1689 -1.0815  0.1387
   33bbb    H15  980   5.641   7.758   2.336  2.3438  0.3000 -3.1243
   33bbb    H16  981   5.718   7.664   2.217 -1.9263 -0.9703 -1.2166
   33bbb     C9  982   5.259   7.630   1.946  0.7299  0.0862 -0.1974
   33bbb    H17  983   5.282   7.640   2.052 -0.4768 -0.9741  0.1940
   33bbb    H18  984   5.174   7.561   1.956  1.9289 -1.3590  0.2496
   33bbb     O1  985   4.994   7.204   2.198 -0.7090 -0.0881 -0.2042
   34bbb     N1  986   5.020   5.895   3.285  0.3040  0.1295  0.1957
   34bbb     C1  987   5.157   5.850   3.307 -0.3583  0.2528 -0.4242
   34bbb     H1  988   5.164   5.802   3.405  0.8951 -1.3567 -1.2493
   34bbb     H2  989   5.219   5.940   3.294 -3.1745  2.1689 -1.6205
   34bbb     C2  990   4.998   5.914   3.139  0.2250 -0.1759  0.2815
   34bbb     H3  991   5.005   5.822   3.081 -2.2794 -0.3631  0.1939
   34bbb     H4  992   5.069   5.988   3.100 -0.4286  0.5933  0.5311
   34bbb     C3  993   4.978   6.006   3.379  0.9192 -0.1618  0.0006
   34bbb     H5  994   4.884   6.057   3.354  0.7760 -0.2642  0.3312
   34bbb     H6  995   5.065   6.071   3.395 -0.0035  1.3142 -0.7416
   34bbb     C4  996   4.936   5.931   3.515  0.5240 -0.6254 -0.0332
   34bbb     H7  997   5.010   5.863   3.558  0.3145  1.1580  3.4815
   34bbb     H8  998   4.841   5.879   3.496  0.0424  0.7878 -1.7803
   34bbb     C5  999   5.222   5.738   3.225  0.0163 -0.1519  0.5190
   34bbb     H9 1000   5.245   5.774   3.125  0.8562  1.2188  1.1844
   34bbb    H10 1001   5.139   5.669   3.205  1.2875 -0.8154 -3.2476
   34bbb     C6 1002   4.865   5.980   3.097 -0.0550  0.1715  0.1579
   34bbb    H11 1003   4.873   6.088   3.116  1.8971 -0.0308  0.6946
   34bbb    H12 1004   4.781   5.935   3.152  0.7940 -2.3076 -0.4530
   34bbb     C7 1005   4.927   6.034   3.631 -0.1246 -0.1711 -0.3266
   34bbb    H13 1006   4.891   5.974   3.715  1.2766  1.1450  1.2777
   34bbb    H14 1007   4.872   6.127   3.613 -2.1522 -1.1205  0.6243
   34bbb     C8 1008   4.839   5.967   2.946 -0.3159 -0.5244 -0.0276
   34bbb    H15 1009   4.926   5.989   2.884 -0.9834  2.1777 -0.1219
   34bbb    H16 1010   4.766   6.038   2.905  0.3390  0.6029  0.6782
   34bbb     C9 1011   5.351   5.668   3.280 -0.2294 -0.2494 -1.1118
   34bbb    H17 1012   5.326   5.621   3.376  0.1020  1.7399 -0.0009
   34bbb    H18 1013   5.431   5.740   3.302 -1.3821  0.2304  2.0718
   34bbb     O1 1014   5.069   6.077   3.657 -0.1117  0.3906 -0.2779
   35bbb     N1 1015   5.684   6.902   4.481 -0.5605 -0.4583 -0.3777
   35bbb     C1 1016   5.776   6.913   4.365  0.0990  0.6834 -0.0676
   35bbb     H1 1017   5.864   6.978   4.368  0.8739 -0.3482  0.1262
   35bbb     H2 1018   5.720   6.958   4.282  1.0093 -2.8080 -2.8057
   35bbb     C2 1019   5.711   7.003   4.583 -0.1240 -0.3345  0.4517
   35bbb     H3 1020   5.644   6.980   4.666 -2.6232 -1.1936 -1.6823
   35bbb     H4 1021   5.672   7.098   4.544 -2.2035 -1.1939  0.2967
   35bbb     C3 1022   5.541   6.897   4.441  0.3749  0.1327 -0.4604
   35bbb     H5 1023   5.514   6.988   4.384 -2.0723 -1.2488 -1.6775
   35bbb     H6 1024   5.473   6.895   4.527 -0.6484 -0.4351 -1.2597
   35bbb     C4 1025   5.499   6.773   4.350  0.0390  0.2997  0.1007
   35bbb     H7 1026   5.539   6.677   4.385 -1.5047 -0.0971  0.8191
   35bbb     H8 1027   5.538   6.789   4.249 -2.5591  1.2290 -0.8461
   35bbb     C5 1028   5.833   6.769   4.329  0.3116  0.2264 -0.3502
   35bbb     H9 1029   5.756   6.691   4.327  0.5840 -0.0352 -0.4879
   35bbb    H10 1030   5.897   6.735   4.411  1.1956 -0.4475 -1.3029
   35bbb     C6 1031   5.857   7.043   4.625  0.4176 -0.1977  0.3700
   35bbb    H11 1032   5.845   7.103   4.716  1.5212  0.9106 -0.1887
   35bbb    H12 1033   5.904   7.108   4.551 -0.6547 -1.6877 -1.7285
   35bbb     C7 1034   5.347   6.747   4.344  0.6589 -0.0745  0.2810
   35bbb    H13 1035   5.301   6.843   4.317 -0.2276 -0.3214  0.8775
   35bbb    H14 1036   5.306   6.716   4.441 -1.4018 -0.1330 -0.5574
   35bbb     C8 1037   5.951   6.917   4.641 -0.0858  0.0072 -0.3027
   35bbb    H15 1038   5.995   6.879   4.548  3.9533 -0.7200  1.6809
   35bbb    H16 1039   5.891   6.833   4.679 -0.2435 -0.4866 -1.5856
   35bbb     C9 1040   5.907   6.751   4.201  0.1417 -0.8079  0.0561
   35bbb    H17 1041   5.844   6.781   4.117  1.1869  2.9164  0.4465
   35bbb    H18 1042   5.919   6.642   4.188 -2.4086 -1.2595  0.8842
   35bbb     O1 1043   5.324   6.643   4.253  0.2780  0.4250  0.3040
   36bbb     N1 1044   4.863   7.322   2.740  0.0818 -0.3390 -0.0164
   36bbb     C1 1045   4.867   7.376   2.608 -0.2325  0.1098 -0.3797
   36bbb     H1 1046   4.771   7.394   2.559  0.2312 -0.7423 -1.6597
   36bbb     H2 1047   4.904   7.296   2.543  0.1257 -0.5619  0.6255
   36bbb     C2 1048   4.795   7.415   2.842 -0.1921 -0.5403 -0.3164
   36bbb     H3 1049   4.687   7.398   2.839  0.1919 -3.9542  0.6232
   36bbb     H4 1050   4.813   7.521   2.821  0.6755 -0.1083  2.2396
   36bbb     C3 1051   4.811   7.185   2.742  0.6978  0.1738  0.0724
   36bbb     H5 1052   4.839   7.138   2.837  2.6099 -1.0331 -1.0314
   36bbb     H6 1053   4.873   7.136   2.666 -0.2040  2.2179 -2.1276
   36bbb     C4 1054   4.657   7.167   2.721 -0.4532 -0.1409 -0.1420
   36bbb     H7 1055   4.617   7.222   2.634 -1.5075  1.9412  1.5780
   36bbb     H8 1056   4.599   7.208   2.804 -2.1420 -1.6143 -0.5165
   36bbb     C5 1057   4.961   7.503   2.586  0.0156  0.3144 -1.1889
   36bbb     H9 1058   4.926   7.599   2.626 -2.0878  0.2425 -2.6433
   36bbb    H10 1059   4.960   7.522   2.478 -1.9206  1.2710 -1.0407
   36bbb     C6 1060   4.858   7.391   2.987 -0.6055 -0.6283  0.8275
   36bbb    H11 1061   4.845   7.286   3.017 -1.8205 -0.9451 -0.6776
   36bbb    H12 1062   4.787   7.439   3.054 -0.0573  0.7222  0.4678
   36bbb     C7 1063   4.630   7.019   2.711 -0.1016 -0.3826  0.0543
   36bbb    H13 1064   4.532   7.004   2.664 -0.1420  2.2345 -0.8763
   36bbb    H14 1065   4.614   6.984   2.814  1.0022 -0.0221  0.3667
   36bbb     C8 1066   5.006   7.439   2.998  0.1787  0.2689  0.2724
   36bbb    H15 1067   5.051   7.388   2.912 -1.0185 -1.9802  0.9054
   36bbb    H16 1068   5.044   7.398   3.092 -2.3823  1.9042  2.1529
   36bbb     C9 1069   5.103   7.480   2.628  0.4479  0.1682  0.8436
   36bbb    H17 1070   5.156   7.406   2.566  1.8713  1.7053  0.1785
   36bbb    H18 1071   5.112   7.429   2.725  2.2204  0.2936  0.7653
   36bbb     O1 1072   4.737   6.940   2.644  0.2087 -0.2131  0.0564
   37bbb     N1 1073   5.275   6.958   1.858 -0.4888  0.1668 -0.2143
   37bbb     C1 1074   5.364   6.979   1.980 -0.3526  0.2213 -0.0386
   37bbb     H1 1075   5.295   6.983   2.065 -0.0296  0.3089  0.2197
   37bbb     H2 1076   5.417   7.075   1.979  0.8171 -0.4202 -0.5280
   37bbb     C2 1077   5.348   6.954   1.722 -0.6726  0.2918 -0.2268
   37bbb     H3 1078   5.278   6.982   1.642 -0.6162  0.1717 -0.3185
   37bbb     H4 1079   5.390   6.856   1.697 -1.6666  0.1936 -1.6207
   37bbb     C3 1080   5.182   6.850   1.882  0.0966  0.4557 -0.2851
   37bbb     H5 1081   5.150   6.845   1.986  1.4709 -1.7423  0.0967
   37bbb     H6 1082   5.227   6.751   1.868  0.1554  0.3942  0.3155
   37bbb     C4 1083   5.062   6.860   1.791 -0.4921 -0.3604 -0.2657
   37bbb     H7 1084   5.091   6.853   1.686  0.2529  3.8351 -0.5262
   37bbb     H8 1085   5.019   6.961   1.800 -0.1653 -0.2101 -0.3429
   37bbb     C5 1086   5.467   6.866   2.019  0.3690  0.6139  1.1492
   37bbb     H9 1087   5.553   6.872   1.950 -1.2718  1.8576 -0.9143
   37bbb    H10 1088   5.413   6.771   2.026 -0.4147  1.1520  3.1181
   37bbb     C6 1089   5.461   7.053   1.711 -0.0700  0.1774  0.0716
   37bbb    H11 1090   5.538   7.027   1.784  1.8091 -0.8274 -2.1248
   37bbb    H12 1091   5.418   7.150   1.736 -0.8750 -0.3058  0.6083
   37bbb     C7 1092   4.950   6.762   1.831  0.8826 -0.5832  0.0853
   37bbb    H13 1093   4.976   6.660   1.803 -1.9949 -1.3098 -0.2782
   37bbb    H14 1094   4.864   6.795   1.772 -0.9248 -1.3659  2.1279
   37bbb     C8 1095   5.521   7.047   1.569 -0.0108  0.2004 -0.2853
   37bbb    H15 1096   5.536   6.945   1.533  0.2880 -0.3542  1.3541
   37bbb    H16 1097   5.622   7.088   1.570  0.9617 -1.9113  2.8049
   37bbb     C9 1098   5.504   6.879   2.167  0.1565 -0.4365  0.1810
   37bbb    H17 1099   5.550   6.784   2.197 -1.9111 -2.5154 -2.6294
   37bbb    H18 1100   5.413   6.880   2.229  0.9809 -1.6547  1.4705
   37bbb     O1 1101   4.917   6.770   1.971  0.1553  0.3670 -0.4312
   38bbb     N1 1102   4.666   6.931   4.360  0.1641 -0.6896 -0.5793
   38bbb     C1 1103   4.696   6.892   4.506  0.4736 -0.1526  0.3461
   38bbb     H1 1104   4.607   6.840   4.543 -0.2331  0.2814 -0.6836
   38bbb     H2 1105   4.716   6.971   4.579  0.4913  0.4379 -0.2873
   38bbb     C2 1106   4.630   6.824   4.266  0.4416  0.8096  0.4518
   38bbb     H3 1107   4.706   6.745   4.266 -0.4082 -0.0872 -2.0062
   38bbb     H4 1108   4.613   6.856   4.163  1.6597  0.3780  0.1103
   38bbb     C3 1109   4.781   7.002   4.297  0.5213 -0.8557  0.0127
   38bbb     H5 1110   4.761   7.039   4.196  1.2675 -1.0658 -0.2204
   38bbb     H6 1111   4.865   6.933   4.288  0.4548 -0.8183 -1.0107
   38bbb     C4 1112   4.837   7.126   4.367 -0.2981  0.7004 -0.2954
   38bbb     H7 1113   4.879   7.088   4.461  2.4519  0.9426 -1.3387
   38bbb     H8 1114   4.765   7.207   4.380 -0.7793  0.2865 -0.3524
   38bbb     C5 1115   4.802   6.781   4.528 -0.4248 -0.2227  0.4667
   38bbb     H9 1116   4.893   6.813   4.475 -1.3130  1.1390 -0.2842
   38bbb    H10 1117   4.762   6.689   4.485 -1.9952  1.4308 -1.7827
   38bbb     C6 1118   4.498   6.751   4.307  0.2333 -0.6026  0.0827
   38bbb    H11 1119   4.427   6.825   4.346 -2.9036 -2.4383 -1.7434
   38bbb    H12 1120   4.512   6.688   4.396 -2.7794 -0.5342  0.7158
   38bbb     C7 1121   4.956   7.201   4.303  0.7610  0.1432  0.2278
   38bbb    H13 1122   4.976   7.289   4.366 -0.0294  0.4358  0.0747
   38bbb    H14 1123   4.926   7.221   4.200  0.7913 -2.4122 -0.3384
   38bbb     C8 1124   4.432   6.689   4.176 -1.2646  0.1942  0.2424
   38bbb    H15 1125   4.509   6.619   4.142  0.2740  3.0928 -2.6641
   38bbb    H16 1126   4.434   6.773   4.107  0.7618  1.2990  1.5366
   38bbb     C9 1127   4.820   6.754   4.678 -0.2101 -0.2733  0.8033
   38bbb    H17 1128   4.722   6.716   4.709 -0.4221  1.0867  1.8791
   38bbb    H18 1129   4.840   6.847   4.732  1.1871  0.0873 -0.2802
   38bbb     O1 1130   5.069   7.109   4.297 -0.3710 -0.1502  0.0938
   39bbb     N1 1131   5.820   6.322   4.043  0.2539  0.7111 -0.5571
   39bbb     C1 1132   5.884   6.323   4.177 -0.5648  0.2662 -0.9051
   39bbb     H1 1133   5.876   6.227   4.230 -0.6391  0.6248 -0.2654
   39bbb     H2 1134   5.845   6.405   4.238  1.7160 -0.2677  1.4258
   39bbb     C2 1135   5.830   6.195   3.970 -0.0661  0.3237 -0.3154
   39bbb     H3 1136   5.930   6.154   3.990 -1.5837 -2.0691  3.5507
   39bbb     H4 1137   5.817   6.206   3.861  2.0157 -0.8897 -0.7446
   39bbb     C3 1138   5.674   6.358   4.057 -0.1188  0.4766  1.0347
   39bbb     H5 1139   5.623   6.319   4.146 -2.7196  2.1663  0.4058
   39bbb     H6 1140   5.614   6.326   3.970  1.8801  0.0651 -0.2593
   39bbb     C4 1141   5.656   6.507   4.076  0.0356 -0.3500  0.5388
   39bbb     H7 1142   5.710   6.541   4.165  0.7592 -0.0612 -0.0002
   39bbb     H8 1143   5.549   6.514   4.099  0.4021  2.4106  1.8252
   39bbb     C5 1144   6.042   6.349   4.160 -0.3028 -0.0941  0.3815
   39bbb     H9 1145   6.054   6.427   4.083  1.0562  0.1933  0.8596
   39bbb    H10 1146   6.096   6.266   4.112  0.7580  0.6162  0.3022
   39bbb     C6 1147   5.730   6.080   4.013 -0.1408 -0.6277 -0.0745
   39bbb    H11 1148   5.640   6.102   3.954  0.8080  1.0867 -0.9874
   39bbb    H12 1149   5.707   6.075   4.120  0.1135 -2.4138 -0.0711
   39bbb     C7 1150   5.685   6.590   3.947  0.3732  0.5351 -0.5584
   39bbb    H13 1151   5.639   6.551   3.856 -0.5520 -0.8319  0.4559
   39bbb    H14 1152   5.792   6.607   3.933  0.3729  2.0102  0.8489
   39bbb     C8 1153   5.795   5.940   3.990  0.6587 -0.4705  0.1198
   39bbb    H15 1154   5.717   5.867   4.016 -0.7637  0.3788 -1.5471
   39bbb    H16 1155   5.879   5.929   4.060  0.3133 -2.8905  0.2470
   39bbb     C9 1156   6.110   6.384   4.297 -0.2122  0.1960  0.0685
   39bbb    H17 1157   6.103   6.296   4.363 -0.2910  0.7435  0.8016
   39bbb    H18 1158   6.055   6.461   4.351 -1.2996 -0.9638  0.6710
   39bbb     O1 1159   5.624   6.722   3.971 -0.1204 -0.5995  0.3866
   40bbb     N1 1160   3.701   6.049   5.112 -0.0827 -0.6028 -0.2684
   40bbb     C1 1161   3.643   6.183   5.085  0.6744  0.1771 -0.0340
   40bbb     H1 1162   3.545   6.161   5.042 -0.2652  2.3254  0.8326
   40bbb     H2 1163   3.692   6.247   5.010  0.3277  2.1338  1.3393
   40bbb     C2 1164   3.664   5.956   5.004  0.1126 -0.6293  0.3535
   40bbb     H3 1165   3.712   5.972   4.907 -0.5358 -2.2144 -0.2678
   40bbb     H4 1166   3.559   5.973   4.979  0.4418 -1.0593 -1.4239
   40bbb     C3 1167   3.850   6.047   5.145 -0.3228  0.5401 -0.1812
   40bbb     H5 1168   3.859   5.944   5.181 -3.6510 -0.4210 -1.7249
   40bbb     H6 1169   3.876   6.118   5.225 -2.1191 -1.3490  2.2061
   40bbb     C4 1170   3.945   6.056   5.023  0.4298  0.3043 -0.2598
   40bbb     H7 1171   3.917   6.135   4.952  2.3501  0.1224 -1.2975
   40bbb     H8 1172   3.939   5.955   4.981 -1.1154  0.1185  0.3573
   40bbb     C5 1173   3.619   6.266   5.217  0.0123  0.3635 -0.2169
   40bbb     H9 1174   3.709   6.258   5.279  0.6650  2.7133 -0.7623
   40bbb    H10 1175   3.534   6.224   5.272  0.7048 -0.6159  0.1277
   40bbb     C6 1176   3.684   5.807   5.045  0.0329  0.2631 -0.5896
   40bbb    H11 1177   3.633   5.790   5.140 -0.0539  0.0653 -0.6696
   40bbb    H12 1178   3.788   5.774   5.051 -0.9444 -3.0899  0.4292
   40bbb     C7 1179   4.090   6.084   5.066  0.3266 -0.4551  0.3497
   40bbb    H13 1180   4.131   5.984   5.085  1.2114  0.1529  1.8567
   40bbb    H14 1181   4.085   6.135   5.163 -2.2636 -0.6250  0.3816
   40bbb     C8 1182   3.642   5.705   4.936 -0.6470 -0.5448 -0.0648
   40bbb    H15 1183   3.643   5.602   4.972 -2.7825 -0.4050  0.5316
   40bbb    H16 1184   3.718   5.706   4.856 -1.6948  1.0124 -1.0986
   40bbb     C9 1185   3.587   6.412   5.187  0.6198 -0.7858  1.1178
   40bbb    H17 1186   3.676   6.446   5.132  0.1604  0.6131  1.1908
   40bbb    H18 1187   3.588   6.488   5.266  0.5215 -0.4095  0.7564
   40bbb     O1 1188   4.159   6.157   4.960  0.6454  0.6975 -0.1043
   41bbb     N1 1189   4.677   5.742   4.111 -0.3834  0.1300 -0.0968
   41bbb     C1 1190   4.670   5.648   3.999 -0.2921 -0.4645 -0.4223
   41bbb     H1 1191   4.568   5.617   3.973 -1.6427  2.8486  0.4075
   41bbb     H2 1192   4.723   5.556   4.023 -0.7829 -1.2354 -2.1141
   41bbb     C2 1193   4.818   5.785   4.125  0.1200 -0.0520  0.0187
   41bbb     H3 1194   4.847   5.846   4.038 -0.6945 -0.1934 -0.3593
   41bbb     H4 1195   4.884   5.697   4.126 -1.8183 -1.5696  0.2835
   41bbb     C3 1196   4.570   5.850   4.101 -0.6908  0.3546  0.1909
   41bbb     H5 1197   4.549   5.872   3.995  0.3295 -1.7479 -0.5191
   41bbb     H6 1198   4.607   5.947   4.137  1.0587  1.0016 -2.9842
   41bbb     C4 1199   4.430   5.808   4.162  0.7581 -0.0109 -0.0564
   41bbb     H7 1200   4.427   5.767   4.264 -1.4590  0.4223  0.0910
   41bbb     H8 1201   4.386   5.728   4.101 -1.8482  0.6724  0.8241
   41bbb     C5 1202   4.741   5.684   3.863  0.1455  0.2902 -0.2259
   41bbb     H9 1203   4.849   5.698   3.869  0.2439  0.3993 -1.7361
   41bbb    H10 1204   4.693   5.779   3.837 -2.8512 -1.4093 -1.5748
   41bbb     C6 1205   4.852   5.867   4.250  0.3129 -0.0577  0.6164
   41bbb    H11 1206   4.796   5.838   4.340  0.4680  1.3332  1.1883
   41bbb    H12 1207   4.822   5.970   4.229  1.8368  0.0804 -1.1583
   41bbb     C7 1208   4.322   5.920   4.153  0.0345  0.0660  0.0447
   41bbb    H13 1209   4.225   5.885   4.189  0.6781  0.4894  2.3736
   41bbb    H14 1210   4.308   5.957   4.051  1.3942 -2.9517 -1.3654
   41bbb     C8 1211   5.001   5.879   4.274 -0.4606 -0.1527  0.1178
   41bbb    H15 1212   5.044   5.896   4.174  2.1609  2.0825  1.4800
   41bbb    H16 1213   5.049   5.787   4.306 -1.2256 -0.2527  1.0230
   41bbb     C9 1214   4.706   5.582   3.760  0.8816  0.4618  0.1938
   41bbb    H17 1215   4.600   5.579   3.730  1.3510 -0.9882 -1.5425
   41bbb    H18 1216   4.718   5.477   3.789 -1.0621  0.3490  0.7932
   41bbb     O1 1217   4.365   6.027   4.232  0.2564 -0.2714  0.1157
   42bbb     N1 1218   2.529   5.898   3.217  0.6085 -0.0623 -0.3984
   42bbb     C1 1219   2.506   6.025   3.138  0.3103 -0.0477  0.8159
   42bbb     H1 1220   2.500   6.009   3.029 -3.6236  2.8830  0.4052
   42bbb     H2 1221   2.591   6.094   3.145  1.0002 -0.2186 -3.1071
   42bbb     C2 1222   2.441   5.783   3.190 -0.5474  0.1224  0.1877
   42bbb     H3 1223   2.339   5.807   3.222  0.7429  2.1970  3.2499
   42bbb     H4 1224   2.476   5.705   3.259  0.9400 -0.2182 -0.9075
   42bbb     C3 1225   2.576   5.907   3.356  0.0729 -0.2384  0.2106
   42bbb     H5 1226   2.621   5.811   3.385 -0.8851 -1.6218 -2.5539
   42bbb     H6 1227   2.499   5.914   3.434 -1.7523 -1.6787 -1.3361
   42bbb     C4 1228   2.674   6.025   3.389 -0.1359 -0.7784  0.7560
   42bbb     H7 1229   2.625   6.122   3.407  1.7923  0.0425  1.8219
   42bbb     H8 1230   2.746   6.033   3.306  1.8539 -1.6216  2.3202
   42bbb     C5 1231   2.374   6.090   3.185  0.2248 -0.2455  0.5209
   42bbb     H9 1232   2.380   6.120   3.291 -2.9554 -0.7772  0.9766
   42bbb    H10 1233   2.290   6.018   3.190 -0.1621  0.1746  0.1018
   42bbb     C6 1234   2.447   5.737   3.044  0.2088  0.2308 -0.0091
   42bbb    H11 1235   2.552   5.747   3.012 -0.0194  1.6031 -0.3993
   42bbb    H12 1236   2.394   5.800   2.972 -0.2808 -0.2413 -0.0666
   42bbb     C7 1237   2.749   6.005   3.518 -0.1156 -0.3001  0.0348
   42bbb    H13 1238   2.821   5.923   3.512  2.0921  1.4509  1.1347
   42bbb    H14 1239   2.685   5.979   3.604  0.6011 -0.9790  0.3760
   42bbb     C8 1240   2.401   5.586   3.011  0.4590 -0.1657  0.1468
   42bbb    H15 1241   2.414   5.550   2.908 -0.0686 -0.5875  0.2203
   42bbb    H16 1242   2.293   5.591   3.030  0.7246  0.3363  1.6834
   42bbb     C9 1243   2.326   6.205   3.090 -0.2440  0.3968 -0.4296
   42bbb    H17 1244   2.285   6.155   3.002 -4.7135 -1.2421  2.2370
   42bbb    H18 1245   2.407   6.275   3.067 -1.4169  1.4847 -1.4243
   42bbb     O1 1246   2.825   6.124   3.539 -0.8630 -0.3625  0.0515
   43bbb     N1 1247   3.010   5.921   4.361  0.5727  0.1934  0.1221
   43bbb     C1 1248   2.988   6.051   4.299 -1.0739 -0.4051  0.2523
   43bbb     H1 1249   2.980   6.126   4.379 -1.6509  0.0976 -0.2657
   43bbb     H2 1250   2.894   6.052   4.243 -0.5212  1.0626 -0.7171
   43bbb     C2 1251   2.938   5.898   4.494 -0.3431 -0.6732  0.3106
   43bbb     H3 1252   2.956   5.794   4.524  1.5457 -0.1222  1.2264
   43bbb     H4 1253   2.830   5.906   4.476 -0.1780 -0.1339 -0.5098
   43bbb     C3 1254   2.979   5.814   4.263  1.1081 -0.6911  0.2064
   43bbb     H5 1255   3.012   5.850   4.165 -0.5338 -0.1638 -0.1911
   43bbb     H6 1256   2.873   5.795   4.245  1.1688  0.7774 -2.1356
   43bbb     C4 1257   3.045   5.675   4.294  0.0456 -0.4998 -0.5356
   43bbb     H7 1258   2.994   5.639   4.385 -0.2639  1.7293  0.2446
   43bbb     H8 1259   3.151   5.675   4.319  0.4583  4.1152 -1.4997
   43bbb     C5 1260   3.108   6.090   4.208 -0.4053 -0.0314  0.2293
   43bbb     H9 1261   3.079   6.189   4.169  1.4792  0.2166 -0.6643
   43bbb    H10 1262   3.124   6.021   4.124 -2.0559 -1.0615  0.7135
   43bbb     C6 1263   2.983   5.993   4.605  0.3323 -0.1000 -0.7246
   43bbb    H11 1264   2.919   5.965   4.690 -0.3066  2.4717 -0.2823
   43bbb    H12 1265   2.970   6.099   4.581 -1.1080 -0.3829 -1.3053
   43bbb     C7 1266   3.032   5.570   4.189 -0.8881 -0.0468  0.5125
   43bbb    H13 1267   2.927   5.540   4.173 -0.4738  0.1222 -3.4240
   43bbb    H14 1268   3.092   5.481   4.212  1.2083  0.8467 -1.1847
   43bbb     C8 1269   3.135   5.965   4.642  0.0399  0.0602 -0.6507
   43bbb    H15 1270   3.181   5.935   4.547  0.5640  1.0883 -0.7416
   43bbb    H16 1271   3.133   5.878   4.708  1.1301  1.0175  0.7051
   43bbb     C9 1272   3.229   6.095   4.301  0.1602  0.0945  0.9220
   43bbb    H17 1273   3.276   5.997   4.311  0.1724  0.0155  0.1814
   43bbb    H18 1274   3.194   6.129   4.399  0.3591 -3.5745  2.3925
   43bbb     O1 1275   3.077   5.626   4.061 -0.2904  0.2134  0.3811
   44bbb     N1 1276   4.340   5.123   2.803 -0.0843 -0.7086  0.0276
   44bbb     C1 1277   4.363   5.049   2.674  0.0076  0.4823  0.4190
   44bbb     H1 1278   4.433   5.108   2.614 -1.6830  1.1369 -1.0177
   44bbb     H2 1279   4.277   5.048   2.606 -0.0447  2.3430  0.4189
   44bbb     C2 1280   4.465   5.161   2.869  0.7181  0.9304  0.3146
   44bbb     H3 1281   4.509   5.246   2.815  1.3275 -0.1806 -1.0170
   44bbb     H4 1282   4.537   5.079   2.853 -1.2785 -0.5928 -1.6077
   44bbb     C3 1283   4.246   5.240   2.788 -0.1372  0.0965  0.2364
   44bbb     H5 1284   4.287   5.313   2.718 -0.5008 -2.3880 -2.7950
   44bbb     H6 1285   4.224   5.275   2.890  1.0111  2.5077 -0.2731
   44bbb     C4 1286   4.113   5.182   2.723 -0.0555  0.0079 -0.9102
   44bbb     H7 1287   4.078   5.085   2.758 -2.5708  0.3666 -2.1962
   44bbb     H8 1288   4.112   5.170   2.614  0.8362 -0.9433 -0.8242
   44bbb     C5 1289   4.387   4.894   2.697  0.0601 -1.2373 -0.2199
   44bbb     H9 1290   4.290   4.843   2.706 -1.1766  0.8590 -1.0084
   44bbb    H10 1291   4.443   4.887   2.791  0.6667  0.7817 -0.3910
   44bbb     C6 1292   4.456   5.183   3.021  0.3662  0.3499  0.1398
   44bbb    H11 1293   4.385   5.263   3.047 -0.0401 -0.4617  1.6320
   44bbb    H12 1294   4.550   5.202   3.075  0.0053  3.4191 -0.1106
   44bbb     C7 1295   3.993   5.279   2.749 -0.5309 -0.0310 -0.1754
   44bbb    H13 1296   4.000   5.364   2.680 -0.2788  0.8671  0.9168
   44bbb    H14 1297   4.004   5.322   2.850 -0.5563  1.2223 -0.6810
   44bbb     C8 1298   4.417   5.053   3.097 -0.3270  0.0922  0.3358
   44bbb    H15 1299   4.505   4.987   3.099 -2.8121 -3.6138 -1.8302
   44bbb    H16 1300   4.332   5.006   3.047  0.8373  0.0998 -1.7571
   44bbb     C9 1301   4.489   4.833   2.593  0.7132  0.4005 -0.4101
   44bbb    H17 1302   4.583   4.889   2.604  0.7059  0.3313  0.0309
   44bbb    H18 1303   4.452   4.859   2.493 -0.9833 -0.6201 -0.0779
   44bbb     O1 1304   3.866   5.212   2.736  0.2315  0.1575  0.1436
   45bbb     N1 1305   4.319   4.285   2.819  0.1579 -0.0700  0.1231
   45bbb     C1 1306   4.372   4.159   2.863 -1.2589  0.2555 -0.0235
   45bbb     H1 1307   4.291   4.085   2.856 -1.6869  0.5931  1.0981
   45bbb     H2 1308   4.407   4.155   2.967  1.6505 -0.6220 -0.9406
   45bbb     C2 1309   4.288   4.299   2.679  0.3569  0.3407  0.3178
   45bbb     H3 1310   4.382   4.289   2.625  1.3624  0.9366  1.8809
   45bbb     H4 1311   4.241   4.394   2.649 -1.2685 -0.9144 -1.2902
   45bbb     C3 1312   4.383   4.404   2.874 -0.0059 -0.8543 -0.0484
   45bbb     H5 1313   4.482   4.411   2.827  1.0957 -1.0014  2.1217
   45bbb     H6 1314   4.413   4.407   2.979  3.3610  1.2403 -0.9122
   45bbb     C4 1315   4.314   4.541   2.854 -0.4351  0.0997  0.5031
   45bbb     H7 1316   4.298   4.569   2.749  0.5742 -1.0332  0.0245
   45bbb     H8 1317   4.384   4.617   2.890  0.8176 -1.5481  1.6783
   45bbb     C5 1318   4.503   4.097   2.788 -0.4200 -0.2110 -0.3923
   45bbb     H9 1319   4.491   4.099   2.679 -1.2784  0.0881 -0.3007
   45bbb    H10 1320   4.492   3.990   2.808 -2.2859  0.2785  1.6198
   45bbb     C6 1321   4.182   4.197   2.632 -0.1308 -0.2122  0.1719
   45bbb    H11 1322   4.213   4.098   2.669 -0.2538  0.2348  1.5058
   45bbb    H12 1323   4.177   4.189   2.523  0.2544  1.6306  0.0008
   45bbb     C7 1324   4.177   4.550   2.928 -0.1094  0.4723 -0.2553
   45bbb    H13 1325   4.185   4.505   3.028 -0.0448  1.2845  0.1138
   45bbb    H14 1326   4.090   4.512   2.874 -1.6564  3.1069  0.1924
   45bbb     C8 1327   4.036   4.224   2.692 -0.9562  0.2369  0.2675
   45bbb    H15 1328   4.019   4.332   2.686 -1.6214  0.2531  1.9894
   45bbb    H16 1329   4.037   4.201   2.799 -0.2583  2.1282  0.7144
   45bbb     C9 1330   4.639   4.156   2.842  0.2490 -0.2907 -0.1230
   45bbb    H17 1331   4.651   4.176   2.949  0.5792 -0.0938 -0.1963
   45bbb    H18 1332   4.641   4.251   2.788 -2.7641 -0.3922 -0.6013
   45bbb     O1 1333   4.143   4.689   2.947 -0.1449 -0.3758 -0.6264
   46bbb     N1 1334   3.171   7.067   3.534 -0.7858  0.0779  0.3108
   46bbb     C1 1335   3.307   7.016   3.576 -0.7493  0.3285 -0.1203
   46bbb     H1 1336   3.385   7.028   3.501  1.0145  1.0908  1.7337
   46bbb     H2 1337   3.304   6.909   3.600 -0.6979 -0.2815 -2.5952
   46bbb     C2 1338   3.158   7.213   3.508 -0.0809 -0.3634  0.6391
   46bbb     H3 1339   3.156   7.261   3.606  2.1002  1.3317 -0.0686
   46bbb     H4 1340   3.067   7.235   3.451 -1.8051 -1.7574  2.6761
   46bbb     C3 1341   3.070   7.022   3.624  0.2536  0.0687  0.7904
   46bbb     H5 1342   3.062   7.075   3.719 -1.0872 -0.0580  0.7756
   46bbb     H6 1343   3.087   6.917   3.649  1.9155  0.1213 -0.0277
   46bbb     C4 1344   2.921   7.036   3.559 -0.4960 -0.5859  0.8129
   46bbb     H7 1345   2.903   6.988   3.462  3.3491 -0.7216  0.0282
   46bbb     H8 1346   2.904   7.143   3.549 -1.1711 -0.6424  1.2535
   46bbb     C5 1347   3.357   7.096   3.699  0.3321 -0.2059  0.3558
   46bbb     H9 1348   3.277   7.115   3.771 -1.2625 -2.5222 -0.6946
   46bbb    H10 1349   3.397   7.196   3.676  2.4007 -1.5565 -2.6918
   46bbb     C6 1350   3.265   7.288   3.418  0.0376  0.0038  0.2533
   46bbb    H11 1351   3.301   7.228   3.334  2.5146 -0.2122  1.3788
   46bbb    H12 1352   3.356   7.290   3.480 -0.3620  0.7111  0.8248
   46bbb     C7 1353   2.806   6.992   3.644  0.3668 -0.0162  0.5734
   46bbb    H13 1354   2.710   7.025   3.600 -0.0959  0.2091  1.7047
   46bbb    H14 1355   2.808   7.041   3.743  0.4478  2.7128 -0.6837
   46bbb     C8 1356   3.223   7.432   3.378  0.6608 -0.2008 -0.5456
   46bbb    H15 1357   3.313   7.485   3.345  0.6483  0.3891  0.3274
   46bbb    H16 1358   3.203   7.478   3.475  0.8194 -2.9273  0.8832
   46bbb     C9 1359   3.478   7.025   3.753 -0.4175 -0.3340  0.4046
   46bbb    H17 1360   3.560   7.038   3.682 -1.9879 -1.7689 -1.8090
   46bbb    H18 1361   3.458   6.918   3.764  0.1444 -0.4342  0.4970
   46bbb     O1 1362   2.806   6.850   3.676  0.3071  0.2255 -0.4235
   47bbb     N1 1363   2.612   5.636   3.905  0.3579 -0.0201 -0.4351
   47bbb     C1 1364   2.579   5.596   4.051 -0.5061  0.0430  0.3209
   47bbb     H1 1365   2.536   5.681   4.106 -0.2811  1.7383 -1.9442
   47bbb     H2 1366   2.675   5.573   4.098 -0.6422  0.9999  1.0969
   47bbb     C2 1367   2.493   5.678   3.827  0.1759 -0.1770  0.1279
   47bbb     H3 1368   2.437   5.758   3.878 -2.2847 -1.1765 -0.8806
   47bbb     H4 1369   2.429   5.589   3.820  2.9074 -2.4353  1.4939
   47bbb     C3 1370   2.724   5.732   3.910 -0.3817  0.1883  0.7149
   47bbb     H5 1371   2.762   5.749   3.809 -0.4779  2.0819  0.9649
   47bbb     H6 1372   2.811   5.702   3.969 -0.2113  0.2694  0.5065
   47bbb     C4 1373   2.676   5.864   3.961  0.4179  0.5765  0.2095
   47bbb     H7 1374   2.632   5.867   4.062  1.6768  3.6591  0.7840
   47bbb     H8 1375   2.605   5.907   3.890  0.0724  1.8687  1.2840
   47bbb     C5 1376   2.493   5.468   4.069  0.6249 -0.3040  0.2876
   47bbb     H9 1377   2.392   5.490   4.030 -0.8379 -1.7106  2.9699
   47bbb    H10 1378   2.485   5.450   4.177 -2.1933  1.3588  0.4536
   47bbb     C6 1379   2.521   5.717   3.674  0.0011  0.9954  0.1349
   47bbb    H11 1380   2.628   5.700   3.655 -0.3646 -4.2406  1.2632
   47bbb    H12 1381   2.515   5.826   3.679  0.0327  0.9679  0.9228
   47bbb     C7 1382   2.793   5.966   3.967 -0.5041  0.4962  0.1533
   47bbb    H13 1383   2.861   5.965   3.881 -0.1224 -3.0299  0.3585
   47bbb    H14 1384   2.856   5.945   4.054  1.5609 -0.9987 -1.5899
   47bbb     C8 1385   2.420   5.643   3.578  0.2308 -0.5392 -0.4856
   47bbb    H15 1386   2.423   5.689   3.478 -3.0641  0.2658 -0.3398
   47bbb    H16 1387   2.320   5.658   3.619  0.4572 -0.4640  0.0475
   47bbb     C9 1388   2.536   5.342   3.989  0.5158  0.1006  0.3382
   47bbb    H17 1389   2.643   5.321   4.001  0.2134 -0.7565  1.8828
   47bbb    H18 1390   2.513   5.356   3.883  0.2795  1.6438  0.5749
   47bbb     O1 1391   2.731   6.094   3.979 -0.7430 -0.3047 -0.5541
   48bbb     N1 1392   1.913   7.745   3.624  0.1567 -0.5033 -0.9103
   48bbb     C1 1393   1.971   7.877   3.581 -0.1520  0.6135  0.4528
   48bbb     H1 1394   1.976   7.963   3.650 -1.8980  0.9844  0.1509
   48bbb     H2 1395   1.912   7.908   3.494  0.1580  0.1304  0.0630
   48bbb     C2 1396   1.924   7.628   3.535  0.8552 -0.0082 -0.1015
   48bbb     H3 1397   1.995   7.642   3.453  0.7717 -2.9761 -0.7844
   48bbb     H4 1398   1.828   7.601   3.490  0.1530  0.0388  1.2916
   48bbb     C3 1399   1.778   7.748   3.686 -0.1776 -0.8187 -0.4055
   48bbb     H5 1400   1.760   7.656   3.742  0.3988 -0.7720 -0.1326
   48bbb     H6 1401   1.703   7.746   3.606  2.1107 -1.3899 -2.6669
   48bbb     C4 1402   1.743   7.862   3.789  0.0966  0.7435 -0.2996
   48bbb     H7 1403   1.767   7.955   3.735 -0.7089 -0.4559 -2.8856
   48bbb     H8 1404   1.809   7.862   3.877  0.8892 -1.2469 -0.8416
   48bbb     C5 1405   2.122   7.851   3.541  0.6451 -0.7649 -0.1747
   48bbb     H9 1406   2.123   7.796   3.447  0.3923 -0.5094 -0.3299
   48bbb    H10 1407   2.164   7.800   3.629  1.2291 -0.6376 -0.3739
   48bbb     C6 1408   1.971   7.511   3.617 -0.4050 -0.0917 -0.0082
   48bbb    H11 1409   1.926   7.419   3.577  0.9372 -0.7425 -0.0953
   48bbb    H12 1410   1.950   7.522   3.724  1.7200 -0.8924  0.5550
   48bbb     C7 1411   1.592   7.864   3.823  0.2165  0.3544 -0.4201
   48bbb    H13 1412   1.561   7.945   3.889  0.5340  1.0751 -1.1316
   48bbb    H14 1413   1.561   7.774   3.878 -0.2960 -1.4898 -3.4807
   48bbb     C8 1414   2.127   7.507   3.607 -0.4956  0.1190 -0.0724
   48bbb    H15 1415   2.165   7.432   3.678 -1.4967  0.9114  1.3379
   48bbb    H16 1416   2.170   7.599   3.647  1.5586 -0.3875 -0.9791
   48bbb     C9 1417   2.207   7.978   3.514 -0.0873  0.3258  0.5541
   48bbb    H17 1418   2.197   8.054   3.593  2.0460  2.2377 -0.8765
   48bbb    H18 1419   2.157   8.026   3.429 -0.0381  0.0671  0.3778
   48bbb     O1 1420   1.511   7.875   3.704  0.0482  0.0719  0.3459
   49bbb     N1 1421   1.014   6.756   3.137 -0.2289 -0.1503  0.7380
   49bbb     C1 1422   1.078   6.641   3.067 -0.4072 -0.0391  1.1857
   49bbb     H1 1423   1.007   6.558   3.063 -0.6791  0.1162  2.3278
   49bbb     H2 1424   1.166   6.618   3.130  0.4215  0.2341  0.1599
   49bbb     C2 1425   0.971   6.720   3.279  0.6375 -0.7238 -0.9319
   49bbb     H3 1426   0.946   6.808   3.340  4.1278 -0.4567  0.3626
   49bbb     H4 1427   1.050   6.676   3.342 -0.4097  1.4421  2.1432
   49bbb     C3 1428   1.097   6.885   3.142  0.2352  0.1260 -0.0089
   49bbb     H5 1429   1.029   6.963   3.180  0.8885  1.1753 -0.9413
   49bbb     H6 1430   1.112   6.931   3.044 -1.3978  2.6513  0.8202
   49bbb     C4 1431   1.223   6.877   3.231 -0.1070 -0.8376 -0.4890
   49bbb     H7 1432   1.293   6.795   3.211  1.4838 -0.7626  3.7837
   49bbb     H8 1433   1.195   6.859   3.336  1.3019 -1.0249 -0.1225
   49bbb     C5 1434   1.115   6.670   2.919  0.8027 -0.0259 -0.1363
   49bbb     H9 1435   1.162   6.586   2.866  1.9068 -0.0952  0.9234
   49bbb    H10 1436   1.198   6.741   2.918  0.7788  0.1446  2.6613
   49bbb     C6 1437   0.853   6.619   3.282 -0.5499 -0.4474  0.2333
   49bbb    H11 1438   0.891   6.518   3.266  0.9809  0.5163 -3.2342
   49bbb    H12 1439   0.779   6.636   3.203 -0.5315 -1.0681  0.0771
   49bbb     C7 1440   1.311   7.006   3.221  0.1579 -0.1664 -0.0748
   49bbb    H13 1441   1.297   7.050   3.122  2.0657 -1.4520 -0.9716
   49bbb    H14 1442   1.419   6.990   3.227  0.1446 -0.3415 -0.2740
   49bbb     C8 1443   0.797   6.622   3.424 -0.7126  0.5437 -0.2458
   49bbb    H15 1444   0.766   6.726   3.440  2.4195  1.3949  1.1173
   49bbb    H16 1445   0.868   6.580   3.496  0.6002 -0.7824 -2.1902
   49bbb     C9 1446   0.985   6.725   2.854  0.0227 -0.0760  0.0653
   49bbb    H17 1447   0.968   6.828   2.887 -0.9173  0.0881 -0.8843
   49bbb    H18 1448   0.894   6.672   2.886 -1.3067  0.1094 -3.0337
   49bbb     O1 1449   1.264   7.095   3.329 -0.3837 -0.8927 -0.0246
   50bbb     N1 1450   5.014   6.481   3.341  0.0734  0.6689  0.0948
   50bbb     C1 1451   5.079   6.351   3.349 -0.3588  0.3475  0.0789
   50bbb     H1 1452   5.011   6.282   3.400  0.3480 -0.6304 -0.2766
   50bbb     H2 1453   5.168   6.370   3.411 -1.2897  1.2271  1.1845
   50bbb     C2 1454   4.977   6.537   3.476 -0.6683  0.7469  0.9646
   50bbb     H3 1455   5.071   6.524   3.533 -0.2699  1.1184  0.3985
   50bbb     H4 1456   4.906   6.469   3.524 -1.4946  1.8333  1.2977
   50bbb     C3 1457   4.912   6.502   3.237 -0.1538 -0.5032  0.3519
   50bbb     H5 1458   4.965   6.483   3.143  0.5711 -2.2677  1.0680
   50bbb     H6 1459   4.872   6.604   3.228 -0.7749 -0.6390  1.3447
   50bbb     C4 1460   4.791   6.399   3.248 -0.2300 -0.3132 -0.1617
   50bbb     H7 1461   4.767   6.384   3.354  3.4134  2.5648  1.2918
   50bbb     H8 1462   4.832   6.303   3.213  0.4427  0.2342 -0.9061
   50bbb     C5 1463   5.146   6.285   3.226 -0.8987 -0.3470 -0.6380
   50bbb     H9 1464   5.068   6.267   3.151 -0.8893  0.6170 -0.8927
   50bbb    H10 1465   5.183   6.186   3.254  1.2341  0.2465 -1.1826
   50bbb     C6 1466   4.922   6.684   3.483 -0.7928  0.1710 -0.9244
   50bbb    H11 1467   4.889   6.708   3.585 -1.3531  2.5742 -1.5987
   50bbb    H12 1468   4.836   6.705   3.418 -1.1839  1.2220 -0.1053
   50bbb     C7 1469   4.660   6.426   3.169  0.1353 -0.2570  0.4281
   50bbb    H13 1470   4.621   6.326   3.147  3.1019 -1.1002 -1.6872
   50bbb    H14 1471   4.660   6.486   3.077  0.8717 -0.6937  0.1338
   50bbb     C8 1472   5.047   6.780   3.455  0.4480 -0.2704 -0.0926
   50bbb    H15 1473   5.080   6.763   3.352  1.9497  0.2622  0.2723
   50bbb    H16 1474   5.120   6.762   3.534  0.1841  0.2064  0.2668
   50bbb     C9 1475   5.267   6.360   3.152  0.0326  0.7524 -0.4162
   50bbb    H17 1476   5.359   6.353   3.211 -0.6715  1.1627  0.7577
   50bbb    H18 1477   5.246   6.465   3.129  1.7661  1.2738  0.2987
   50bbb     O1 1478   4.557   6.476   3.258 -0.2868  0.1396  0.2335
   51bbb     N1 1479   4.351   7.108   3.877 -0.8423 -0.0933  0.4362
   51bbb     C1 1480   4.479   7.189   3.901  0.0388  0.4429  0.5318
   51bbb     H1 1481   4.453   7.273   3.966  0.1435 -0.1237  1.3242
   51bbb     H2 1482   4.502   7.227   3.800  0.6505  0.1111  0.5446
   51bbb     C2 1483   4.301   7.035   3.998 -0.4555  0.0202 -0.1856
   51bbb     H3 1484   4.389   6.997   4.051 -0.9603 -0.4966  0.2848
   51bbb     H4 1485   4.238   6.951   3.968 -1.4515  1.0584 -1.1394
   51bbb     C3 1486   4.368   7.019   3.760 -0.2000  0.4718 -0.3819
   51bbb     H5 1487   4.280   6.953   3.753  1.3914 -1.9085  0.7454
   51bbb     H6 1488   4.447   6.944   3.768 -1.9751 -1.7215 -2.2259
   51bbb     C4 1489   4.371   7.097   3.630  0.6906  0.0019  0.6968
   51bbb     H7 1490   4.475   7.127   3.610  0.5289 -0.0409 -0.2638
   51bbb     H8 1491   4.305   7.185   3.631  0.6481  0.0709 -1.7322
   51bbb     C5 1492   4.609   7.115   3.946  0.4931 -0.4468  0.6269
   51bbb     H9 1493   4.616   7.012   3.910 -0.5432 -0.6510  0.9790
   51bbb    H10 1494   4.608   7.095   4.054 -1.8780 -2.8573  0.2709
   51bbb     C6 1495   4.229   7.127   4.100  0.3036  0.6331  0.3812
   51bbb    H11 1496   4.134   7.161   4.056  0.4965  0.1743 -0.4125
   51bbb    H12 1497   4.289   7.212   4.136  2.1175  0.0803 -1.1602
   51bbb     C7 1498   4.348   7.009   3.499  0.3951 -0.1495  0.5337
   51bbb    H13 1499   4.390   6.908   3.510 -3.3997 -1.7851  1.5989
   51bbb    H14 1500   4.378   7.063   3.408 -0.6072 -0.4915 -0.0231
   51bbb     C8 1501   4.178   7.041   4.223  0.2728 -0.6313 -0.1706
   51bbb    H15 1502   4.249   7.037   4.306 -0.2754 -1.4541  0.2777
   51bbb    H16 1503   4.169   6.937   4.189  1.8387 -1.2352  1.1346
   51bbb     C9 1504   4.729   7.198   3.900  0.0370  0.5245 -0.4897
   51bbb    H17 1505   4.726   7.185   3.791 -2.4841  1.5375 -0.6031
   51bbb    H18 1506   4.829   7.166   3.932 -0.3720 -0.4874 -0.1809
   51bbb     O1 1507   4.209   7.014   3.479 -0.0550  0.4442  0.0871
   52bbb     N1 1508   3.326   7.873   2.640 -0.2799 -0.0781 -0.7937
   52bbb     C1 1509   3.300   7.986   2.547  0.1235  0.0125 -0.3317
   52bbb     H1 1510   3.196   8.022   2.545  0.2625  0.4111 -0.3647
   52bbb     H2 1511   3.314   7.954   2.443  0.6403  1.0151 -0.5799
   52bbb     C2 1512   3.208   7.778   2.652  0.5033 -0.8391  0.3411
   52bbb     H3 1513   3.239   7.692   2.714  0.9655  0.6474  2.2780
   52bbb     H4 1514   3.172   7.734   2.558  1.5083 -0.9622 -0.0065
   52bbb     C3 1515   3.445   7.796   2.606 -0.1943 -0.3153 -0.0853
   52bbb     H5 1516   3.521   7.858   2.556 -3.4303  3.2240 -1.0781
   52bbb     H6 1517   3.416   7.717   2.535  0.9233  0.3818 -1.3676
   52bbb     C4 1518   3.514   7.728   2.723 -0.4331 -0.0100 -0.0851
   52bbb     H7 1519   3.443   7.653   2.759 -1.3593 -0.3277 -2.3934
   52bbb     H8 1520   3.523   7.802   2.803 -1.0789 -0.3146  0.2807
   52bbb     C5 1521   3.385   8.109   2.566 -0.0229 -0.3711  1.0968
   52bbb     H9 1522   3.492   8.084   2.555  0.8798  2.8010  1.7253
   52bbb    H10 1523   3.382   8.142   2.670  1.1390 -0.2060  1.0920
   52bbb     C6 1524   3.085   7.847   2.724  1.1581 -0.1522  0.3672
   52bbb    H11 1525   3.001   7.777   2.727  1.5498 -0.6878 -0.8880
   52bbb    H12 1526   3.042   7.926   2.661 -2.4756 -2.5467 -0.4989
   52bbb     C7 1527   3.647   7.668   2.695 -0.9015 -0.2504  0.3389
   52bbb    H13 1528   3.711   7.750   2.660 -0.3483 -0.1665  1.5078
   52bbb    H14 1529   3.636   7.593   2.616  3.3879  0.6915 -1.4011
   52bbb     C8 1530   3.113   7.897   2.863  0.4794  0.5384 -0.2341
   52bbb    H15 1531   3.187   7.978   2.859  0.5647  0.4436 -0.5730
   52bbb    H16 1532   3.158   7.818   2.923  0.2564 -0.5583 -1.4716
   52bbb     C9 1533   3.350   8.225   2.468  0.1467  0.5251 -0.0406
   52bbb    H17 1534   3.393   8.317   2.509 -0.4871  0.8441 -0.0777
   52bbb    H18 1535   3.245   8.251   2.485  0.2010 -0.4692  2.2127
   52bbb     O1 1536   3.703   7.616   2.815 -0.5123 -0.1838 -0.5143
   53bbb     N1 1537   3.941   7.641   3.377 -0.4139 -0.1717  0.3843
   53bbb     C1 1538   3.935   7.700   3.241  0.0671 -0.1579  0.4400
   53bbb     H1 1539   3.847   7.656   3.192  0.6546 -2.2249  1.1369
   53bbb     H2 1540   4.020   7.683   3.174  0.1772 -1.4597  0.8788
   53bbb     C2 1541   3.828   7.666   3.475 -0.3060  0.1573 -0.3778
   53bbb     H3 1542   3.828   7.774   3.492  1.3400  0.3247 -1.2676
   53bbb     H4 1543   3.847   7.608   3.566 -3.6073 -0.6418 -0.0694
   53bbb     C3 1544   3.958   7.492   3.366 -0.0245 -0.1058 -0.1524
   53bbb     H5 1545   3.891   7.454   3.288  0.1160  1.3765 -1.0382
   53bbb     H6 1546   3.926   7.450   3.462  1.2394 -0.5144  0.1085
   53bbb     C4 1547   4.105   7.444   3.338 -0.1874  0.1138  0.4406
   53bbb     H7 1548   4.176   7.470   3.418 -0.9163  0.2999  1.0398
   53bbb     H8 1549   4.136   7.474   3.238  1.3909 -2.6034  0.0194
   53bbb     C5 1550   3.921   7.851   3.241  0.0965 -0.3798  0.1305
   53bbb     H9 1551   3.940   7.901   3.337 -1.4497  0.1975  0.1658
   53bbb    H10 1552   3.814   7.876   3.241  0.1814  0.0149  0.7785
   53bbb     C6 1553   3.690   7.624   3.425 -0.0629  0.0450 -0.2187
   53bbb    H11 1554   3.706   7.539   3.357  1.6851 -0.3775  0.6714
   53bbb    H12 1555   3.651   7.702   3.359  1.1648  0.2456 -0.7219
   53bbb     C7 1556   4.108   7.286   3.324  0.0536 -0.2198  0.1910
   53bbb    H13 1557   4.117   7.239   3.423  0.8390  0.9280  0.6832
   53bbb    H14 1558   4.198   7.267   3.265  0.8414  1.2992  0.8590
   53bbb     C8 1559   3.592   7.576   3.534 -0.3555 -0.5023  0.9235
   53bbb    H15 1560   3.494   7.567   3.487 -0.5156  0.1526  1.1162
   53bbb    H16 1561   3.574   7.661   3.601  0.5880 -0.3224  0.9679
   53bbb     C9 1562   3.992   7.919   3.120 -0.3505 -0.1931  0.9743
   53bbb    H17 1563   3.953   7.897   3.020  2.4585  0.7328 -0.4172
   53bbb    H18 1564   4.095   7.882   3.121  0.3047  1.5192  0.1157
   53bbb     O1 1565   3.989   7.239   3.267  0.3288  0.1505 -0.1130
   54bbb     N1 1566   3.399   5.865   3.287  0.3026  0.5721 -0.3103
   54bbb     C1 1567   3.358   5.995   3.355  0.9322 -0.3630  0.2879
   54bbb     H1 1568   3.443   6.044   3.404  0.8672 -0.2439  0.2823
   54bbb     H2 1569   3.278   5.972   3.427 -1.5928 -0.7618 -2.4772
   54bbb     C2 1570   3.354   5.747   3.368 -0.0598 -0.1369  0.4358
   54bbb     H3 1571   3.404   5.771   3.463 -0.2695  1.2890  0.2018
   54bbb     H4 1572   3.397   5.661   3.316  0.6362  0.3235  0.2504
   54bbb     C3 1573   3.542   5.862   3.255 -0.0980  0.1106  0.1730
   54bbb     H5 1574   3.568   5.772   3.197  1.3120  1.1256 -0.8272
   54bbb     H6 1575   3.602   5.861   3.347  3.1486  0.1799 -1.7637
   54bbb     C4 1576   3.590   5.983   3.172 -0.6242 -0.3105  0.6468
   54bbb     H7 1577   3.588   6.072   3.237  0.5232 -2.1601  3.3659
   54bbb     H8 1578   3.529   5.995   3.082  0.0070  0.9187  0.3484
   54bbb     C5 1579   3.281   6.098   3.265  0.2645 -0.5874  0.0592
   54bbb     H9 1580   3.213   6.041   3.200  0.4205  1.5343 -2.1080
   54bbb    H10 1581   3.352   6.151   3.201  1.2860 -0.3762  1.3415
   54bbb     C6 1582   3.198   5.723   3.386 -0.8874 -0.5099  0.5348
   54bbb    H11 1583   3.171   5.654   3.306  0.8073 -1.2142  0.5225
   54bbb    H12 1584   3.140   5.816   3.383 -0.9332 -0.4395  2.3596
   54bbb     C7 1585   3.733   5.960   3.113 -0.1424  0.0317  0.3909
   54bbb    H13 1586   3.771   6.041   3.051 -1.2055  1.3805  1.4476
   54bbb    H14 1587   3.733   5.870   3.050  0.4742  0.1873  0.1667
   54bbb     C8 1588   3.169   5.665   3.524  0.1595  1.0738  0.2305
   54bbb    H15 1589   3.172   5.754   3.588 -1.3114  1.3555 -0.0526
   54bbb    H16 1590   3.236   5.585   3.555 -1.6396 -1.5767 -2.1858
   54bbb     C9 1591   3.190   6.199   3.342  0.0051  0.4427 -0.3904
   54bbb    H17 1592   3.102   6.151   3.385 -0.6041  0.5924 -1.4357
   54bbb    H18 1593   3.141   6.276   3.281 -1.9991 -0.9922 -0.6578
   54bbb     O1 1594   3.822   5.939   3.224  0.3433  0.0734  0.2165
   55bbb     N1 1595   4.900   5.351   3.033 -0.3324  0.2471  0.1481
   55bbb     C1 1596   4.910   5.201   2.987 -0.0790 -0.4434 -0.4861
   55bbb     H1 1597   4.814   5.153   3.009  0.3414 -0.5088  1.3330
   55bbb     H2 1598   4.987   5.141   3.037 -1.7522 -2.0676  0.2250
   55bbb     C2 1599   5.018   5.438   3.002  0.5134  0.1114  0.4136
   55bbb     H3 1600   5.010   5.537   3.048  2.6582 -0.4892  2.3051
   55bbb     H4 1601   5.029   5.443   2.893 -0.3439  0.0014  0.3177
   55bbb     C3 1602   4.769   5.422   2.999  0.1520 -0.0073  0.0240
   55bbb     H5 1603   4.690   5.350   3.025 -0.2600 -0.0285 -1.2248
   55bbb     H6 1604   4.767   5.434   2.890  0.3660 -0.6457 -0.0582
   55bbb     C4 1605   4.742   5.557   3.065 -0.0065  0.3455  0.3459
   55bbb     H7 1606   4.822   5.629   3.046 -0.3957  0.7974  0.3856
   55bbb     H8 1607   4.729   5.540   3.172  2.8060 -0.8009  0.5710
   55bbb     C5 1608   4.922   5.182   2.835  0.3763  0.3799  0.2526
   55bbb     H9 1609   5.024   5.205   2.801 -0.5182  0.5006 -2.5912
   55bbb    H10 1610   4.867   5.258   2.777  0.2879 -0.5639 -0.9402
   55bbb     C6 1611   5.155   5.386   3.052  0.2164 -0.4031 -0.2470
   55bbb    H11 1612   5.217   5.474   3.029 -1.6908  1.4944  1.4735
   55bbb    H12 1613   5.188   5.306   2.984  2.8203 -0.0297  0.4495
   55bbb     C7 1614   4.611   5.622   3.004 -0.5211 -0.1312  0.1438
   55bbb    H13 1615   4.611   5.608   2.895 -0.1185  0.7643  0.0206
   55bbb    H14 1616   4.607   5.728   3.032  2.1093  0.6655 -2.1005
   55bbb     C8 1617   5.162   5.336   3.204  0.1467 -0.3175 -0.1603
   55bbb    H15 1618   5.062   5.301   3.232 -0.5897  1.1528 -0.8609
   55bbb    H16 1619   5.186   5.428   3.260  0.7446 -1.2879  1.2527
   55bbb     C9 1620   4.899   5.039   2.783  1.1640 -0.2192  0.6758
   55bbb    H17 1621   4.907   5.035   2.673  0.0651 -0.6197  0.5929
   55bbb    H18 1622   4.796   5.011   2.811  0.5687  2.3383  1.2743
   55bbb     O1 1623   4.498   5.562   3.068 -0.4442  0.4425 -0.3453
   56bbb     N1 1624   3.255   4.956   3.165  0.7194 -1.1466 -0.0733
   56bbb     C1 1625   3.110   4.955   3.167  0.3315  0.4549  0.0671
   56bbb     H1 1626   3.070   5.042   3.220 -2.9961  0.0248 -1.4841
   56bbb     H2 1627   3.073   4.859   3.204 -0.1403 -0.4715 -2.5899
   56bbb     C2 1628   3.308   4.819   3.155 -0.0965 -0.3776  0.3997
   56bbb     H3 1629   3.272   4.769   3.064  0.9197 -1.4872  0.5893
   56bbb     H4 1630   3.273   4.764   3.243  1.2617  2.6665  3.0607
   56bbb     C3 1631   3.314   5.064   3.091 -0.4224 -0.5045  0.0438
   56bbb     H5 1632   3.293   5.045   2.985  0.4208  1.7204 -0.5750
   56bbb     H6 1633   3.422   5.067   3.107 -0.2506 -2.2825 -0.5199
   56bbb     C4 1634   3.261   5.205   3.119  0.8784  0.1690  0.3698
   56bbb     H7 1635   3.296   5.243   3.215  0.2091 -0.1764  0.7571
   56bbb     H8 1636   3.152   5.212   3.122  0.9445  0.7632  1.8950
   56bbb     C5 1637   3.049   4.949   3.024 -0.3304 -0.2260  0.4868
   56bbb     H9 1638   3.108   4.890   2.953  0.0393  1.8150 -1.0014
   56bbb    H10 1639   3.061   5.048   2.977 -0.0820  0.8719  2.7492
   56bbb     C6 1640   3.456   4.799   3.164 -0.2853  0.5089 -0.0783
   56bbb    H11 1641   3.506   4.857   3.085  0.0405 -0.6478 -0.7437
   56bbb    H12 1642   3.468   4.691   3.153  1.8601  0.5267  1.3555
   56bbb     C7 1643   3.314   5.307   3.009 -0.1006 -0.0124  0.0756
   56bbb    H13 1644   3.412   5.272   2.974  0.9805  0.8805  2.0285
   56bbb    H14 1645   3.325   5.403   3.061  0.9664 -0.0610 -0.0311
   56bbb     C8 1646   3.504   4.834   3.310 -0.2456  0.1032  0.2008
   56bbb    H15 1647   3.454   4.770   3.383  1.4793 -1.1364  0.3617
   56bbb    H16 1648   3.475   4.937   3.333  0.3998  0.5671 -0.9484
   56bbb     C9 1649   2.897   4.912   3.014  0.2267 -0.3940 -1.2648
   56bbb    H17 1650   2.885   4.803   3.023  1.2087 -0.3500  2.0330
   56bbb    H18 1651   2.844   4.947   2.925 -0.5574 -1.6211 -1.3140
   56bbb     O1 1652   3.220   5.303   2.902 -0.0725 -0.1254  0.4696
   57bbb     N1 1653   3.934   4.595   2.554  0.6078 -0.2240 -0.4221
   57bbb     C1 1654   4.008   4.714   2.611 -0.4571  0.0899  0.2607
   57bbb     H1 1655   4.114   4.689   2.613 -1.0379 -3.1914 -1.6548
   57bbb     H2 1656   3.983   4.727   2.717 -1.9488 -0.7846  0.0512
   57bbb     C2 1657   3.983   4.546   2.422 -0.4790 -0.5458  0.7229
   57bbb     H3 1658   4.093   4.556   2.417 -0.4410 -1.4088 -1.1627
   57bbb     H4 1659   3.942   4.617   2.349  2.0825  3.5578  2.8525
   57bbb     C3 1660   3.791   4.589   2.562  0.1532 -0.0095  0.1404
   57bbb     H5 1661   3.753   4.487   2.567  0.4261 -0.0775  0.9090
   57bbb     H6 1662   3.748   4.631   2.470 -1.8587 -2.7032 -0.2748
   57bbb     C4 1663   3.728   4.667   2.687  0.3298 -0.4453  0.0792
   57bbb     H7 1664   3.757   4.773   2.679 -0.9920 -0.1628 -1.4466
   57bbb     H8 1665   3.768   4.624   2.779  1.4082 -0.7592 -0.5081
   57bbb     C5 1666   3.992   4.848   2.532 -1.2035  0.3236  0.0982
   57bbb     H9 1667   3.983   4.929   2.605 -3.3518 -0.4245  0.7311
   57bbb    H10 1668   3.896   4.837   2.480 -1.3982  0.2506  0.4719
   57bbb     C6 1669   3.947   4.401   2.376  0.2750  0.4438  0.5668
   57bbb    H11 1670   3.838   4.397   2.382  0.2066 -0.6191 -0.8376
   57bbb    H12 1671   3.984   4.329   2.451 -0.8805 -0.6104  0.1701
   57bbb     C7 1672   3.573   4.658   2.678 -0.3088 -0.1094 -0.0518
   57bbb    H13 1673   3.524   4.671   2.775 -4.1599  1.0045 -1.9321
   57bbb    H14 1674   3.546   4.558   2.645  2.6369 -1.5175  1.4284
   57bbb     C8 1675   3.989   4.352   2.235 -0.0231 -0.4894  0.3088
   57bbb    H15 1676   4.098   4.364   2.228 -0.3363  2.6529 -1.1813
   57bbb    H16 1677   3.960   4.411   2.148  2.1616 -2.8223 -2.1759
   57bbb     C9 1678   4.092   4.866   2.416 -0.3799 -0.5961 -0.5176
   57bbb    H17 1679   4.049   4.820   2.326  0.6100  2.1805 -2.5573
   57bbb    H18 1680   4.184   4.807   2.423 -0.8027 -1.3397 -1.0998
   57bbb     O1 1681   3.518   4.763   2.596 -0.0845  0.3192 -0.0202
   58bbb     N1 1682   1.706   6.834   3.581  0.0862 -0.5606  0.3287
   58bbb     C1 1683   1.754   6.960   3.518  0.4160 -0.4284 -0.2377
   58bbb     H1 1684   1.837   7.012   3.566 -0.5602  1.8498 -0.8670
   58bbb     H2 1685   1.673   7.034   3.509 -1.2957 -2.3399 -1.2968
   58bbb     C2 1686   1.675   6.864   3.721 -0.4184  0.2750  0.8969
   58bbb     H3 1687   1.772   6.883   3.768 -0.2860  1.8765  0.0144
   58bbb     H4 1688   1.633   6.778   3.774 -1.1429  0.6440  0.9269
   58bbb     C3 1689   1.798   6.719   3.565  0.4261  0.0765 -0.0964
   58bbb     H5 1690   1.899   6.742   3.602 -0.0125  0.2697  1.0260
   58bbb     H6 1691   1.794   6.694   3.458 -2.0208 -1.6018  0.3098
   58bbb     C4 1692   1.747   6.593   3.646  0.1182  0.0650 -0.4316
   58bbb     H7 1693   1.638   6.578   3.650  0.1217  0.2070  0.7078
   58bbb     H8 1694   1.777   6.604   3.751 -1.1421 -0.7273  0.0339
   58bbb     C5 1695   1.800   6.934   3.373 -0.2161 -0.0255  0.1620
   58bbb     H9 1696   1.729   6.873   3.315 -0.1282  1.4757 -1.6329
   58bbb    H10 1697   1.890   6.871   3.372 -2.1406 -2.9695 -0.4736
   58bbb     C6 1698   1.579   6.981   3.755  0.6556 -0.2844 -0.6677
   58bbb    H11 1699   1.634   7.076   3.759 -0.8822  0.8353 -3.4911
   58bbb    H12 1700   1.533   6.968   3.854 -1.0021  0.2876 -1.3360
   58bbb     C7 1701   1.821   6.468   3.593  0.0824 -0.1510  0.0983
   58bbb    H13 1702   1.930   6.481   3.584  0.2607 -2.7905 -4.6045
   58bbb    H14 1703   1.793   6.440   3.490 -0.4014 -0.6986  0.3758
   58bbb     C8 1704   1.452   6.989   3.668  0.1396  0.1480 -0.3310
   58bbb    H15 1705   1.483   7.003   3.564  3.2154  1.2805  0.6061
   58bbb    H16 1706   1.405   7.078   3.713  0.6615  0.1488  0.2159
   58bbb     C9 1707   1.817   7.059   3.284  1.1641 -0.0414  0.0851
   58bbb    H17 1708   1.721   7.108   3.302  1.4739 -0.0238  1.8994
   58bbb    H18 1709   1.823   7.048   3.175 -0.1165  0.6243 -0.0683
   58bbb     O1 1710   1.806   6.363   3.693  0.2147  0.3990 -0.2797
   59bbb     N1 1711   2.404   6.593   4.314 -0.2405 -0.8561  0.1260
   59bbb     C1 1712   2.447   6.699   4.216  0.2750 -0.0536  0.4880
   59bbb     H1 1713   2.379   6.785   4.211 -0.9903 -1.0650 -0.5752
   59bbb     H2 1714   2.439   6.655   4.115  0.3948 -1.3712  1.0336
   59bbb     C2 1715   2.420   6.631   4.459 -0.3024 -0.8281  0.0863
   59bbb     H3 1716   2.348   6.705   4.497 -0.8766 -2.1324  1.6492
   59bbb     H4 1717   2.515   6.682   4.475 -0.7045 -0.0288 -0.0490
   59bbb     C3 1718   2.261   6.556   4.286  0.0303 -0.8723 -0.6084
   59bbb     H5 1719   2.218   6.657   4.285  3.0940  0.5688 -0.3040
   59bbb     H6 1720   2.230   6.500   4.375  1.2923  0.1719  0.5447
   59bbb     C4 1721   2.248   6.485   4.144 -0.3214  0.2648 -0.2088
   59bbb     H7 1722   2.264   6.561   4.067 -1.9834  0.5233 -0.3305
   59bbb     H8 1723   2.146   6.450   4.123 -0.2669  0.5417 -0.9823
   59bbb     C5 1724   2.599   6.735   4.234  0.2764 -0.6291 -0.0195
   59bbb     H9 1725   2.616   6.796   4.323  0.2545  2.2607 -1.8872
   59bbb    H10 1726   2.640   6.785   4.145  3.3332 -1.1278  0.9715
   59bbb     C6 1727   2.412   6.516   4.561  0.3499  0.4366 -0.2088
   59bbb    H11 1728   2.464   6.428   4.520  0.3772  1.1248 -1.7060
   59bbb    H12 1729   2.303   6.505   4.566  0.3100  0.6134 -0.6454
   59bbb     C7 1730   2.347   6.366   4.125  0.0434  0.2897  0.1022
   59bbb    H13 1731   2.359   6.310   4.218 -0.0064  0.0247 -0.0502
   59bbb    H14 1732   2.439   6.414   4.088 -0.4706  1.2060 -0.0253
   59bbb     C8 1733   2.448   6.564   4.710  0.4535  0.2413 -0.0848
   59bbb    H15 1734   2.385   6.501   4.774  0.1106  0.1473 -0.5038
   59bbb    H16 1735   2.410   6.666   4.724 -2.5307 -0.7264 -0.3192
   59bbb     C9 1736   2.682   6.606   4.260  0.3001  0.0348 -0.0133
   59bbb    H17 1737   2.622   6.526   4.214  0.2565 -0.9444  1.6688
   59bbb    H18 1738   2.691   6.592   4.368 -1.5293  0.9162  0.2834
   59bbb     O1 1739   2.304   6.267   4.030  0.9631 -0.2966  0.8047
   60bbb     N1 1740   1.284   6.268   3.689 -0.2880  0.2724 -0.3262
   60bbb     C1 1741   1.218   6.169   3.774 -0.4943 -0.1827  0.0099
   60bbb     H1 1742   1.138   6.222   3.829 -2.1708 -0.4739 -2.0249
   60bbb     H2 1743   1.288   6.119   3.842  1.0971 -2.2928 -2.9719
   60bbb     C2 1744   1.314   6.397   3.756  0.3989  0.2405  0.3019
   60bbb     H3 1745   1.229   6.417   3.822  0.4637 -0.3475  0.5717
   60bbb     H4 1746   1.323   6.475   3.679 -1.1069 -0.5426 -0.7339
   60bbb     C3 1747   1.395   6.205   3.621 -1.1756 -0.6892  0.4511
   60bbb     H5 1748   1.366   6.109   3.577 -0.7519 -1.9807  2.8558
   60bbb     H6 1749   1.482   6.180   3.683  0.4709 -1.8720 -2.1733
   60bbb     C4 1750   1.445   6.281   3.492 -0.1785 -0.0556 -0.3513
   60bbb     H7 1751   1.469   6.384   3.518  0.6589  0.1426 -1.7784
   60bbb     H8 1752   1.363   6.282   3.419 -0.0035  0.5658 -0.5461
   60bbb     C5 1753   1.144   6.062   3.696 -0.2714  0.7489 -0.3196
   60bbb     H9 1754   1.213   5.990   3.650 -1.9200 -1.4910  0.5462
   60bbb    H10 1755   1.111   6.106   3.601  2.7066  3.0547 -0.4163
   60bbb     C6 1756   1.437   6.400   3.859 -0.1405 -0.1501 -0.2962
   60bbb    H11 1757   1.526   6.389   3.796  0.4631 -0.5925  0.6064
   60bbb    H12 1758   1.438   6.318   3.932 -0.9644 -0.6498 -0.8270
   60bbb     C7 1759   1.576   6.217   3.434  0.1168 -0.7518 -0.0759
   60bbb    H13 1760   1.637   6.187   3.520 -1.4767 -0.4801  1.2002
   60bbb    H14 1761   1.624   6.295   3.374 -1.6252  1.0756  0.7928
   60bbb     C8 1762   1.443   6.530   3.933 -0.9219  0.0700 -0.1391
   60bbb    H15 1763   1.447   6.611   3.858  3.5520 -1.7546 -2.2063
   60bbb    H16 1764   1.542   6.528   3.979 -0.9689  0.2639 -0.0259
   60bbb     C9 1765   1.035   5.988   3.780  1.1769  0.3872  0.1869
   60bbb    H17 1766   1.084   5.943   3.867 -0.2058 -0.1653  0.7088
   60bbb    H18 1767   0.993   5.900   3.730  0.2652 -0.3109  2.0914
   60bbb     O1 1768   1.535   6.108   3.349  0.3001  0.7679  0.1120
   61bbb     N1 1769   1.268   5.252   3.941 -0.1066 -0.2263  0.0359
   61bbb     C1 1770   1.218   5.155   3.839 -0.6032 -0.0183  0.4301
   61bbb     H1 1771   1.295   5.151   3.761 -0.3010  1.8818  0.5760
   61bbb     H2 1772   1.124   5.189   3.793  0.3835  1.3553 -0.6590
   61bbb     C2 1773   1.401   5.218   4.014  1.4704  0.6848  0.6344
   61bbb     H3 1774   1.381   5.123   4.064 -0.4408  0.7518  0.0583
   61bbb     H4 1775   1.420   5.284   4.099  0.1665  0.1590  1.3515
   61bbb     C3 1776   1.254   5.384   3.881 -0.0468 -0.7687 -0.2771
   61bbb     H5 1777   1.156   5.413   3.843 -0.3660  2.9196  2.7812
   61bbb     H6 1778   1.310   5.376   3.787  0.7541  0.3118  0.0847
   61bbb     C4 1779   1.301   5.507   3.966 -0.0772 -0.4305  0.2315
   61bbb     H7 1780   1.409   5.498   3.987 -0.3068 -0.0881  1.6345
   61bbb     H8 1781   1.243   5.522   4.057 -0.3201  1.8684 -0.2622
   61bbb     C5 1782   1.192   5.013   3.899 -0.5403  0.2150  0.5022
   61bbb     H9 1783   1.295   4.979   3.915 -0.6042 -0.2439 -0.0302
   61bbb    H10 1784   1.147   4.945   3.825  1.4808 -2.7197  1.7733
   61bbb     C6 1785   1.527   5.213   3.915  0.5326 -0.0621 -0.2783
   61bbb    H11 1786   1.523   5.280   3.828  0.6338 -1.9431 -1.8089
   61bbb    H12 1787   1.553   5.113   3.876 -0.7734 -0.8100  0.6865
   61bbb     C7 1788   1.288   5.635   3.879 -0.1674  0.4072 -0.5474
   61bbb    H13 1789   1.254   5.722   3.936 -0.5676  0.4557 -0.8560
   61bbb    H14 1790   1.222   5.616   3.793  0.4205 -3.1229 -0.3759
   61bbb     C8 1791   1.657   5.249   3.992 -0.2083 -0.0670 -0.4815
   61bbb    H15 1792   1.659   5.178   4.076 -2.1747 -0.7139 -0.9399
   61bbb    H16 1793   1.642   5.346   4.040  1.1670  0.1725 -0.4911
   61bbb     C9 1794   1.122   5.010   4.035  0.0265  0.0142 -0.0663
   61bbb    H17 1795   1.022   5.053   4.023  0.1356  0.5262  0.8206
   61bbb    H18 1796   1.181   5.074   4.101  2.2824 -1.6156 -0.3914
   61bbb     O1 1797   1.415   5.654   3.813 -0.3565 -0.5713  0.1448
   62ccc     C1 1798   5.035   8.267   2.383 -0.4684  0.0248  0.2768
   62ccc     C2 1799   5.138   8.166   2.438  0.4381 -0.2144 -0.6131
   62ccc     H1 1800   5.001   8.323   2.471  1.8259  0.8127  0.7477
   62ccc     H2 1801   5.222   8.214   2.490 -0.0668  0.0471 -0.0319
   62ccc     C3 1802   5.073   8.083   2.548 -0.0101  0.2572 -0.1347
   62ccc     C4 1803   4.941   8.009   2.481 -0.2559 -0.3979  0.0033
   62ccc     C5 1804   4.843   8.113   2.410  0.4505 -0.0841 -0.3734
   62ccc     H3 1805   4.973   7.933   2.409 -0.7962 -1.1065  0.4914
   62ccc     H4 1806   5.038   8.142   2.633  0.9499 -0.3054  0.6718
   62ccc     H5 1807   4.800   8.185   2.481 -0.4393 -0.0892 -0.8877
   62ccc     O1 1808   4.741   8.051   2.332  0.1191 -0.5639  0.0880
   62ccc     O2 1809   4.863   7.937   2.588  0.0734 -0.6555  0.3470
   62ccc     O3 1810   5.172   7.977   2.606  0.5686 -0.8063  0.3212
   62ccc     O4 1811   5.182   8.092   2.328 -0.1780 -0.4669 -0.2197
   62ccc     C6 1812   5.104   8.366   2.279  0.6096  0.5217  0.2930
   62ccc     H6 1813   5.115   7.935   2.673 -1.1728 -0.3644 -0.7874
   62ccc     H7 1814   5.225   8.017   2.372 -0.3983  0.0507  0.9055
   62ccc     H8 1815   4.817   7.864   2.543  2.3640 -0.2527 -3.0598
   62ccc     H9 1816   5.187   8.422   2.325  0.1551  1.0171  0.5200
   62ccc    H10 1817   5.031   8.434   2.233 -1.1236 -0.1712  1.9170
   62ccc     O5 1818   5.155   8.284   2.168 -0.0079  0.1750  0.2949
   62ccc    H11 1819   5.175   8.210   2.227  2.4699  0.3677 -0.2097
   62ccc     O6 1820   4.919   8.201   2.319 -0.0887  0.2559 -0.3743
   63ccc     C1 1821   4.803   7.370   1.694 -0.8678  0.3744  0.2511
   63ccc     C2 1822   4.946   7.428   1.701 -1.0561 -1.0656  0.1125
   63ccc     H1 1823   4.763   7.368   1.592  0.5348  3.1204 -0.4626
   63ccc     H2 1824   5.012   7.370   1.635  0.3256  1.7024 -1.1166
   63ccc     C3 1825   4.946   7.576   1.661  0.2025  0.1679 -0.2429
   63ccc     C4 1826   4.840   7.651   1.740  0.0683 -0.0304 -0.6976
   63ccc     C5 1827   4.698   7.585   1.736  0.2454 -0.4759  0.3306
   63ccc     H3 1828   4.879   7.645   1.843 -0.8291  0.3554 -0.3232
   63ccc     H4 1829   4.910   7.573   1.558 -0.7733  1.8229  0.0087
   63ccc     H5 1830   4.665   7.584   1.632  0.5719 -1.3942  0.2202
   63ccc     O1 1831   4.607   7.665   1.815 -0.1494  0.1249  0.2623
   63ccc     O2 1832   4.838   7.788   1.686 -0.6993 -0.4840 -0.2418
   63ccc     O3 1833   5.081   7.624   1.663  0.1370  0.1666  0.5478
   63ccc     O4 1834   4.992   7.416   1.838 -0.0171  0.0794 -0.4150
   63ccc     C6 1835   4.801   7.220   1.743 -0.5548 -0.0019  0.2376
   63ccc     H6 1836   5.100   7.632   1.758  1.6807  1.1627  0.1814
   63ccc     H7 1837   5.052   7.339   1.832  1.0948  1.0053 -1.5703
   63ccc     H8 1838   4.832   7.841   1.767  2.2838 -0.4117  0.0491
   63ccc     H9 1839   4.856   7.212   1.838 -0.4131  1.3233  0.2801
   63ccc    H10 1840   4.854   7.151   1.676  1.1651 -0.5972  2.0781
   63ccc     O5 1841   4.663   7.188   1.755 -0.1537 -0.9800 -0.8142
   63ccc    H11 1842   4.634   7.233   1.836 -1.6579 -0.0246 -1.8225
   63ccc     O6 1843   4.714   7.450   1.773  0.6155  0.8424 -0.3848
   64ccc     C1 1844   3.449   7.121   1.962  0.0443 -0.2538  0.6331
   64ccc     C2 1845   3.578   7.178   1.904  0.9026  0.0850 -0.5082
   64ccc     H1 1846   3.370   7.123   1.885 -0.8881  3.3324  1.4846
   64ccc     H2 1847   3.599   7.128   1.808 -1.7407  0.1271 -1.1955
   64ccc     C3 1848   3.567   7.326   1.866  0.3264  0.0248  0.7653
   64ccc     C4 1849   3.511   7.413   1.985  1.1999  0.5221 -0.6311
   64ccc     C5 1850   3.383   7.345   2.041 -0.6649 -0.5807  0.0983
   64ccc     H3 1851   3.582   7.391   2.066  2.3592 -2.0095 -2.1985
   64ccc     H4 1852   3.499   7.346   1.782 -0.1996  0.1010  1.1988
   64ccc     H5 1853   3.308   7.370   1.966 -0.0058  1.3892  0.0394
   64ccc     O1 1854   3.358   7.415   2.164 -0.1545 -0.1149  0.0212
   64ccc     O2 1855   3.489   7.556   1.965 -0.0189 -0.6730 -0.2800
   64ccc     O3 1856   3.691   7.373   1.813 -0.6157 -0.2406  0.0557
   64ccc     O4 1857   3.680   7.151   1.994  0.0485  0.3904  0.0271
   64ccc     C6 1858   3.451   6.979   2.006  0.3000  0.4285 -1.2621
   64ccc     H6 1859   3.749   7.388   1.890 -1.5268  0.5691  0.6221
   64ccc     H7 1860   3.761   7.158   1.940  0.9450  2.4186  1.5168
   64ccc     H8 1861   3.411   7.571   1.909 -0.9559 -1.6720  0.6950
   64ccc     H9 1862   3.467   6.915   1.918  1.7010 -0.4235 -0.4296
   64ccc    H10 1863   3.355   6.955   2.053  1.5815 -0.0154  1.3289
   64ccc     O5 1864   3.549   6.969   2.104 -0.1140 -0.2520 -0.0820
   64ccc    H11 1865   3.612   7.041   2.091  0.0009  0.2159  2.5585
   64ccc     O6 1866   3.399   7.205   2.072 -0.3786 -0.8765 -0.1345
   65ccc     C1 1867   2.473   7.081   2.892  0.7052 -0.6650  0.4929
   65ccc     C2 1868   2.386   7.195   2.951 -0.1446  0.2456 -0.4621
   65ccc     H1 1869   2.499   7.000   2.962  1.2415  0.0184  1.1025
   65ccc     H2 1870   2.304   7.143   3.003  0.3697 -1.6155 -1.4053
   65ccc     C3 1871   2.469   7.276   3.055  0.1548  0.2894  0.0696
   65ccc     C4 1872   2.599   7.343   2.997  0.8120  0.4494  0.3831
   65ccc     C5 1873   2.686   7.231   2.916  0.2272  0.0172  0.0885
   65ccc     H3 1874   2.563   7.423   2.931  0.5896 -0.9227 -1.2484
   65ccc     H4 1875   2.510   7.201   3.123 -0.2588 -1.4981 -1.5725
   65ccc     H5 1876   2.738   7.173   2.993 -0.1831  0.6191  0.8303
   65ccc     O1 1877   2.775   7.303   2.830  0.1575 -0.7230 -0.3408
   65ccc     O2 1878   2.676   7.393   3.109 -0.0701  0.4778 -0.0618
   65ccc     O3 1879   2.384   7.372   3.127  0.9454 -0.1676  0.0633
   65ccc     O4 1880   2.324   7.281   2.855  0.0753 -0.8684  0.2179
   65ccc     C6 1881   2.410   7.013   2.778  0.3945 -0.0278  0.2124
   65ccc     H6 1882   2.310   7.321   3.165  0.8424  1.1594  1.7303
   65ccc     H7 1883   2.256   7.327   2.908  0.4281  0.6969 -0.6096
   65ccc     H8 1884   2.711   7.479   3.079 -0.9899  0.9958  0.3208
   65ccc     H9 1885   2.427   7.073   2.688 -0.9582 -2.1464 -1.5489
   65ccc    H10 1886   2.302   7.016   2.800  0.3908 -0.7804  0.3192
   65ccc     O5 1887   2.455   6.880   2.770  0.3962 -0.0228 -0.6074
   65ccc    H11 1888   2.519   6.883   2.697  0.2118 -0.4314 -0.7902
   65ccc     O6 1889   2.598   7.145   2.840  0.1692 -0.5742 -1.0765
   66ccc     C1 1890   4.257   5.673   2.465  0.8757  0.5502 -0.1904
   66ccc     C2 1891   4.320   5.575   2.358  0.5083 -0.1916  0.8195
   66ccc     H1 1892   4.164   5.719   2.429 -0.1155 -1.7467 -0.7590
   66ccc     H2 1893   4.245   5.505   2.321  1.6487  0.3238 -2.9299
   66ccc     C3 1894   4.365   5.666   2.234 -0.2420 -0.5565  0.1433
   66ccc     C4 1895   4.469   5.771   2.288 -0.2719 -0.2519  0.3860
   66ccc     C5 1896   4.395   5.863   2.388  0.7336  0.2742 -1.3205
   66ccc     H3 1897   4.552   5.728   2.345 -0.6841 -0.2711  0.9851
   66ccc     H4 1898   4.279   5.719   2.192 -0.3360 -0.7406  0.1038
   66ccc     H5 1899   4.308   5.910   2.340 -1.8058  2.6032  4.5703
   66ccc     O1 1900   4.483   5.975   2.435 -0.0181  0.0325 -0.7577
   66ccc     O2 1901   4.501   5.854   2.175 -0.1701  0.6078 -0.0743
   66ccc     O3 1902   4.419   5.583   2.130 -0.6676  0.4468  0.2434
   66ccc     O4 1903   4.432   5.504   2.422 -0.3595  0.1042 -0.4429
   66ccc     C6 1904   4.230   5.596   2.600 -0.8094  0.9679  0.1679
   66ccc     H6 1905   4.362   5.505   2.115 -0.4883  0.4773 -0.6678
   66ccc     H7 1906   4.434   5.428   2.361 -1.6216  0.5891 -1.1140
   66ccc     H8 1907   4.567   5.918   2.208  1.1266 -0.5888 -0.2538
   66ccc     H9 1908   4.324   5.565   2.645 -1.0346  0.2897  0.1836
   66ccc    H10 1909   4.170   5.506   2.577 -0.2260  0.9056 -1.2413
   66ccc     O5 1910   4.162   5.688   2.681 -0.1299  0.1267 -0.0600
   66ccc    H11 1911   4.234   5.752   2.694  0.7693 -1.0534  1.0074
   66ccc     O6 1912   4.344   5.779   2.503 -0.3117 -0.3351  0.2875
   67ccc     C1 1913   5.247   6.315   2.141  0.0047  0.5055  0.1953
   67ccc     C2 1914   5.331   6.192   2.107  0.9660 -0.2748 -0.0238
   67ccc     H1 1915   5.264   6.344   2.245 -0.1484  0.2736  0.2861
   67ccc     H2 1916   5.437   6.215   2.120  0.9909  1.3759 -2.5096
   67ccc     C3 1917   5.294   6.067   2.195  0.1584 -0.5374  0.1489
   67ccc     C4 1918   5.139   6.043   2.190  0.4898  0.2344 -0.5353
   67ccc     C5 1919   5.061   6.178   2.226 -0.1067  0.0195  0.2243
   67ccc     H3 1920   5.109   6.024   2.086  2.2369  0.1637 -1.0595
   67ccc     H4 1921   5.325   6.103   2.294  0.2759  0.8711 -0.3713
   67ccc     H5 1922   5.095   6.205   2.327 -0.2315 -1.7940  0.7770
   67ccc     O1 1923   4.921   6.164   2.200  0.0003 -0.0544 -0.3134
   67ccc     O2 1924   5.110   5.933   2.283  0.0552  0.0095 -0.3761
   67ccc     O3 1925   5.375   5.951   2.163 -0.0064  0.2114 -0.0427
   67ccc     O4 1926   5.310   6.165   1.969  0.1168  0.2834  0.2387
   67ccc     C6 1927   5.267   6.440   2.055  0.3815  0.2359 -0.1828
   67ccc     H6 1928   5.356   5.931   2.070 -2.3248 -1.1481  0.6438
   67ccc     H7 1929   5.402   6.156   1.939 -0.4075 -0.4618 -1.2309
   67ccc     H8 1930   5.154   5.852   2.251 -0.5940 -0.2012 -0.7618
   67ccc     H9 1931   5.373   6.462   2.073  0.5087  0.7734 -1.4363
   67ccc    H10 1932   5.203   6.520   2.095  0.5929 -0.0556  0.7655
   67ccc     O5 1933   5.233   6.414   1.920  0.4332  0.2560  0.2142
   67ccc    H11 1934   5.251   6.319   1.924 -0.4151  0.0547 -0.4605
   67ccc     O6 1935   5.111   6.280   2.139  0.0322  0.0630 -0.8256
   68ccc     C1 1936   6.050   7.795   2.411  0.0142 -0.0920 -0.2508
   68ccc     C2 1937   6.141   7.721   2.512 -0.0925  0.3694 -0.5056
   68ccc     H1 1938   6.012   7.886   2.459 -2.4100 -1.1851  0.0471
   68ccc     H2 1939   6.216   7.790   2.553 -2.5828  1.3351  2.8348
   68ccc     C3 1940   6.059   7.643   2.622 -0.5204 -0.5123 -0.6953
   68ccc     C4 1941   5.944   7.561   2.553  0.0899 -0.3224 -0.3170
   68ccc     C5 1942   5.854   7.659   2.468 -0.1469  0.8083 -0.5094
   68ccc     H3 1943   5.988   7.488   2.484 -3.5735 -1.3388 -1.8066
   68ccc     H4 1944   6.019   7.725   2.683 -0.9722 -0.3498 -1.1944
   68ccc     H5 1945   5.815   7.739   2.532  0.6044 -0.0958  1.1340
   68ccc     O1 1946   5.740   7.584   2.408 -0.4226 -0.1674 -0.1295
   68ccc     O2 1947   5.874   7.487   2.660  0.5965 -0.0709 -0.2884
   68ccc     O3 1948   6.142   7.553   2.705  0.7804  0.1734 -0.7828
   68ccc     O4 1949   6.205   7.622   2.432 -0.4867 -0.6071  0.3238
   68ccc     C6 1950   6.122   7.856   2.291 -0.0203 -0.5537  0.1726
   68ccc     H6 1951   6.197   7.603   2.767 -0.2859  1.6735 -1.0012
   68ccc     H7 1952   6.285   7.603   2.484 -1.4561  1.8065  2.9332
   68ccc     H8 1953   5.832   7.410   2.617 -2.2424  1.2197 -0.0884
   68ccc     H9 1954   6.165   7.773   2.234 -0.5022 -0.0410 -0.9712
   68ccc    H10 1955   6.203   7.910   2.342  0.4815 -1.7043  0.6343
   68ccc     O5 1956   6.032   7.934   2.211 -0.3358  0.1608 -0.6587
   68ccc    H11 1957   6.063   7.928   2.118 -0.8746  1.6010 -0.9445
   68ccc     O6 1958   5.936   7.719   2.367  0.4448 -0.8270  0.1863
   69ccc     C1 1959   4.942   7.850   2.082 -0.7415  0.0651  0.3341
   69ccc     C2 1960   4.878   7.976   2.006 -0.6535 -0.0059  0.0370
   69ccc     H1 1961   5.003   7.881   2.167  1.4832  1.1611 -1.5682
   69ccc     H2 1962   4.830   8.048   2.074  1.1831  1.6841 -0.3584
   69ccc     C3 1963   4.998   8.065   1.946  0.2298 -0.0625  0.0395
   69ccc     C4 1964   5.096   7.970   1.873  0.3394  0.1102 -0.3221
   69ccc     C5 1965   5.147   7.847   1.964  0.5974 -0.1297  0.4280
   69ccc     H3 1966   5.038   7.930   1.788  2.4800 -1.4695 -1.1303
   69ccc     H4 1967   5.052   8.111   2.030 -0.1535 -0.2161  0.3732
   69ccc     H5 1968   5.209   7.874   2.050  1.3798 -2.3444  0.6283
   69ccc     O1 1969   5.228   7.755   1.880  0.1942  0.8393  0.3583
   69ccc     O2 1970   5.196   8.045   1.813  0.0411  0.5601 -0.0382
   69ccc     O3 1971   4.945   8.166   1.855  0.2138 -0.1334  0.2734
   69ccc     O4 1972   4.793   7.931   1.905  0.1774 -0.2299  0.7282
   69ccc     C6 1973   4.824   7.760   2.134  0.2145 -0.6912 -0.1267
   69ccc     H6 1974   5.012   8.235   1.836 -0.5361  0.8355  0.9891
   69ccc     H7 1975   4.748   8.016   1.888 -0.1639 -0.3293  1.1094
   69ccc     H8 1976   5.254   7.987   1.761 -0.2110  0.0349  0.2607
   69ccc     H9 1977   4.776   7.714   2.047  1.9028 -1.3466 -0.7480
   69ccc    H10 1978   4.765   7.831   2.193  2.4847 -0.1165  1.5910
   69ccc     O5 1979   4.866   7.657   2.221 -0.0314 -0.6284  0.6667
   69ccc    H11 1980   4.898   7.582   2.168  0.2595 -1.6555  2.2159
   69ccc     O6 1981   5.024   7.777   1.988 -0.3498 -0.2079  0.1722
   70ccc     C1 1982   5.066   5.701   2.695 -0.3465  0.1137 -0.3015
   70ccc     C2 1983   5.030   5.755   2.554 -0.8252 -0.0045  0.1690
   70ccc     H1 1984   5.038   5.595   2.709 -2.1444  0.7095  1.0559
   70ccc     H2 1985   5.072   5.692   2.475 -3.0017  0.3895 -1.3881
   70ccc     C3 1986   4.881   5.758   2.542  0.2986 -0.2087 -0.1899
   70ccc     C4 1987   4.812   5.841   2.654 -0.2650  0.1339 -0.1133
   70ccc     C5 1988   4.853   5.770   2.785 -0.0580 -1.1424  0.1005
   70ccc     H3 1989   4.862   5.938   2.653  3.0905 -1.4544  0.1814
   70ccc     H4 1990   4.839   5.657   2.553 -1.5068  0.2653 -1.9500
   70ccc     H5 1991   4.830   5.663   2.788 -0.4102 -1.0520  2.1973
   70ccc     O1 1992   4.803   5.831   2.915  0.9432 -0.3483  0.9063
   70ccc     O2 1993   4.669   5.846   2.645 -0.6302  0.0246  0.2504
   70ccc     O3 1994   4.835   5.813   2.414  0.3468 -0.2493  0.0085
   70ccc     O4 1995   5.081   5.893   2.554 -0.2754 -0.4147  0.2113
   70ccc     C6 1996   5.213   5.685   2.733 -0.1032  0.0091 -0.2299
   70ccc     H6 1997   4.873   5.757   2.345  0.3784 -1.2912  0.8368
   70ccc     H7 1998   5.092   5.910   2.459 -1.7203 -1.2049 -0.1324
   70ccc     H8 1999   4.661   5.879   2.553  0.1638 -1.7463 -0.5084
   70ccc     H9 2000   5.261   5.620   2.659  1.4211  3.0191 -2.0975
   70ccc    H10 2001   5.210   5.646   2.835  0.5079 -1.0126 -0.5924
   70ccc     O5 2002   5.270   5.814   2.717  0.0349 -0.0110 -0.2502
   70ccc    H11 2003   5.197   5.855   2.668 -0.9402  1.9720  2.6320
   70ccc     O6 2004   4.994   5.783   2.796  0.0137  0.1502  1.2074
   71ccc     C1 2005   5.688   5.474   3.387  0.3186 -0.3926 -0.0544
   71ccc     C2 2006   5.768   5.387   3.290 -0.3244 -0.2183 -0.3733
   71ccc     H1 2007   5.638   5.411   3.462 -0.6558 -0.4000 -0.6863
   71ccc     H2 2008   5.829   5.312   3.344  1.2408  0.9351 -0.4672
   71ccc     C3 2009   5.674   5.302   3.202  0.2867  0.2259 -0.2025
   71ccc     C4 2010   5.579   5.399   3.126 -0.2479  0.4987  0.3133
   71ccc     C5 2011   5.499   5.483   3.238  0.0039 -0.1901  0.6355
   71ccc     H3 2012   5.641   5.473   3.073  0.5180 -0.1313  0.3050
   71ccc     H4 2013   5.601   5.246   3.264 -0.5101 -0.9739 -2.1322
   71ccc     H5 2014   5.448   5.412   3.304 -1.1838  0.0424 -0.0002
   71ccc     O1 2015   5.399   5.570   3.182  0.0445 -0.5110 -0.7379
   71ccc     O2 2016   5.485   5.331   3.036 -0.7218  0.0742  0.9827
   71ccc     O3 2017   5.733   5.214   3.110  0.0309 -0.5953  0.0485
   71ccc     O4 2018   5.852   5.467   3.203  0.4560 -0.3163  0.2266
   71ccc     C6 2019   5.783   5.575   3.459  0.0880  0.6279  0.3218
   71ccc     H6 2020   5.663   5.204   3.044 -0.9133 -1.1713  1.1042
   71ccc     H7 2021   5.943   5.431   3.206 -0.3239 -2.4039  1.0134
   71ccc     H8 2022   5.470   5.401   2.969 -0.4390 -0.8273 -0.0578
   71ccc     H9 2023   5.810   5.641   3.375 -0.8929 -1.4709 -1.7443
   71ccc    H10 2024   5.877   5.528   3.489 -0.7032 -1.1748  0.1116
   71ccc     O5 2025   5.715   5.635   3.569  0.4439 -0.3387  0.2438
   71ccc    H11 2026   5.753   5.725   3.575  0.9123 -0.6028  2.1766
   71ccc     O6 2027   5.600   5.560   3.311 -0.3149 -0.4762 -0.1397
   72ccc     C1 2028   6.014   7.166   5.016 -0.3774 -0.2428 -0.2605
   72ccc     C2 2029   6.134   7.122   5.104  0.5028  0.0235 -0.2295
   72ccc     H1 2030   5.917   7.142   5.060 -0.3762  1.6094  0.8993
   72ccc     H2 2031   6.111   7.148   5.208 -0.9981 -0.8523 -0.3087
   72ccc     C3 2032   6.162   6.971   5.099  0.9061  0.2404 -0.3114
   72ccc     C4 2033   6.150   6.918   4.956 -0.9848  1.3536  0.0632
   72ccc     C5 2034   6.032   6.971   4.867  0.0824 -0.5836  0.1501
   72ccc     H3 2035   6.241   6.949   4.904  0.6346 -2.9265 -0.0594
   72ccc     H4 2036   6.072   6.926   5.144  0.8992  0.6896  0.1284
   72ccc     H5 2037   5.939   6.930   4.907  0.3147  0.5991  2.0195
   72ccc     O1 2038   6.065   6.938   4.727  0.0722 -0.2186 -0.2035
   72ccc     O2 2039   6.154   6.771   4.953  0.1852  0.1405 -0.5272
   72ccc     O3 2040   6.275   6.909   5.166 -0.3357 -0.1137 -0.3723
   72ccc     O4 2041   6.253   7.192   5.056 -0.2547  0.1516  0.4175
   72ccc     C6 2042   5.996   7.322   5.022  0.6413 -0.7957  0.1842
   72ccc     H6 2043   6.251   6.817   5.184 -0.7626  0.1198  0.3026
   72ccc     H7 2044   6.332   7.143   5.085 -0.8526 -0.1829  1.5390
   72ccc     H8 2045   6.249   6.753   4.963  0.4738  1.3477 -0.8594
   72ccc     H9 2046   5.949   7.348   5.118  0.6036  0.0530 -0.0576
   72ccc    H10 2047   5.919   7.342   4.947  0.4341 -0.8204  0.3880
   72ccc     O5 2048   6.113   7.388   4.998 -0.0508 -0.1725  0.6944
   72ccc    H11 2049   6.175   7.315   5.014  0.7378  0.7858  2.2648
   72ccc     O6 2050   6.022   7.117   4.881 -0.0864 -0.0337 -0.1762
   73ccc     C1 2051   5.953   7.128   4.001 -0.5753 -0.3889 -0.6346
   73ccc     C2 2052   6.095   7.150   3.943 -0.3025 -0.0970 -0.8349
   73ccc     H1 2053   5.934   7.205   4.078 -1.8715  1.2553 -2.4978
   73ccc     H2 2054   6.091   7.251   3.900 -0.9388 -0.3114 -1.3024
   73ccc     C3 2055   6.198   7.143   4.055  0.2180  0.6163 -0.3010
   73ccc     C4 2056   6.188   7.014   4.129  0.2541 -0.4132  0.6635
   73ccc     C5 2057   6.041   6.978   4.167 -0.1078  0.3231  1.3188
   73ccc     H3 2058   6.217   6.943   4.051 -1.7803  1.2491 -1.7494
   73ccc     H4 2059   6.179   7.212   4.138 -2.3379 -0.6659  0.2643
   73ccc     H5 2060   6.014   7.046   4.250  2.8444  2.8035  0.4436
   73ccc     O1 2061   6.031   6.839   4.208  0.1208  0.2603 -0.1502
   73ccc     O2 2062   6.284   7.006   4.248  0.3734  0.0225  0.2062
   73ccc     O3 2063   6.333   7.157   3.994 -0.2056  0.8145 -0.1541
   73ccc     O4 2064   6.119   7.054   3.843  0.1919  0.2318  0.5020
   73ccc     C6 2065   5.841   7.156   3.905 -0.2543  0.3046 -0.3745
   73ccc     H6 2066   6.362   7.249   4.007 -1.1994  1.0827  0.2671
   73ccc     H7 2067   6.209   7.066   3.808  0.7201 -2.3632  0.7943
   73ccc     H8 2068   6.371   7.023   4.208  0.1979 -0.5074 -0.4016
   73ccc     H9 2069   5.849   7.253   3.854 -2.1529  0.0842 -1.1813
   73ccc    H10 2070   5.749   7.139   3.962 -0.5309 -1.1920 -1.2071
   73ccc     O5 2071   5.859   7.062   3.804  0.3384  0.4215  0.5353
   73ccc    H11 2072   5.955   7.047   3.799  0.5153  1.2200  1.2729
   73ccc     O6 2073   5.943   6.999   4.062 -0.3117 -0.2920  0.3390
   74ccc     C1 2074   5.266   7.736   3.210  0.1881 -0.0870  0.6503
   74ccc     C2 2075   5.225   7.881   3.177 -0.2811 -0.4615 -0.1413
   74ccc     H1 2076   5.360   7.720   3.157 -0.0791 -0.5736  0.3147
   74ccc     H2 2077   5.315   7.940   3.195  0.1162 -0.6752 -1.2982
   74ccc     C3 2078   5.188   7.907   3.020 -0.2664  0.0325 -0.7924
   74ccc     C4 2079   5.096   7.801   2.963 -0.1988  0.4394 -0.2147
   74ccc     C5 2080   5.134   7.654   3.008 -0.0777 -0.5589 -0.2660
   74ccc     H3 2081   4.994   7.815   3.002  0.2528 -0.7492  1.4869
   74ccc     H4 2082   5.284   7.890   2.970  0.1056  0.5867 -0.2888
   74ccc     H5 2083   5.212   7.603   2.950 -0.1104 -1.5936  0.5544
   74ccc     O1 2084   5.010   7.581   2.983 -0.2519 -0.3755  0.2471
   74ccc     O2 2085   5.083   7.818   2.815 -0.0209  0.5711  0.3436
   74ccc     O3 2086   5.142   8.040   2.979 -0.1000  0.5468  0.5412
   74ccc     O4 2087   5.125   7.922   3.261  0.2209  0.2183 -0.8441
   74ccc     C6 2088   5.268   7.697   3.356  0.5706  0.2826 -0.2825
   74ccc     H6 2089   5.052   8.047   3.014  0.6470  2.0815  2.3079
   74ccc     H7 2090   5.137   8.017   3.272  0.0356 -0.0493  3.2157
   74ccc     H8 2091   5.025   7.751   2.774  0.3927 -1.5206  2.9435
   74ccc     H9 2092   5.175   7.720   3.409 -0.2002 -2.3080 -0.3994
   74ccc    H10 2093   5.347   7.758   3.402  0.3056  0.0697  0.4634
   74ccc     O5 2094   5.296   7.557   3.360 -0.8188 -0.3036 -0.0994
   74ccc    H11 2095   5.391   7.550   3.342 -0.4991 -1.5631  1.7844
   74ccc     O6 2096   5.164   7.645   3.150  0.0017 -0.3224  0.2334
   75ccc     C1 2097   5.505   7.499   2.783  0.1974 -0.4916  0.1958
   75ccc     C2 2098   5.568   7.636   2.810  0.1009 -0.0309  0.0591
   75ccc     H1 2099   5.556   7.448   2.701 -0.3420 -2.1634  0.8544
   75ccc     H2 2100   5.674   7.620   2.833 -0.3045 -1.0724  1.3066
   75ccc     C3 2101   5.534   7.737   2.696  0.7954  0.1032 -0.3523
   75ccc     C4 2102   5.388   7.731   2.647  1.1203 -1.7773 -0.5205
   75ccc     C5 2103   5.328   7.587   2.636 -0.2679 -0.6456  0.0829
   75ccc     H3 2104   5.336   7.771   2.735  2.6533 -2.1934  0.6033
   75ccc     H4 2105   5.593   7.702   2.610 -1.6835 -1.1524 -1.6697
   75ccc     H5 2106   5.369   7.547   2.542 -0.1382  0.0091 -0.1457
   75ccc     O1 2107   5.179   7.602   2.618 -0.3776  0.6630  0.6050
   75ccc     O2 2108   5.378   7.819   2.531  0.1008  0.0918  0.3780
   75ccc     O3 2109   5.580   7.868   2.741  0.4429 -0.2110 -0.0808
   75ccc     O4 2110   5.514   7.684   2.931 -0.3554 -0.6760 -0.2068
   75ccc     C6 2111   5.508   7.398   2.898  0.1116 -0.7216 -0.3537
   75ccc     H6 2112   5.581   7.924   2.661  0.6826  0.6600  0.5181
   75ccc     H7 2113   5.546   7.776   2.941  0.8927 -1.1546  0.5017
   75ccc     H8 2114   5.299   7.871   2.555 -0.5518 -0.0027 -1.4256
   75ccc     H9 2115   5.615   7.384   2.918  0.6970  1.3629 -1.7111
   75ccc    H10 2116   5.465   7.299   2.874  0.5498 -0.5246 -2.1045
   75ccc     O5 2117   5.449   7.453   3.015  0.6157 -0.1654  0.4718
   75ccc    H11 2118   5.456   7.548   2.995 -0.6554 -0.0829  0.2930
   75ccc     O6 2119   5.360   7.512   2.755 -0.7249 -0.7275 -0.2349
   76ccc     C1 2120   5.572   7.049   1.146 -0.3565 -0.1895 -0.9382
   76ccc     C2 2121   5.507   7.170   1.072  0.2313 -0.5693 -0.2088
   76ccc     H1 2122   5.519   6.956   1.119 -2.1535  0.4397  0.2431
   76ccc     H2 2123   5.515   7.148   0.965 -1.1052 -1.8351 -0.0752
   76ccc     C3 2124   5.355   7.164   1.112 -0.8216  0.0882 -0.0426
   76ccc     C4 2125   5.333   7.181   1.268  0.3264  0.5474 -0.5342
   76ccc     C5 2126   5.415   7.073   1.343 -0.0664  0.0559 -0.6030
   76ccc     H3 2127   5.376   7.278   1.296  3.3832 -0.6927 -0.5966
   76ccc     H4 2128   5.315   7.066   1.083 -1.3941  0.2598  0.1593
   76ccc     H5 2129   5.361   6.977   1.338 -0.4235  0.2518 -0.5333
   76ccc     O1 2130   5.425   7.115   1.482  0.4279  0.6621 -0.6738
   76ccc     O2 2131   5.191   7.184   1.303 -0.4425  0.0033 -0.0557
   76ccc     O3 2132   5.274   7.265   1.036 -0.1477  0.0604 -0.1098
   76ccc     O4 2133   5.570   7.293   1.111  0.0435 -0.2766 -0.2298
   76ccc     C6 2134   5.729   7.032   1.131 -0.2611 -0.2247  0.1051
   76ccc     H6 2135   5.281   7.352   1.080  2.4727 -0.7004  1.1577
   76ccc     H7 2136   5.561   7.354   1.035 -2.1340  0.6765  0.7258
   76ccc     H8 2137   5.151   7.243   1.236 -1.7203  2.3082  2.5431
   76ccc     H9 2138   5.783   7.117   1.172 -0.1657 -0.4986  0.5553
   76ccc    H10 2139   5.755   7.021   1.025  0.1514 -1.1569  0.2900
   76ccc     O5 2140   5.774   6.921   1.206 -0.0433  0.0167 -0.0593
   76ccc    H11 2141   5.750   6.937   1.298  2.2450  1.8686  0.3227
   76ccc     O6 2142   5.549   7.064   1.289  0.3852  0.5240  1.1256
   77ccc     C1 2143   5.484   7.038   2.549 -0.3298 -1.1533  0.5462
   77ccc     C2 2144   5.562   7.167   2.576  0.0695 -0.0920 -0.1474
   77ccc     H1 2145   5.538   6.956   2.598  1.0357 -0.0214  1.0102
   77ccc     H2 2146   5.564   7.165   2.686 -0.1695 -2.2870 -0.1422
   77ccc     C3 2147   5.700   7.166   2.513  0.0993 -0.8033 -0.3715
   77ccc     C4 2148   5.689   7.135   2.363  0.4042 -0.4512 -0.7547
   77ccc     C5 2149   5.609   7.007   2.343  0.0591 -0.4049 -0.0520
   77ccc     H3 2150   5.622   7.213   2.324  0.2396  0.1085  0.5941
   77ccc     H4 2151   5.764   7.095   2.568 -1.2733  0.1200  2.6190
   77ccc     H5 2152   5.659   6.919   2.385 -1.3650 -1.6250 -0.8096
   77ccc     O1 2153   5.584   6.996   2.207  0.0617  0.2369  0.3456
   77ccc     O2 2154   5.817   7.134   2.290 -0.2141 -0.1610 -0.5106
   77ccc     O3 2155   5.742   7.298   2.543  0.4268 -0.2073  0.1718
   77ccc     O4 2156   5.485   7.281   2.525  0.2312 -0.0327 -0.0519
   77ccc     C6 2157   5.339   7.049   2.601  0.6068 -0.9309 -0.0494
   77ccc     H6 2158   5.652   7.334   2.543  0.3177 -0.4060 -1.4728
   77ccc     H7 2159   5.393   7.248   2.534 -0.1665  0.9513 -0.4476
   77ccc     H8 2160   5.843   7.226   2.269 -1.4590  1.0081  2.4403
   77ccc     H9 2161   5.338   7.051   2.711 -0.7501 -0.9048 -0.0389
   77ccc    H10 2162   5.288   6.955   2.576 -0.8039 -0.0443 -0.5788
   77ccc     O5 2163   5.265   7.165   2.556  0.0937 -0.7375 -0.1690
   77ccc    H11 2164   5.192   7.168   2.619  1.8898  1.1400  2.0164
   77ccc     O6 2165   5.480   7.021   2.406 -0.0358 -0.0844 -0.2386
   78ccc     C1 2166   4.255   6.508   3.844  0.0074 -1.2582  0.1076
   78ccc     C2 2167   4.106   6.549   3.842  0.0116 -0.4451  0.5117
   78ccc     H1 2168   4.244   6.399   3.845 -3.8476 -1.0808 -2.1739
   78ccc     H2 2169   4.064   6.501   3.753 -0.5200  2.9933 -1.2581
   78ccc     C3 2170   4.024   6.508   3.963 -0.4135 -0.0540  0.0733
   78ccc     C4 2171   4.094   6.554   4.091 -0.5044 -0.5220 -0.5111
   78ccc     C5 2172   4.250   6.532   4.092 -0.5135  0.0975  0.3393
   78ccc     H3 2173   4.085   6.663   4.101 -0.6980 -0.4615 -1.2975
   78ccc     H4 2174   4.037   6.399   3.965  0.6148  0.0447  2.9045
   78ccc     H5 2175   4.274   6.427   4.109 -3.5286 -0.6082  0.8016
   78ccc     O1 2176   4.309   6.608   4.200 -0.2418 -0.5092 -0.2499
   78ccc     O2 2177   4.030   6.493   4.203  0.0593 -0.4601  0.0823
   78ccc     O3 2178   3.887   6.548   3.970  0.4313 -0.8679 -0.1288
   78ccc     O4 2179   4.099   6.692   3.824  0.1821  0.0888  0.3134
   78ccc     C6 2180   4.333   6.540   3.717 -0.0357  0.3296  0.7051
   78ccc     H6 2181   3.886   6.645   3.981 -3.9358 -0.8995  1.4759
   78ccc     H7 2182   4.186   6.699   3.781 -0.2183 -1.0780 -0.7670
   78ccc     H8 2183   3.936   6.505   4.182  0.3507 -1.2843 -1.8930
   78ccc     H9 2184   4.281   6.493   3.632  2.0626 -2.0034  0.5957
   78ccc    H10 2185   4.430   6.487   3.716 -1.4994 -2.9304 -3.9454
   78ccc     O5 2186   4.333   6.677   3.693 -0.3125  0.8282 -0.0089
   78ccc    H11 2187   4.421   6.692   3.654  1.6275 -0.4011  3.4198
   78ccc     O6 2188   4.313   6.562   3.966 -0.8882  0.2060 -0.1151
   79ccc     C1 2189   5.154   6.748   4.955  0.3482  0.6949 -0.0717
   79ccc     C2 2190   5.240   6.614   4.969  0.0441 -0.5248 -0.6562
   79ccc     H1 2191   5.080   6.746   5.036 -0.2766 -0.2020 -0.6378
   79ccc     H2 2192   5.275   6.607   5.072 -0.2931  0.7989 -0.4283
   79ccc     C3 2193   5.152   6.487   4.945  0.2550  0.1750 -0.4529
   79ccc     C4 2194   5.088   6.499   4.807  0.8386 -0.7570  0.7440
   79ccc     C5 2195   4.995   6.629   4.809  0.3393 -0.3183  0.1864
   79ccc     H3 2196   5.169   6.516   4.734  0.5763  0.8549  0.7953
   79ccc     H4 2197   5.072   6.482   5.020  1.0823  1.3770  0.5360
   79ccc     H5 2198   4.918   6.619   4.886 -0.9704 -0.1805 -1.0772
   79ccc     O1 2199   4.926   6.645   4.688 -0.3698  0.2148 -0.1921
   79ccc     O2 2200   5.006   6.378   4.788  0.1334  0.3000 -0.6749
   79ccc     O3 2201   5.232   6.366   4.957  0.5867 -0.4937  0.0715
   79ccc     O4 2202   5.350   6.623   4.882 -0.5810 -0.3262  0.1571
   79ccc     C6 2203   5.237   6.879   4.977  0.0959  0.6250 -0.1708
   79ccc     H6 2204   5.253   6.364   5.052  1.7763 -0.1415 -0.1625
   79ccc     H7 2205   5.352   6.721   4.886 -1.1466 -0.3460  1.1440
   79ccc     H8 2206   5.065   6.312   4.748  2.0200 -0.1567  2.4594
   79ccc     H9 2207   5.278   6.884   5.079  0.2060  0.1617 -0.1886
   79ccc    H10 2208   5.173   6.968   4.972 -0.1273  0.4550 -0.3518
   79ccc     O5 2209   5.332   6.889   4.871  0.3020 -0.6597  0.2470
   79ccc    H11 2210   5.384   6.971   4.880 -0.6651 -0.0193  0.1205
   79ccc     O6 2211   5.085   6.740   4.825  0.2964  0.6755 -0.1382
   80ccc     C1 2212   6.139   5.718   3.873 -0.2903  0.0054  1.1813
   80ccc     C2 2213   6.193   5.750   3.729  0.1022  0.7211  0.7815
   80ccc     H1 2214   6.105   5.613   3.872  1.5227 -0.6133  0.6894
   80ccc     H2 2215   6.264   5.676   3.689  0.6192  2.8456 -2.6395
   80ccc     C3 2216   6.076   5.745   3.628  0.1120  0.1400  0.4833
   80ccc     C4 2217   5.967   5.846   3.666 -0.0647  0.4964 -1.0181
   80ccc     C5 2218   5.919   5.819   3.809  0.5014  0.0640  0.1459
   80ccc     H3 2219   6.005   5.948   3.656 -1.5908  1.3196  0.9018
   80ccc     H4 2220   6.030   5.645   3.628 -0.3834  0.3467 -0.8031
   80ccc     H5 2221   5.872   5.721   3.821  1.5789 -0.5924 -0.7580
   80ccc     O1 2222   5.835   5.933   3.855  0.0950 -0.3907 -0.5854
   80ccc     O2 2223   5.859   5.843   3.565 -0.3360  0.2385 -0.3198
   80ccc     O3 2224   6.132   5.774   3.498 -0.7838  0.1385  0.4121
   80ccc     O4 2225   6.258   5.879   3.722 -0.5000  0.5276 -0.3057
   80ccc     C6 2226   6.235   5.730   3.987 -0.6172  0.5922 -0.3221
   80ccc     H6 2227   6.119   5.692   3.447 -2.1594  0.2976  0.4855
   80ccc     H7 2228   6.311   5.873   3.640  1.7653 -0.9651  1.1360
   80ccc     H8 2229   5.893   5.902   3.497 -0.0183 -1.1637 -1.4211
   80ccc     H9 2230   6.215   5.819   4.047 -2.6397 -0.7298  1.0592
   80ccc    H10 2231   6.336   5.726   3.945 -0.0865 -1.7230  1.0328
   80ccc     O5 2232   6.214   5.621   4.069  0.2659  0.0173 -0.1855
   80ccc    H11 2233   6.137   5.655   4.119  0.5072 -0.1439  0.3031
   80ccc     O6 2234   6.034   5.813   3.896  0.5740 -0.5516  0.3354
   81ccc     C1 2235   6.333   6.535   4.618  0.5897  0.2987  0.3246
   81ccc     C2 2236   6.281   6.681   4.618  0.1895  0.3466  0.0218
   81ccc     H1 2237   6.442   6.549   4.608  0.7666  0.0014  1.6259
   81ccc     H2 2238   6.324   6.748   4.693  1.0256  0.7477 -0.7962
   81ccc     C3 2239   6.310   6.736   4.477 -0.8520 -0.0572 -0.2531
   81ccc     C4 2240   6.272   6.651   4.357 -0.6684  0.3040 -0.4537
   81ccc     C5 2241   6.321   6.506   4.366 -0.1322  0.2674 -0.0574
   81ccc     H3 2242   6.162   6.644   4.361 -0.5039 -2.2947  1.3369
   81ccc     H4 2243   6.419   6.750   4.466 -0.7636 -0.4302  0.1503
   81ccc     H5 2244   6.427   6.510   4.341 -0.2356  0.2697 -0.4965
   81ccc     O1 2245   6.249   6.426   4.270  0.6637 -0.2091 -0.2537
   81ccc     O2 2246   6.326   6.714   4.231  0.2379  0.2443  0.3027
   81ccc     O3 2247   6.248   6.864   4.461  0.1895 -0.8300 -0.0911
   81ccc     O4 2248   6.141   6.688   4.639 -0.6734 -0.3176 -0.2109
   81ccc     C6 2249   6.298   6.457   4.744  0.0415  0.2392  0.3184
   81ccc     H6 2250   6.256   6.907   4.374  3.4553 -0.1526  0.3985
   81ccc     H7 2251   6.136   6.786   4.640 -0.0836 -0.2725 -0.5800
   81ccc     H8 2252   6.260   6.694   4.162 -0.7474  3.8185 -0.0011
   81ccc     H9 2253   6.192   6.428   4.752  0.5011 -2.1188 -1.0898
   81ccc    H10 2254   6.320   6.504   4.841 -0.1164 -1.1183  1.0448
   81ccc     O5 2255   6.354   6.326   4.753 -0.1380 -0.2256  0.4148
   81ccc    H11 2256   6.295   6.275   4.695  0.0257  2.2709 -2.1657
   81ccc     O6 2257   6.283   6.460   4.502 -0.4518 -0.8676  0.3232
   82ccc     C1 2258   3.539   5.643   4.530  0.7433  0.1140  0.2700
   82ccc     C2 2259   3.387   5.645   4.489 -0.2498  0.3227 -0.7684
   82ccc     H1 2260   3.565   5.538   4.552 -1.2693 -0.3552  0.6913
   82ccc     H2 2261   3.375   5.576   4.405 -0.5005 -2.8739  1.7360
   82ccc     C3 2262   3.297   5.594   4.610 -0.1738  0.2081  0.0547
   82ccc     C4 2263   3.328   5.679   4.740  0.1642 -0.0686 -0.0039
   82ccc     C5 2264   3.476   5.664   4.769 -0.5196  0.4023  0.0977
   82ccc     H3 2265   3.317   5.786   4.723  0.6683 -0.3138 -2.0497
   82ccc     H4 2266   3.332   5.492   4.632  1.6194  0.8917  0.6009
   82ccc     H5 2267   3.501   5.558   4.782  1.1380  0.6958 -0.4582
   82ccc     O1 2268   3.515   5.743   4.883  0.2348  0.0578 -0.1116
   82ccc     O2 2269   3.240   5.624   4.841  0.3139 -0.1840  0.1985
   82ccc     O3 2270   3.161   5.590   4.573  0.0402  0.7991  0.2588
   82ccc     O4 2271   3.338   5.782   4.463 -0.8567 -0.7305  0.9712
   82ccc     C6 2272   3.632   5.695   4.420  0.2491 -0.0835  0.2616
   82ccc     H6 2273   3.123   5.546   4.651  2.0808 -1.6722  0.0181
   82ccc     H7 2274   3.243   5.766   4.475 -1.1360  0.9798  1.3083
   82ccc     H8 2275   3.243   5.683   4.919  1.8680  0.7867 -0.5610
   82ccc     H9 2276   3.606   5.800   4.401  3.2376  0.6174 -0.4102
   82ccc    H10 2277   3.599   5.648   4.326  0.8542 -1.0113  0.5005
   82ccc     O5 2278   3.772   5.670   4.439 -0.0791  0.6459  0.2537
   82ccc    H11 2279   3.791   5.714   4.523 -1.7720  2.6203 -0.3218
   82ccc     O6 2280   3.551   5.714   4.654  0.7766 -0.0189 -0.0978
   83ccc     C1 2281   3.361   6.785   5.093  0.3007  0.2007 -0.4478
   83ccc     C2 2282   3.227   6.763   5.030  0.1403  0.2058  0.4668
   83ccc     H1 2283   3.430   6.836   5.025 -2.9700  2.4442 -2.3826
   83ccc     H2 2284   3.203   6.854   4.974  0.7964 -0.0207 -0.1926
   83ccc     C3 2285   3.229   6.650   4.918  0.4825 -0.2504 -0.6776
   83ccc     C4 2286   3.288   6.521   4.974  0.9930  0.3732  0.3434
   83ccc     C5 2287   3.426   6.549   5.042 -0.6726  0.6683  0.1788
   83ccc     H3 2288   3.220   6.491   5.055  1.2431  1.1889  0.8643
   83ccc     H4 2289   3.306   6.680   4.846  1.5441  0.1695  0.6182
   83ccc     H5 2290   3.498   6.573   4.962 -1.0234  2.3101  0.3240
   83ccc     O1 2291   3.464   6.425   5.107  0.0878 -0.0063  0.1591
   83ccc     O2 2292   3.298   6.423   4.864  0.0716  0.0187  0.2692
   83ccc     O3 2293   3.096   6.622   4.855 -0.4725  0.2879  0.1412
   83ccc     O4 2294   3.137   6.727   5.129  0.5352 -0.2017  0.1707
   83ccc     C6 2295   3.362   6.880   5.217 -0.3349  0.4385 -0.5931
   83ccc     H6 2296   3.124   6.593   4.767  0.5875 -0.4636  0.6992
   83ccc     H7 2297   3.046   6.748   5.100  0.2860  1.7159  2.0857
   83ccc     H8 2298   3.212   6.377   4.863  0.6856 -1.1793  0.2252
   83ccc     H9 2299   3.317   6.825   5.300 -1.2412  1.8488 -0.1255
   83ccc    H10 2300   3.294   6.964   5.202 -1.3821  0.9658  5.1156
   83ccc     O5 2301   3.495   6.921   5.240 -0.3574 -0.7225  0.2682
   83ccc    H11 2302   3.498   6.969   5.324 -0.4009 -2.0727  1.0726
   83ccc     O6 2303   3.413   6.656   5.140 -0.2582 -0.2855 -0.4098
   84ccc     C1 2304   5.317   6.131   4.229  0.1034 -0.3743 -0.6764
   84ccc     C2 2305   5.422   6.042   4.296 -0.1017  0.1249  0.5000
   84ccc     H1 2306   5.313   6.230   4.276 -1.3674 -0.3676 -0.7641
   84ccc     H2 2307   5.514   6.100   4.304 -0.1046  0.2663 -0.4166
   84ccc     C3 2308   5.383   6.009   4.442  0.6770 -0.4849 -0.1518
   84ccc     C4 2309   5.238   5.953   4.455  0.1508  0.7008 -0.0621
   84ccc     C5 2310   5.143   6.044   4.383 -0.2793  0.2149  0.1767
   84ccc     H3 2311   5.239   5.857   4.402  0.7909  1.0278 -0.6538
   84ccc     H4 2312   5.385   6.105   4.495 -0.9202  0.8820 -2.3799
   84ccc     H5 2313   5.137   6.140   4.435  0.8467 -0.4634  1.6217
   84ccc     O1 2314   5.012   5.985   4.365 -1.0172  0.6017  0.5998
   84ccc     O2 2315   5.207   5.937   4.595 -0.5023 -0.2705  0.6410
   84ccc     O3 2316   5.488   5.923   4.495  0.2882 -0.5190 -0.0227
   84ccc     O4 2317   5.432   5.919   4.229  0.7864  0.1525  0.0715
   84ccc     C6 2318   5.352   6.161   4.082  0.2274 -0.2439  0.2829
   84ccc     H6 2319   5.501   5.948   4.588  2.5978  0.7043 -0.5818
   84ccc     H7 2320   5.378   5.937   4.150 -0.9163 -4.1239  0.0158
   84ccc     H8 2321   5.263   5.865   4.630 -0.9299 -1.3332 -0.7790
   84ccc     H9 2322   5.442   6.220   4.061 -0.9620  1.5862  0.0757
   84ccc    H10 2323   5.267   6.226   4.059 -0.3741 -0.8738  0.7042
   84ccc     O5 2324   5.353   6.040   4.007 -0.1321  0.4287  0.5766
   84ccc    H11 2325   5.385   6.070   3.919 -0.9312 -0.1042  0.0911
   84ccc     O6 2326   5.191   6.069   4.245 -0.3323  0.4760 -0.2274
   85ccc     C1 2327   4.616   5.381   3.426  0.7940 -1.0003 -1.1713
   85ccc     C2 2328   4.705   5.257   3.434 -0.0555 -0.2567  0.5118
   85ccc     H1 2329   4.640   5.433   3.332 -2.1090  2.3862 -0.2391
   85ccc     H2 2330   4.679   5.186   3.355  1.6565 -0.0507 -0.2837
   85ccc     C3 2331   4.853   5.291   3.430 -0.1371  0.3817  0.2914
   85ccc     C4 2332   4.878   5.404   3.534  0.4517 -0.5522 -0.1290
   85ccc     C5 2333   4.768   5.522   3.527  0.0188 -0.3818  0.4372
   85ccc     H3 2334   4.866   5.363   3.635 -2.9106  0.3513 -0.0192
   85ccc     H4 2335   4.878   5.348   3.340 -2.8943  1.3752  0.0971
   85ccc     H5 2336   4.788   5.584   3.439  1.2893  2.1808  2.3892
   85ccc     O1 2337   4.780   5.612   3.643  0.0954  0.0485 -0.1951
   85ccc     O2 2338   5.012   5.453   3.522  0.9248  0.2280 -0.4928
   85ccc     O3 2339   4.948   5.179   3.456  0.4320 -0.3754  0.1444
   85ccc     O4 2340   4.674   5.198   3.560 -0.1463 -0.8290 -0.5234
   85ccc     C6 2341   4.466   5.351   3.427  0.2338 -0.6570  0.5295
   85ccc     H6 2342   4.925   5.097   3.408  0.3846 -0.0340 -0.4387
   85ccc     H7 2343   4.579   5.218   3.572  0.3653  0.9773  1.0317
   85ccc     H8 2344   5.033   5.508   3.600 -1.0883 -0.8510  0.9337
   85ccc     H9 2345   4.449   5.310   3.327  1.7468  0.6245 -0.2903
   85ccc    H10 2346   4.416   5.448   3.424  1.6695  0.0895  0.0822
   85ccc     O5 2347   4.426   5.267   3.535  0.5195  0.2930  0.1237
   85ccc    H11 2348   4.334   5.249   3.510  0.4972 -0.4336  0.7011
   85ccc     O6 2349   4.644   5.464   3.530  0.7897  0.0288 -0.2552
   86ccc     C1 2350   2.788   5.459   2.893 -0.3283  0.3613  0.6079
   86ccc     C2 2351   2.859   5.340   2.973 -0.1412 -0.8617 -0.1022
   86ccc     H1 2352   2.842   5.551   2.916  1.5840  0.0448 -2.0763
   86ccc     H2 2353   2.969   5.348   2.968 -0.2151 -0.2281 -0.8981
   86ccc     C3 2354   2.830   5.358   3.128  0.3000 -0.2518  0.0527
   86ccc     C4 2355   2.678   5.372   3.149  0.4580 -0.1555 -0.1765
   86ccc     C5 2356   2.614   5.483   3.063 -0.0943  0.1108  0.7509
   86ccc     H3 2357   2.628   5.277   3.124 -3.5387  1.0168  2.3715
   86ccc     H4 2358   2.878   5.452   3.157  0.2454 -0.5692  1.2031
   86ccc     H5 2359   2.669   5.573   3.095 -0.4272  1.0712 -1.2042
   86ccc     O1 2360   2.473   5.501   3.097  0.8063  0.5962  0.0010
   86ccc     O2 2361   2.660   5.405   3.287  0.3394 -0.3563  0.1844
   86ccc     O3 2362   2.889   5.255   3.201  0.1916  0.2096 -0.1180
   86ccc     O4 2363   2.811   5.211   2.937  0.6078 -0.0592 -0.2490
   86ccc     C6 2364   2.802   5.456   2.743 -0.2753  0.1926 -0.0641
   86ccc     H6 2365   2.966   5.298   3.242  0.5630  0.6189 -1.2111
   86ccc     H7 2366   2.833   5.149   3.008  2.5047 -0.0945 -0.8050
   86ccc     H8 2367   2.594   5.346   3.328  0.7206  0.0145  1.3666
   86ccc     H9 2368   2.907   5.473   2.720 -0.2405 -0.3522 -0.3371
   86ccc    H10 2369   2.753   5.544   2.701  1.1957  0.0293 -2.2853
   86ccc     O5 2370   2.752   5.330   2.693  0.2116 -0.2106  0.2423
   86ccc    H11 2371   2.757   5.269   2.769  0.8276 -1.1878 -0.5620
   86ccc     O6 2372   2.646   5.464   2.925 -0.6787  0.1012  0.5013
   87ccc     C1 2373   2.181   6.585   2.964 -0.1935  0.3754  0.0658
   87ccc     C2 2374   2.091   6.670   3.062 -0.2280  0.5562 -0.2069
   87ccc     H1 2375   2.115   6.547   2.885  1.7498  1.3975 -2.2048
   87ccc     H2 2376   2.025   6.735   3.002 -1.5778  1.4102  2.0687
   87ccc     C3 2377   1.993   6.576   3.139 -0.3409 -0.1150 -0.7594
   87ccc     C4 2378   2.068   6.452   3.199  0.4033 -0.2227 -0.1279
   87ccc     C5 2379   2.151   6.378   3.087 -0.1335  0.6891 -0.1665
   87ccc     H3 2380   2.137   6.498   3.271 -0.2422  0.2120  0.2344
   87ccc     H4 2381   1.928   6.531   3.063 -0.4357 -0.6483 -0.3674
   87ccc     H5 2382   2.085   6.337   3.011 -0.5889  0.2753  0.4388
   87ccc     O1 2383   2.218   6.268   3.164 -0.4405 -0.7491  0.0924
   87ccc     O2 2384   1.972   6.367   3.267 -0.4438  0.0303  0.0925
   87ccc     O3 2385   1.921   6.654   3.247 -0.3888 -0.2200  0.1396
   87ccc     O4 2386   2.176   6.742   3.140 -0.1637  0.1234 -0.5129
   87ccc     C6 2387   2.285   6.660   2.887 -0.2859  0.1945 -0.1534
   87ccc     H6 2388   1.987   6.672   3.317 -1.1505  0.7486  0.6254
   87ccc     H7 2389   2.261   6.738   3.092 -0.3306 -2.7221 -0.7721
   87ccc     H8 2390   2.034   6.323   3.328 -1.2090  0.6511  1.3393
   87ccc     H9 2391   2.252   6.716   2.798  1.2695 -1.5772 -1.9533
   87ccc    H10 2392   2.360   6.593   2.844 -1.0928  0.3292 -1.8654
   87ccc     O5 2393   2.360   6.752   2.972 -0.4905  0.6676  0.2071
   87ccc    H11 2394   2.402   6.799   2.898  3.0446 -0.8866  1.0161
   87ccc     O6 2395   2.245   6.479   3.034 -1.0633  0.3535 -0.3991
   88ccc     C1 2396   3.259   5.992   5.055 -0.3431 -0.2964  0.3863
   88ccc     C2 2397   3.124   6.037   5.117  1.0005  0.6328 -0.0033
   88ccc     H1 2398   3.336   6.068   5.074 -0.2206 -0.1947 -0.4679
   88ccc     H2 2399   3.145   6.046   5.224 -0.5959 -1.3942  0.5499
   88ccc     C3 2400   3.071   6.165   5.053  0.5065 -0.0561  0.6348
   88ccc     C4 2401   3.072   6.165   4.899 -0.7057  0.4619  0.2307
   88ccc     C5 2402   3.208   6.112   4.841  0.1619  0.3676 -0.2537
   88ccc     H3 2403   2.992   6.105   4.855 -0.6831  0.8825 -0.4003
   88ccc     H4 2404   3.138   6.245   5.087 -0.3280  1.8641 -1.9942
   88ccc     H5 2405   3.290   6.178   4.872  1.7170 -1.1720 -0.8983
   88ccc     O1 2406   3.197   6.091   4.698 -0.4725 -0.0303 -0.0639
   88ccc     O2 2407   3.055   6.301   4.854 -0.1043 -0.2900 -0.1338
   88ccc     O3 2408   2.944   6.200   5.101 -0.0520 -0.3011 -0.4744
   88ccc     O4 2409   3.031   5.934   5.108  0.3148  0.2680 -0.6820
   88ccc     C6 2410   3.315   5.855   5.098 -0.2895 -0.1796 -0.6995
   88ccc     H6 2411   2.940   6.294   5.077 -2.0164 -0.2175  0.0625
   88ccc     H7 2412   2.963   5.974   5.166  1.7819  2.2983 -0.2620
   88ccc     H8 2413   2.961   6.329   4.854 -0.2515 -0.7784  0.1681
   88ccc     H9 2414   3.347   5.866   5.202 -1.1492 -2.2487 -0.1661
   88ccc    H10 2415   3.399   5.827   5.033 -1.0137  0.2902 -1.8663
   88ccc     O5 2416   3.219   5.751   5.085 -0.1488 -0.2596  0.0204
   88ccc    H11 2417   3.142   5.809   5.099 -0.1261 -0.3485  0.5251
   88ccc     O6 2418   3.238   5.985   4.909  0.1838 -0.1322  0.2161
   89ccc     C1 2419   3.553   6.310   4.507 -0.4876  0.7261 -0.0093
   89ccc     C2 2420   3.626   6.423   4.427  0.1587  0.4851 -0.8740
   89ccc     H1 2421   3.620   6.225   4.521  0.7381  1.8253  1.0446
   89ccc     H2 2422   3.714   6.455   4.484 -0.2382  1.2530 -0.6809
   89ccc     C3 2423   3.663   6.372   4.289  0.6301 -0.9689  0.5296
   89ccc     C4 2424   3.540   6.316   4.208  0.3612 -0.1629 -0.2197
   89ccc     C5 2425   3.463   6.211   4.296 -0.3280 -0.2429 -0.5051
   89ccc     H3 2426   3.463   6.393   4.195  0.6822  0.1780 -0.1034
   89ccc     H4 2427   3.735   6.289   4.294 -0.6497 -2.2789 -1.3434
   89ccc     H5 2428   3.518   6.119   4.315  2.5279  1.3655 -0.4822
   89ccc     O1 2429   3.325   6.195   4.239  0.9818 -0.1017 -0.1128
   89ccc     O2 2430   3.584   6.258   4.082  0.2034  0.2489 -0.2447
   89ccc     O3 2431   3.734   6.474   4.204  0.1286 -0.2600  0.2023
   89ccc     O4 2432   3.542   6.536   4.423  0.2768 -0.0662 -0.2704
   89ccc     C6 2433   3.511   6.347   4.653 -0.0567 -0.1856  0.1205
   89ccc     H6 2434   3.712   6.554   4.254  1.1535 -1.0544  2.0514
   89ccc     H7 2435   3.481   6.522   4.497 -0.5645  0.3791 -0.8666
   89ccc     H8 2436   3.610   6.167   4.104  0.0697  0.3664  0.4249
   89ccc     H9 2437   3.594   6.350   4.724  0.9698 -0.2365 -1.0287
   89ccc    H10 2438   3.438   6.272   4.687 -0.2777 -0.9594 -1.9015
   89ccc     O5 2439   3.439   6.465   4.636  0.1884  0.0820 -0.5316
   89ccc    H11 2440   3.389   6.451   4.718 -0.7923  0.9493 -0.9522
   89ccc     O6 2441   3.434   6.265   4.431 -0.4763  0.2228 -0.7205
   90ccc     C1 2442   4.524   4.794   3.421  0.7127  0.0842  0.0979
   90ccc     C2 2443   4.426   4.687   3.374  0.3923 -0.2135 -0.4463
   90ccc     H1 2444   4.509   4.818   3.527 -0.0920 -0.9022  0.2181
   90ccc     H2 2445   4.431   4.610   3.451  1.9387  0.7782  0.5003
   90ccc     C3 2446   4.283   4.748   3.384  0.1512  0.3445 -0.1401
   90ccc     C4 2447   4.272   4.885   3.309  0.3333 -0.3826  0.2219
   90ccc     C5 2448   4.387   4.985   3.339 -0.2858  0.1002  0.1312
   90ccc     H3 2449   4.275   4.854   3.204  0.8572  0.0217  0.1112
   90ccc     H4 2450   4.254   4.774   3.486 -0.7027  0.2897 -0.3638
   90ccc     H5 2451   4.365   5.035   3.434 -1.5424 -1.7327  0.8632
   90ccc     O1 2452   4.386   5.092   3.232  0.0598 -0.6257 -0.1589
   90ccc     O2 2453   4.147   4.947   3.345 -1.1132  0.0174 -0.8739
   90ccc     O3 2454   4.185   4.647   3.338 -0.4101 -0.4735 -0.4724
   90ccc     O4 2455   4.462   4.626   3.248 -0.2092 -0.7382 -0.3792
   90ccc     C6 2456   4.669   4.744   3.414 -0.5395 -0.1084  0.0285
   90ccc     H6 2457   4.101   4.694   3.358 -0.4117 -0.2871 -0.9013
   90ccc     H7 2458   4.393   4.558   3.246 -0.6275 -0.3370  0.0373
   90ccc     H8 2459   4.146   5.029   3.292  3.0569  1.7814  1.3069
   90ccc     H9 2460   4.711   4.747   3.313 -0.1394  3.4157  0.1808
   90ccc    H10 2461   4.671   4.646   3.463 -0.7530  0.8619  2.1201
   90ccc     O5 2462   4.734   4.845   3.488  0.4072 -0.5450 -0.5463
   90ccc    H11 2463   4.776   4.900   3.420  2.8440 -0.5501  0.8639
   90ccc     O6 2464   4.507   4.910   3.329 -0.6303  0.7061  0.7602
   91ccc     C1 2465   4.507   4.580   2.257 -0.2160  1.1497  0.8663
   91ccc     C2 2466   4.542   4.426   2.272  0.4450 -0.0697  0.6323
   91ccc     H1 2467   4.600   4.623   2.219  0.1067 -1.6518 -1.8671
   91ccc     H2 2468   4.573   4.385   2.175 -0.3834  1.5475 -0.3487
   91ccc     C3 2469   4.650   4.408   2.377  0.2342  0.2995 -0.0289
   91ccc     C4 2470   4.595   4.470   2.503  0.1874 -0.4471  0.3384
   91ccc     C5 2471   4.577   4.627   2.497  0.4823  0.6508 -0.2111
   91ccc     H3 2472   4.495   4.434   2.529 -0.6614  1.2360 -0.4828
   91ccc     H4 2473   4.745   4.456   2.349 -1.0739  1.6937 -2.4015
   91ccc     H5 2474   4.677   4.668   2.480 -0.0198  1.8818 -0.2545
   91ccc     O1 2475   4.507   4.688   2.611 -0.1541 -0.1205 -0.3458
   91ccc     O2 2476   4.692   4.436   2.608  0.3604  0.4079 -0.2535
   91ccc     O3 2477   4.672   4.270   2.404  0.4994 -0.4996 -0.5386
   91ccc     O4 2478   4.420   4.364   2.308  0.3581  0.3816  0.1671
   91ccc     C6 2479   4.387   4.625   2.159  0.0482 -0.0876 -0.0498
   91ccc     H6 2480   4.600   4.230   2.352  0.2936 -3.3140  1.6575
   91ccc     H7 2481   4.353   4.431   2.287 -0.1111 -0.1729 -0.1203
   91ccc     H8 2482   4.697   4.339   2.599 -0.3708  0.2800  0.5684
   91ccc     H9 2483   4.412   4.590   2.058  0.3657 -2.2409  0.7238
   91ccc    H10 2484   4.380   4.734   2.166  1.5650 -0.0332  1.5618
   91ccc     O5 2485   4.268   4.559   2.214  0.0969 -0.1393  0.1567
   91ccc    H11 2486   4.192   4.600   2.168  0.3973 -0.6790 -0.8466
   91ccc     O6 2487   4.491   4.648   2.383 -0.3562 -0.2056 -0.3006
   92ccc     C1 2488   3.675   4.062   2.841 -0.2073 -0.1691  0.2174
   92ccc     C2 2489   3.617   3.955   2.750  0.1449 -0.8457 -0.7310
   92ccc     H1 2490   3.597   4.138   2.851  1.8705  1.9125  2.1482
   92ccc     H2 2491   3.522   3.921   2.794  0.0173 -1.0462 -1.1446
   92ccc     C3 2492   3.600   3.999   2.602  0.2700 -0.1195  0.2489
   92ccc     C4 2493   3.733   4.058   2.549  0.5424  0.4361  0.1714
   92ccc     C5 2494   3.805   4.161   2.643  0.5722  0.2057 -0.0223
   92ccc     H3 2495   3.801   3.972   2.549  0.5429  0.4347 -0.3160
   92ccc     H4 2496   3.527   4.080   2.588  1.4584  0.8904 -0.3760
   92ccc     H5 2497   3.768   4.264   2.636  0.8050  0.2353 -1.1199
   92ccc     O1 2498   3.942   4.152   2.616 -0.6697  0.2474 -0.0437
   92ccc     O2 2499   3.713   4.113   2.415  0.0434  0.0845 -0.4191
   92ccc     O3 2500   3.559   3.888   2.514  0.1215 -0.0812  0.5953
   92ccc     O4 2501   3.705   3.843   2.756  0.0138 -0.4277 -0.3327
   92ccc     C6 2502   3.713   4.019   2.985 -0.2710 -0.2704  0.0067
   92ccc     H6 2503   3.512   3.934   2.442 -0.1797  0.7695  1.3122
   92ccc     H7 2504   3.728   3.847   2.850 -3.6748  0.5718  0.6989
   92ccc     H8 2505   3.743   4.043   2.355  1.0822  0.2339 -0.0890
   92ccc     H9 2506   3.621   3.997   3.041 -0.5121  0.2607 -0.1758
   92ccc    H10 2507   3.747   4.105   3.044 -2.5876 -0.7081  2.1419
   92ccc     O5 2508   3.792   3.907   2.993 -0.1970 -0.2583 -0.1341
   92ccc    H11 2509   3.790   3.902   3.090 -0.1977  0.7974 -0.0660
   92ccc     O6 2510   3.794   4.122   2.781 -0.1106  0.0164 -0.5173
   93ccc     C1 2511   5.009   4.272   2.667 -0.0451  0.4479  0.7186
   93ccc     C2 2512   5.122   4.166   2.651  0.5817 -0.7522  0.2607
   93ccc     H1 2513   5.028   4.328   2.759  1.5525  2.0731 -0.5256
   93ccc     H2 2514   5.221   4.211   2.661  0.9154 -0.7058 -2.5047
   93ccc     C3 2515   5.106   4.041   2.750 -0.0440 -0.2839  1.1232
   93ccc     C4 2516   4.961   3.992   2.755  0.2028  0.2220  0.0319
   93ccc     C5 2517   4.870   4.112   2.787 -0.0487  0.6138 -0.7244
   93ccc     H3 2518   4.929   3.957   2.656  0.3874  1.4165 -0.4666
   93ccc     H4 2519   5.142   4.073   2.849  3.2793 -1.3192  0.3831
   93ccc     H5 2520   4.903   4.172   2.872  0.3008  1.8654 -1.7094
   93ccc     O1 2521   4.739   4.065   2.792 -0.0520  0.0477 -0.3760
   93ccc     O2 2522   4.954   3.887   2.859  0.0960 -0.1840 -0.2853
   93ccc     O3 2523   5.196   3.940   2.715 -0.2285  0.3818  0.0889
   93ccc     O4 2524   5.116   4.119   2.522  0.4564  0.3114 -0.2509
   93ccc     C6 2525   5.016   4.376   2.556  0.0254  0.2481 -0.0503
   93ccc     H6 2526   5.277   3.976   2.675  0.0410  0.2040  0.4734
   93ccc     H7 2527   5.183   4.166   2.468 -0.2727 -0.3549 -1.8040
   93ccc     H8 2528   4.859   3.872   2.872 -0.3189  2.4479  0.3549
   93ccc     H9 2529   4.992   4.333   2.458  2.0688 -2.4441  0.4959
   93ccc    H10 2530   5.119   4.414   2.548 -0.2629  0.7622 -1.5459
   93ccc     O5 2531   4.943   4.489   2.596  0.3873  0.0437  0.3585
   93ccc    H11 2532   4.854   4.453   2.614  0.3762  0.9113  2.2389
   93ccc     O6 2533   4.880   4.208   2.678  0.0150 -0.0259 -0.0140
   94ccc     C1 2534   3.026   7.783   3.218  0.6094 -0.0662 -0.5871
   94ccc     C2 2535   2.890   7.752   3.152 -0.4009  0.7767 -0.0248
   94ccc     H1 2536   3.092   7.806   3.134  1.0101 -0.2121 -0.3120
   94ccc     H2 2537   2.843   7.837   3.100 -2.1635 -0.7006 -0.9499
   94ccc     C3 2538   2.906   7.639   3.049 -0.2343 -0.2283 -0.5105
   94ccc     C4 2539   2.969   7.514   3.116 -0.4297  0.5585  0.0648
   94ccc     C5 2540   3.091   7.542   3.209 -0.3957 -0.4461  0.6141
   94ccc     H3 2541   2.887   7.476   3.178  0.8453  0.1104  1.5607
   94ccc     H4 2542   2.986   7.684   2.988 -0.6142  0.0150 -0.8365
   94ccc     H5 2543   3.179   7.565   3.148 -0.4721  2.8968  1.5473
   94ccc     O1 2544   3.120   7.424   3.281  0.6665  0.2874 -0.7182
   94ccc     O2 2545   3.017   7.416   3.024 -0.8848 -0.0396 -0.5765
   94ccc     O3 2546   2.782   7.610   2.982 -0.0739  0.3180  0.4650
   94ccc     O4 2547   2.800   7.725   3.263  0.3847  0.4730  0.6335
   94ccc     C6 2548   3.015   7.911   3.304  0.3143 -0.7038  0.0320
   94ccc     H6 2549   2.743   7.686   2.936 -0.3423 -1.2673 -2.1079
   94ccc     H7 2550   2.842   7.780   3.331 -1.4743  0.4236  1.8781
   94ccc     H8 2551   2.942   7.390   2.968 -2.1361 -0.1550  1.0933
   94ccc     H9 2552   2.978   7.995   3.244 -1.7387 -0.5894  1.3634
   94ccc    H10 2553   3.113   7.945   3.340  0.7981 -2.1944  0.2046
   94ccc     O5 2554   2.929   7.893   3.410 -0.2280  0.0089 -0.6713
   94ccc    H11 2555   2.982   7.902   3.491 -0.1832  0.0874 -0.7101
   94ccc     O6 2556   3.072   7.665   3.288 -0.7633  0.1077 -0.7619
   95ccc     C1 2557   3.879   7.113   3.881  0.3581 -0.4042 -0.6785
   95ccc     C2 2558   3.917   6.971   3.923 -0.1733  0.0827 -0.1703
   95ccc     H1 2559   3.884   7.179   3.968  1.6804  0.4482 -1.3550
   95ccc     H2 2560   4.014   6.975   3.975  0.6565 -0.1565 -1.6435
   95ccc     C3 2561   3.817   6.919   4.033  0.3624 -0.0660  0.5595
   95ccc     C4 2562   3.675   6.922   3.965  0.2998  0.4293  0.5331
   95ccc     C5 2563   3.651   7.069   3.931  0.3761  0.0757  0.0084
   95ccc     H3 2564   3.677   6.871   3.868 -1.5863  0.5957  0.3642
   95ccc     H4 2565   3.811   6.990   4.116 -4.3555 -2.1438  2.4065
   95ccc     H5 2566   3.655   7.135   4.019 -2.9116  0.4307  0.0180
   95ccc     O1 2567   3.514   7.093   3.878 -0.1104  0.3730  0.2564
   95ccc     O2 2568   3.576   6.868   4.061 -0.0219  0.3096  0.1798
   95ccc     O3 2569   3.862   6.785   4.070  0.3012  0.2286  0.0573
   95ccc     O4 2570   3.919   6.884   3.813  0.3875  0.0371  0.6309
   95ccc     C6 2571   3.972   7.172   3.770  0.1734  0.0681  0.3237
   95ccc     H6 2572   3.802   6.770   4.146  0.7051 -0.9931  0.1584
   95ccc     H7 2573   3.979   6.812   3.839  1.6837  0.6727 -0.4663
   95ccc     H8 2574   3.490   6.869   4.015 -0.1421  1.8372  0.4088
   95ccc     H9 2575   3.999   7.102   3.691 -2.0932  0.4310 -0.8454
   95ccc    H10 2576   4.064   7.214   3.812  0.4311 -1.8768  1.8679
   95ccc     O5 2577   3.914   7.291   3.712  0.3150  0.4430 -0.4186
   95ccc    H11 2578   3.865   7.257   3.636  0.2568  1.7034 -0.9765
   95ccc     O6 2579   3.746   7.108   3.832 -0.0987 -0.5792 -0.4471
   96ccc     C1 2580   2.108   5.437   3.401  0.0131  0.4100 -0.4818
   96ccc     C2 2581   2.109   5.282   3.389  0.5542  0.0455 -0.3640
   96ccc     H1 2582   2.126   5.484   3.304  1.8289 -0.2435 -0.5099
   96ccc     H2 2583   2.039   5.256   3.308 -1.3250  2.3230  0.4408
   96ccc     C3 2584   2.249   5.220   3.362 -0.6402  0.0015 -0.5495
   96ccc     C4 2585   2.356   5.287   3.451  0.9622  0.8133 -0.8863
   96ccc     C5 2586   2.348   5.442   3.465  0.3843 -0.2611 -0.0880
   96ccc     H3 2587   2.331   5.247   3.550 -1.0833 -0.2705 -1.7803
   96ccc     H4 2588   2.287   5.247   3.262 -0.8140 -2.2412 -1.2793
   96ccc     H5 2589   2.377   5.490   3.371  1.4411 -0.4312  0.1403
   96ccc     O1 2590   2.436   5.503   3.562  0.3514 -0.2223  0.1581
   96ccc     O2 2591   2.488   5.260   3.401  0.1742  0.7052  0.3249
   96ccc     O3 2592   2.244   5.071   3.370 -0.3739 -0.0049 -0.2977
   96ccc     O4 2593   2.058   5.232   3.512  0.2784  0.0370 -0.2101
   96ccc     C6 2594   1.977   5.499   3.447  0.8286 -0.1643  0.1630
   96ccc     H6 2595   2.164   5.058   3.317 -1.5649  1.2980  1.1092
   96ccc     H7 2596   2.020   5.317   3.540 -1.1990 -0.1920 -1.4115
   96ccc     H8 2597   2.493   5.165   3.422  0.0893  0.8337  0.9513
   96ccc     H9 2598   1.897   5.472   3.377  0.1790  0.4843  0.6434
   96ccc    H10 2599   1.980   5.609   3.442 -3.3275  0.2121  2.1263
   96ccc     O5 2600   1.938   5.462   3.572 -0.2486  0.4633  0.1293
   96ccc    H11 2601   2.012   5.472   3.634 -0.7702 -0.3428  0.9132
   96ccc     O6 2602   2.214   5.476   3.498  0.0414 -0.2897 -0.3144
   97ccc     C1 2603   2.707   4.953   3.959  0.7068 -0.2950  0.1647
   97ccc     C2 2604   2.649   4.906   3.823 -0.0516  0.6988  0.8005
   97ccc     H1 2605   2.669   4.887   4.037 -0.9643  3.1090  2.4825
   97ccc     H2 2606   2.669   4.799   3.811 -0.5850  0.6452  0.3687
   97ccc     C3 2607   2.492   4.905   3.821 -0.1253  0.1903 -0.7696
   97ccc     C4 2608   2.447   5.046   3.861 -0.1186  0.1300 -0.2793
   97ccc     C5 2609   2.512   5.087   3.991  0.1355 -0.0552 -0.0286
   97ccc     H3 2610   2.488   5.122   3.793 -1.8858  1.8647  0.4955
   97ccc     H4 2611   2.464   4.826   3.892  0.5340  1.0096  0.4526
   97ccc     H5 2612   2.471   5.017   4.065 -2.3450 -0.5492 -1.7258
   97ccc     O1 2613   2.467   5.220   4.036 -0.0220  0.1116 -0.3612
   97ccc     O2 2614   2.298   5.054   3.875  0.4001 -0.2510 -0.3931
   97ccc     O3 2615   2.450   4.869   3.690 -0.1094 -0.0244  0.2459
   97ccc     O4 2616   2.705   4.982   3.717 -0.3297  0.0661  0.1603
   97ccc     C6 2617   2.859   4.949   3.960 -0.4012  0.3369 -0.4177
   97ccc     H6 2618   2.419   4.778   3.705  2.0766 -0.7869  0.5214
   97ccc     H7 2619   2.791   4.940   3.702 -0.3518  0.5724 -1.5618
   97ccc     H8 2620   2.261   5.012   3.796  1.0887 -1.0524 -0.2962
   97ccc     H9 2621   2.896   5.047   3.927 -0.6665  0.8492  0.7565
   97ccc    H10 2622   2.895   4.868   3.895  1.3761  0.9609 -0.2719
   97ccc     O5 2623   2.905   4.922   4.091  0.5590  0.3402  0.1868
   97ccc    H11 2624   2.985   4.872   4.068  1.7540  2.8446 -1.6214
   97ccc     O6 2625   2.653   5.085   3.984 -0.1335  0.3345 -0.0586
   98ccc     C1 2626   2.531   7.493   3.565  0.3871 -0.5783  0.0962
   98ccc     C2 2627   2.572   7.626   3.489  0.0999 -0.4734 -0.4504
   98ccc     H1 2628   2.574   7.415   3.502  2.6168  0.6783 -0.0382
   98ccc     H2 2629   2.679   7.649   3.497  0.3635 -0.4116 -3.3636
   98ccc     C3 2630   2.509   7.614   3.343 -0.0082  0.7490  0.3282
   98ccc     C4 2631   2.352   7.605   3.356  0.1250  0.5963 -0.8497
   98ccc     C5 2632   2.312   7.484   3.444  0.6566  0.9556  0.6663
   98ccc     H3 2633   2.313   7.692   3.410 -1.0116  1.7681 -3.3649
   98ccc     H4 2634   2.547   7.523   3.295  1.4009  1.3057  0.3235
   98ccc     H5 2635   2.334   7.392   3.389 -1.8775  1.2211 -0.9600
   98ccc     O1 2636   2.173   7.494   3.472 -0.4784  0.0190 -0.2349
   98ccc     O2 2637   2.289   7.608   3.228 -0.1309  0.3412 -0.6855
   98ccc     O3 2638   2.547   7.721   3.253 -0.6749  0.0512  0.2705
   98ccc     O4 2639   2.505   7.733   3.554  0.3406  0.6040  0.1765
   98ccc     C6 2640   2.587   7.484   3.708 -0.1525  0.1714 -0.0690
   98ccc     H6 2641   2.643   7.706   3.254 -0.4033  1.3564  2.6510
   98ccc     H7 2642   2.527   7.815   3.506 -1.5559  1.7670  1.1826
   98ccc     H8 2643   2.324   7.529   3.183 -0.5838  0.5076 -1.3489
   98ccc     H9 2644   2.683   7.432   3.703 -1.0064 -1.5930  0.9723
   98ccc    H10 2645   2.531   7.405   3.760 -0.1084  1.1245  1.4896
   98ccc     O5 2646   2.596   7.608   3.782 -0.2391  0.3338 -0.6392
   98ccc    H11 2647   2.578   7.686   3.727 -0.7583  2.3745  2.1743
   98ccc     O6 2648   2.384   7.481   3.570  0.4923 -0.2086 -0.2407
   99ccc     C1 2649   2.431   8.297   3.398  0.4626 -0.0387 -0.0515
   99ccc     C2 2650   2.558   8.281   3.316 -0.3348  0.3674 -0.4153
   99ccc     H1 2651   2.472   8.334   3.493 -1.3333 -0.5675  0.9861
   99ccc     H2 2652   2.615   8.374   3.309 -1.2278  0.9512 -0.0499
   99ccc     C3 2653   2.643   8.170   3.378 -0.5506  0.0365 -0.0247
   99ccc     C4 2654   2.567   8.039   3.396 -0.2366  0.1338 -0.6861
   99ccc     C5 2655   2.435   8.064   3.477 -0.0827 -0.3715  0.1008
   99ccc     H3 2656   2.554   7.991   3.298  0.9883 -2.2837  0.2251
   99ccc     H4 2657   2.668   8.207   3.478 -0.7488  0.1088 -0.0030
   99ccc     H5 2658   2.465   8.092   3.579  1.3335 -0.2471 -0.3397
   99ccc     O1 2659   2.348   7.953   3.479 -0.0404 -0.4258  0.1670
   99ccc     O2 2660   2.657   7.951   3.473  0.1527  0.4791 -0.2366
   99ccc     O3 2661   2.762   8.149   3.295  0.2316 -0.1739 -0.2386
   99ccc     O4 2662   2.508   8.234   3.188  0.1910 -0.1122 -0.9886
   99ccc     C6 2663   2.330   8.411   3.353  0.3895  0.2264 -0.7480
   99ccc     H6 2664   2.835   8.179   3.352 -0.7133  1.6340  0.0892
   99ccc     H7 2665   2.575   8.271   3.127  0.8861  1.3092  0.5601
   99ccc     H8 2666   2.737   7.941   3.419  1.4033  3.3663  0.8679
   99ccc     H9 2667   2.380   8.507   3.368 -1.8194  1.1065  1.7722
   99ccc    H10 2668   2.238   8.411   3.412  0.5590  1.3299 -0.4590
   99ccc     O5 2669   2.303   8.391   3.221 -0.1899 -0.0758 -0.3176
   99ccc    H11 2670   2.370   8.323   3.202 -2.1825 -2.1631 -0.2934
   99ccc     O6 2671   2.359   8.177   3.428 -0.3533  0.1100  0.0992
  100ccc     C1 2672   0.549   6.636   3.755 -0.0009  0.2443 -0.0863
  100ccc     C2 2673   0.481   6.507   3.792 -0.0835 -0.3177 -0.4705
  100ccc     H1 2674   0.468   6.703   3.724  0.7915  0.2491 -2.2859
  100ccc     H2 2675   0.403   6.523   3.867 -1.4572 -1.0633 -1.6850
  100ccc     C3 2676   0.408   6.440   3.676  0.1261  0.1167  0.1121
  100ccc     C4 2677   0.504   6.431   3.554  0.0732  0.1614 -0.6534
  100ccc     C5 2678   0.578   6.561   3.532  0.0239 -0.1252  0.5572
  100ccc     H3 2679   0.582   6.356   3.571 -0.3731 -0.7498 -2.4340
  100ccc     H4 2680   0.329   6.510   3.644 -1.1000 -1.4640 -0.4821
  100ccc     H5 2681   0.510   6.633   3.487  0.9730  0.6949  0.3972
  100ccc     O1 2682   0.681   6.533   3.429 -0.3465 -0.1996  0.1615
  100ccc     O2 2683   0.417   6.406   3.439  0.4807  0.4119 -0.0045
  100ccc     O3 2684   0.346   6.318   3.719 -0.1587  0.3455 -0.1475
  100ccc     O4 2685   0.578   6.424   3.848 -0.0730 -0.5289  0.5990
  100ccc     C6 2686   0.636   6.713   3.860  0.2401  0.2887  0.4659
  100ccc     H6 2687   0.267   6.345   3.770 -0.5098 -0.1423 -0.4270
  100ccc     H7 2688   0.528   6.340   3.847 -1.8269  0.4851 -0.0010
  100ccc     H8 2689   0.369   6.490   3.435 -2.5696 -1.1004  1.3520
  100ccc     H9 2690   0.562   6.731   3.939 -1.4470 -0.1494 -0.9506
  100ccc    H10 2691   0.669   6.813   3.827 -2.8623  2.2539  2.7508
  100ccc     O5 2692   0.729   6.618   3.899 -0.2685 -1.2200 -0.4125
  100ccc    H11 2693   0.680   6.535   3.883 -1.3923 -0.6188 -0.2407
  100ccc     O6 2694   0.635   6.611   3.648  0.0684 -0.3083 -0.4449
  101ccc     C1 2695   0.630   6.738   2.667 -0.3396 -0.4245  0.5610
  101ccc     C2 2696   0.609   6.649   2.546 -0.5878  0.0585  0.2190
  101ccc     H1 2697   0.610   6.838   2.628 -0.4481 -0.6718 -0.0341
  101ccc     H2 2698   0.514   6.692   2.511 -1.8926 -1.2513  1.9702
  101ccc     C3 2699   0.713   6.670   2.438  0.0314  0.5161 -0.4550
  101ccc     C4 2700   0.864   6.668   2.499  0.5433  0.3778  0.0682
  101ccc     C5 2701   0.871   6.747   2.632  0.1243 -0.2976 -0.0170
  101ccc     H3 2702   0.893   6.562   2.502  0.0837 -0.1271 -4.8276
  101ccc     H4 2703   0.701   6.772   2.398  2.4359  0.2767 -1.9829
  101ccc     H5 2704   0.872   6.852   2.599  2.9243 -0.1979  0.1260
  101ccc     O1 2705   0.995   6.721   2.707  0.1686  1.5813  0.2582
  101ccc     O2 2706   0.954   6.727   2.404  0.1691  0.0176  0.5514
  101ccc     O3 2707   0.706   6.575   2.332 -0.9003  0.8082 -0.2445
  101ccc     O4 2708   0.608   6.508   2.582 -0.0401 -0.3281 -0.6355
  101ccc     C6 2709   0.526   6.716   2.775 -0.5068 -0.0006  0.2719
  101ccc     H6 2710   0.691   6.618   2.246  1.1592 -0.5954 -1.3978
  101ccc     H7 2711   0.638   6.469   2.498  0.2435  1.1733 -1.2639
  101ccc     H8 2712   1.047   6.717   2.432  0.6710 -1.5382 -1.4634
  101ccc     H9 2713   0.519   6.610   2.802  0.7844 -0.2411 -0.2483
  101ccc    H10 2714   0.427   6.740   2.733 -0.8979  1.7045  2.0647
  101ccc     O5 2715   0.556   6.810   2.879  0.4831  0.4734  0.4853
  101ccc    H11 2716   0.652   6.795   2.890  0.4569 -3.2310 -2.2094
  101ccc     O6 2717   0.761   6.720   2.719 -0.1588  0.2663  0.1637
  102ccc     C1 2718   5.320   7.090   3.476  0.2691 -0.1106 -0.1581
  102ccc     C2 2719   5.275   7.234   3.499 -0.2969 -0.0729  0.6574
  102ccc     H1 2720   5.351   7.078   3.371  1.9001 -0.2710  0.3209
  102ccc     H2 2721   5.342   7.318   3.477 -1.7684  1.3699  1.4628
  102ccc     C3 2722   5.148   7.257   3.410  0.1245 -0.3976 -0.1564
  102ccc     C4 2723   5.037   7.154   3.443 -0.2878  0.1305 -0.1724
  102ccc     C5 2724   5.098   7.013   3.425 -0.3136 -0.3865  0.2838
  102ccc     H3 2725   5.014   7.157   3.551 -0.4940 -1.4742 -0.1554
  102ccc     H4 2726   5.188   7.229   3.312  1.7802 -0.8071  0.5917
  102ccc     H5 2727   5.110   6.998   3.317  2.4898 -0.8580  0.5690
  102ccc     O1 2728   5.005   6.917   3.473 -0.3876  0.3674 -0.3523
  102ccc     O2 2729   4.916   7.170   3.359 -0.5994 -0.0826 -0.1446
  102ccc     O3 2730   5.097   7.390   3.410 -0.5395 -0.7141  0.2004
  102ccc     O4 2731   5.225   7.252   3.635  0.3190  0.6513 -0.0291
  102ccc     C6 2732   5.447   7.067   3.562  0.5962 -0.3700 -0.6972
  102ccc     H6 2733   5.168   7.453   3.390 -0.1296 -0.5951  1.8484
  102ccc     H7 2734   5.196   7.345   3.642 -2.1109 -0.1113  1.2062
  102ccc     H8 2735   4.941   7.147   3.268 -0.4828 -1.5967  0.2511
  102ccc     H9 2736   5.420   7.038   3.664  1.7629  1.8301  0.2955
  102ccc    H10 2737   5.521   7.147   3.573 -0.0684 -0.1213  2.9843
  102ccc     O5 2738   5.519   6.953   3.511 -0.5702  0.4573  0.0899
  102ccc    H11 2739   5.456   6.880   3.509  0.2821 -0.2848 -1.0011
  102ccc     O6 2740   5.221   6.993   3.499  0.0773  0.4073  0.2093
  103ccc     C1 2741   5.027   6.384   2.810 -0.4585  1.5840 -1.0951
  103ccc     C2 2742   5.053   6.303   2.683 -0.1501  0.0216 -0.4476
  103ccc     H1 2743   5.066   6.486   2.805  0.2959  1.6486  2.8198
  103ccc     H2 2744   5.008   6.353   2.596 -0.0185  0.6215 -0.1782
  103ccc     C3 2745   5.205   6.304   2.652  0.0103  0.3929  0.1729
  103ccc     C4 2746   5.282   6.256   2.777  0.7823  0.0301  0.0141
  103ccc     C5 2747   5.235   6.328   2.907  0.0345  0.0346 -0.0040
  103ccc     H3 2748   5.261   6.150   2.795 -0.6323  0.4150  0.7625
  103ccc     H4 2749   5.230   6.407   2.624 -0.6671  0.3759 -0.5375
  103ccc     H5 2750   5.271   6.432   2.909  3.7761 -1.1319  0.0446
  103ccc     O1 2751   5.291   6.275   3.033 -0.1671 -0.2046 -0.3048
  103ccc     O2 2752   5.427   6.253   2.761 -0.1938 -0.1079  0.8321
  103ccc     O3 2753   5.221   6.213   2.545 -1.0789  0.3730 -0.2572
  103ccc     O4 2754   5.005   6.169   2.693  0.3860 -0.2762 -0.9030
  103ccc     C6 2755   4.879   6.393   2.839  0.5472 -0.5966  0.4494
  103ccc     H6 2756   5.315   6.208   2.519 -1.2025  1.6435 -1.0529
  103ccc     H7 2757   5.068   6.127   2.633  1.7757  1.4252 -0.7244
  103ccc     H8 2758   5.440   6.175   2.704 -0.2972  1.1770 -1.0499
  103ccc     H9 2759   4.823   6.441   2.758 -1.9123 -2.8553  0.6697
  103ccc    H10 2760   4.856   6.454   2.928 -0.6424 -0.9690  0.4230
  103ccc     O5 2761   4.827   6.267   2.856  0.9250  0.0053  0.8844
  103ccc    H11 2762   4.900   6.209   2.831  0.2564 -0.1375 -0.8969
  103ccc     O6 2763   5.092   6.317   2.923  0.5669 -0.1678  0.3147
  104ccc     C1 2764   3.847   6.873   4.459  0.3698 -0.6224 -0.4479
  104ccc     C2 2765   3.719   6.968   4.469 -0.1608  0.4328  0.5849
  104ccc     H1 2766   3.904   6.869   4.553  2.5285 -0.1593 -1.6669
  104ccc     H2 2767   3.647   6.940   4.547 -0.9123  1.4225  0.2543
  104ccc     C3 2768   3.754   7.113   4.496 -0.1290 -0.4280  0.3190
  104ccc     C4 2769   3.855   7.152   4.384  0.2192 -0.1408 -0.2125
  104ccc     C5 2770   3.982   7.054   4.381  0.0347  0.2281 -0.1077
  104ccc     H3 2771   3.814   7.134   4.284  0.8583 -1.9781 -0.1737
  104ccc     H4 2772   3.792   7.122   4.598 -0.1316  0.9387  0.2115
  104ccc     H5 2773   4.047   7.059   4.469 -1.2451  2.5261  0.7944
  104ccc     O1 2774   4.051   7.095   4.264  0.8052  0.0968 -0.2835
  104ccc     O2 2775   3.904   7.281   4.423  0.4214  0.1941 -0.0255
  104ccc     O3 2776   3.633   7.188   4.485 -0.0436  0.1754 -0.3998
  104ccc     O4 2777   3.659   6.955   4.337  0.7800  0.2064 -0.1877
  104ccc     C6 2778   3.813   6.723   4.428 -0.4157 -0.8651  0.9310
  104ccc     H6 2779   3.653   7.282   4.500  1.4784 -0.2784  0.5464
  104ccc     H7 2780   3.595   7.028   4.340  0.3331  0.0235 -2.6524
  104ccc     H8 2781   3.987   7.297   4.377  1.0824  2.9894  1.8553
  104ccc     H9 2782   3.740   6.688   4.502 -2.8515 -2.1279 -1.8505
  104ccc    H10 2783   3.904   6.662   4.429 -0.1924 -0.5314  1.2596
  104ccc     O5 2784   3.744   6.721   4.300 -0.3087 -0.1129 -0.1956
  104ccc    H11 2785   3.703   6.809   4.308 -1.2963 -0.5369 -0.4610
  104ccc     O6 2786   3.939   6.921   4.361 -0.0393 -0.1535 -0.0109
  105ccc     C1 2787   4.756   7.603   3.684 -0.7671 -0.2670  0.7961
  105ccc     C2 2788   4.893   7.552   3.629 -0.4534 -0.3908 -0.6028
  105ccc     H1 2789   4.791   7.685   3.749  2.3023 -1.4406  0.8132
  105ccc     H2 2790   4.951   7.633   3.584  0.9743  0.6822  2.8641
  105ccc     C3 2791   4.984   7.518   3.749  0.5686 -0.2968  0.2457
  105ccc     C4 2792   4.924   7.400   3.831 -1.1804  0.2390 -0.2238
  105ccc     C5 2793   4.784   7.443   3.878  0.2370  0.1412  0.7376
  105ccc     H3 2794   4.925   7.314   3.762  0.2336  0.4870 -0.5322
  105ccc     H4 2795   4.979   7.599   3.823 -1.6606 -0.4395  0.3054
  105ccc     H5 2796   4.793   7.530   3.945 -0.1306  1.3663 -0.7530
  105ccc     O1 2797   4.710   7.334   3.942 -0.1229 -0.2473 -0.3064
  105ccc     O2 2798   5.004   7.379   3.952 -0.4378  0.1754  0.5773
  105ccc     O3 2799   5.126   7.501   3.707  0.2504  0.0903  0.2700
  105ccc     O4 2800   4.861   7.441   3.539 -0.5845  0.6152  0.0316
  105ccc     C6 2801   4.656   7.644   3.577  0.1537 -0.0798 -0.1971
  105ccc     H6 2802   5.169   7.587   3.699  0.5891 -0.2038 -1.3281
  105ccc     H7 2803   4.941   7.419   3.489 -1.8772 -0.0002 -1.8720
  105ccc     H8 2804   5.095   7.400   3.927 -0.7167  2.5676  1.3783
  105ccc     H9 2805   4.622   7.549   3.535  0.4178  0.2281 -1.1410
  105ccc    H10 2806   4.711   7.695   3.497 -0.7132  0.5723 -0.3819
  105ccc     O5 2807   4.557   7.723   3.645 -0.1504  0.1686 -0.0506
  105ccc    H11 2808   4.493   7.652   3.664 -1.1707  0.0972 -3.1397
  105ccc     O6 2809   4.705   7.495   3.765 -0.5173 -0.1319  0.0243
  106ccc     C1 2810   2.948   8.272   2.758 -0.4128  0.2648 -0.2509
  106ccc     C2 2811   2.869   8.349   2.872 -0.7992 -0.4065 -0.2412
  106ccc     H1 2812   2.880   8.230   2.683 -1.8298 -0.0659  1.1418
  106ccc     H2 2813   2.824   8.441   2.833  0.6561  0.3537 -0.1715
  106ccc     C3 2814   2.764   8.258   2.933 -0.1533  0.2337 -0.7031
  106ccc     C4 2815   2.836   8.135   2.988  0.2235 -0.4214 -0.0080
  106ccc     C5 2816   2.922   8.066   2.880  0.1165  0.5038  0.4400
  106ccc     H3 2817   2.907   8.167   3.066  1.9048 -2.4579 -0.6010
  106ccc     H4 2818   2.696   8.234   2.851 -1.5670 -1.1485  0.8129
  106ccc     H5 2819   2.851   8.032   2.804 -0.2026  2.7825 -0.3344
  106ccc     O1 2820   3.001   7.950   2.935  0.0477 -0.4537 -0.2216
  106ccc     O2 2821   2.741   8.050   3.058 -0.2626  0.4379 -0.3043
  106ccc     O3 2822   2.687   8.335   3.032 -0.3502  0.1405 -0.0434
  106ccc     O4 2823   2.969   8.376   2.965  0.4125  0.0986  0.0242
  106ccc     C6 2824   3.043   8.349   2.673  0.5833  0.0005  0.1729
  106ccc     H6 2825   2.753   8.385   3.083  3.0885 -1.9401 -2.0669
  106ccc     H7 2826   3.041   8.384   2.901 -1.0822  1.6992 -1.5330
  106ccc     H8 2827   2.735   8.092   3.146  0.0141 -1.1250  0.4977
  106ccc     H9 2828   2.978   8.417   2.617 -0.4537 -2.2402 -1.4762
  106ccc    H10 2829   3.096   8.281   2.606  1.0402 -0.0667  0.5962
  106ccc     O5 2830   3.144   8.425   2.750  0.7713  0.2865 -0.4445
  106ccc    H11 2831   3.155   8.507   2.698  0.2958  1.6047  1.4348
  106ccc     O6 2832   3.015   8.160   2.820  0.4063  0.0740  0.5548
  107ccc     C1 2833   3.129   8.422   2.149 -0.3342 -0.7720 -0.0781
  107ccc     C2 2834   3.156   8.378   1.995  0.1807  0.5153  0.3051
  107ccc     H1 2835   3.182   8.513   2.179  1.1644 -1.8900  0.8554
  107ccc     H2 2836   3.134   8.466   1.933  1.1771  0.2156 -0.5081
  107ccc     C3 2837   3.303   8.325   1.970  0.4331  0.3072 -0.3126
  107ccc     C4 2838   3.350   8.228   2.079 -1.2181  0.3530 -0.4434
  107ccc     C5 2839   3.327   8.298   2.218  0.1482 -0.0246  0.0713
  107ccc     H3 2840   3.294   8.134   2.078 -3.1207  1.3745 -3.6689
  107ccc     H4 2841   3.364   8.416   1.965 -0.5511  0.9962 -0.1998
  107ccc     H5 2842   3.382   8.393   2.226 -1.3659  0.7700  1.6532
  107ccc     O1 2843   3.367   8.204   2.321 -0.1662  0.0435  0.3854
  107ccc     O2 2844   3.493   8.203   2.063 -0.3308 -0.3171  0.0686
  107ccc     O3 2845   3.308   8.259   1.842  0.4592 -0.0668  0.6512
  107ccc     O4 2846   3.072   8.261   1.964 -0.4255  0.7247 -0.1469
  107ccc     C6 2847   2.978   8.427   2.179 -0.1888  0.1009 -0.7211
  107ccc     H6 2848   3.350   8.326   1.787 -0.4332  0.4161  0.5333
  107ccc     H7 2849   3.128   8.220   1.896  0.1580 -0.6291  1.1104
  107ccc     H8 2850   3.536   8.172   2.144  1.2631  1.1348 -0.1503
  107ccc     H9 2851   2.935   8.327   2.168 -0.6338 -0.0462  1.8069
  107ccc    H10 2852   2.921   8.490   2.109 -1.0594  2.4410  1.8923
  107ccc     O5 2853   2.955   8.467   2.316  0.1677 -0.0965 -0.1924
  107ccc    H11 2854   3.006   8.550   2.313 -0.3968  0.2465 -0.4420
  107ccc     O6 2855   3.186   8.316   2.230  0.1089  0.4087  0.1265
  108ccc     C1 2856   3.329   7.463   3.817 -0.1713 -0.0675  0.1495
  108ccc     C2 2857   3.390   7.551   3.927 -0.5202 -0.1409  0.8005
  108ccc     H1 2858   3.321   7.363   3.860  1.6349 -0.8074 -1.1455
  108ccc     H2 2859   3.329   7.551   4.018 -1.7166 -0.4418  0.0219
  108ccc     C3 2860   3.530   7.498   3.960  0.6153  0.5652 -0.1537
  108ccc     C4 2861   3.626   7.486   3.834  0.3404  0.0962 -1.0602
  108ccc     C5 2862   3.554   7.415   3.713  0.1309 -0.0664  0.2199
  108ccc     H3 2863   3.629   7.587   3.791 -0.1179 -0.0110 -1.3585
  108ccc     H4 2864   3.509   7.396   3.995 -1.5907  1.6417  1.9993
  108ccc     H5 2865   3.568   7.308   3.729  1.0359  0.1029  0.6255
  108ccc     O1 2866   3.635   7.453   3.597  0.1591 -0.1743 -0.1833
  108ccc     O2 2867   3.761   7.438   3.877 -0.4143  0.0205 -0.4994
  108ccc     O3 2868   3.592   7.573   4.067  0.0288 -0.1345 -0.3489
  108ccc     O4 2869   3.385   7.680   3.878 -0.0212  0.1575  0.0009
  108ccc     C6 2870   3.188   7.506   3.778 -0.3317  0.3419  0.4568
  108ccc     H6 2871   3.556   7.541   4.152  0.1293  0.1057 -0.2143
  108ccc     H7 2872   3.301   7.671   3.830  0.1630 -0.0766 -0.2814
  108ccc     H8 2873   3.787   7.375   3.807  0.3786  1.2510 -1.3614
  108ccc     H9 2874   3.115   7.496   3.860 -0.3887  0.6160  0.4411
  108ccc    H10 2875   3.159   7.426   3.709  0.2348 -1.0933  1.8172
  108ccc     O5 2876   3.187   7.638   3.716 -0.1305  0.4781  0.4264
  108ccc    H11 2877   3.094   7.656   3.692 -0.3540 -1.9133 -0.8213
  108ccc     O6 2878   3.415   7.461   3.699 -0.0834 -0.3877  0.1770
  109ccc     C1 2879   3.627   8.118   3.101 -0.4249 -0.4560 -0.1689
  109ccc     C2 2880   3.632   8.263   3.055  0.5821 -0.1509  0.3309
  109ccc     H1 2881   3.599   8.139   3.205  1.3483  1.3284  0.0145
  109ccc     H2 2882   3.533   8.301   3.080  0.8927  0.5964  0.4481
  109ccc     C3 2883   3.731   8.353   3.138  0.5624 -0.0284 -1.1286
  109ccc     C4 2884   3.870   8.287   3.131 -0.0077 -0.5470 -0.1350
  109ccc     C5 2885   3.862   8.133   3.163 -0.4654 -0.9605  0.1102
  109ccc     H3 2886   3.912   8.299   3.030 -1.8576 -1.6160 -1.0612
  109ccc     H4 2887   3.694   8.343   3.241 -2.6396 -1.4266 -2.2733
  109ccc     H5 2888   3.839   8.128   3.270  1.7403  3.1604  1.0136
  109ccc     O1 2889   3.994   8.067   3.146 -0.1514 -0.3955  0.2347
  109ccc     O2 2890   3.950   8.338   3.237  0.2059  0.3578  0.1747
  109ccc     O3 2891   3.727   8.495   3.095  0.0004 -0.0299  0.1400
  109ccc     O4 2892   3.658   8.278   2.917 -0.5547  0.7543  1.0277
  109ccc     C6 2893   3.528   8.031   3.024 -0.6132  0.4714 -0.1714
  109ccc     H6 2894   3.756   8.559   3.161 -2.0604  1.8311 -0.6166
  109ccc     H7 2895   3.682   8.372   2.907 -1.0486  0.7247 -0.9290
  109ccc     H8 2896   4.039   8.346   3.198 -0.3436  0.7781 -1.0456
  109ccc     H9 2897   3.570   8.011   2.925  0.8921 -1.1744  0.7480
  109ccc    H10 2898   3.435   8.086   3.005 -0.6968  0.0309 -1.1223
  109ccc     O5 2899   3.518   7.909   3.093 -0.4069  0.2632  0.1604
  109ccc    H11 2900   3.481   7.945   3.176 -1.4696  2.9917 -1.3766
  109ccc     O6 2901   3.758   8.064   3.091  0.0914 -0.3207  0.2399
  110ccc     C1 2902   2.977   5.388   3.804  0.0756 -0.1828 -0.0242
  110ccc     C2 2903   2.848   5.316   3.749  0.1276 -0.5375  0.1379
  110ccc     H1 2904   2.946   5.459   3.881 -0.0170 -0.5723  0.3051
  110ccc     H2 2905   2.794   5.275   3.834  1.4854 -2.4999  0.1400
  110ccc     C3 2906   2.755   5.414   3.675  0.6888  0.2435  0.1135
  110ccc     C4 2907   2.834   5.492   3.564  0.2462  0.9160 -0.9363
  110ccc     C5 2908   2.966   5.551   3.625  0.6209 -0.0954 -0.4537
  110ccc     H3 2909   2.871   5.410   3.502 -0.4917 -1.9986  2.1561
  110ccc     H4 2910   2.724   5.497   3.739  0.3750 -0.2708  0.6367
  110ccc     H5 2911   2.942   5.629   3.699 -1.0045  0.7338 -1.7975
  110ccc     O1 2912   3.035   5.602   3.506 -0.1034 -0.2199  0.4767
  110ccc     O2 2913   2.752   5.571   3.477 -0.6430 -0.2183 -0.0694
  110ccc     O3 2914   2.635   5.344   3.632  0.3754  0.0184 -0.0012
  110ccc     O4 2915   2.886   5.216   3.658  0.3868 -0.5930  0.0642
  110ccc     C6 2916   3.075   5.295   3.882  0.6251 -0.2103  0.2504
  110ccc     H6 2917   2.578   5.417   3.604  0.1904  0.3744  1.2344
  110ccc     H7 2918   2.971   5.193   3.700  0.4554  0.6548  0.6380
  110ccc     H8 2919   2.716   5.506   3.414 -1.6033  1.9799 -1.9554
  110ccc     H9 2920   3.018   5.259   3.969  0.4975  2.0728  1.1675
  110ccc    H10 2921   3.163   5.355   3.907  0.8262  1.9489 -4.6193
  110ccc     O5 2922   3.118   5.185   3.796 -0.4811 -0.2374  0.2299
  110ccc    H11 2923   3.185   5.144   3.854 -0.8744 -0.9154  0.2257
  110ccc     O6 2924   3.043   5.453   3.688 -0.2451 -0.1105  0.3754
  111ccc     C1 2925   3.090   6.559   3.521  0.3284 -0.3492 -0.0077
  111ccc     C2 2926   3.206   6.645   3.587  0.4933 -0.2314  0.1581
  111ccc     H1 2927   3.024   6.528   3.603  3.1710  1.0801  3.0699
  111ccc     H2 2928   3.152   6.727   3.636  0.7163 -0.1816  0.3209
  111ccc     C3 2929   3.290   6.553   3.683 -0.3136  0.8580 -0.3187
  111ccc     C4 2930   3.348   6.434   3.599 -0.6337  0.1635  0.0681
  111ccc     C5 2931   3.232   6.358   3.534  0.1391 -0.6504  0.6569
  111ccc     H3 2932   3.397   6.480   3.512 -1.3461  1.6014  0.4000
  111ccc     H4 2933   3.229   6.516   3.766 -1.1581  0.2918 -1.1739
  111ccc     H5 2934   3.182   6.304   3.615  0.3297 -0.3794  0.9574
  111ccc     O1 2935   3.281   6.252   3.444  0.1157 -0.1128 -0.6642
  111ccc     O2 2936   3.431   6.341   3.663 -0.3212 -0.3302 -0.8028
  111ccc     O3 2937   3.388   6.642   3.746 -0.4754 -0.6290 -0.6325
  111ccc     O4 2938   3.280   6.688   3.473 -0.3712  0.3143 -0.5820
  111ccc     C6 2939   3.001   6.641   3.430  0.7247  0.4283  0.7943
  111ccc     H6 2940   3.449   6.672   3.677  2.4048  1.4123  2.4840
  111ccc     H7 2941   3.208   6.688   3.408 -0.9577 -1.5018  0.0054
  111ccc     H8 2942   3.474   6.289   3.593 -1.0079 -0.1612 -1.3492
  111ccc     H9 2943   2.960   6.723   3.490 -1.2671  1.7498 -2.1369
  111ccc    H10 2944   2.912   6.583   3.404 -0.6955  2.5261  0.7407
  111ccc     O5 2945   3.069   6.696   3.324  0.5535  0.5160  0.1587
  111ccc    H11 2946   3.038   6.645   3.248 -1.6078 -0.0148  1.3057
  111ccc     O6 2947   3.145   6.445   3.455  0.1887  0.1446  0.2074
  112ccc     C1 2948   5.113   4.907   3.251 -0.2294  0.7583  0.7871
  112ccc     C2 2949   5.244   4.822   3.255  0.7526  0.1388 -0.0198
  112ccc     H1 2950   5.070   4.894   3.150 -0.3312 -0.4118  0.9637
  112ccc     H2 2951   5.227   4.718   3.223  0.1423  0.5543 -1.0664
  112ccc     C3 2952   5.346   4.878   3.152  0.2054 -0.4370  0.1177
  112ccc     C4 2953   5.364   5.022   3.173 -0.0887 -0.1407  0.0277
  112ccc     C5 2954   5.236   5.105   3.170 -0.1977  0.1081 -0.0679
  112ccc     H3 2955   5.407   5.031   3.274 -0.3975  1.1379  0.0641
  112ccc     H4 2956   5.304   4.867   3.051  1.4537 -0.5991 -0.4163
  112ccc     H5 2957   5.195   5.110   3.068 -1.5894 -0.4553  0.4484
  112ccc     O1 2958   5.268   5.238   3.224 -0.2649  0.4328  0.5239
  112ccc     O2 2959   5.460   5.073   3.074  0.6420  0.1167 -0.7360
  112ccc     O3 2960   5.473   4.807   3.151 -0.0492 -0.1785 -0.1380
  112ccc     O4 2961   5.290   4.847   3.390 -0.2305 -0.3373  0.3736
  112ccc     C6 2962   4.996   4.870   3.346 -0.1902 -0.7693  0.7286
  112ccc     H6 2963   5.493   4.833   3.060  1.3706  0.7671  0.4181
  112ccc     H7 2964   5.348   4.770   3.407  1.1964  0.0528 -2.1705
  112ccc     H8 2965   5.479   5.169   3.076  1.1192  0.1812 -3.7487
  112ccc     H9 2966   5.025   4.870   3.452  0.3166 -2.6326  0.6220
  112ccc    H10 2967   4.962   4.766   3.332 -1.5288 -0.3775  0.9090
  112ccc     O5 2968   4.886   4.961   3.322  0.5709 -0.1667  0.6126
  112ccc    H11 2969   4.864   4.951   3.228  1.0135  1.4446  0.3214
  112ccc     O6 2970   5.149   5.047   3.264  0.1775 -0.5508  0.0508
  113ccc     C1 2971   4.849   4.635   2.897 -0.2493  0.2193  0.6242
  113ccc     C2 2972   4.969   4.574   2.970 -0.0893 -0.4535  0.0216
  113ccc     H1 2973   4.842   4.577   2.804 -0.2541 -0.8990  1.3037
  113ccc     H2 2974   4.947   4.468   2.983  1.3363 -0.7688 -0.0571
  113ccc     C3 2975   5.094   4.595   2.887 -0.0179 -0.3007  0.0663
  113ccc     C4 2976   5.124   4.748   2.867 -0.9051 -0.0896  0.2385
  113ccc     C5 2977   4.992   4.813   2.807 -0.5478 -0.2437  0.0344
  113ccc     H3 2978   5.144   4.781   2.970 -1.2982 -0.8791  0.5697
  113ccc     H4 2979   5.088   4.542   2.791  1.1655 -4.3377  2.0210
  113ccc     H5 2980   4.976   4.810   2.698 -0.1743 -0.4593 -0.0167
  113ccc     O1 2981   5.007   4.957   2.829  0.4078 -0.1760  0.0354
  113ccc     O2 2982   5.250   4.763   2.785 -0.3066 -0.5449  0.4254
  113ccc     O3 2983   5.211   4.541   2.950  0.8585  0.1021 -0.3788
  113ccc     O4 2984   4.975   4.643   3.097 -0.4079  0.0954 -0.2594
  113ccc     C6 2985   4.714   4.615   2.959  0.0275  0.1470 -0.1206
  113ccc     H6 2986   5.276   4.555   2.879 -0.2864  0.8611 -1.3296
  113ccc     H7 2987   4.878   4.645   3.108 -0.7074  0.2965 -2.4710
  113ccc     H8 2988   5.259   4.860   2.796 -2.0452 -0.4198  1.2745
  113ccc     H9 2989   4.701   4.506   2.960  0.3150  0.0905  1.8608
  113ccc    H10 2990   4.630   4.654   2.901 -0.3670 -1.4779 -0.6898
  113ccc     O5 2991   4.710   4.665   3.094 -0.9646 -0.0551 -0.6990
  113ccc    H11 2992   4.616   4.663   3.118 -0.6817  0.4342  0.5498
  113ccc     O6 2993   4.869   4.771   2.869  0.0150  0.1494 -0.1019
  114ccc     C1 2994   3.696   4.980   3.654 -0.8915  0.2318 -0.4866
  114ccc     C2 2995   3.855   4.989   3.662 -0.3179  0.3183  0.0004
  114ccc     H1 2996   3.660   4.896   3.714 -0.8198  0.6526  0.1583
  114ccc     H2 2997   3.889   4.997   3.766  1.6016  0.7631 -0.6302
  114ccc     C3 2998   3.918   4.867   3.587  0.0696  0.0790 -0.0889
  114ccc     C4 2999   3.861   4.832   3.448  0.5278 -0.8405 -0.4435
  114ccc     C5 3000   3.703   4.839   3.458  0.9985  0.1026 -0.3510
  114ccc     H3 3001   3.896   4.910   3.381 -0.6087 -0.1998 -0.3131
  114ccc     H4 3002   3.908   4.772   3.642 -0.2309  0.0748 -0.1444
  114ccc     H5 3003   3.668   4.755   3.520 -1.9227  1.2712 -0.2294
  114ccc     O1 3004   3.646   4.819   3.325 -0.6692 -0.4976 -0.2128
  114ccc     O2 3005   3.914   4.702   3.403  0.9679 -0.5090  0.2506
  114ccc     O3 3006   4.057   4.883   3.573 -0.2787  0.2776  0.4116
  114ccc     O4 3007   3.897   5.103   3.592  0.0073 -0.2008 -0.3405
  114ccc     C6 3008   3.629   5.102   3.712 -0.1189  0.1181 -0.0997
  114ccc     H6 3009   4.077   4.900   3.479  1.2596 -1.6907  0.3048
  114ccc     H7 3010   3.983   5.128   3.631  0.0651  0.3798 -0.8274
  114ccc     H8 3011   3.860   4.638   3.452  0.4086  0.1067  0.4533
  114ccc     H9 3012   3.660   5.192   3.658  0.3452  0.1915  0.2804
  114ccc    H10 3013   3.654   5.122   3.817  1.4995 -1.3137 -0.1592
  114ccc     O5 3014   3.489   5.092   3.701  0.5139 -0.2868 -0.4367
  114ccc    H11 3015   3.461   4.998   3.702 -2.7612  0.5614  0.8407
  114ccc     O6 3016   3.659   4.966   3.517 -0.2239  0.7064  0.5392
  115ccc     C1 3017   2.604   4.733   3.275  0.5859  0.4264  0.5154
  115ccc     C2 3018   2.521   4.835   3.355 -0.1487  0.2354  0.0406
  115ccc     H1 3019   2.668   4.678   3.345 -0.8229 -0.7663  0.9129
  115ccc     H2 3020   2.467   4.790   3.439  0.3129  1.1115  0.8354
  115ccc     C3 3021   2.615   4.934   3.424 -0.0471  0.3830  0.1741
  115ccc     C4 3022   2.705   5.006   3.324  0.0182  0.4476 -0.0101
  115ccc     C5 3023   2.774   4.901   3.228  0.3137 -0.4016 -0.5220
  115ccc     H3 3024   2.646   5.075   3.262  1.2224  0.1242 -1.5793
  115ccc     H4 3025   2.683   4.873   3.485 -0.6668 -1.0740 -0.5494
  115ccc     H5 3026   2.856   4.853   3.284  0.4968  2.1677  1.6515
  115ccc     O1 3027   2.835   4.988   3.123 -0.1071  0.2387 -0.5218
  115ccc     O2 3028   2.804   5.093   3.397  0.3616  0.6112  0.1227
  115ccc     O3 3029   2.536   5.022   3.505  0.5981  0.5998  0.8434
  115ccc     O4 3030   2.440   4.909   3.260  0.1926  0.5200  0.1532
  115ccc     C6 3031   2.532   4.613   3.212 -0.5719 -0.2691 -1.0497
  115ccc     H6 3032   2.496   4.976   3.581  1.1452  0.2202  0.9024
  115ccc     H7 3033   2.374   4.949   3.318 -2.2962 -2.1589 -0.6260
  115ccc     H8 3034   2.851   5.137   3.324 -0.4281  1.9218  0.3878
  115ccc     H9 3035   2.480   4.561   3.293  1.7595 -1.0212  0.0732
  115ccc    H10 3036   2.600   4.544   3.161 -0.7994 -1.3013  0.0177
  115ccc     O5 3037   2.432   4.659   3.117  0.2285 -0.2691 -0.4708
  115ccc    H11 3038   2.347   4.647   3.161  0.9787 -1.1505  0.8060
  115ccc     O6 3039   2.684   4.801   3.174  0.0757 -0.4249 -0.0119
  116ccc     C1 3040   4.245   4.000   2.281  0.1043  0.0332 -0.1922
  116ccc     C2 3041   4.189   3.868   2.217  0.0432 -0.4326 -0.1951
  116ccc     H1 3042   4.250   3.989   2.390  1.4655 -1.1281 -0.3386
  116ccc     H2 3043   4.249   3.784   2.255 -1.4786 -1.4536  0.0461
  116ccc     C3 3044   4.042   3.850   2.264  0.0550 -0.2584  0.2071
  116ccc     C4 3045   3.949   3.968   2.221  0.4867 -0.2317  0.6421
  116ccc     C5 3046   4.009   4.099   2.277  0.0958 -0.2168  0.3937
  116ccc     H3 3047   3.955   3.979   2.112  0.9700  0.6657  0.7481
  116ccc     H4 3048   4.050   3.840   2.373 -0.4511 -5.2791  0.0433
  116ccc     H5 3049   3.990   4.092   2.385 -1.3324 -1.2604  0.1163
  116ccc     O1 3050   3.940   4.214   2.219  0.4469  0.6959 -0.5077
  116ccc     O2 3051   3.817   3.950   2.270 -0.0008  0.5483  0.0897
  116ccc     O3 3052   3.998   3.729   2.210  0.2068  0.8558 -0.0514
  116ccc     O4 3053   4.202   3.879   2.075  0.6078  0.3849  0.0359
  116ccc     C6 3054   4.388   4.034   2.243 -0.3121 -0.4532 -0.0635
  116ccc     H6 3055   4.047   3.665   2.264 -0.5380 -0.7526 -1.1944
  116ccc     H7 3056   4.138   3.814   2.041  1.2266 -0.4314  0.4017
  116ccc     H8 3057   3.784   3.862   2.245  2.8570 -0.4165 -0.6444
  116ccc     H9 3058   4.396   4.076   2.142  2.1022 -2.1829 -0.6936
  116ccc    H10 3059   4.448   3.942   2.251  1.7497  0.9107  1.4106
  116ccc     O5 3060   4.449   4.112   2.337 -0.1735  0.1268  0.0040
  116ccc    H11 3061   4.410   4.201   2.329 -0.9864 -0.3653 -2.2363
  116ccc     O6 3062   4.152   4.116   2.247  0.1774 -0.1983  0.4013
  117ccc     C1 3063   4.426   5.063   2.198 -0.0254 -0.1528 -0.1257
  117ccc     C2 3064   4.413   5.215   2.160  0.6270  0.1170 -0.2051
  117ccc     H1 3065   4.404   5.002   2.109 -1.9965 -0.3982  0.4837
  117ccc     H2 3066   4.481   5.242   2.078  0.3429 -0.1186 -0.5176
  117ccc     C3 3067   4.266   5.243   2.123  0.4472 -0.2656 -0.3409
  117ccc     C4 3068   4.165   5.173   2.226 -0.4049 -0.6956  1.1072
  117ccc     C5 3069   4.202   5.030   2.278 -0.0708 -0.1012  0.9344
  117ccc     H3 3070   4.183   5.232   2.316  0.8286 -1.5754  1.4651
  117ccc     H4 3071   4.243   5.185   2.033 -2.1132  0.7488 -0.4171
  117ccc     H5 3072   4.177   4.952   2.206  1.3966 -2.1331  2.5317
  117ccc     O1 3073   4.115   5.002   2.392  0.3841  0.1062 -0.2447
  117ccc     O2 3074   4.028   5.195   2.185  0.3431  0.3040 -0.0354
  117ccc     O3 3075   4.246   5.383   2.122  0.3601  0.2039 -0.1819
  117ccc     O4 3076   4.446   5.288   2.277  0.2883  0.2515 -0.1840
  117ccc     C6 3077   4.567   5.012   2.241 -0.4388  0.0488 -0.4170
  117ccc     H6 3078   4.150   5.389   2.107  0.2224 -2.2433 -0.5655
  117ccc     H7 3079   4.503   5.223   2.321  2.3937  0.1116 -2.8684
  117ccc     H8 3080   3.957   5.147   2.231 -1.5147  2.5020 -0.4432
  117ccc     H9 3081   4.625   5.009   2.148  1.6067 -0.6453  0.8115
  117ccc    H10 3082   4.553   4.913   2.285 -4.2876  0.5606 -0.2009
  117ccc     O5 3083   4.625   5.099   2.346  0.1111  0.2541 -0.5323
  117ccc    H11 3084   4.682   5.042   2.401 -3.2182 -0.3204  2.6665
  117ccc     O6 3085   4.339   5.025   2.314 -0.2994 -0.5233  0.4861
  118ccc     C1 3086   1.031   6.950   3.710 -0.2984  0.0315 -0.3589
  118ccc     C2 3087   0.969   6.812   3.744  0.5121 -0.5324  0.0698
  118ccc     H1 3088   1.009   6.977   3.606 -2.3297  0.0178  0.0257
  118ccc     H2 3089   0.864   6.818   3.712  0.6804 -0.0704 -0.4158
  118ccc     C3 3090   1.038   6.702   3.661  0.3101 -0.1226 -0.0005
  118ccc     C4 3091   1.192   6.715   3.657 -0.5083  0.6671  0.0813
  118ccc     C5 3092   1.245   6.857   3.645 -0.0086  0.6549 -0.0416
  118ccc     H3 3093   1.241   6.674   3.746 -0.0103 -0.6201 -0.7584
  118ccc     H4 3094   1.001   6.725   3.560 -0.0469  0.6727  0.2970
  118ccc     H5 3095   1.243   6.881   3.539  0.4315 -0.6562 -0.3639
  118ccc     O1 3096   1.382   6.866   3.689  0.0928 -0.7090 -0.5381
  118ccc     O2 3097   1.225   6.636   3.538 -0.0194 -0.1484  0.0890
  118ccc     O3 3098   0.995   6.570   3.707 -0.1354 -0.3508  0.7841
  118ccc     O4 3099   0.995   6.791   3.882  0.4483  0.0152  0.4636
  118ccc     C6 3100   0.975   7.065   3.797 -0.4611 -0.5354  0.3260
  118ccc     H6 3101   1.031   6.500   3.651 -0.0883 -0.0797  0.4775
  118ccc     H7 3102   1.009   6.878   3.924 -0.5639  0.2967  0.2451
  118ccc     H8 3103   1.320   6.649   3.518 -0.2405  1.8974  0.2010
  118ccc     H9 3104   0.868   7.067   3.771  0.4305 -0.8553 -4.1328
  118ccc    H10 3105   1.018   7.162   3.769  0.5714 -0.6828  1.3409
  118ccc     O5 3106   1.005   7.038   3.931  0.2312 -0.3063 -0.0627
  118ccc    H11 3107   0.962   7.107   3.984  2.9183  1.5381 -0.0377
  118ccc     O6 3108   1.173   6.954   3.722  0.1318  0.4804  0.0542
  119ccc     C1 3109   1.797   7.466   3.191 -0.7406  0.8852 -0.2314
  119ccc     C2 3110   1.883   7.464   3.061  0.3588  0.0494 -0.2795
  119ccc     H1 3111   1.841   7.536   3.263  1.2294  0.7136 -1.1984
  119ccc     H2 3112   1.889   7.562   3.012  1.1353  0.4672  0.6029
  119ccc     C3 3113   2.032   7.419   3.094  0.4589  0.3111 -0.4566
  119ccc     C4 3114   2.032   7.278   3.164  0.6437  0.2050 -0.1072
  119ccc     C5 3115   1.939   7.275   3.286 -0.0896 -0.6295  0.0032
  119ccc     H3 3116   1.989   7.213   3.088  2.5500  1.0253 -1.9984
  119ccc     H4 3117   2.073   7.490   3.167 -2.4505  2.1635 -0.4496
  119ccc     H5 3118   1.986   7.332   3.368 -0.7520 -0.7517  0.4809
  119ccc     O1 3119   1.921   7.141   3.338  0.4745 -0.1316 -0.7100
  119ccc     O2 3120   2.162   7.250   3.204  0.1168 -0.1354 -0.2675
  119ccc     O3 3121   2.107   7.409   2.969 -0.7310 -0.2638 -0.2791
  119ccc     O4 3122   1.825   7.384   2.966 -0.0193 -0.0409  0.5930
  119ccc     C6 3123   1.650   7.501   3.173  0.5637 -0.3125  0.1471
  119ccc     H6 3124   2.148   7.496   2.957  0.4529 -0.5602  1.2280
  119ccc     H7 3125   1.866   7.409   2.881  1.2970  1.2427  1.5368
  119ccc     H8 3126   2.162   7.153   3.201 -0.9612 -0.2326  1.6972
  119ccc     H9 3127   1.645   7.606   3.142  1.0539  0.2778  1.9333
  119ccc    H10 3128   1.594   7.497   3.267  0.2580  2.6426  0.1925
  119ccc     O5 3129   1.603   7.407   3.071  0.0781 -0.3474 -0.2870
  119ccc    H11 3130   1.690   7.386   3.034 -0.9127 -1.6163 -2.0885
  119ccc     O6 3131   1.806   7.337   3.255  0.5872 -0.6221  0.5260
  120ccc     C1 3132   2.644   6.691   5.066 -0.3881  0.2036 -0.8046
  120ccc     C2 3133   2.783   6.645   5.098 -0.1533 -0.1153 -0.3873
  120ccc     H1 3134   2.575   6.622   5.116 -0.5443  2.1166  1.7899
  120ccc     H2 3135   2.788   6.641   5.208 -0.7080 -0.1995 -0.3620
  120ccc     C3 3136   2.817   6.507   5.033 -1.0643  0.4235 -0.2296
  120ccc     C4 3137   2.780   6.502   4.885 -0.3343  0.3239  0.1787
  120ccc     C5 3138   2.636   6.556   4.875  0.0512  0.2842  0.4650
  120ccc     H3 3139   2.845   6.568   4.826  0.1589  0.0902  0.4498
  120ccc     H4 3140   2.760   6.432   5.090  1.0761 -1.0019  0.1397
  120ccc     H5 3141   2.573   6.486   4.930  0.8037 -0.1363  0.8066
  120ccc     O1 3142   2.590   6.547   4.730 -0.1715 -0.0878 -0.1914
  120ccc     O2 3143   2.795   6.369   4.828 -0.3629  0.7162  0.5070
  120ccc     O3 3144   2.957   6.474   5.046  0.3892 -0.0158  0.0468
  120ccc     O4 3145   2.870   6.745   5.043 -1.1583 -0.1191  0.2084
  120ccc     C6 3146   2.608   6.820   5.130  0.3210 -0.0920 -0.3991
  120ccc     H6 3147   3.006   6.537   4.992 -3.3927  1.9861 -1.4225
  120ccc     H7 3148   2.811   6.821   5.039 -0.7267  0.2481  0.7270
  120ccc     H8 3149   2.751   6.372   4.741 -3.1753 -1.2738  1.7220
  120ccc     H9 3150   2.638   6.823   5.235 -0.9964  0.4601 -0.0045
  120ccc    H10 3151   2.498   6.827   5.133  0.3808  1.0062 -0.2168
  120ccc     O5 3152   2.659   6.934   5.056  0.6075 -0.0144  0.3187
  120ccc    H11 3153   2.623   7.015   5.096  0.4328 -0.1033  0.3426
  120ccc     O6 3154   2.626   6.685   4.925 -0.8634 -0.4991 -0.1925
  121ccc     C1 3155   3.061   6.447   4.385  0.2758  0.0240 -0.3748
  121ccc     C2 3156   3.186   6.501   4.311  0.3877 -0.0769 -0.1820
  121ccc     H1 3157   3.039   6.347   4.346 -1.3434  0.6203 -1.0492
  121ccc     H2 3158   3.269   6.438   4.345  0.6489  0.9247  1.1502
  121ccc     C3 3159   3.167   6.501   4.157 -0.6016 -0.1585  0.2006
  121ccc     C4 3160   3.036   6.578   4.126  0.0352  0.3625 -0.2854
  121ccc     C5 3161   2.912   6.527   4.211  0.8980  0.2391 -0.3846
  121ccc     H3 3162   3.055   6.684   4.144  0.9716  0.5623 -2.2719
  121ccc     H4 3163   3.153   6.397   4.124  0.2068 -0.3808  0.5336
  121ccc     H5 3164   2.876   6.430   4.177  1.0653  0.7774 -2.1579
  121ccc     O1 3165   2.809   6.629   4.183  0.3285 -0.6254 -0.1511
  121ccc     O2 3166   3.002   6.553   3.982 -0.4607 -0.5165 -0.2270
  121ccc     O3 3167   3.276   6.561   4.088 -0.2986  0.2672  0.3989
  121ccc     O4 3168   3.211   6.631   4.367 -0.1057 -0.1396  0.9285
  121ccc     C6 3169   3.083   6.418   4.530  0.1839 -0.9866 -0.6748
  121ccc     H6 3170   3.297   6.488   4.026  0.6016 -0.4809  1.5255
  121ccc     H7 3171   3.287   6.676   4.327 -0.4555  1.1199  1.6080
  121ccc     H8 3172   3.003   6.642   3.941  1.4055  1.0499  2.8574
  121ccc     H9 3173   3.163   6.345   4.547 -0.2921 -1.4149 -0.2342
  121ccc    H10 3174   2.994   6.381   4.583 -0.3919  0.9021 -0.2395
  121ccc     O5 3175   3.118   6.536   4.598  0.3413  0.4928  0.4199
  121ccc    H11 3176   3.152   6.579   4.518 -0.8306  0.7630  0.0491
  121ccc     O6 3177   2.941   6.525   4.354  0.6095 -0.0120  0.5497
  122ccc     C1 3178   1.326   6.894   4.130  0.3154 -0.1703  0.4078
  122ccc     C2 3179   1.219   6.901   4.239  0.1765  0.1779  0.1308
  122ccc     H1 3180   1.280   6.933   4.038  0.9014  0.3605  0.3318
  122ccc     H2 3181   1.172   7.000   4.241  1.6823  0.9153  1.5701
  122ccc     C3 3182   1.101   6.800   4.201 -0.2069  0.5162  0.3798
  122ccc     C4 3183   1.156   6.659   4.159  1.4115 -0.1667  0.0628
  122ccc     C5 3184   1.276   6.669   4.061  0.5156 -0.4366  0.5748
  122ccc     H3 3185   1.198   6.608   4.247  0.9667 -0.1516  0.2856
  122ccc     H4 3186   1.048   6.845   4.116  0.1824  0.1052 -0.0913
  122ccc     H5 3187   1.227   6.710   3.972 -0.7641  1.5805  2.1397
  122ccc     O1 3188   1.330   6.544   4.023 -0.1653  0.1057 -0.0868
  122ccc     O2 3189   1.041   6.584   4.103 -0.4177  0.3173 -0.0245
  122ccc     O3 3190   1.022   6.784   4.327  0.4147 -0.2082  0.1875
  122ccc     O4 3191   1.284   6.865   4.364 -0.0070 -0.4935  0.2995
  122ccc     C6 3192   1.442   6.990   4.150 -0.3801  0.3235  0.1723
  122ccc     H6 3193   1.088   6.799   4.397 -1.0673 -1.3593  1.9444
  122ccc     H7 3194   1.372   6.896   4.336 -1.0324  3.7136  1.0177
  122ccc     H8 3195   1.016   6.515   4.167  1.1953 -0.8057 -0.5449
  122ccc     H9 3196   1.403   7.092   4.159  1.7165  1.0142  2.7745
  122ccc    H10 3197   1.503   6.981   4.060  0.1119 -1.6031  0.6567
  122ccc     O5 3198   1.510   6.950   4.270 -0.3974  0.1714  0.5054
  122ccc    H11 3199   1.600   6.941   4.234 -0.7734  0.9550 -0.6815
  122ccc     O6 3200   1.378   6.756   4.111 -0.2663 -0.4299  0.3110
  123ccc     C1 3201   0.600   5.889   3.767 -0.1740 -0.0925  0.6042
  123ccc     C2 3202   0.510   6.014   3.799 -0.7601  0.5772  0.4651
  123ccc     H1 3203   0.615   5.822   3.852 -0.1172  1.2898  1.7276
  123ccc     H2 3204   0.411   5.969   3.815 -0.5547  0.7898  2.6684
  123ccc     C3 3205   0.562   6.085   3.926  0.8662 -0.2128  0.2374
  123ccc     C4 3206   0.710   6.119   3.910 -0.4380 -0.9057  0.4795
  123ccc     C5 3207   0.802   6.003   3.851  0.8490  0.2489 -0.3872
  123ccc     H3 3208   0.711   6.200   3.836 -0.6046 -0.5613  0.8464
  123ccc     H4 3209   0.565   6.010   4.006  1.3479 -0.2899  0.1545
  123ccc     H5 3210   0.825   5.937   3.935  2.4640  0.3382 -0.7407
  123ccc     O1 3211   0.926   6.073   3.810  0.1519 -0.5160 -0.1252
  123ccc     O2 3212   0.748   6.176   4.038  0.2110  0.4874 -0.0811
  123ccc     O3 3213   0.481   6.199   3.957 -0.2978  0.1014  0.2828
  123ccc     O4 3214   0.514   6.098   3.680  0.1025  0.9616 -0.2179
  123ccc     C6 3215   0.548   5.800   3.660 -0.1357  0.3267  0.2753
  123ccc     H6 3216   0.394   6.170   3.989  0.2924 -1.8926  0.2090
  123ccc     H7 3217   0.441   6.161   3.694 -0.2324  0.2794  1.3082
  123ccc     H8 3218   0.677   6.228   4.080  0.5601 -0.3331  1.5962
  123ccc     H9 3219   0.445   5.765   3.678  0.2940 -0.3827  1.5063
  123ccc    H10 3220   0.609   5.709   3.653 -1.6274 -0.6514 -0.7773
  123ccc     O5 3221   0.543   5.872   3.534  0.6793  0.0189  0.2660
  123ccc    H11 3222   0.458   5.846   3.495  1.1405 -0.1081 -0.6887
  123ccc     O6 3223   0.737   5.931   3.740 -0.2642  0.2437  0.2143
  124ccc     C1 3224   1.981   5.549   3.965 -0.5121  0.2122 -0.2018
  124ccc     C2 3225   2.117   5.494   3.908  0.6435 -0.2484  0.5967
  124ccc     H1 3226   1.984   5.550   4.075  0.6689  0.8692 -0.2233
  124ccc     H2 3227   2.200   5.550   3.954  1.7816 -1.1386 -0.3095
  124ccc     C3 3228   2.141   5.345   3.921  0.2865 -0.5319 -0.1816
  124ccc     C4 3229   2.008   5.261   3.907 -0.1322  0.0165 -0.3628
  124ccc     C5 3230   1.881   5.323   3.969 -0.9868  0.1505 -0.1808
  124ccc     H3 3231   1.985   5.252   3.800 -4.3320 -1.2550  0.4662
  124ccc     H4 3232   2.171   5.327   4.025 -1.5799  1.2582  0.7410
  124ccc     H5 3233   1.891   5.308   4.078 -1.4423 -2.9150 -0.4495
  124ccc     O1 3234   1.781   5.242   3.923  0.6894 -0.8589 -0.0912
  124ccc     O2 3235   2.037   5.124   3.966  0.1237 -0.7619  0.3742
  124ccc     O3 3236   2.252   5.302   3.830 -0.2075  0.2786  0.6783
  124ccc     O4 3237   2.112   5.512   3.765  0.4140  0.2645  0.0631
  124ccc     C6 3238   1.961   5.686   3.918 -0.5050  0.5862 -0.0573
  124ccc     H6 3239   2.290   5.225   3.876  2.6907  2.0230  1.4816
  124ccc     H7 3240   2.175   5.440   3.745 -0.4063 -0.3022 -0.5172
  124ccc     H8 3241   2.113   5.093   3.914  1.0676  0.0442  1.2224
  124ccc     H9 3242   1.927   5.692   3.814 -1.8099 -3.0152  0.0005
  124ccc    H10 3243   2.059   5.734   3.921  0.4012 -1.1933 -0.0165
  124ccc     O5 3244   1.874   5.748   4.007  0.2361  0.3971 -0.0391
  124ccc    H11 3245   1.792   5.697   4.019  1.3105 -1.3035  0.5245
  124ccc     O6 3246   1.869   5.465   3.939  0.0242 -0.0591 -0.4722
  125ccc     C1 3247   0.907   4.687   3.842 -0.2245  0.2816  0.5469
  125ccc     C2 3248   0.870   4.569   3.932 -0.4453 -0.4254 -0.5082
  125ccc     H1 3249   0.977   4.641   3.772  0.0316  1.0570  0.2838
  125ccc     H2 3250   0.837   4.482   3.874  5.5386 -4.3411  1.0612
  125ccc     C3 3251   0.997   4.520   4.012  0.0207 -0.0629 -0.2808
  125ccc     C4 3252   1.060   4.640   4.091 -0.5304 -0.3013  0.3491
  125ccc     C5 3253   1.081   4.759   3.996 -0.5448 -0.0776  0.2018
  125ccc     H3 3254   0.986   4.680   4.161  0.2470  1.0224  0.4533
  125ccc     H4 3255   1.067   4.491   3.933 -0.8606 -1.1893 -0.6775
  125ccc     H5 3256   1.161   4.733   3.925 -0.0302  2.7510 -0.3599
  125ccc     O1 3257   1.121   4.873   4.079  0.3905  0.4511 -0.4968
  125ccc     O2 3258   1.178   4.594   4.163 -0.1236  0.1226  0.3405
  125ccc     O3 3259   0.969   4.408   4.099 -0.4165  0.0841 -0.1752
  125ccc     O4 3260   0.765   4.608   4.020 -1.0576  0.1762 -0.5889
  125ccc     C6 3261   0.787   4.746   3.757 -1.1318  1.3397 -0.3737
  125ccc     H6 3262   1.051   4.358   4.082 -0.8577 -0.1526 -1.7542
  125ccc     H7 3263   0.736   4.678   3.959 -0.6724  0.4169 -0.4975
  125ccc     H8 3264   1.141   4.522   4.217 -0.2022  0.0714  0.2178
  125ccc     H9 3265   0.742   4.669   3.694 -1.0541 -0.3951  1.6065
  125ccc    H10 3266   0.827   4.831   3.699  0.0843  1.0522  0.0182
  125ccc     O5 3267   0.678   4.788   3.838  0.1500  0.0986 -1.1852
  125ccc    H11 3268   0.629   4.865   3.806 -1.6025 -0.0081  1.0045
  125ccc     O6 3269   0.963   4.796   3.923 -0.5602 -0.2404 -0.1703
  126SOL     OW 3270   0.771   9.177  10.455  0.0018 -0.7255  0.4216
  126SOL    HW1 3271   0.685   9.200  10.491  0.5103 -0.9363  1.8293
  126SOL    HW2 3272   0.779   9.083  10.472 -0.1473 -1.0390 -1.1583
  127SOL     OW 3273   6.620   2.400   5.649  0.5292 -0.1143 -0.2691
  127SOL    HW1 3274   6.599   2.346   5.725 -1.9144  0.3227 -0.5770
  127SOL    HW2 3275   6.653   2.481   5.687  0.3702 -0.3050  0.3011
  128SOL     OW 3276   2.155  10.269   8.466 -0.8619 -0.4141 -0.1901
  128SOL    HW1 3277   2.125  10.290   8.554 -0.9294  4.0433 -1.0756
  128SOL    HW2 3278   2.081  10.292   8.410  0.5506  0.7702 -1.6551
  129SOL     OW 3279   0.291   1.930   3.571  0.3587 -0.0911 -0.1580
  129SOL    HW1 3280   0.285   1.835   3.582 -0.7161  0.1279  1.5396
  129SOL    HW2 3281   0.211   1.954   3.525  1.0199 -0.0724 -1.3367
  130SOL     OW 3282   9.649   4.028   2.932 -0.0397 -0.4668  0.3781
  130SOL    HW1 3283   9.635   4.012   2.839 -2.8098 -0.4235  0.6992
  130SOL    HW2 3284   9.743   4.024   2.943  0.3148 -1.4000 -2.2573
  131SOL     OW 3285   4.024  10.208   9.690  0.0543 -0.3770  0.0207
  131SOL    HW1 3286   4.003  10.164   9.608 -1.5271  1.0379 -0.4032
  131SOL    HW2 3287   4.117  10.227   9.685  0.0521 -0.6574 -1.2729
  132SOL     OW 3288   0.955   4.553  10.192  0.1494  0.6528 -0.1332
  132SOL    HW1 3289   0.926   4.462  10.200 -2.3662  1.1952 -1.7232
  132SOL    HW2 3290   1.049   4.547  10.176  0.4180 -1.5202  1.6822
  133SOL     OW 3291   7.882   8.746   7.639 -0.0598 -0.0601  0.2232
  133SOL    HW1 3292   7.936   8.718   7.565 -2.5942 -0.3888 -1.6374
  133SOL    HW2 3293   7.902   8.839   7.649  1.1959 -0.2744 -0.0546
  134SOL     OW 3294   0.999   2.522   0.183 -0.0941  0.8087 -0.1057
  134SOL    HW1 3295   0.961   2.597   0.228  0.2551  1.4714 -0.9055
  134SOL    HW2 3296   0.970   2.531   0.092 -0.9385 -0.6119 -0.0186
  135SOL     OW 3297   9.984   5.653   5.197 -0.9255 -0.3335  0.1350
  135SOL    HW1 3298  10.005   5.707   5.274  2.6610  0.0941 -0.9657
  135SOL    HW2 3299   9.922   5.706   5.147 -0.2060  1.1881  0.7913
  136SOL     OW 3300   5.256   4.476   3.207 -0.9108 -0.1911 -0.5990
  136SOL    HW1 3301   5.215   4.516   3.131  0.6401  2.4560 -0.1844
  136SOL    HW2 3302   5.350   4.477   3.187 -0.4353  0.8548  1.3723
  137SOL     OW 3303   7.889   1.183   8.415 -0.2717  0.3188  0.7242
  137SOL    HW1 3304   7.826   1.158   8.482 -0.0280 -1.2059  0.4176
  137SOL    HW2 3305   7.931   1.101   8.389  0.7614  1.0890 -0.1673
  138SOL     OW 3306   0.106   3.774   2.995 -0.7532  0.5374 -0.2939
  138SOL    HW1 3307   0.044   3.702   2.994  0.6108 -0.6961 -0.3660
  138SOL    HW2 3308   0.092   3.819   2.912 -0.5958 -0.6162 -0.9771
  139SOL     OW 3309   1.619   3.155   8.619 -0.0504 -0.6563 -0.0223
  139SOL    HW1 3310   1.713   3.171   8.608 -0.1194  1.2580  1.5879
  139SOL    HW2 3311   1.578   3.209   8.551 -0.0224  0.0275  0.4913
  140SOL     OW 3312   5.597   1.997   2.929  0.6875  0.1461 -0.3928
  140SOL    HW1 3313   5.580   1.966   3.018 -0.6782  0.4198 -0.5339
  140SOL    HW2 3314   5.513   2.033   2.900  1.1977  0.3437 -1.6790
  141SOL     OW 3315   9.802   4.373   9.358  0.0918 -0.0464  0.6998
  141SOL    HW1 3316   9.766   4.451   9.402 -1.1811  0.0378 -0.4201
  141SOL    HW2 3317   9.860   4.334   9.423  0.8778  1.9022  1.2552
  142SOL     OW 3318  10.405   2.293   1.018  0.3997 -0.4335  0.0337
  142SOL    HW1 3319  10.419   2.382   1.051 -0.4556 -0.8032  1.4379
  142SOL    HW2 3320  10.351   2.306   0.940  0.0531  0.2678  0.3746
  143SOL     OW 3321   8.509   6.188   1.593  0.6067 -0.1825  0.6463
  143SOL    HW1 3322   8.460   6.114   1.628  0.2128 -0.3596 -0.2317
  143SOL    HW2 3323   8.471   6.265   1.634 -0.8267 -0.2714 -0.4318
  144SOL     OW 3324   8.038   0.741   5.537 -0.0564  0.0116  0.1682
  144SOL    HW1 3325   8.132   0.722   5.536  0.0864  0.7072 -0.2994
  144SOL    HW2 3326   8.011   0.731   5.445 -0.1582  1.0981  0.0639
  145SOL     OW 3327   2.021   7.951   8.456  0.0399 -0.1189 -0.3004
  145SOL    HW1 3328   2.050   7.890   8.524  2.4953  1.2046 -0.0599
  145SOL    HW2 3329   1.940   7.989   8.491  0.6880 -0.2395  1.4188
  146SOL     OW 3330   4.436   3.309   8.061  0.1813 -0.0811  0.2179
  146SOL    HW1 3331   4.357   3.350   8.025  0.4850  0.0421 -0.3232
  146SOL    HW2 3332   4.404   3.253   8.131 -0.2239  1.2322  1.1117
  147SOL     OW 3333   2.142   2.724   8.399  0.4736  0.5130 -0.1537
  147SOL    HW1 3334   2.049   2.718   8.378  0.5477  0.0331 -0.3426
  147SOL    HW2 3335   2.159   2.818   8.402  0.5616  0.6301 -2.6591
  148SOL     OW 3336  10.641   9.609   4.631  0.4135 -0.3071 -0.4725
  148SOL    HW1 3337  10.717   9.667   4.642  0.3122  0.0433 -1.5702
  148SOL    HW2 3338  10.581   9.636   4.700 -0.1024  1.6713 -1.6035
  149SOL     OW 3339   8.765   4.631   5.249  0.3083  0.0935  0.0722
  149SOL    HW1 3340   8.692   4.683   5.283  0.7319 -0.2699  1.6276
  149SOL    HW2 3341   8.726   4.545   5.230  0.2249  0.0433  0.4565
  150SOL     OW 3342   7.161   5.752   1.379  0.2843  0.1183 -0.0891
  150SOL    HW1 3343   7.188   5.753   1.471 -0.9079  1.0043  0.2685
  150SOL    HW2 3344   7.198   5.670   1.345 -0.1439 -0.7765  1.4555
  151SOL     OW 3345   6.646  10.395   3.335 -0.2643 -0.0270 -0.2389
  151SOL    HW1 3346   6.730  10.441   3.332 -1.1090  1.4871 -2.1958
  151SOL    HW2 3347   6.670  10.303   3.319  1.0681  0.2729 -0.1471
  152SOL     OW 3348   5.003   8.963   0.870 -0.3677  0.2818  0.0105
  152SOL    HW1 3349   4.922   8.980   0.822 -1.9619 -0.9566  2.0682
  152SOL    HW2 3350   5.022   8.870   0.852  0.9960  0.7049 -0.9319
  153SOL     OW 3351   1.970   5.528   1.456  0.2489  0.6167  0.2341
  153SOL    HW1 3352   2.013   5.593   1.511  2.2296 -0.7357  0.3898
  153SOL    HW2 3353   1.943   5.459   1.516 -0.2141  0.4669 -0.1417
  154SOL     OW 3354   2.436   1.500   5.155  0.0699 -0.0497  0.4824
  154SOL    HW1 3355   2.420   1.408   5.172  0.9777  0.0056  1.6879
  154SOL    HW2 3356   2.528   1.505   5.132 -0.1680  0.4600 -0.4342
  155SOL     OW 3357   4.992   4.518   0.926 -0.0134 -0.2158  1.0878
  155SOL    HW1 3358   5.054   4.591   0.926  0.1388 -0.2247 -1.8644
  155SOL    HW2 3359   5.046   4.440   0.935  0.4236 -0.1943 -0.9766
  156SOL     OW 3360   2.418   2.398   7.076 -0.5163  0.0006 -0.1675
  156SOL    HW1 3361   2.415   2.477   7.131 -0.2109  0.5811 -0.9768
  156SOL    HW2 3362   2.509   2.370   7.080 -0.9207 -1.2916  1.4451
  157SOL     OW 3363   6.855   7.605   1.764 -0.4245  0.3688 -0.0511
  157SOL    HW1 3364   6.937   7.617   1.716  0.1324 -0.3875  0.6983
  157SOL    HW2 3365   6.787   7.609   1.696  0.4357 -2.4203 -1.1991
  158SOL     OW 3366   1.786  10.426   8.957 -0.3780  0.1472  0.6367
  158SOL    HW1 3367   1.873  10.441   8.994 -0.3552  1.1127  0.2230
  158SOL    HW2 3368   1.743  10.368   9.020  0.0390  0.8815  1.6360
  159SOL     OW 3369   7.630   0.143   8.984  0.2463 -0.0503  0.3067
  159SOL    HW1 3370   7.548   0.105   8.953  0.8117 -1.6878  0.7219
  159SOL    HW2 3371   7.603   0.218   9.037 -0.9790 -0.5091  0.3591
  160SOL     OW 3372   7.914   3.614   6.046  0.0766  0.5408  0.1632
  160SOL    HW1 3373   7.993   3.560   6.038  0.4396  0.8154  1.6016
  160SOL    HW2 3374   7.944   3.703   6.027 -0.6899  0.2425 -3.0748
  161SOL     OW 3375   6.425   2.883   2.322  0.3784 -0.2800  0.0835
  161SOL    HW1 3376   6.404   2.834   2.401  1.0065 -1.2825 -0.3570
  161SOL    HW2 3377   6.515   2.911   2.334 -0.5191  2.4661  1.1714
  162SOL     OW 3378   5.390   9.865   4.343 -0.3010  0.1354  0.4356
  162SOL    HW1 3379   5.371   9.776   4.314 -2.1661  0.5322  0.2995
  162SOL    HW2 3380   5.372   9.865   4.437 -3.2688  0.9928 -0.0094
  163SOL     OW 3381  10.018   9.418   4.044 -0.1460  0.3958 -0.1097
  163SOL    HW1 3382  10.074   9.347   4.011 -1.4761  0.6502 -3.3621
  163SOL    HW2 3383   9.967   9.378   4.114 -1.4789 -2.2679 -2.4019
  164SOL     OW 3384   2.139   2.100   2.922  0.0665 -0.0377  0.2169
  164SOL    HW1 3385   2.174   2.167   2.981 -2.7308  0.7550  1.1365
  164SOL    HW2 3386   2.145   2.018   2.972  0.9127 -0.0213  0.1690
  165SOL     OW 3387   6.114   5.228   2.878 -0.8061  0.4384  0.1491
  165SOL    HW1 3388   6.161   5.246   2.796 -1.9376  0.1586 -0.5943
  165SOL    HW2 3389   6.032   5.278   2.870 -1.3112 -0.2616  0.7276
  166SOL     OW 3390   2.858   0.272   8.421 -0.9381  0.5373  0.4108
  166SOL    HW1 3391   2.894   0.203   8.365 -2.1454 -0.1369  0.4187
  166SOL    HW2 3392   2.800   0.226   8.482 -0.0133  1.3192  1.9403
  167SOL     OW 3393   5.460  10.380   7.497 -0.0590 -0.2626  0.5771
  167SOL    HW1 3394   5.416  10.408   7.416 -0.1954 -0.1332  0.6956
  167SOL    HW2 3395   5.471  10.460   7.547  2.5955  0.1428 -0.5187
  168SOL     OW 3396   9.672   9.574   6.866 -0.3391  0.0327  0.2026
  168SOL    HW1 3397   9.590   9.539   6.830  1.0218 -3.0299 -0.2117
  168SOL    HW2 3398   9.713   9.618   6.792 -0.5472 -0.4947 -0.2367
  169SOL     OW 3399   5.392   9.586   6.862 -0.0240 -1.0777  0.2159
  169SOL    HW1 3400   5.485   9.566   6.866  0.2591  0.3419  1.8827
  169SOL    HW2 3401   5.376   9.608   6.770  1.5899  0.0097  0.1576
  170SOL     OW 3402   1.592   1.891   0.886 -0.5991  0.8516 -0.1437
  170SOL    HW1 3403   1.567   1.800   0.872  0.6991  0.6030 -1.0118
  170SOL    HW2 3404   1.575   1.934   0.802  0.7531  0.9269 -0.3953
  171SOL     OW 3405   5.270  10.018   2.063  0.1482  0.3730 -0.7283
  171SOL    HW1 3406   5.329  10.092   2.072  0.3797  0.1514 -0.4167
  171SOL    HW2 3407   5.189  10.056   2.028  0.9882  0.4422 -2.7070
  172SOL     OW 3408   7.694  10.274   9.837 -0.9751 -0.5024 -0.6220
  172SOL    HW1 3409   7.722  10.219   9.910 -1.6793 -0.3513 -0.2302
  172SOL    HW2 3410   7.764  10.265   9.772 -0.0952 -0.2253  0.2806
  173SOL     OW 3411   1.350   3.680   4.153  0.7852 -0.5754  0.0669
  173SOL    HW1 3412   1.391   3.719   4.075 -0.8106 -0.0607 -0.5635
  173SOL    HW2 3413   1.374   3.588   4.149  1.1245 -0.4637 -0.7783
  174SOL     OW 3414   9.033   3.801   2.679 -0.2041 -0.1494  0.1141
  174SOL    HW1 3415   9.045   3.710   2.652 -0.1831  0.3524 -1.7028
  174SOL    HW2 3416   9.063   3.852   2.604 -1.3141  1.3460  0.6444
  175SOL     OW 3417   6.346   1.626   1.002  0.6983 -0.3594  0.0190
  175SOL    HW1 3418   6.258   1.648   1.034  0.4580 -0.6679 -0.4199
  175SOL    HW2 3419   6.404   1.654   1.072  0.4968  2.5115 -0.8538
  176SOL     OW 3420  10.635   6.678   5.574 -0.0503 -0.4176  1.0283
  176SOL    HW1 3421  10.638   6.747   5.640  2.6734 -1.5351  2.2303
  176SOL    HW2 3422  10.633   6.725   5.490 -0.9205  1.0513  1.8362
  177SOL     OW 3423  10.735   7.116   7.063 -0.0073 -0.0953  0.4294
  177SOL    HW1 3424  10.784   7.174   7.004  0.2763 -0.3166  0.4451
  177SOL    HW2 3425  10.714   7.039   7.009 -2.5463  1.0440 -0.3588
  178SOL     OW 3426   2.042   6.544   8.562 -0.2848  0.1607 -0.3212
  178SOL    HW1 3427   1.957   6.582   8.587  0.0433  1.0232 -0.4727
  178SOL    HW2 3428   2.053   6.469   8.620 -1.3102 -0.1685 -0.5297
  179SOL     OW 3429   7.124   8.797   1.969 -1.0355  0.6489  0.0847
  179SOL    HW1 3430   7.096   8.882   2.004  0.1858  0.8777  0.5621
  179SOL    HW2 3431   7.043   8.756   1.939 -2.2019  0.4316  3.1590
  180SOL     OW 3432   9.854   0.482   2.863  0.1744 -0.0637  0.6258
  180SOL    HW1 3433   9.850   0.413   2.928 -0.5755  0.6365  1.3384
  180SOL    HW2 3434   9.937   0.526   2.879  0.5749 -0.6736  0.2790
  181SOL     OW 3435   8.245   1.013  10.641  0.9240  0.0798  0.1256
  181SOL    HW1 3436   8.247   1.050  10.552  1.1440 -0.2150  0.0038
  181SOL    HW2 3437   8.227   0.920  10.627 -0.4021  0.2677  0.4743
  182SOL     OW 3438   0.675   7.362   7.487  0.1328 -0.1875  0.1787
  182SOL    HW1 3439   0.743   7.314   7.441 -0.1316  0.7717 -1.2998
  182SOL    HW2 3440   0.599   7.359   7.429  0.1887  2.1804 -0.1271
  183SOL     OW 3441   5.170   1.893   8.246 -0.3195  0.5418 -0.1304
  183SOL    HW1 3442   5.126   1.955   8.304 -0.7802  0.3431 -0.2599
  183SOL    HW2 3443   5.118   1.813   8.254  0.2324  0.1918 -0.0149
  184SOL     OW 3444   6.298   2.929   8.522  0.3899  0.1037  0.4630
  184SOL    HW1 3445   6.285   2.927   8.427  0.9145  0.2443  0.3861
  184SOL    HW2 3446   6.338   3.014   8.539 -1.0327  0.6940  0.9899
  185SOL     OW 3447   7.540   0.775   4.274 -0.1694  0.1793 -0.3937
  185SOL    HW1 3448   7.619   0.728   4.246  0.2592  0.1105  0.8811
  185SOL    HW2 3449   7.521   0.835   4.202  1.2620  0.4585 -0.5717
  186SOL     OW 3450   2.245   7.063   4.266 -0.0026 -0.3160 -0.0032
  186SOL    HW1 3451   2.323   7.047   4.318 -0.4166 -1.7995  0.1837
  186SOL    HW2 3452   2.278   7.101   4.184  0.8958 -0.8605  0.1045
  187SOL     OW 3453   2.017   6.452   1.305 -0.1825  0.0448 -0.1522
  187SOL    HW1 3454   2.004   6.389   1.234 -0.4969 -0.4806  0.3627
  187SOL    HW2 3455   2.111   6.468   1.306 -0.1749  0.0347 -0.6748
  188SOL     OW 3456   1.312   9.203   4.030 -0.4374 -0.3671 -0.2058
  188SOL    HW1 3457   1.216   9.200   4.032 -0.4674  0.1296 -0.7216
  188SOL    HW2 3458   1.335   9.260   4.103 -0.6091  0.7345 -0.9867
  189SOL     OW 3459   8.314   4.437   4.437  0.2172  0.4279  0.1840
  189SOL    HW1 3460   8.314   4.347   4.470 -0.2704  0.2589 -0.2680
  189SOL    HW2 3461   8.246   4.482   4.487  0.2288  0.4561  0.1745
  190SOL     OW 3462   3.373   3.892   3.730 -0.2774 -0.2642 -0.4316
  190SOL    HW1 3463   3.404   3.887   3.820 -0.5155 -0.3911 -0.3545
  190SOL    HW2 3464   3.384   3.803   3.696 -2.9583 -1.0198  0.4145
  191SOL     OW 3465   8.825  10.545   9.540  0.4823 -0.4131 -0.2304
  191SOL    HW1 3466   8.908  10.501   9.521  0.8863  0.3053 -0.1466
  191SOL    HW2 3467   8.850  10.632   9.571 -0.3050 -0.1803 -0.2294
  192SOL     OW 3468   2.867   0.248   3.932 -0.2270 -0.0394  0.2592
  192SOL    HW1 3469   2.839   0.218   4.019  1.2894  0.5437  0.9955
  192SOL    HW2 3470   2.797   0.308   3.904 -1.3175 -1.1502  0.5215
  193SOL     OW 3471   0.111   8.127   1.150  0.0652 -0.3050 -0.0606
  193SOL    HW1 3472   0.107   8.221   1.132  0.8276 -0.1206  0.6736
  193SOL    HW2 3473   0.133   8.121   1.243 -0.3478 -1.2154 -0.0067
  194SOL     OW 3474   0.402   3.479   8.145 -0.5410  0.3686 -0.0636
  194SOL    HW1 3475   0.311   3.460   8.120 -0.9659  1.4692  0.5762
  194SOL    HW2 3476   0.428   3.551   8.088  0.3885 -0.7591 -1.1249
  195SOL     OW 3477   2.180   7.694   7.219  0.3283 -0.3356  0.5617
  195SOL    HW1 3478   2.181   7.678   7.313 -0.3114 -1.1500  0.4398
  195SOL    HW2 3479   2.176   7.607   7.179  3.7504 -0.2060 -0.3299
  196SOL     OW 3480  10.406   5.532   3.002 -0.2990 -0.0985  0.1318
  196SOL    HW1 3481  10.358   5.495   2.929  1.0681  0.3996 -1.0800
  196SOL    HW2 3482  10.360   5.502   3.080 -2.1052 -0.2235 -0.9349
  197SOL     OW 3483   5.762   0.609   5.389  0.3592 -0.4266  0.2023
  197SOL    HW1 3484   5.678   0.609   5.343  0.3160  0.6414  0.2370
  197SOL    HW2 3485   5.827   0.617   5.320  0.3547 -0.0417  0.2352
  198SOL     OW 3486   5.846   0.315   1.625 -0.5295  0.9722 -0.0246
  198SOL    HW1 3487   5.817   0.244   1.568 -0.6204  1.1630 -0.2163
  198SOL    HW2 3488   5.778   0.382   1.617 -1.7932  0.0695  2.0958
  199SOL     OW 3489   5.776   7.403   3.539 -0.5555  0.0730 -0.3642
  199SOL    HW1 3490   5.826   7.476   3.501 -1.4453  0.1427 -1.4548
  199SOL    HW2 3491   5.740   7.438   3.620  0.9054  0.1075  0.3131
  200SOL     OW 3492   7.908   5.283   5.288 -0.0383  0.0101 -0.4278
  200SOL    HW1 3493   7.930   5.258   5.377  1.0450  0.0610 -0.6724
  200SOL    HW2 3494   7.978   5.343   5.261  0.4112 -1.0613 -1.7673
  201SOL     OW 3495   9.063  10.189   6.120 -0.4774  0.0623 -0.2508
  201SOL    HW1 3496   9.001  10.156   6.055 -0.7599  1.5449 -0.7707
  201SOL    HW2 3497   9.131  10.122   6.124 -1.3561 -0.8974 -0.7562
  202SOL     OW 3498   4.994   8.327   0.145 -1.0141  0.5157 -0.3394
  202SOL    HW1 3499   4.981   8.266   0.072  0.2792 -0.1590 -0.0466
  202SOL    HW2 3500   4.954   8.409   0.116 -0.8149  0.1630 -1.6703
  203SOL     OW 3501   5.799   2.303   7.770 -0.2067 -0.2784 -0.0135
  203SOL    HW1 3502   5.800   2.354   7.689 -3.4320  0.6606  0.4193
  203SOL    HW2 3503   5.770   2.364   7.837  2.7793 -0.9270  2.0550
  204SOL     OW 3504   7.962   0.677  10.504 -0.0725 -0.7193  0.2819
  204SOL    HW1 3505   8.001   0.754  10.463 -0.0454 -0.8779  0.0078
  204SOL    HW2 3506   7.876   0.706  10.534  0.1815 -0.4150  0.7297
  205SOL     OW 3507   6.852   2.003   3.315 -0.0258 -0.2513 -0.2541
  205SOL    HW1 3508   6.785   2.067   3.338 -0.4941 -0.4856 -0.9171
  205SOL    HW2 3509   6.852   1.941   3.388 -0.4047 -0.1471 -0.1646
  206SOL     OW 3510   4.782   9.489   6.082  0.0978  0.6001  0.1817
  206SOL    HW1 3511   4.868   9.455   6.057 -0.2260 -0.2493  0.1873
  206SOL    HW2 3512   4.739   9.511   6.000 -0.0581  0.0506  0.1064
  207SOL     OW 3513   1.229   3.517   6.986  0.4887 -0.3555  0.6138
  207SOL    HW1 3514   1.168   3.485   6.919  0.1598 -0.0868  0.7823
  207SOL    HW2 3515   1.313   3.475   6.964  0.1544 -1.0319  0.6132
  208SOL     OW 3516   0.650   7.835   9.413 -0.3334 -0.2518  0.0447
  208SOL    HW1 3517   0.668   7.747   9.381  0.4255 -0.1103  0.0762
  208SOL    HW2 3518   0.641   7.888   9.334  0.6600 -0.0756  0.0461
  209SOL     OW 3519   2.058   4.778   7.761 -0.7480 -0.2326  0.3442
  209SOL    HW1 3520   2.019   4.700   7.721  0.8166 -1.0772  0.3963
  209SOL    HW2 3521   2.152   4.763   7.756 -0.4440  1.0990  1.4916
  210SOL     OW 3522   7.657   1.042   4.383  0.1444 -0.1333 -0.4534
  210SOL    HW1 3523   7.591   1.013   4.446  0.7674 -2.0264 -0.6230
  210SOL    HW2 3524   7.610   1.049   4.300 -0.1436 -0.0545 -0.2841
  211SOL     OW 3525   9.544   8.010   8.169 -0.5449  0.4215 -0.0806
  211SOL    HW1 3526   9.453   7.993   8.193  0.0986  0.9614  3.2660
  211SOL    HW2 3527   9.544   8.101   8.140 -1.1944  0.0937 -1.1910
  212SOL     OW 3528   1.253   2.483   9.870 -0.1888 -0.4361 -0.1671
  212SOL    HW1 3529   1.313   2.556   9.866 -0.8305  0.0746 -0.7564
  212SOL    HW2 3530   1.178   2.510   9.816 -1.1553 -0.8515  0.9256
  213SOL     OW 3531   9.282   6.129   5.780  0.2005 -0.5590  0.6453
  213SOL    HW1 3532   9.306   6.041   5.751 -0.6672 -0.8857  0.8888
  213SOL    HW2 3533   9.233   6.115   5.861  0.0180  0.1436  0.6634
  214SOL     OW 3534   7.645   3.526   8.617 -0.0054  0.1420 -0.2421
  214SOL    HW1 3535   7.591   3.558   8.545  0.0111 -0.5283 -0.5655
  214SOL    HW2 3536   7.699   3.601   8.642  0.4021  0.2267 -1.3122
  215SOL     OW 3537   5.974   7.136   3.222 -0.2899  0.3095 -0.3191
  215SOL    HW1 3538   5.895   7.110   3.268 -0.8826  0.4419 -1.2410
  215SOL    HW2 3539   5.955   7.119   3.129 -0.2642  2.8311 -0.8599
  216SOL     OW 3540   9.405   0.645   0.864 -0.0079  0.4679 -0.1875
  216SOL    HW1 3541   9.426   0.682   0.950 -1.4728 -0.2120  0.4966
  216SOL    HW2 3542   9.481   0.667   0.810  1.6364 -0.3759  1.6450
  217SOL     OW 3543  10.330   8.575   3.145 -0.1347 -0.3359 -0.6851
  217SOL    HW1 3544  10.354   8.578   3.052 -1.4403 -0.6702 -1.0559
  217SOL    HW2 3545  10.319   8.482   3.164  0.6824 -0.3122 -0.0223
  218SOL     OW 3546   0.684   9.928   9.763  0.2740 -0.7114  0.6032
  218SOL    HW1 3547   0.644  10.015   9.754  0.7860 -0.2616  2.3624
  218SOL    HW2 3548   0.611   9.870   9.783  0.3613  0.0521  3.4944
  219SOL     OW 3549   4.120   2.354   1.915  0.5174 -0.4931 -0.3310
  219SOL    HW1 3550   4.105   2.405   1.835 -0.8859 -0.9148 -0.3597
  219SOL    HW2 3551   4.087   2.267   1.894  1.1473 -0.9053  0.3551
  220SOL     OW 3552   1.698   3.434   0.033  0.6135 -0.1523  0.1588
  220SOL    HW1 3553   1.794   3.427   0.041  0.5495 -0.8608  0.4549
  220SOL    HW2 3554   1.667   3.437   0.124  0.4003  0.9151  0.0570
  221SOL     OW 3555  10.612   7.508   4.230  0.5911 -0.0350  0.1318
  221SOL    HW1 3556  10.657   7.437   4.275 -0.0907 -0.7790 -0.3244
  221SOL    HW2 3557  10.579   7.564   4.300  2.1260  0.4987  0.4793
  222SOL     OW 3558   4.574   3.719   9.797 -0.7849 -0.6444  0.7090
  222SOL    HW1 3559   4.596   3.677   9.714  1.0393  0.4843  0.5708
  222SOL    HW2 3560   4.636   3.683   9.860 -1.2725 -0.5010  1.2775
  223SOL     OW 3561  10.764   3.048   9.797 -0.2005 -0.0727  0.2225
  223SOL    HW1 3562  10.772   3.143   9.813  0.1887 -0.2106  0.9084
  223SOL    HW2 3563  10.845   3.025   9.752 -0.1897 -0.1209  0.2670
  224SOL     OW 3564   6.403   9.496   6.351 -0.4831  0.1461 -0.0514
  224SOL    HW1 3565   6.398   9.410   6.393  1.1833  0.3336  0.5872
  224SOL    HW2 3566   6.316   9.535   6.367 -0.2602 -0.1825  2.3993
  225SOL     OW 3567   5.496   6.359   9.554 -0.0375  0.1719 -0.7326
  225SOL    HW1 3568   5.587   6.350   9.526  0.2421 -0.4664  0.3133
  225SOL    HW2 3569   5.500   6.361   9.649 -0.8498  3.5952 -0.6485
  226SOL     OW 3570   9.007   9.181   2.514  0.5669  0.0550  0.4527
  226SOL    HW1 3571   8.930   9.232   2.488  1.0813  0.8781  0.5029
  226SOL    HW2 3572   8.972   9.095   2.537 -0.6952  1.1048  2.8449
  227SOL     OW 3573   0.716   6.620   0.321  0.3844 -0.0301 -0.0267
  227SOL    HW1 3574   0.738   6.697   0.373 -0.7799  1.6955 -1.9230
  227SOL    HW2 3575   0.774   6.625   0.245  0.3798 -1.1135 -0.1137
  228SOL     OW 3576   3.826   2.004   0.735 -0.0226 -0.1273 -0.2502
  228SOL    HW1 3577   3.739   2.025   0.701  0.1501 -0.4758 -0.9392
  228SOL    HW2 3578   3.881   2.000   0.657  0.6056  0.0670  0.1795
  229SOL     OW 3579   7.700   1.032   2.181 -0.2930 -0.4805  0.0715
  229SOL    HW1 3580   7.728   1.105   2.126  1.1454 -1.4355 -0.5021
  229SOL    HW2 3581   7.684   0.960   2.121  1.0116 -1.4519  0.8458
  230SOL     OW 3582   5.908   1.279   0.646  0.0572  0.0430  0.0132
  230SOL    HW1 3583   5.996   1.290   0.609  1.0144 -0.2254  2.0759
  230SOL    HW2 3584   5.849   1.313   0.579  1.7724  0.8563 -1.1485
  231SOL     OW 3585   1.251   2.065   9.089  0.3406  0.2224 -0.1179
  231SOL    HW1 3586   1.164   2.027   9.101  1.4632 -2.2148  1.0891
  231SOL    HW2 3587   1.268   2.111   9.172  0.0033  1.1929 -0.5759
  232SOL     OW 3588   2.766   1.844  10.335 -0.1589 -0.5174  0.1677
  232SOL    HW1 3589   2.676   1.838  10.303  0.4278  0.9702 -1.9965
  232SOL    HW2 3590   2.770   1.930  10.378  0.2886 -0.4809  0.0548
  233SOL     OW 3591  10.505   9.171   9.097 -0.6576  0.2461  0.1717
  233SOL    HW1 3592  10.440   9.166   9.026  0.4389  4.3844 -1.3889
  233SOL    HW2 3593  10.455   9.199   9.173 -1.4061 -1.4855  0.3567
  234SOL     OW 3594   7.842   6.874   4.618 -0.2678  0.5308  0.1025
  234SOL    HW1 3595   7.797   6.789   4.615  1.1331 -0.2053 -1.1170
  234SOL    HW2 3596   7.810   6.920   4.540  0.9736  0.0395 -0.7198
  235SOL     OW 3597   3.948   7.600   0.531 -0.2681  0.3538  0.1261
  235SOL    HW1 3598   4.029   7.610   0.579 -1.1950  0.7076  1.6789
  235SOL    HW2 3599   3.897   7.679   0.550 -1.9136 -0.8694  1.1182
  236SOL     OW 3600   8.971  10.163   7.371  0.1930 -0.7687  0.5449
  236SOL    HW1 3601   8.982  10.248   7.414  0.1447 -0.8800  0.7798
  236SOL    HW2 3602   8.885  10.132   7.400 -0.6721 -0.0172 -1.0896
  237SOL     OW 3603   9.707   0.024   9.680 -0.0154  0.1990  0.1291
  237SOL    HW1 3604   9.727   0.075   9.758  2.9423  0.3861 -0.6170
  237SOL    HW2 3605   9.753   0.070   9.609 -1.7473 -0.5386 -1.5622
  238SOL     OW 3606   2.979   2.925   7.412  0.6609 -0.4040  0.4736
  238SOL    HW1 3607   3.043   2.948   7.479  0.5238  2.5334 -0.2610
  238SOL    HW2 3608   2.960   3.008   7.367 -0.2938 -1.9794 -2.2938
  239SOL     OW 3609   6.361   0.876  10.404  0.7937 -0.2635 -0.0749
  239SOL    HW1 3610   6.283   0.823  10.384  1.4692 -1.0402 -0.7738
  239SOL    HW2 3611   6.364   0.880  10.499 -0.6637  0.6559 -0.0367
  240SOL     OW 3612   4.632   4.044   8.796  0.5662 -0.0865  0.2401
  240SOL    HW1 3613   4.662   3.953   8.784 -1.7716 -1.0853  1.3483
  240SOL    HW2 3614   4.647   4.061   8.889  1.7214  0.9885 -0.1241
  241SOL     OW 3615   3.443   8.822   3.067  0.8686  0.3025 -0.0835
  241SOL    HW1 3616   3.361   8.795   3.025  0.0080  1.9678  0.4161
  241SOL    HW2 3617   3.508   8.822   2.996  0.6691 -1.8739 -0.3126
  242SOL     OW 3618   4.314   8.233   2.496  0.3380 -0.3258 -0.2450
  242SOL    HW1 3619   4.220   8.246   2.487  0.0631 -0.8170  1.4806
  242SOL    HW2 3620   4.353   8.297   2.437 -1.0728  0.1929 -0.6537
  243SOL     OW 3621   6.359   9.720   4.242 -0.4246 -0.2529  0.3565
  243SOL    HW1 3622   6.287   9.683   4.293 -1.0423  0.2913 -0.1016
  243SOL    HW2 3623   6.317   9.784   4.184  0.5408  0.8215  0.7888
  244SOL     OW 3624   0.683   9.274   5.149 -0.5699 -0.1692 -0.2507
  244SOL    HW1 3625   0.739   9.206   5.186  0.2531  0.7992  0.3573
  244SOL    HW2 3626   0.743   9.328   5.098 -0.8658  1.0452  0.6349
  245SOL     OW 3627   9.367   8.240   3.929  0.0692 -0.2021  0.1820
  245SOL    HW1 3628   9.362   8.206   3.840 -0.5541  0.3099  0.0199
  245SOL    HW2 3629   9.399   8.329   3.920 -2.3292  0.7269  0.2388
  246SOL     OW 3630   9.347   6.552   4.223 -0.1554 -0.2767  0.4595
  246SOL    HW1 3631   9.322   6.517   4.309  0.3425  0.3989  0.8885
  246SOL    HW2 3632   9.442   6.542   4.219 -0.2247 -0.7543 -0.2232
  247SOL     OW 3633   5.709   5.658   5.711  0.1850  0.5636 -0.2510
  247SOL    HW1 3634   5.789   5.706   5.732  0.7356 -0.1045 -0.7945
  247SOL    HW2 3635   5.719   5.631   5.620 -0.9222  0.9643 -0.5152
  248SOL     OW 3636   3.539   1.620   2.958 -0.3394  0.1355 -0.2646
  248SOL    HW1 3637   3.467   1.561   2.980 -0.0946 -0.0882 -0.0603
  248SOL    HW2 3638   3.525   1.641   2.866 -2.1164  2.1012  0.3893
  249SOL     OW 3639   4.939   1.377   0.401  0.0166 -0.1100  0.3433
  249SOL    HW1 3640   4.974   1.461   0.371 -1.4821  0.3870 -0.1295
  249SOL    HW2 3641   4.860   1.400   0.450 -0.6038 -1.2501 -0.0718
  250SOL     OW 3642   3.531   2.804   3.965 -0.2019 -0.5971 -0.4070
  250SOL    HW1 3643   3.603   2.824   3.906  0.8152  0.9405  1.2456
  250SOL    HW2 3644   3.552   2.718   4.001  1.2958  0.1926  0.6878
  251SOL     OW 3645   2.612  10.267   5.085  0.3039 -0.3469 -0.2184
  251SOL    HW1 3646   2.622  10.299   5.174  2.3311 -0.4256 -0.3670
  251SOL    HW2 3647   2.539  10.205   5.089  0.1023 -0.0385  1.2835
  252SOL     OW 3648   2.323   7.885   2.099  0.7421 -0.0787  0.6476
  252SOL    HW1 3649   2.302   7.961   2.045 -1.3840 -0.3497  1.0274
  252SOL    HW2 3650   2.310   7.810   2.041 -0.2028 -0.2930  1.1156
  253SOL     OW 3651   9.464   6.295   5.676 -0.0416  0.2866 -0.4909
  253SOL    HW1 3652   9.406   6.228   5.713  1.0578 -0.3758  0.0846
  253SOL    HW2 3653   9.547   6.250   5.663  0.2907  1.1607 -1.5104
  254SOL     OW 3654   6.494   6.308   5.763  0.1647 -0.3205  0.0086
  254SOL    HW1 3655   6.540   6.236   5.721  0.2528  0.6567 -1.6414
  254SOL    HW2 3656   6.494   6.285   5.856  1.9364 -1.4609 -0.2242
  255SOL     OW 3657   8.460   2.195   8.655  0.8911 -0.0069 -0.7010
  255SOL    HW1 3658   8.505   2.198   8.571 -0.6388  0.0766 -1.5499
  255SOL    HW2 3659   8.391   2.261   8.648 -0.7545 -1.6053 -0.2983
  256SOL     OW 3660   8.101   1.135   7.903  0.1498  0.4040  0.5122
  256SOL    HW1 3661   8.129   1.162   7.990  1.3939  1.2076 -0.1078
  256SOL    HW2 3662   8.039   1.063   7.919  0.1164  0.7406  2.0479
  257SOL     OW 3663   6.035   7.018   2.346 -0.0652  0.0897  0.3648
  257SOL    HW1 3664   6.087   7.063   2.279  0.5273 -2.8332 -1.3415
  257SOL    HW2 3665   5.946   7.052   2.334  0.3464  0.8161 -0.8328
  258SOL     OW 3666   8.542   7.465   4.758  0.2812  0.2096  0.2214
  258SOL    HW1 3667   8.587   7.435   4.679 -0.0245  1.3370 -0.3944
  258SOL    HW2 3668   8.464   7.409   4.764 -0.0976  0.6243 -0.7109
  259SOL     OW 3669   0.454   8.428   0.927 -0.5859  0.0065  0.3622
  259SOL    HW1 3670   0.518   8.367   0.963 -2.7022 -1.8423  1.2398
  259SOL    HW2 3671   0.470   8.426   0.832 -0.3542 -1.6552  0.4086
  260SOL     OW 3672   5.447   2.220   6.164 -0.3616 -0.3885 -0.3305
  260SOL    HW1 3673   5.494   2.138   6.149 -0.2105 -0.5303  0.8060
  260SOL    HW2 3674   5.463   2.239   6.257  1.3395  2.0119 -1.0254
  261SOL     OW 3675   5.117   7.196   1.812  0.2669  0.0119  0.3216
  261SOL    HW1 3676   5.115   7.170   1.720 -0.8809  1.8493 -0.2107
  261SOL    HW2 3677   5.195   7.151   1.847  1.2890  0.0165 -1.7652
  262SOL     OW 3678   2.563   0.094   2.052  0.4435 -0.7949  0.5440
  262SOL    HW1 3679   2.626   0.141   1.998  1.2369 -0.3844  1.7778
  262SOL    HW2 3680   2.566   0.139   2.136 -0.6457 -1.5040  0.9812
  263SOL     OW 3681   9.224   8.623   2.749 -0.2539  0.6394  0.0025
  263SOL    HW1 3682   9.191   8.703   2.789 -2.4780  0.2887 -1.0092
  263SOL    HW2 3683   9.153   8.560   2.759  1.5598 -1.3951  1.1118
  264SOL     OW 3684  10.252   9.337   8.247  0.3059 -0.1117 -0.3781
  264SOL    HW1 3685  10.211   9.417   8.214 -0.7424 -0.8198 -0.8506
  264SOL    HW2 3686  10.224   9.332   8.339 -0.0391 -0.1993 -0.4886
  265SOL     OW 3687   6.061   7.437   5.852 -0.7513 -0.3234  0.2860
  265SOL    HW1 3688   6.105   7.489   5.919 -0.0370  1.3638 -1.3658
  265SOL    HW2 3689   6.131   7.387   5.811 -0.6699  0.7224 -0.9280
  266SOL     OW 3690   1.684   7.802   8.312 -0.5490  0.0079  0.7901
  266SOL    HW1 3691   1.617   7.870   8.321  0.0422  0.7019  0.0461
  266SOL    HW2 3692   1.741   7.815   8.388 -1.4851 -0.8812  1.6851
  267SOL     OW 3693   7.856   1.569   3.566 -0.1636  0.0297 -0.3590
  267SOL    HW1 3694   7.865   1.610   3.652  2.2032 -1.4457  0.1890
  267SOL    HW2 3695   7.905   1.627   3.507  1.3498 -0.7968  0.0235
  268SOL     OW 3696   5.875   0.887   2.108  0.3413  0.4502  0.9236
  268SOL    HW1 3697   5.799   0.938   2.137  0.1472  1.2408 -0.8815
  268SOL    HW2 3698   5.950   0.936   2.140  0.1865  2.3839 -1.3683
  269SOL     OW 3699   8.236  10.642   5.892  0.0309  0.1500  0.0632
  269SOL    HW1 3700   8.277  10.585   5.957  1.3221  0.8741 -0.0726
  269SOL    HW2 3701   8.169  10.690   5.941  0.7249  0.4074  0.7866
  270SOL     OW 3702  10.768   8.080   8.088  0.4558  0.0282 -0.0898
  270SOL    HW1 3703  10.685   8.096   8.134  1.1901  0.0669  1.2762
  270SOL    HW2 3704  10.827   8.046   8.156  1.3238 -0.7835 -1.2127
  271SOL     OW 3705  10.612   8.684   2.737 -0.5283  0.0865  0.0754
  271SOL    HW1 3706  10.638   8.721   2.652  1.1949  0.6202  0.7809
  271SOL    HW2 3707  10.555   8.611   2.715 -0.9390  0.8247 -1.5053
  272SOL     OW 3708  10.490   0.521   0.481 -0.4038 -0.6551  0.1586
  272SOL    HW1 3709  10.552   0.584   0.517 -0.6441  0.1365 -0.7683
  272SOL    HW2 3710  10.509   0.519   0.387 -3.2967  1.5174 -0.6480
  273SOL     OW 3711   9.927   4.126   1.507 -0.0106  0.0939 -0.0410
  273SOL    HW1 3712   9.954   4.211   1.543 -1.3454  1.2565 -1.6512
  273SOL    HW2 3713   9.844   4.107   1.551  0.7877 -0.9448  1.0915
  274SOL     OW 3714   7.908   1.836   9.570  0.6899  0.1850  0.0518
  274SOL    HW1 3715   7.857   1.909   9.604 -0.4632 -0.4887 -0.1877
  274SOL    HW2 3716   7.937   1.788   9.648 -3.0015 -2.0875  0.2746
  275SOL     OW 3717   2.330  10.521   8.807  0.1348  0.2882  0.2477
  275SOL    HW1 3718   2.303  10.592   8.865 -0.7712 -0.1428  0.3708
  275SOL    HW2 3719   2.254  10.507   8.749  0.1700 -0.8043  0.4461
  276SOL     OW 3720   9.161   3.979   6.545  0.0177  0.1544  0.0308
  276SOL    HW1 3721   9.132   4.049   6.487  0.0921  0.5412  0.4486
  276SOL    HW2 3722   9.231   3.935   6.497  1.2812  1.5550  0.4914
  277SOL     OW 3723   9.927   4.449   2.260 -0.7239 -0.1013 -0.0670
  277SOL    HW1 3724   9.897   4.358   2.266 -2.1964  0.4582  2.7869
  277SOL    HW2 3725  10.003   4.453   2.318  1.0859 -0.0208 -2.2923
  278SOL     OW 3726   9.288   8.450   1.800  0.1712 -0.1569  0.0606
  278SOL    HW1 3727   9.193   8.451   1.784  0.0751 -1.4937  0.4653
  278SOL    HW2 3728   9.296   8.466   1.894  0.3783  0.2119 -0.0158
  279SOL     OW 3729   2.148   2.614   7.783 -0.2836 -0.2190 -0.2503
  279SOL    HW1 3730   2.163   2.583   7.873  2.8789  0.2202 -0.4891
  279SOL    HW2 3731   2.140   2.709   7.792  0.9821 -0.0722 -0.4623
  280SOL     OW 3732  10.724   6.192   4.059  0.8938 -0.0334 -0.3589
  280SOL    HW1 3733  10.690   6.106   4.032  0.0745 -0.2577  1.2606
  280SOL    HW2 3734  10.677   6.255   4.004 -0.3182 -0.4946  0.1218
  281SOL     OW 3735   5.408   1.436   0.391 -0.3202  0.1866  1.1324
  281SOL    HW1 3736   5.407   1.358   0.336 -2.3656 -0.6761  2.2463
  281SOL    HW2 3737   5.484   1.486   0.362 -0.9984 -0.4497 -2.0822
  282SOL     OW 3738   6.580   6.115   4.465 -0.2598 -0.0035  0.3769
  282SOL    HW1 3739   6.523   6.134   4.390 -1.5607 -1.0602  1.0630
  282SOL    HW2 3740   6.661   6.082   4.426 -0.7086 -0.0120 -0.5819
  283SOL     OW 3741   3.374   6.520   2.183 -0.0283 -0.6888  0.1078
  283SOL    HW1 3742   3.307   6.452   2.172  0.0089 -0.8429  0.8046
  283SOL    HW2 3743   3.361   6.553   2.272  0.0663  0.1038 -0.1658
  284SOL     OW 3744   0.445   3.673   3.418  0.1820  0.8831 -0.3055
  284SOL    HW1 3745   0.421   3.580   3.425  0.5298  0.8961  1.2686
  284SOL    HW2 3746   0.527   3.672   3.370  1.0824  0.2070  1.1747
  285SOL     OW 3747   0.219   1.287   0.701 -0.1021  0.3601  0.0142
  285SOL    HW1 3748   0.141   1.264   0.751 -0.1183  0.9133  0.2550
  285SOL    HW2 3749   0.287   1.227   0.733 -0.3371  0.1196  0.0626
  286SOL     OW 3750   7.495   8.145  10.572  0.2386  0.0966 -0.2114
  286SOL    HW1 3751   7.564   8.205  10.542 -0.4684  0.1040 -1.9443
  286SOL    HW2 3752   7.418   8.170  10.521 -0.6651 -0.8772  0.6289
  287SOL     OW 3753   7.504   7.089   3.896 -0.0844  0.1468  0.3570
  287SOL    HW1 3754   7.519   6.998   3.872  1.2666  0.3032  0.5131
  287SOL    HW2 3755   7.409   7.097   3.903 -0.3305 -0.7770 -1.4338
  288SOL     OW 3756   7.206   7.844   5.021  0.3857 -0.1039  0.3838
  288SOL    HW1 3757   7.211   7.937   5.043  3.7832  0.0129 -0.2506
  288SOL    HW2 3758   7.255   7.800   5.090 -0.7433 -1.4021  0.4060
  289SOL     OW 3759  10.012   6.453   4.117 -0.6323  0.0340  0.1127
  289SOL    HW1 3760  10.066   6.415   4.187 -0.1928 -1.4194 -0.9719
  289SOL    HW2 3761   9.974   6.532   4.157  0.0242 -0.4519  1.8101
  290SOL     OW 3762   9.091   3.269   5.717  0.1450  0.4785 -0.0506
  290SOL    HW1 3763   9.058   3.272   5.808 -0.9547 -2.5000 -0.2552
  290SOL    HW2 3764   9.013   3.287   5.664  0.0119 -1.1411 -0.4361
  291SOL     OW 3765   7.600   6.111   7.350 -0.2908  0.3062  0.2121
  291SOL    HW1 3766   7.611   6.146   7.261 -2.4791  0.9165  0.1420
  291SOL    HW2 3767   7.603   6.016   7.338  0.4438  0.3829 -0.3425
  292SOL     OW 3768   0.419   4.492   4.276 -0.2396  0.0513 -0.2208
  292SOL    HW1 3769   0.511   4.494   4.303 -0.1926  0.7779 -0.4187
  292SOL    HW2 3770   0.376   4.437   4.341 -0.0925  1.5401  1.1941
  293SOL     OW 3771   1.045  10.430   0.133  0.2238  0.0198  0.3219
  293SOL    HW1 3772   1.101  10.419   0.056  0.3423 -0.0924  0.4221
  293SOL    HW2 3773   1.002  10.514   0.121  0.7970  0.3467  0.4853
  294SOL     OW 3774   6.260   3.955   0.781  0.2984  0.3137  0.3959
  294SOL    HW1 3775   6.298   3.869   0.764  0.0586  0.2441  0.2097
  294SOL    HW2 3776   6.178   3.937   0.826 -0.6926  0.3507 -1.3047
  295SOL     OW 3777   6.255   8.964   6.076  0.1611  0.0781 -0.0931
  295SOL    HW1 3778   6.244   8.955   5.981 -0.5537  1.6003 -0.1845
  295SOL    HW2 3779   6.285   9.054   6.088 -0.2558  0.0652  1.1684
  296SOL     OW 3780   6.816  10.580   3.442 -0.1990  0.7833 -0.0202
  296SOL    HW1 3781   6.908  10.562   3.423 -0.4817 -1.3276  0.2770
  296SOL    HW2 3782   6.807  10.563   3.536 -0.6701  2.1498  0.2068
  297SOL     OW 3783   4.222   2.591   2.197  0.1474  0.1825 -0.3049
  297SOL    HW1 3784   4.203   2.635   2.114  0.5766 -1.4740 -1.3156
  297SOL    HW2 3785   4.159   2.519   2.201  0.4472 -0.0368  0.5964
  298SOL     OW 3786   7.163   4.508   2.570 -0.3366 -0.8604 -0.4927
  298SOL    HW1 3787   7.238   4.548   2.613  0.9741 -3.4222 -0.2292
  298SOL    HW2 3788   7.108   4.478   2.642 -1.1779  0.1455 -0.6877
  299SOL     OW 3789   5.127   2.201   0.732 -0.1294  0.7929  0.0273
  299SOL    HW1 3790   5.148   2.241   0.648  0.3041 -0.9378 -0.7303
  299SOL    HW2 3791   5.168   2.258   0.797  0.4018  1.6013 -0.9985
  300SOL     OW 3792  10.078   6.050  10.752  0.6307 -0.2286 -0.1409
  300SOL    HW1 3793  10.082   6.127  10.694  0.0023 -0.3245 -0.3190
  300SOL    HW2 3794  10.169   6.032  10.774  1.1522 -1.6070 -2.9800
  301SOL     OW 3795   5.403   2.882   0.765  0.5019  0.0495 -0.1026
  301SOL    HW1 3796   5.441   2.906   0.850  1.4732  0.4190 -0.6289
  301SOL    HW2 3797   5.322   2.933   0.761  0.1685 -0.3836  0.8326
  302SOL     OW 3798   2.699   9.744   8.478 -0.5576  0.0985 -0.5361
  302SOL    HW1 3799   2.709   9.654   8.448 -2.1705  0.0529 -0.9858
  302SOL    HW2 3800   2.752   9.796   8.417  0.5048 -0.5362 -0.1810
  303SOL     OW 3801   6.643   9.627   6.266 -0.4183 -0.1086 -0.4887
  303SOL    HW1 3802   6.690   9.621   6.350  0.2841  2.7798 -0.5567
  303SOL    HW2 3803   6.555   9.596   6.286  0.4123 -1.9596  0.6198
  304SOL     OW 3804   4.358   8.657   3.116  0.4545 -0.2199  0.0485
  304SOL    HW1 3805   4.378   8.613   3.199  1.1419 -0.9887 -0.5056
  304SOL    HW2 3806   4.274   8.700   3.131 -0.6523 -2.3913  0.3693
  305SOL     OW 3807   0.779   3.270   6.249 -0.1198 -0.3054 -0.1758
  305SOL    HW1 3808   0.772   3.354   6.295 -0.6303 -1.1335  1.3174
  305SOL    HW2 3809   0.709   3.273   6.184  0.1833  0.6122 -0.4831
  306SOL     OW 3810   7.645   0.747   6.254  0.2078  0.0487 -0.0198
  306SOL    HW1 3811   7.665   0.840   6.264  0.4943  0.1506 -1.3032
  306SOL    HW2 3812   7.569   0.745   6.196 -0.4287 -0.4911  0.8227
  307SOL     OW 3813   8.491   6.791   9.879 -0.0668 -0.0319  0.0464
  307SOL    HW1 3814   8.577   6.802   9.838  0.5199 -2.9479  0.2602
  307SOL    HW2 3815   8.429   6.796   9.807  0.6395 -1.4332 -0.7065
  308SOL     OW 3816   0.021   6.328   8.972 -0.2766 -0.2487 -0.0249
  308SOL    HW1 3817  -0.058   6.275   8.985 -0.3835  0.4198  2.5427
  308SOL    HW2 3818   0.087   6.287   9.028  0.7451  0.1794 -0.8739
  309SOL     OW 3819   9.734  10.084  10.123  0.0265  0.0000 -0.0809
  309SOL    HW1 3820   9.669  10.023  10.159  1.5679 -0.7466  1.5946
  309SOL    HW2 3821   9.767  10.039  10.045  0.1700 -0.6698  0.3612
  310SOL     OW 3822   6.141   4.685   2.499  0.0177  0.1443  0.1228
  310SOL    HW1 3823   6.089   4.640   2.566  1.0671  0.3299  1.1068
  310SOL    HW2 3824   6.163   4.769   2.539  0.4846  0.3415 -0.5448
  311SOL     OW 3825   8.301   1.508   9.315 -0.2469 -0.2980 -0.1807
  311SOL    HW1 3826   8.302   1.412   9.323  1.0470 -0.3042 -0.0959
  311SOL    HW2 3827   8.241   1.526   9.244  1.5272 -1.3723 -2.0782
  312SOL     OW 3828  10.048   7.423   5.063  0.2738  0.4103  0.0616
  312SOL    HW1 3829  10.066   7.482   5.136  0.4234  0.6776 -0.1898
  312SOL    HW2 3830   9.998   7.476   5.001 -0.0718  0.1099  0.0794
  313SOL     OW 3831   0.852   0.540   6.177 -0.0864 -0.3219 -0.3962
  313SOL    HW1 3832   0.844   0.458   6.128  2.0622 -0.5703 -0.4350
  313SOL    HW2 3833   0.822   0.608   6.117  2.9115 -0.5677 -2.3496
  314SOL     OW 3834   9.565   7.614   2.047 -0.0682 -0.3769 -0.0513
  314SOL    HW1 3835   9.531   7.686   2.100  0.9716  0.3814 -0.3761
  314SOL    HW2 3836   9.555   7.537   2.103  1.3805  0.4613  1.4749
  315SOL     OW 3837   1.122  10.132   9.668  0.6637  0.2329  0.0258
  315SOL    HW1 3838   1.144  10.042   9.644 -1.3733 -0.3430  0.1960
  315SOL    HW2 3839   1.207  10.172   9.688  1.8013 -1.1511 -1.6446
  316SOL     OW 3840   9.983   4.215   2.007  0.7200 -0.7971  0.2806
  316SOL    HW1 3841   9.917   4.195   2.073  1.1561 -0.8948  0.6920
  316SOL    HW2 3842   9.956   4.165   1.930 -1.1655  1.1933 -0.4506
  317SOL     OW 3843   4.278   3.881   6.760  0.3252  0.3564  0.0296
  317SOL    HW1 3844   4.240   3.819   6.697 -1.2202  1.5226 -0.2337
  317SOL    HW2 3845   4.362   3.905   6.721  1.2561 -1.9839  0.4343
  318SOL     OW 3846   4.183   2.398   4.440 -0.3989  0.1403  0.5488
  318SOL    HW1 3847   4.243   2.407   4.514  1.1079  1.0101 -0.7245
  318SOL    HW2 3848   4.221   2.328   4.387 -0.0600  1.2071 -0.6585
  319SOL     OW 3849   9.158  10.440   5.076  0.3458 -0.0275  0.6118
  319SOL    HW1 3850   9.204  10.476   5.000 -0.9960 -1.2384 -0.8257
  319SOL    HW2 3851   9.227  10.397   5.127  1.0231 -0.8057 -0.8928
  320SOL     OW 3852   8.728   3.043   6.536 -0.2634 -0.4259 -0.2760
  320SOL    HW1 3853   8.660   3.050   6.469 -0.9703 -2.4850  0.1238
  320SOL    HW2 3854   8.681   3.054   6.619  0.6758  2.5587 -0.0477
  321SOL     OW 3855   2.867   9.842   6.146 -0.2454 -0.8476 -0.4422
  321SOL    HW1 3856   2.790   9.793   6.172 -0.4702 -0.2883 -0.0236
  321SOL    HW2 3857   2.940   9.781   6.158 -0.5250 -1.0961  0.0144
  322SOL     OW 3858   7.377   7.505   4.071 -0.1548  0.6086 -0.1443
  322SOL    HW1 3859   7.454   7.503   4.014  0.2301  3.0155  0.1914
  322SOL    HW2 3860   7.318   7.567   4.029 -0.0734  2.0515  1.7638
  323SOL     OW 3861   0.979   4.519   6.452  0.0267 -0.1802  0.7696
  323SOL    HW1 3862   1.071   4.547   6.456  0.5108 -1.4278 -0.6383
  323SOL    HW2 3863   0.970   4.481   6.364 -1.6084 -0.8756  1.2102
  324SOL     OW 3864   8.740   6.809   1.162  0.1201 -0.0272 -0.4231
  324SOL    HW1 3865   8.695   6.777   1.241  0.2034 -0.1411 -0.4209
  324SOL    HW2 3866   8.797   6.736   1.136  1.7314  0.7849  0.6726
  325SOL     OW 3867   7.804   1.629   8.210  0.2490 -0.2764  0.0301
  325SOL    HW1 3868   7.852   1.588   8.281 -0.0139 -0.1738  0.2715
  325SOL    HW2 3869   7.725   1.665   8.252 -0.3598 -1.0073 -0.4676
  326SOL     OW 3870   0.996   4.668   2.340  0.4806  0.6334 -0.8656
  326SOL    HW1 3871   1.075   4.643   2.291  0.2541  0.3643 -1.0953
  326SOL    HW2 3872   1.018   4.754   2.376  1.3122  0.0640  0.0448
  327SOL     OW 3873   2.652  10.681   0.935  0.4659 -0.3440  0.3163
  327SOL    HW1 3874   2.556  10.673   0.936  0.5690 -1.7701  0.4705
  327SOL    HW2 3875   2.680  10.642   1.018  1.0793  2.0837  1.3387
  328SOL     OW 3876   9.959   2.670   0.402 -0.1665  0.0186  0.1029
  328SOL    HW1 3877   9.952   2.734   0.331  1.2218  0.5445  0.4205
  328SOL    HW2 3878  10.025   2.608   0.373 -0.3262 -0.3414  0.5011
  329SOL     OW 3879   9.357   7.875   5.874  0.3777 -0.2365 -0.2549
  329SOL    HW1 3880   9.414   7.802   5.849  0.9163 -0.1788  0.7583
  329SOL    HW2 3881   9.353   7.872   5.969 -0.3556  0.4968 -0.2446
  330SOL     OW 3882   3.856   8.336   7.017  0.8190  0.1704 -0.8651
  330SOL    HW1 3883   3.919   8.393   6.972  0.7816  0.3837 -0.6481
  330SOL    HW2 3884   3.802   8.301   6.947 -0.0922  1.5307 -0.8826
  331SOL     OW 3885   3.940   5.399   9.468 -0.1890 -0.1065  0.2170
  331SOL    HW1 3886   3.979   5.313   9.453 -1.6320 -0.5481 -1.3641
  331SOL    HW2 3887   4.002   5.461   9.429  0.5494 -0.4720  0.7838
  332SOL     OW 3888   1.940   2.421   5.315  0.0890  0.4119  0.2903
  332SOL    HW1 3889   1.994   2.364   5.260  0.9585  2.1492 -0.7690
  332SOL    HW2 3890   1.980   2.416   5.401 -0.4461 -1.2896  0.4746
  333SOL     OW 3891   6.417   7.485   2.588 -0.3576  0.5577  0.4147
  333SOL    HW1 3892   6.466   7.526   2.660 -1.0222  0.2809  1.0324
  333SOL    HW2 3893   6.383   7.404   2.626  0.7591 -0.5008 -0.7220
  334SOL     OW 3894   3.333   4.922   5.939  0.3704 -0.0775  0.5331
  334SOL    HW1 3895   3.342   4.893   5.848 -0.8183  0.6114  0.1620
  334SOL    HW2 3896   3.293   4.848   5.984  1.0103 -0.4413  0.5106
  335SOL     OW 3897   2.454   6.642   1.485  0.5558  0.0832 -0.4300
  335SOL    HW1 3898   2.533   6.596   1.515  0.2603  0.9335  1.8609
  335SOL    HW2 3899   2.486   6.728   1.456  0.5139  0.3374  0.2644
  336SOL     OW 3900  10.104   9.642   1.355 -0.3055  0.4184  0.2387
  336SOL    HW1 3901  10.064   9.589   1.286  1.7003  0.8767 -1.3806
  336SOL    HW2 3902  10.195   9.654   1.326  0.6170  0.6686  2.9701
  337SOL     OW 3903   4.976   0.452   3.428  0.1029  0.2686 -0.4468
  337SOL    HW1 3904   4.901   0.458   3.370 -1.6488 -0.1961  1.6296
  337SOL    HW2 3905   4.971   0.531   3.482  0.7098 -0.0993  0.1645
  338SOL     OW 3906   4.345   7.070   1.649  0.3555  0.4293 -0.1411
  338SOL    HW1 3907   4.255   7.088   1.677  0.4117  0.2762  0.1456
  338SOL    HW2 3908   4.376   7.003   1.710  0.5425  0.2172 -0.4655
  339SOL     OW 3909   1.895   8.172   1.017 -0.4618  0.1887 -0.2790
  339SOL    HW1 3910   1.855   8.087   1.034  0.7285 -0.2472  0.4499
  339SOL    HW2 3911   1.943   8.161   0.935  1.7317 -0.6362  1.0354
  340SOL     OW 3912   2.583   6.957   5.488  0.2505 -0.0462 -0.4295
  340SOL    HW1 3913   2.593   7.048   5.461  0.2911 -0.4290 -1.7666
  340SOL    HW2 3914   2.529   6.961   5.567 -1.3487  1.0140 -1.5275
  341SOL     OW 3915   3.507   8.482  10.031  0.1668  0.1070 -0.2769
  341SOL    HW1 3916   3.591   8.525  10.046 -0.0435  0.1500  0.8380
  341SOL    HW2 3917   3.515   8.398  10.077  0.0474 -0.4356 -1.2215
  342SOL     OW 3918   4.083   9.954   8.309 -0.0233 -0.4385  0.0382
  342SOL    HW1 3919   4.009   9.992   8.261  0.5251  0.6171  0.0092
  342SOL    HW2 3920   4.042   9.912   8.385 -0.6587  0.2571  0.1018
  343SOL     OW 3921   7.489   3.625   9.490 -0.6308  0.0383 -0.6277
  343SOL    HW1 3922   7.447   3.613   9.575 -0.2056 -1.2100 -0.5789
  343SOL    HW2 3923   7.557   3.690   9.506 -1.2345  0.5950 -0.2645
  344SOL     OW 3924   3.756   9.867   7.043 -0.5927  0.0896 -0.5804
  344SOL    HW1 3925   3.785   9.842   6.956  0.8778  1.1071 -0.4148
  344SOL    HW2 3926   3.700   9.944   7.029  0.5570  0.9461 -0.5619
  345SOL     OW 3927   3.111   2.578   5.413  0.0025  0.0999  0.0532
  345SOL    HW1 3928   3.095   2.557   5.505  0.9781 -1.7517 -0.1414
  345SOL    HW2 3929   3.206   2.582   5.406 -0.0907  1.2294 -0.6904
  346SOL     OW 3930   8.308   8.726   4.895 -0.4341  0.2626 -0.0321
  346SOL    HW1 3931   8.353   8.740   4.978 -0.6086 -0.0120  0.1106
  346SOL    HW2 3932   8.360   8.775   4.831  0.3148 -0.3989  0.0540
  347SOL     OW 3933   5.249   0.978   2.253 -0.1909 -0.4928 -0.0063
  347SOL    HW1 3934   5.261   0.985   2.158 -0.2239  2.7969  0.1431
  347SOL    HW2 3935   5.161   1.011   2.269 -0.2538 -1.1850  1.1707
  348SOL     OW 3936   1.597  10.694  10.000 -0.0741 -0.1246 -0.4815
  348SOL    HW1 3937   1.647  10.682  10.081 -0.7269  2.7909  0.4839
  348SOL    HW2 3938   1.659  10.736   9.940  0.4545 -2.4181 -1.6458
  349SOL     OW 3939   7.817   8.058   6.357 -0.3475 -0.0546  0.2405
  349SOL    HW1 3940   7.870   8.137   6.342 -0.7937  0.4602  1.3165
  349SOL    HW2 3941   7.727   8.087   6.341 -0.5385 -0.2736  0.9300
  350SOL     OW 3942   7.225   2.765   3.053  0.2728 -0.4301  0.5112
  350SOL    HW1 3943   7.290   2.752   3.121  1.4299  2.7311  0.1553
  350SOL    HW2 3944   7.276   2.773   2.972 -0.7055  0.3463 -0.0478
  351SOL     OW 3945   2.044   7.819   1.084  0.0351  0.0048  0.1963
  351SOL    HW1 3946   2.116   7.881   1.076  1.5487 -1.4695  1.7366
  351SOL    HW2 3947   2.066   7.748   1.024 -0.4274 -0.2065  0.2703
  352SOL     OW 3948   9.277   5.725   0.071 -0.1072 -0.0274  0.6469
  352SOL    HW1 3949   9.247   5.722   0.162  1.3179 -1.1338  1.1103
  352SOL    HW2 3950   9.343   5.657   0.065  0.1193  0.3028 -1.1307
  353SOL     OW 3951   1.580   9.819   9.293  0.5264 -0.3782  0.3938
  353SOL    HW1 3952   1.622   9.783   9.215 -0.3482  1.1009 -0.7954
  353SOL    HW2 3953   1.492   9.782   9.292  0.7635 -0.9863  1.1448
  354SOL     OW 3954   2.726   9.479   2.509 -0.0848  0.1987 -0.1158
  354SOL    HW1 3955   2.633   9.495   2.522 -0.2930 -1.2332  0.3535
  354SOL    HW2 3956   2.730   9.414   2.439  0.5557  0.2953 -0.1749
  355SOL     OW 3957   9.888   9.372   2.817 -0.2595  0.0036  0.1232
  355SOL    HW1 3958   9.872   9.301   2.754  0.2019 -1.3313  1.4566
  355SOL    HW2 3959   9.984   9.380   2.819 -0.3263  1.2295 -0.5872
  356SOL     OW 3960   0.202  10.606  10.072 -0.0733 -0.2398  0.6232
  356SOL    HW1 3961   0.121  10.560  10.048  0.2122 -0.8579  0.8052
  356SOL    HW2 3962   0.199  10.688  10.024 -0.9266 -0.1530  0.8130
  357SOL     OW 3963   6.470   9.442   4.717  0.0342  0.2748  0.0263
  357SOL    HW1 3964   6.551   9.401   4.747  0.4754  0.4103 -0.9576
  357SOL    HW2 3965   6.486   9.462   4.625 -0.8242  1.0321  0.0324
  358SOL     OW 3966   3.918   8.174  10.752 -0.2666  0.0531  0.1599
  358SOL    HW1 3967   3.915   8.262  10.788 -1.5988 -0.0458  0.3408
  358SOL    HW2 3968   3.956   8.120  10.822  0.1381  0.4045  0.2106
  359SOL     OW 3969   9.051   8.970  10.030 -0.4235 -0.0105 -0.3281
  359SOL    HW1 3970   9.074   8.933   9.944 -0.0150 -0.5913  0.0234
  359SOL    HW2 3971   8.975   8.920  10.059 -0.7552  0.3975 -0.4875
  360SOL     OW 3972  10.745   2.468   3.173  0.1007 -0.0712  0.3242
  360SOL    HW1 3973  10.735   2.434   3.084  1.8314  0.5351 -0.1479
  360SOL    HW2 3974  10.731   2.392   3.230  1.1345 -0.9798 -0.5834
  361SOL     OW 3975   2.951   5.749   7.892  0.2730 -0.0928 -0.0170
  361SOL    HW1 3976   2.893   5.780   7.823  0.1203  0.9545  0.5682
  361SOL    HW2 3977   2.891   5.714   7.959  0.3495  0.2297  0.2215
  362SOL     OW 3978   6.826   8.196   6.014 -0.4134  0.1814 -0.1412
  362SOL    HW1 3979   6.819   8.245   6.096 -1.1270  0.9255 -0.6186
  362SOL    HW2 3980   6.771   8.245   5.953  0.2077 -0.2860 -1.1007
  363SOL     OW 3981   8.628   0.564   8.569  0.5796  0.5223 -0.2247
  363SOL    HW1 3982   8.652   0.474   8.593  0.3409  0.4266 -0.3363
  363SOL    HW2 3983   8.570   0.592   8.640 -0.7251 -0.0254 -1.0466
  364SOL     OW 3984   8.167   0.759   7.767 -0.2958  0.0215  0.2276
  364SOL    HW1 3985   8.237   0.803   7.719  0.3094 -1.5931 -0.4200
  364SOL    HW2 3986   8.120   0.830   7.812  0.2889  1.3697 -1.2302
  365SOL     OW 3987   3.920   0.001  10.263 -0.3108  0.6668  0.2087
  365SOL    HW1 3988   3.936  -0.064  10.195 -0.9002 -0.4663  1.1057
  365SOL    HW2 3989   4.000  -0.000  10.316 -1.1159 -0.9363  1.4663
  366SOL     OW 3990   7.427   4.176   1.037 -0.1463 -0.0594 -0.2760
  366SOL    HW1 3991   7.391   4.107   1.092  1.4685 -0.7053  0.0262
  366SOL    HW2 3992   7.367   4.249   1.047 -0.8947 -0.8100  0.8523
  367SOL     OW 3993   6.755   2.759   7.410  0.0288  0.4228  0.1176
  367SOL    HW1 3994   6.843   2.796   7.408  1.4745 -2.7358 -1.2451
  367SOL    HW2 3995   6.750   2.714   7.495 -0.2949  0.5978  0.1935
  368SOL     OW 3996  10.421   2.461   7.029 -0.3189 -0.2876  0.0321
  368SOL    HW1 3997  10.501   2.489   6.984 -1.1496  0.6998 -0.8772
  368SOL    HW2 3998  10.450   2.392   7.089  1.1270 -0.3013 -0.6451
  369SOL     OW 3999   5.554   7.828   5.291 -0.0600 -0.4772  0.6543
  369SOL    HW1 4000   5.542   7.768   5.365  0.5003 -1.3919  0.0226
  369SOL    HW2 4001   5.476   7.815   5.237  0.2962 -1.0212  0.2621
  370SOL     OW 4002   1.074   8.038  10.369  0.0177 -0.5906 -0.0959
  370SOL    HW1 4003   1.081   7.944  10.350  0.8823 -0.5602  0.0264
  370SOL    HW2 4004   1.002   8.068  10.313  0.3761 -1.1403 -0.8765
  371SOL     OW 4005   5.904   1.292  10.287 -0.4327 -0.4892  0.3144
  371SOL    HW1 4006   5.960   1.273  10.211  0.1947  0.6800  0.4630
  371SOL    HW2 4007   5.862   1.375  10.266  0.6560  0.4581  1.7288
  372SOL     OW 4008   6.828   2.985   6.337 -0.1710  0.0513  0.1587
  372SOL    HW1 4009   6.911   3.029   6.351 -0.7156  1.3421 -0.4848
  372SOL    HW2 4010   6.781   2.994   6.420  0.0697 -0.1158  0.3146
  373SOL     OW 4011   2.159   9.866   7.557 -0.0563 -0.4593  0.5728
  373SOL    HW1 4012   2.167   9.887   7.650  0.5090 -0.6516  0.5721
  373SOL    HW2 4013   2.102   9.934   7.522 -0.4436 -0.5056  1.0989
  374SOL     OW 4014   0.481   8.278   8.321  0.0989  0.7482 -0.1717
  374SOL    HW1 4015   0.456   8.336   8.250  1.5347  1.7113  0.0722
  374SOL    HW2 4016   0.576   8.276   8.319  0.1120 -1.1632  0.1979
  375SOL     OW 4017   6.813   9.388   7.984 -0.1856 -0.1030  0.5926
  375SOL    HW1 4018   6.757   9.454   7.943  0.0598 -0.3665 -0.1784
  375SOL    HW2 4019   6.902   9.417   7.964 -0.0795 -0.8736 -0.0945
  376SOL     OW 4020   4.557   7.923   8.464  0.2471 -0.4351 -0.3234
  376SOL    HW1 4021   4.505   7.867   8.521  1.2902 -0.9179  0.1902
  376SOL    HW2 4022   4.588   7.865   8.394  2.4580 -0.9011  0.9427
  377SOL     OW 4023   4.201   6.072  10.650 -0.2617 -0.2701 -0.5100
  377SOL    HW1 4024   4.272   6.018  10.685  0.1571 -0.6069 -1.8456
  377SOL    HW2 4025   4.225   6.087  10.559 -0.5222  1.9189 -0.2771
  378SOL     OW 4026   0.524   9.008   2.569 -0.3959  0.1976 -0.1574
  378SOL    HW1 4027   0.484   8.932   2.528  1.0410 -0.3829 -0.5546
  378SOL    HW2 4028   0.583   9.043   2.502  2.6960 -1.2929  1.5623
  379SOL     OW 4029   1.963   8.085   7.685  0.9508 -0.0052 -0.1689
  379SOL    HW1 4030   2.021   8.065   7.758  1.0223  1.4184  0.1858
  379SOL    HW2 4031   1.890   8.133   7.724  0.0872 -0.7901 -0.7774
  380SOL     OW 4032   1.791   5.909   2.642 -0.0710  0.6280  0.0250
  380SOL    HW1 4033   1.736   5.830   2.648  1.5014 -0.5454 -0.3768
  380SOL    HW2 4034   1.747   5.972   2.699 -0.4566 -1.1213  1.8130
  381SOL     OW 4035   1.751   2.399   0.674 -0.4324  0.5423  0.0298
  381SOL    HW1 4036   1.788   2.331   0.731  2.3866  0.6776 -1.4260
  381SOL    HW2 4037   1.656   2.387   0.681 -0.2721  0.1035  4.0930
  382SOL     OW 4038   3.837   5.434   8.134 -0.3654  0.4842  0.7825
  382SOL    HW1 4039   3.880   5.489   8.067 -0.2552  0.5112  0.8757
  382SOL    HW2 4040   3.785   5.371   8.083  1.1068 -0.6491  0.6242
  383SOL     OW 4041   8.603   3.183   9.935  0.1392 -0.4266 -0.3269
  383SOL    HW1 4042   8.582   3.123  10.007  0.8945 -0.7478 -0.3642
  383SOL    HW2 4043   8.570   3.140   9.857 -0.2235 -0.3194 -0.2325
  384SOL     OW 4044   1.304   7.919   7.882  0.5947 -0.2049 -0.0078
  384SOL    HW1 4045   1.269   7.927   7.971 -3.1855  0.3808 -1.3319
  384SOL    HW2 4046   1.300   8.008   7.846 -2.1117 -0.9884 -1.9879
  385SOL     OW 4047   7.026   7.381   6.556 -0.2894  0.6517 -0.2431
  385SOL    HW1 4048   6.931   7.390   6.567 -0.6055 -1.0937 -1.0895
  385SOL    HW2 4049   7.045   7.424   6.473 -0.4117  0.6592 -0.2670
  386SOL     OW 4050   8.247   4.425  10.636 -0.2918  0.1920 -0.3367
  386SOL    HW1 4051   8.189   4.367  10.586  1.2562 -3.1903  1.4104
  386SOL    HW2 4052   8.330   4.421  10.589  0.0649  0.2588  0.2820
  387SOL     OW 4053   6.267   1.013   6.387 -0.6941  0.6696 -0.3533
  387SOL    HW1 4054   6.179   1.005   6.351 -1.2002  0.6997  0.8205
  387SOL    HW2 4055   6.263   0.968   6.471 -0.4809  3.3107  1.1867
  388SOL     OW 4056   1.313   4.192   7.146 -0.7251  0.4514 -0.5278
  388SOL    HW1 4057   1.322   4.156   7.058 -1.1037 -0.6455 -0.1306
  388SOL    HW2 4058   1.398   4.174   7.187 -0.9095  0.0151 -0.3338
  389SOL     OW 4059   9.310   3.150  10.005  0.2264 -0.6741  0.1700
  389SOL    HW1 4060   9.223   3.129   9.973  0.4690 -3.8527  1.2097
  389SOL    HW2 4061   9.340   3.222   9.949 -3.0095  0.5465 -0.1877
  390SOL     OW 4062   0.685   5.615   7.737 -0.1424 -0.1872 -0.3003
  390SOL    HW1 4063   0.683   5.544   7.801  0.5686  0.8017  0.8549
  390SOL    HW2 4064   0.777   5.644   7.736 -0.1715 -0.0416 -1.6370
  391SOL     OW 4065   2.613  10.314   1.569  0.2128  0.9143 -0.2017
  391SOL    HW1 4066   2.618  10.236   1.513  2.4058 -0.1064  1.2536
  391SOL    HW2 4067   2.540  10.297   1.627 -0.5404  0.8561 -1.1442
  392SOL     OW 4068   2.070   4.409   1.978 -0.4415 -0.2166 -0.7799
  392SOL    HW1 4069   2.107   4.345   2.039 -2.7429  0.3441  1.3446
  392SOL    HW2 4070   2.005   4.359   1.928 -1.1515  0.1081 -0.1918
  393SOL     OW 4071   6.522   5.765   5.260  0.1970 -0.2113  0.6152
  393SOL    HW1 4072   6.488   5.853   5.279 -0.1480 -0.1593 -0.2008
  393SOL    HW2 4073   6.466   5.707   5.312 -0.2501 -0.0158  0.3655
  394SOL     OW 4074  10.598   6.218   1.421 -0.3113 -0.5517 -0.5110
  394SOL    HW1 4075  10.671   6.169   1.460 -0.8438 -0.6880  0.3364
  394SOL    HW2 4076  10.521   6.188   1.469 -0.9075 -0.3151 -1.3155
  395SOL     OW 4077   7.567   0.353   8.572  0.0678  0.1804  0.1214
  395SOL    HW1 4078   7.537   0.429   8.621 -1.1775 -0.3830  0.2876
  395SOL    HW2 4079   7.662   0.353   8.582 -0.0685  0.6633  1.6680
  396SOL     OW 4080  10.752   0.885   4.202  0.2052 -0.2753  0.4448
  396SOL    HW1 4081  10.735   0.799   4.163  0.7491  0.2363 -0.9852
  396SOL    HW2 4082  10.765   0.943   4.127 -1.7223  1.4222  1.3173
  397SOL     OW 4083   4.934   4.000   1.031  0.2166  0.0430 -0.6255
  397SOL    HW1 4084   4.969   3.930   0.977 -0.8144  0.3380 -1.7304
  397SOL    HW2 4085   5.011   4.046   1.064  0.8886  0.0103 -2.0688
  398SOL     OW 4086   2.590  10.180   3.092 -0.1991 -0.0161  0.1463
  398SOL    HW1 4087   2.500  10.153   3.107 -0.4603  1.5731  1.7980
  398SOL    HW2 4088   2.634  10.101   3.062 -1.5999 -1.4532  1.6739
  399SOL     OW 4089   6.335  10.480   1.349 -0.4142 -0.3961  0.3161
  399SOL    HW1 4090   6.285  10.543   1.297 -1.0145 -0.5354  0.7205
  399SOL    HW2 4091   6.411  10.458   1.294 -1.2430 -0.8399 -0.6750
  400SOL     OW 4092   3.926  10.003   0.688 -0.0665 -0.3527 -0.2005
  400SOL    HW1 4093   4.004   9.949   0.705  0.0839  0.3315  1.4309
  400SOL    HW2 4094   3.961  10.092   0.677 -0.5983 -0.0433  0.5244
  401SOL     OW 4095   3.415   6.984   1.682  0.2037 -0.5397  0.1776
  401SOL    HW1 4096   3.423   7.032   1.600 -0.1696 -1.4177 -0.3898
  401SOL    HW2 4097   3.336   7.020   1.723  0.8834  0.5264  0.5967
  402SOL     OW 4098   6.477   3.906   7.333  0.4276 -0.0098 -0.4121
  402SOL    HW1 4099   6.390   3.887   7.369  0.4409 -1.8012 -1.2359
  402SOL    HW2 4100   6.535   3.902   7.409  0.1781 -1.8232 -0.2635
  403SOL     OW 4101   2.920   3.206   7.323  0.0581  0.1766  0.1669
  403SOL    HW1 4102   2.873   3.190   7.241  0.0047 -2.2615  0.5931
  403SOL    HW2 4103   3.006   3.238   7.295 -0.4567  0.7665 -0.7782
  404SOL     OW 4104  10.177   2.637   5.511 -0.4533  0.4372  0.3014
  404SOL    HW1 4105  10.262   2.612   5.548  0.0808  1.7251  0.0175
  404SOL    HW2 4106  10.157   2.720   5.553 -2.4534 -0.6685  1.6892
  405SOL     OW 4107   6.926   9.399   0.989  0.1699  0.3038  0.2666
  405SOL    HW1 4108   6.892   9.486   0.968  0.5339  0.4454  0.2510
  405SOL    HW2 4109   6.928   9.352   0.905  3.3680  1.4699 -0.4692
  406SOL     OW 4110   2.521   8.167   9.388  0.9237 -0.0538  0.5108
  406SOL    HW1 4111   2.431   8.200   9.382  0.2384 -1.9794 -0.7962
  406SOL    HW2 4112   2.575   8.236   9.350 -0.4378 -0.3333 -2.1267
  407SOL     OW 4113   0.144  10.370  10.586  0.3213  0.0514 -0.0472
  407SOL    HW1 4114   0.238  10.375  10.597  0.1144 -0.2360  2.2660
  407SOL    HW2 4115   0.130  10.389  10.493  2.7893 -2.0056 -0.9785
  408SOL     OW 4116   7.183   9.700   7.652  0.0817  0.2959 -0.1414
  408SOL    HW1 4117   7.174   9.779   7.599 -0.9209  0.3702  0.1163
  408SOL    HW2 4118   7.269   9.709   7.694  0.9765  0.1591 -1.8322
  409SOL     OW 4119   7.008   1.317   1.591 -0.0370 -0.3243  0.2659
  409SOL    HW1 4120   7.014   1.305   1.496 -1.8264  0.9549 -0.0698
  409SOL    HW2 4121   7.092   1.355   1.616  0.7025 -1.2802 -0.6801
  410SOL     OW 4122   8.129   0.412   1.219 -0.3139 -0.4251  0.2051
  410SOL    HW1 4123   8.168   0.475   1.279 -1.7377 -0.2463  0.9988
  410SOL    HW2 4124   8.199   0.350   1.199  0.1542 -0.6264  2.2691
  411SOL     OW 4125   2.925   0.656   9.273  0.1116  0.0780 -0.1411
  411SOL    HW1 4126   2.838   0.643   9.313 -0.3051  2.1363 -0.2837
  411SOL    HW2 4127   2.976   0.582   9.305 -1.3941 -0.6136  0.8170
  412SOL     OW 4128   3.578   7.875   3.845 -0.0451  0.0421 -0.4339
  412SOL    HW1 4129   3.508   7.811   3.856 -0.3537  0.5531  0.6600
  412SOL    HW2 4130   3.577   7.896   3.751 -0.4215 -0.9960 -0.6678
  413SOL     OW 4131   8.820   2.656   5.370 -0.2713  0.0603  0.7269
  413SOL    HW1 4132   8.816   2.725   5.437  0.5433  1.1909 -0.3485
  413SOL    HW2 4133   8.846   2.577   5.418  1.5545  1.1223  1.5814
  414SOL     OW 4134   0.692   0.894   9.775  0.4450  0.0712 -0.3630
  414SOL    HW1 4135   0.642   0.859   9.701  0.9302  3.6033 -2.5712
  414SOL    HW2 4136   0.626   0.935   9.831  0.4253  1.9975 -1.6817
  415SOL     OW 4137   3.144   1.445   2.624 -0.0753  0.2539 -0.4574
  415SOL    HW1 4138   3.115   1.362   2.660  0.7328  1.0027  2.1111
  415SOL    HW2 4139   3.233   1.429   2.594 -0.1403  0.0603 -0.5474
  416SOL     OW 4140  10.457   2.645   3.856  0.6962  0.1601 -0.1030
  416SOL    HW1 4141  10.531   2.611   3.906  0.2224  0.1206  0.5821
  416SOL    HW2 4142  10.441   2.579   3.788 -1.6156 -2.2076  2.5190
  417SOL     OW 4143   4.194  10.375   6.910 -0.1986  0.2676 -0.2835
  417SOL    HW1 4144   4.151  10.419   6.983  0.7868  0.2361  0.3402
  417SOL    HW2 4145   4.216  10.445   6.849  0.2287  0.4850  0.1141
  418SOL     OW 4146   7.417   5.742   4.561  0.5680  0.1408 -0.1148
  418SOL    HW1 4147   7.480   5.803   4.601  1.0473 -0.6065  0.2964
  418SOL    HW2 4148   7.466   5.701   4.490  0.3456  0.0012 -0.1864
  419SOL     OW 4149   3.460   1.822   5.138  0.7543  0.1809  0.4791
  419SOL    HW1 4150   3.506   1.738   5.146  1.1943  0.1521 -1.6321
  419SOL    HW2 4151   3.397   1.808   5.067  1.1112  1.7326 -0.1810
  420SOL     OW 4152   6.485   0.552   1.474  0.2990 -0.3023 -0.1287
  420SOL    HW1 4153   6.480   0.571   1.568  0.8602  0.4292 -0.2359
  420SOL    HW2 4154   6.403   0.506   1.454  0.0445 -0.2029  0.6595
  421SOL     OW 4155   8.136  10.392   1.950 -0.3374  0.0105 -0.3925
  421SOL    HW1 4156   8.186  10.468   1.919 -2.2994  0.9936 -1.3676
  421SOL    HW2 4157   8.190  10.316   1.927  1.3218  1.0585 -0.0794
  422SOL     OW 4158   8.629   7.784   3.081  0.3166 -0.5593  0.0421
  422SOL    HW1 4159   8.602   7.706   3.129 -1.0435 -0.1670 -0.0478
  422SOL    HW2 4160   8.635   7.853   3.147  3.3533 -1.0807  0.4598
  423SOL     OW 4161   9.612   2.221   7.016 -0.3520  0.4675  0.5524
  423SOL    HW1 4162   9.701   2.225   6.982  0.3011  0.0234  2.0976
  423SOL    HW2 4163   9.560   2.272   6.954  1.2813  2.2459  0.5462
  424SOL     OW 4164   9.661   6.906   2.391  0.1866  0.0271  0.5841
  424SOL    HW1 4165   9.711   6.827   2.411 -0.1437 -0.5836 -0.8541
  424SOL    HW2 4166   9.588   6.904   2.453  0.1918 -0.7974  0.5801
  425SOL     OW 4167   6.054   7.976   5.462  0.5557 -0.0195  0.0865
  425SOL    HW1 4168   5.964   7.944   5.459  1.3793 -2.9332  2.0448
  425SOL    HW2 4169   6.098   7.931   5.389  0.9220 -0.6258  0.6591
  426SOL     OW 4170   6.273  10.713   2.322 -0.0976 -0.4558  0.0169
  426SOL    HW1 4171   6.233  10.633   2.289 -0.9601  0.0226 -0.1418
  426SOL    HW2 4172   6.240  10.721   2.411 -0.7906  0.2000 -0.2785
  427SOL     OW 4173   5.504   2.146   2.118  0.0118  0.4873  0.3827
  427SOL    HW1 4174   5.537   2.081   2.181  1.4549  1.1867  0.3994
  427SOL    HW2 4175   5.409   2.146   2.130  0.0672 -0.9702  1.0049
  428SOL     OW 4176  10.188   4.739   3.735  0.2777  0.1614 -0.0903
  428SOL    HW1 4177  10.160   4.830   3.737  2.3940  0.8767  0.1620
  428SOL    HW2 4178  10.114   4.690   3.770 -1.3084  1.6475 -1.2126
  429SOL     OW 4179   1.705   1.191   2.031 -0.0637 -0.2125 -0.4741
  429SOL    HW1 4180   1.667   1.131   2.096  0.0319  0.5063  0.2658
  429SOL    HW2 4181   1.764   1.136   1.980  2.4817 -0.2129  2.1745
  430SOL     OW 4182   9.118   8.991   6.440  0.2699 -0.2290 -0.1149
  430SOL    HW1 4183   9.163   8.907   6.444 -0.0962 -0.3956  0.7903
  430SOL    HW2 4184   9.172   9.045   6.382 -1.2090 -2.0955 -3.5945
  431SOL     OW 4185   0.680  10.190   4.715  0.5339  0.4180  0.0692
  431SOL    HW1 4186   0.676  10.281   4.743 -0.9231  0.7090 -0.9840
  431SOL    HW2 4187   0.684  10.194   4.620  0.2801 -0.6062  0.0015
  432SOL     OW 4188   1.905   9.770   2.317  0.0332 -0.1728  0.0518
  432SOL    HW1 4189   1.937   9.680   2.317  0.6436  0.0246 -0.5755
  432SOL    HW2 4190   1.950   9.810   2.242 -2.9198 -0.2965 -1.9471
  433SOL     OW 4191   6.521   1.028   4.340 -0.2656  0.4939  0.1437
  433SOL    HW1 4192   6.490   0.974   4.412 -2.1392 -0.1314 -1.0461
  433SOL    HW2 4193   6.442   1.075   4.310 -0.9737 -3.0007 -4.6692
  434SOL     OW 4194  10.503   7.635   4.468 -0.3771 -0.3569 -0.5460
  434SOL    HW1 4195  10.576   7.597   4.517  1.8002 -0.3081 -3.4568
  434SOL    HW2 4196  10.456   7.688   4.531  3.0407  0.8602  1.2002
  435SOL     OW 4197   2.383   6.488   6.372 -0.1573  0.2067  0.7462
  435SOL    HW1 4198   2.319   6.423   6.399  1.6892 -1.6763  0.8527
  435SOL    HW2 4199   2.346   6.527   6.293 -1.7670 -0.2438  1.2444
  436SOL     OW 4200   1.131   1.505   4.788 -0.2339 -0.1530 -1.0440
  436SOL    HW1 4201   1.126   1.537   4.698  0.6635 -0.1255 -1.0988
  436SOL    HW2 4202   1.200   1.559   4.828  1.3228 -1.9654 -1.1373
  437SOL     OW 4203   4.331  10.570   9.512 -0.5192  0.2687 -0.3395
  437SOL    HW1 4204   4.390  10.495   9.504 -0.0955  0.4783  0.7265
  437SOL    HW2 4205   4.385  10.640   9.548 -1.7195  0.0121  2.2234
  438SOL     OW 4206   9.246   5.815   8.460  0.1460  0.6467 -0.0285
  438SOL    HW1 4207   9.319   5.779   8.410 -0.1815  0.6154 -0.4910
  438SOL    HW2 4208   9.174   5.754   8.445  0.3872 -0.0762  1.5190
  439SOL     OW 4209   9.370   7.967   1.052 -0.0726 -0.0464  0.0781
  439SOL    HW1 4210   9.444   7.961   0.992 -1.3921 -1.7689 -1.5417
  439SOL    HW2 4211   9.314   8.036   1.015 -0.0724  0.0882  0.3265
  440SOL     OW 4212  10.665   3.661   2.734  0.5756  0.0072 -0.2942
  440SOL    HW1 4213  10.716   3.741   2.724 -0.0739  0.9062  2.6613
  440SOL    HW2 4214  10.580   3.681   2.694  0.3848  0.8749  0.5164
  441SOL     OW 4215   6.178   1.347   9.667 -0.1934 -0.2741 -0.1730
  441SOL    HW1 4216   6.153   1.384   9.751  0.0990  0.5830 -0.4585
  441SOL    HW2 4217   6.101   1.359   9.611  0.4051  1.2976 -0.7063
  442SOL     OW 4218   6.548   3.498   3.202  0.3735 -0.4965 -0.1582
  442SOL    HW1 4219   6.636   3.520   3.170 -0.3323  0.6602 -1.4008
  442SOL    HW2 4220   6.505   3.582   3.214 -1.2971 -1.0526 -1.7412
  443SOL     OW 4221   4.305   2.870   2.766 -0.0043  0.2194 -0.2136
  443SOL    HW1 4222   4.227   2.926   2.774 -0.3379 -0.2697  0.0536
  443SOL    HW2 4223   4.360   2.895   2.840  0.4556  1.1074 -0.8385
  444SOL     OW 4224   5.823   6.585   3.244  0.0781  0.0214 -0.0101
  444SOL    HW1 4225   5.763   6.566   3.316  1.2498  0.6889  1.2074
  444SOL    HW2 4226   5.901   6.621   3.288  0.5231  1.1945 -1.6751
  445SOL     OW 4227   7.465   3.743   0.893 -0.4903 -0.0718 -0.3283
  445SOL    HW1 4228   7.412   3.792   0.955  1.2397 -0.4971  1.6296
  445SOL    HW2 4229   7.552   3.781   0.900  0.0356 -0.9321 -1.6399
  446SOL     OW 4230   8.089   4.814   1.963 -0.2121  0.1315  0.0487
  446SOL    HW1 4231   8.064   4.903   1.936  1.5334  0.9530  1.0027
  446SOL    HW2 4232   8.067   4.810   2.056  1.1117  0.1199  0.3797
  447SOL     OW 4233   2.356   3.294   5.522  0.4064  0.0800  0.0011
  447SOL    HW1 4234   2.363   3.387   5.498  0.8600 -0.1973 -1.0022
  447SOL    HW2 4235   2.262   3.277   5.527  0.3232  0.6194  0.2773
  448SOL     OW 4236   2.818   0.597   8.029 -0.0901 -0.1735  0.7643
  448SOL    HW1 4237   2.765   0.644   8.093  0.7345  1.1103  0.5335
  448SOL    HW2 4238   2.772   0.607   7.946 -0.8059 -1.2699  0.9988
  449SOL     OW 4239   2.267   8.613   0.890  0.3696 -0.8181  0.1528
  449SOL    HW1 4240   2.359   8.598   0.909  0.9620 -0.3863 -2.1091
  449SOL    HW2 4241   2.266   8.650   0.802 -1.9993 -1.4464 -0.1631
  450SOL     OW 4242   6.586   9.540   9.510  0.1312 -0.4230  0.2683
  450SOL    HW1 4243   6.575   9.632   9.488  1.1704 -0.5931 -1.0897
  450SOL    HW2 4244   6.566   9.494   9.429 -0.1656 -1.3918  0.8748
  451SOL     OW 4245   7.919   8.998   2.209  0.1058  0.8916  0.0809
  451SOL    HW1 4246   7.830   8.999   2.174 -0.3225 -0.2414  1.0782
  451SOL    HW2 4247   7.915   9.051   2.289  0.1441  0.2431  0.5205
  452SOL     OW 4248   5.423   9.337  10.484  0.1312  0.1000  0.5278
  452SOL    HW1 4249   5.398   9.370  10.570  0.8981 -0.7199  1.0887
  452SOL    HW2 4250   5.360   9.267  10.467 -0.6456  0.9167 -0.0469
  453SOL     OW 4251   8.841   2.230   0.921 -0.1993  0.1397  0.5238
  453SOL    HW1 4252   8.768   2.253   0.979  1.4148  0.3920  2.5953
  453SOL    HW2 4253   8.882   2.314   0.900 -0.4295 -0.0055 -0.5775
  454SOL     OW 4254   6.768   2.807   0.874 -0.8570 -0.2512  0.5626
  454SOL    HW1 4255   6.799   2.728   0.830  0.3018  1.2714 -1.5162
  454SOL    HW2 4256   6.836   2.828   0.937 -1.0440 -0.7343  0.9337
  455SOL     OW 4257   9.206   6.431   3.650  0.7013 -0.3951 -0.2620
  455SOL    HW1 4258   9.272   6.458   3.714  1.2372 -2.1303 -0.0056
  455SOL    HW2 4259   9.124   6.469   3.682  1.5081  1.5949 -0.4550
  456SOL     OW 4260  10.500   2.396   0.702 -0.1551 -0.0667 -0.3697
  456SOL    HW1 4261  10.560   2.390   0.776  0.2044 -0.3687 -0.6814
  456SOL    HW2 4262  10.535   2.467   0.648  0.3066 -0.6817 -0.8897
  457SOL     OW 4263   6.318   0.862   2.402  0.2230  0.2562 -0.4786
  457SOL    HW1 4264   6.261   0.915   2.458 -1.0071 -0.8403 -0.6459
  457SOL    HW2 4265   6.258   0.819   2.341  1.3614 -0.0317 -1.4307
  458SOL     OW 4266   6.695  10.371   4.055  0.8720 -0.3968  0.3267
  458SOL    HW1 4267   6.608  10.363   4.016 -0.5315  1.3639  2.8296
  458SOL    HW2 4268   6.755  10.354   3.982 -1.5171  0.8545 -2.1357
  459SOL     OW 4269   5.566   3.766   2.376 -0.1264 -0.8726 -0.4679
  459SOL    HW1 4270   5.657   3.737   2.373  0.1409 -0.2794  1.0380
  459SOL    HW2 4271   5.545   3.788   2.285  1.2446 -0.9687 -0.8310
  460SOL     OW 4272   7.707   9.875   8.565 -0.3237  0.1695 -0.3270
  460SOL    HW1 4273   7.726   9.894   8.473  0.1849  0.9216 -0.0784
  460SOL    HW2 4274   7.782   9.910   8.612  0.4305 -2.0332  0.2411
  461SOL     OW 4275   9.822   0.111   7.853  0.3521  0.3232 -0.1844
  461SOL    HW1 4276   9.742   0.117   7.906  0.2546 -0.6486 -0.2023
  461SOL    HW2 4277   9.890   0.151   7.907  0.2380 -0.5882  0.6705
  462SOL     OW 4278   8.651   6.232  10.394 -0.2213 -0.2252  0.4254
  462SOL    HW1 4279   8.704   6.268  10.323 -2.0647  0.7082 -0.5591
  462SOL    HW2 4280   8.610   6.154  10.355 -1.5949  0.5420  0.2466
  463SOL     OW 4281   9.817   8.706   9.207  0.1164 -0.4907  0.5332
  463SOL    HW1 4282   9.804   8.611   9.202 -0.0540 -0.3992 -1.3198
  463SOL    HW2 4283   9.879   8.726   9.137  1.0439  0.6557  1.6214
  464SOL     OW 4284   1.531   7.928   3.413 -0.5539  0.1525  0.1658
  464SOL    HW1 4285   1.596   7.860   3.399 -1.1464 -0.2648 -0.6429
  464SOL    HW2 4286   1.515   7.927   3.507 -1.2700 -1.5120  0.0649
  465SOL     OW 4287   2.855   8.904   4.009 -0.3510  0.7159  0.3619
  465SOL    HW1 4288   2.760   8.907   3.997 -0.2215  0.2474 -0.8802
  465SOL    HW2 4289   2.889   8.879   3.924  0.9922  2.1262  0.4528
  466SOL     OW 4290  10.700   6.650   5.956 -0.0055  0.2287  0.2819
  466SOL    HW1 4291  10.655   6.569   5.930  1.7550 -1.2444  1.5799
  466SOL    HW2 4292  10.760   6.668   5.884 -0.0704  0.1211  0.2005
  467SOL     OW 4293   4.661  10.225   4.251 -0.3079 -0.1760 -0.2344
  467SOL    HW1 4294   4.716  10.294   4.213  0.8901 -1.3359 -0.6887
  467SOL    HW2 4295   4.603  10.272   4.312  2.0638  1.0177  1.3105
  468SOL     OW 4296   9.551   7.739   9.336 -0.2548 -0.2255 -0.1722
  468SOL    HW1 4297   9.475   7.797   9.330 -1.2757 -1.4763  0.1923
  468SOL    HW2 4298   9.514   7.651   9.337  1.2235 -0.8825 -0.1923
  469SOL     OW 4299   7.009   5.653   7.090  0.4908  0.0864 -0.3241
  469SOL    HW1 4300   7.005   5.560   7.066 -1.8862 -0.2294  0.9181
  469SOL    HW2 4301   7.015   5.699   7.007  1.1661 -1.1566 -0.9989
  470SOL     OW 4302   1.258   6.300   2.691  0.2590  0.3839  0.1276
  470SOL    HW1 4303   1.244   6.320   2.783 -2.4576 -0.8454  0.0951
  470SOL    HW2 4304   1.170   6.303   2.653  1.1050 -0.7085 -2.0746
  471SOL     OW 4305  10.352  10.212   3.435 -0.2436  0.4311 -0.0324
  471SOL    HW1 4306  10.264  10.235   3.405  0.5294  0.6902 -2.2902
  471SOL    HW2 4307  10.411  10.265   3.381  1.3665 -1.6301 -0.4306
  472SOL     OW 4308   7.454   7.600   0.106  0.0688 -0.0342  0.6780
  472SOL    HW1 4309   7.549   7.607   0.095  0.1671 -1.0790  0.7707
  472SOL    HW2 4310   7.421   7.577   0.020 -0.4296  2.9529 -0.0233
  473SOL     OW 4311   0.167   5.803   4.147 -0.2363  0.0522  0.0501
  473SOL    HW1 4312   0.114   5.869   4.103  0.5822  1.1711  0.7087
  473SOL    HW2 4313   0.117   5.779   4.224 -0.0476  0.7126  0.3847
  474SOL     OW 4314   6.058   0.219   5.681  0.3387  0.1191  0.4682
  474SOL    HW1 4315   6.074   0.137   5.634 -1.4023 -0.5741  0.9724
  474SOL    HW2 4316   5.998   0.267   5.625  0.2523  0.4205  0.8137
  475SOL     OW 4317   0.223   7.273   4.745  0.3968 -0.2417  0.4102
  475SOL    HW1 4318   0.244   7.366   4.744  0.8890 -0.3562  0.0664
  475SOL    HW2 4319   0.305   7.229   4.765  0.2381 -0.6225  0.2528
  476SOL     OW 4320   8.857   0.137  10.485 -0.6728 -0.1185  0.0028
  476SOL    HW1 4321   8.934   0.189  10.463 -0.4062 -1.0403 -1.4292
  476SOL    HW2 4322   8.893   0.059  10.529 -0.7219 -0.7064 -0.9619
  477SOL     OW 4323   6.715  10.440   4.671  0.2018 -0.0934 -0.0907
  477SOL    HW1 4324   6.805  10.466   4.692  0.8719 -1.6731 -0.8527
  477SOL    HW2 4325   6.722  10.348   4.646 -1.7836 -0.5336  0.7639
  478SOL     OW 4326   8.479   5.338   4.430  0.4305  0.2388  0.0129
  478SOL    HW1 4327   8.540   5.324   4.503  0.0465  0.8318  0.4553
  478SOL    HW2 4328   8.394   5.313   4.465  0.4395 -0.8954 -0.7009
  479SOL     OW 4329   9.700   8.013   2.021  0.6370  0.9589 -0.0620
  479SOL    HW1 4330   9.682   8.054   1.936  0.2750  1.4667  0.2522
  479SOL    HW2 4331   9.657   8.070   2.085 -0.4837 -0.2908  0.3431
  480SOL     OW 4332   5.015   1.218  10.689  0.1299  0.3404 -0.3841
  480SOL    HW1 4333   5.083   1.284  10.706  0.4859 -0.0986 -0.0673
  480SOL    HW2 4334   4.958   1.223  10.766  0.8842 -0.6000  0.2520
  481SOL     OW 4335  10.659  10.206   7.381  0.3488  0.2437  0.0693
  481SOL    HW1 4336  10.620  10.221   7.295 -0.2598  1.7578  0.5686
  481SOL    HW2 4337  10.737  10.152   7.364 -0.5147 -0.6390 -1.2435
  482SOL     OW 4338   2.789   2.131   7.109  0.0916  1.1188 -0.3204
  482SOL    HW1 4339   2.809   2.063   7.173 -0.1408  0.8053 -0.5817
  482SOL    HW2 4340   2.875   2.165   7.082  0.2474  0.3612 -0.8042
  483SOL     OW 4341   9.310   7.882   2.793 -0.1606 -0.2100  0.3432
  483SOL    HW1 4342   9.328   7.792   2.766 -0.9188 -0.2697 -0.0002
  483SOL    HW2 4343   9.321   7.881   2.888  0.0047 -0.6258  0.3230
  484SOL     OW 4344   8.906   8.983   4.557 -0.2097  0.3814 -0.2552
  484SOL    HW1 4345   8.969   9.043   4.516 -1.2026  0.2274 -2.1120
  484SOL    HW2 4346   8.931   8.982   4.650  1.6374  1.3928 -0.6838
  485SOL     OW 4347   2.539   1.113   4.773  0.0750 -0.0819 -0.1147
  485SOL    HW1 4348   2.543   1.064   4.691  0.4617 -1.2409  0.5752
  485SOL    HW2 4349   2.583   1.196   4.753  0.1603 -0.3403 -1.0706
  486SOL     OW 4350   1.025  10.437   5.606  0.0155  0.2450 -0.3245
  486SOL    HW1 4351   0.960  10.391   5.553 -0.6169  2.1157 -1.2587
  486SOL    HW2 4352   1.070  10.495   5.544  0.5241  1.1544  0.8482
  487SOL     OW 4353   1.619   2.012   5.825  0.1051 -0.4305  0.1769
  487SOL    HW1 4354   1.597   2.006   5.918  0.4400 -0.3888  0.2604
  487SOL    HW2 4355   1.701   1.963   5.816  0.5428  0.3087  0.0680
  488SOL     OW 4356   3.106   6.321   3.855  0.2491 -0.4863  0.7255
  488SOL    HW1 4357   3.193   6.330   3.894  0.0869  1.3991  0.7258
  488SOL    HW2 4358   3.053   6.387   3.900 -0.5812  0.0222 -0.9146
  489SOL     OW 4359   4.891   4.316  10.727 -0.4971 -0.4029 -0.2433
  489SOL    HW1 4360   4.922   4.256  10.659 -0.2448 -0.7343  0.1658
  489SOL    HW2 4361   4.802   4.287  10.746 -0.2622 -0.8445  0.1806
  490SOL     OW 4362   3.765   3.886   3.257 -0.4244 -0.0966  0.1599
  490SOL    HW1 4363   3.727   3.973   3.254 -0.3004 -0.0217  0.7115
  490SOL    HW2 4364   3.728   3.846   3.336 -2.3710 -1.4145 -1.3232
  491SOL     OW 4365   3.393  10.048   7.267 -0.1223  0.3163 -0.1808
  491SOL    HW1 4366   3.372   9.987   7.196 -1.1688 -1.0305  1.1943
  491SOL    HW2 4367   3.309  10.085   7.293  0.3388  1.3450 -0.1059
  492SOL     OW 4368   6.437   6.881  10.005  0.2597  0.4313 -0.4528
  492SOL    HW1 4369   6.402   6.793   9.992  0.2107  0.4788 -0.6473
  492SOL    HW2 4370   6.369   6.939   9.970  0.5115  0.5256 -0.7917
  493SOL     OW 4371   3.523   4.145   8.626  0.1117 -0.2433  0.0263
  493SOL    HW1 4372   3.514   4.134   8.531  1.3370  1.3037 -0.3243
  493SOL    HW2 4373   3.503   4.059   8.662  2.3565 -1.6911 -1.8605
  494SOL     OW 4374   7.586   9.886  10.438  0.1794 -0.1744  0.6176
  494SOL    HW1 4375   7.634   9.877  10.520  0.5782 -0.6460  0.3362
  494SOL    HW2 4376   7.634   9.953  10.389 -0.5157  0.6857  1.0882
  495SOL     OW 4377   6.518   3.752   3.274 -0.2744 -0.2413  0.0368
  495SOL    HW1 4378   6.472   3.806   3.338  0.4509 -0.5960  0.8857
  495SOL    HW2 4379   6.544   3.813   3.206  0.1606  0.4221  0.7730
  496SOL     OW 4380   6.033   8.942   4.513  0.1080  0.4503  0.4684
  496SOL    HW1 4381   6.019   9.036   4.510 -0.0654  0.4097 -0.5651
  496SOL    HW2 4382   5.945   8.904   4.506  0.3477  0.2177 -2.3244
  497SOL     OW 4383  10.653   5.244   4.731 -0.4687 -0.1335 -0.2334
  497SOL    HW1 4384  10.624   5.327   4.769 -2.2207 -1.2421  1.0727
  497SOL    HW2 4385  10.671   5.188   4.807 -0.2952 -1.2548 -1.0702
  498SOL     OW 4386   3.608   8.709   9.051 -0.7889 -0.5707  0.1652
  498SOL    HW1 4387   3.697   8.708   9.016 -0.0741 -0.9685  1.8806
  498SOL    HW2 4388   3.615   8.759   9.133 -2.2416 -0.2305  0.1134
  499SOL     OW 4389   1.782   2.769   7.678 -0.0450  0.0554 -0.2676
  499SOL    HW1 4390   1.842   2.843   7.684  1.9328 -1.5338  4.3335
  499SOL    HW2 4391   1.700   2.802   7.716  0.0455  0.5022 -0.4508
  500SOL     OW 4392   2.929   6.588   0.992  0.2210  0.1354  0.5644
  500SOL    HW1 4393   3.011   6.637   0.988 -0.3240  1.0081 -0.2272
  500SOL    HW2 4394   2.925   6.556   1.083  1.1014  0.6499  0.7975
  501SOL     OW 4395   3.052   6.165   1.917  0.6024 -0.4693 -0.1890
  501SOL    HW1 4396   2.964   6.130   1.906  0.5410 -0.7542  1.0814
  501SOL    HW2 4397   3.106   6.117   1.854 -0.2013 -0.0292 -1.2383
  502SOL     OW 4398   9.730   8.825   4.536  0.1844 -0.2159  0.4529
  502SOL    HW1 4399   9.736   8.778   4.452 -0.4133 -1.0390  0.8550
  502SOL    HW2 4400   9.737   8.756   4.602  2.3549  0.5983  1.1378
  503SOL     OW 4401   7.647   2.825   5.877  0.0149  0.0428 -0.1041
  503SOL    HW1 4402   7.692   2.742   5.895 -1.4906 -0.3386  2.4131
  503SOL    HW2 4403   7.697   2.890   5.926  0.2075  0.3445 -0.6938
  504SOL     OW 4404   2.313   1.456   7.416 -0.3961  0.0916 -0.0577
  504SOL    HW1 4405   2.248   1.522   7.390 -1.8861 -1.3390 -0.1565
  504SOL    HW2 4406   2.306   1.453   7.512 -0.5835 -0.1391 -0.0759
  505SOL     OW 4407   8.750   0.621   5.101 -1.0171  0.4984  0.6593
  505SOL    HW1 4408   8.779   0.711   5.115  0.0395 -0.1304  2.9986
  505SOL    HW2 4409   8.802   0.590   5.027  1.1622  0.7863  1.9822
  506SOL     OW 4410   8.431  10.135   8.486  0.0685  0.3944 -0.1058
  506SOL    HW1 4411   8.486  10.141   8.408  0.5487 -0.2541  0.1668
  506SOL    HW2 4412   8.482  10.178   8.555  0.2444 -0.2088  0.1483
  507SOL     OW 4413   8.225   5.751   2.528  0.3164  0.1927 -0.0801
  507SOL    HW1 4414   8.210   5.751   2.622  0.2490 -1.3858 -0.0581
  507SOL    HW2 4415   8.137   5.743   2.490  0.4789 -1.1525 -0.2013
  508SOL     OW 4416   8.412   9.058   2.992  0.0945  0.0231 -0.4159
  508SOL    HW1 4417   8.409   9.138   2.940 -3.3551  0.3426  0.0775
  508SOL    HW2 4418   8.413   8.988   2.927  0.8117  0.4184 -0.8504
  509SOL     OW 4419   5.184   0.827  10.762 -0.2361  0.2341 -0.6072
  509SOL    HW1 4420   5.270   0.796  10.788  0.0131  0.2452 -1.3856
  509SOL    HW2 4421   5.168   0.904  10.816  1.2630  1.6421 -2.0434
  510SOL     OW 4422   7.543   9.904   8.978  0.3390  0.0955 -0.3619
  510SOL    HW1 4423   7.463   9.924   8.930 -0.2797 -2.2568 -0.4352
  510SOL    HW2 4424   7.595   9.985   8.973 -2.2911  1.9419  0.3341
  511SOL     OW 4425   8.541   3.452   6.026  0.3785 -0.4130  0.3055
  511SOL    HW1 4426   8.540   3.496   6.111 -0.7920 -0.4309  0.3092
  511SOL    HW2 4427   8.583   3.515   5.967  0.6134 -0.1439  0.7551
  512SOL     OW 4428   9.155   3.256   0.150 -0.4175  0.0029 -0.1262
  512SOL    HW1 4429   9.143   3.180   0.206 -0.9214  0.5718  0.5587
  512SOL    HW2 4430   9.066   3.278   0.120 -0.6057  1.6320  1.4665
  513SOL     OW 4431   3.527   4.994   1.675  0.2760  0.2575  0.1599
  513SOL    HW1 4432   3.466   4.995   1.601  1.7262  0.4587 -1.0623
  513SOL    HW2 4433   3.526   5.084   1.708 -1.2967 -0.0945  1.2305
  514SOL     OW 4434   2.126   4.622  10.173  0.3135  0.1909  0.0714
  514SOL    HW1 4435   2.108   4.709  10.209  2.0922  0.4865  0.3509
  514SOL    HW2 4436   2.040   4.589  10.146 -0.5085  1.6845  0.7188
  515SOL     OW 4437   9.728  10.207   2.995 -0.5559 -0.3908  0.3162
  515SOL    HW1 4438   9.641  10.230   3.029 -1.0681 -1.4848 -0.2220
  515SOL    HW2 4439   9.762  10.289   2.960 -1.5951 -0.0555  0.0567
  516SOL     OW 4440   1.648   8.146   1.157 -0.0295  0.0230 -0.7516
  516SOL    HW1 4441   1.737   8.140   1.191  0.1633 -2.0699 -1.4650
  516SOL    HW2 4442   1.615   8.230   1.189  2.0070  0.6040 -0.0474
  517SOL     OW 4443   8.365   7.748   9.859  0.4477 -0.5168  0.7014
  517SOL    HW1 4444   8.447   7.700   9.865  0.8517  0.2255  1.3034
  517SOL    HW2 4445   8.391   7.839   9.844 -0.2535 -0.2216  1.2175
  518SOL     OW 4446   1.293  10.331  10.255 -0.3286  0.2918  0.0436
  518SOL    HW1 4447   1.329  10.297  10.173  0.1828 -2.6691  1.3702
  518SOL    HW2 4448   1.198  10.331  10.242 -0.3684 -1.9533  0.0041
  519SOL     OW 4449   1.416   5.473   8.005 -0.2579  0.3180 -0.5136
  519SOL    HW1 4450   1.371   5.502   8.084 -1.5922  0.0661 -1.1652
  519SOL    HW2 4451   1.372   5.391   7.981 -1.4461  1.5469 -2.7919
  520SOL     OW 4452   9.221   9.300   0.995 -0.5663 -0.1578  0.0699
  520SOL    HW1 4453   9.296   9.333   1.046 -0.7604  0.2974  0.0630
  520SOL    HW2 4454   9.226   9.205   1.004  1.5804 -0.3637 -2.0749
  521SOL     OW 4455   5.842   9.113   1.083 -0.6167 -0.0636 -0.0489
  521SOL    HW1 4456   5.775   9.051   1.114 -0.5599  0.3104  0.8563
  521SOL    HW2 4457   5.835   9.187   1.143 -0.9530  0.9995 -1.3634
  522SOL     OW 4458   3.258   9.697   7.352  0.5670  0.2345  0.3745
  522SOL    HW1 4459   3.334   9.663   7.399  0.9717  1.5986  0.7651
  522SOL    HW2 4460   3.204   9.738   7.420  0.9817  1.9221 -0.2720
  523SOL     OW 4461   9.834   7.264   5.013  0.3781 -0.5018  0.5826
  523SOL    HW1 4462   9.912   7.316   5.030  0.0093 -0.3620  2.0264
  523SOL    HW2 4463   9.806   7.234   5.100 -2.0754  0.8139  0.3712
  524SOL     OW 4464   8.498   0.018   4.503  0.0203 -0.2036  0.5150
  524SOL    HW1 4465   8.534   0.052   4.421  0.1410  1.5091  1.2230
  524SOL    HW2 4466   8.555  -0.054   4.527  0.6992  0.0477 -0.2858
  525SOL     OW 4467   4.800   6.376   4.950 -0.4052  0.5057  0.0449
  525SOL    HW1 4468   4.864   6.377   4.880 -0.9197 -0.5894 -0.4607
  525SOL    HW2 4469   4.843   6.423   5.022  0.7281  0.3106 -0.4760
  526SOL     OW 4470   0.759   9.393   1.425  0.5461  0.0136 -0.3193
  526SOL    HW1 4471   0.703   9.327   1.465  0.7973  0.4505  0.7932
  526SOL    HW2 4472   0.699   9.455   1.385  0.3060 -0.8459 -1.3592
  527SOL     OW 4473   6.009   2.486   7.874  0.4776  0.0730 -0.0712
  527SOL    HW1 4474   5.948   2.546   7.831 -0.4294  0.8556  2.1398
  527SOL    HW2 4475   5.976   2.399   7.852  0.2772  0.4153 -1.2056
  528SOL     OW 4476   6.228   7.284  10.431 -0.0524  0.0815  0.2122
  528SOL    HW1 4477   6.163   7.230  10.476  1.0088 -0.9044  0.6215
  528SOL    HW2 4478   6.177   7.331  10.365 -0.9837 -1.8579 -0.5593
  529SOL     OW 4479   1.465   3.998   2.482  0.0900  0.8376 -0.2578
  529SOL    HW1 4480   1.427   3.951   2.408  0.2624  0.8629 -0.3633
  529SOL    HW2 4481   1.423   3.960   2.559  0.1909  0.5440 -0.3457
  530SOL     OW 4482   1.052   2.240   3.681  0.0424 -0.1223 -0.3591
  530SOL    HW1 4483   1.129   2.256   3.735 -0.8621 -0.3331  1.0379
  530SOL    HW2 4484   1.073   2.162   3.630  1.0095  0.2375 -0.5271
  531SOL     OW 4485   0.616   5.751   5.222 -0.3057 -0.1278 -0.0301
  531SOL    HW1 4486   0.693   5.805   5.204  0.0303 -0.5695  0.0348
  531SOL    HW2 4487   0.582   5.728   5.136  1.9039 -3.0952 -0.3062
  532SOL     OW 4488   1.239   8.932   9.486 -0.0092 -0.0353  0.0294
  532SOL    HW1 4489   1.320   8.977   9.513 -0.0991  0.8531 -1.1189
  532SOL    HW2 4490   1.176   8.955   9.555  0.1070  1.1617 -0.2317
  533SOL     OW 4491   3.435   6.728   5.950 -0.0317 -0.4519 -0.8471
  533SOL    HW1 4492   3.367   6.710   5.885 -1.1277  0.8120 -0.0989
  533SOL    HW2 4493   3.423   6.660   6.016  1.0926 -1.7489 -1.8941
  534SOL     OW 4494   0.999   0.225   6.177  0.1216 -0.3756 -0.7793
  534SOL    HW1 4495   0.906   0.247   6.182  0.3866  1.0579 -1.4711
  534SOL    HW2 4496   1.002   0.130   6.185 -1.1561 -0.2559  2.0264
  535SOL     OW 4497   8.147   3.200   1.060 -0.1769  0.7693  0.3759
  535SOL    HW1 4498   8.064   3.241   1.084 -0.5252 -0.4773  1.3674
  535SOL    HW2 4499   8.212   3.246   1.113 -0.7210 -0.7143  2.4435
  536SOL     OW 4500   2.339   0.195   8.249  0.3159 -0.3965 -0.4219
  536SOL    HW1 4501   2.422   0.227   8.214  0.4086 -1.2356 -1.0135
  536SOL    HW2 4502   2.288   0.274   8.266  2.0291  0.2874  2.0709
  537SOL     OW 4503   5.938   0.414   2.377  0.1043 -0.2382 -0.1614
  537SOL    HW1 4504   6.022   0.459   2.379  1.1662 -2.1387  1.5885
  537SOL    HW2 4505   5.885   0.457   2.444  0.1826  0.0468 -0.2830
  538SOL     OW 4506   3.604   9.843   9.390 -0.7209  0.3673  0.5147
  538SOL    HW1 4507   3.670   9.831   9.322 -1.4592 -0.1477 -0.1201
  538SOL    HW2 4508   3.622   9.774   9.454 -0.3073  0.5757  0.6328
  539SOL     OW 4509   8.163  10.782   7.195 -0.1537 -0.3069 -0.6867
  539SOL    HW1 4510   8.187  10.831   7.117  1.1170  0.6458  0.2412
  539SOL    HW2 4511   8.128  10.848   7.255 -0.7515 -0.9554 -0.3061
  540SOL     OW 4512   2.279   9.016   3.433 -0.0266  0.1700 -0.0185
  540SOL    HW1 4513   2.342   9.004   3.362 -0.9299 -0.0765 -0.8023
  540SOL    HW2 4514   2.295   8.942   3.492  0.7808  0.4185  0.0956
  541SOL     OW 4515  10.406  10.270   1.104 -0.0701 -0.5143 -0.2113
  541SOL    HW1 4516  10.394  10.245   1.012 -1.6820 -0.3187 -0.0692
  541SOL    HW2 4517  10.436  10.189   1.147 -0.8619 -1.0331 -0.6148
  542SOL     OW 4518   5.791   5.625   0.776  0.0433 -0.2850 -0.5606
  542SOL    HW1 4519   5.762   5.701   0.827  0.4059 -1.4149  1.4732
  542SOL    HW2 4520   5.759   5.641   0.688 -1.4242  1.3776  0.2073
  543SOL     OW 4521   8.080   0.568   6.938 -0.3247  0.3272  0.1887
  543SOL    HW1 4522   8.084   0.531   6.849  0.3360  0.4485  0.1598
  543SOL    HW2 4523   7.993   0.545   6.970  0.1277 -1.4639  0.2614
  544SOL     OW 4524   4.887   6.354  10.461 -0.0455 -0.5535  0.2217
  544SOL    HW1 4525   4.890   6.277  10.518  1.7709  0.6023  1.7764
  544SOL    HW2 4526   4.966   6.347  10.408 -0.2060 -0.0748 -0.0828
  545SOL     OW 4527   0.889   1.759   1.110 -0.1289 -0.2352 -0.1290
  545SOL    HW1 4528   0.944   1.744   1.032  0.3794 -0.1743  0.2125
  545SOL    HW2 4529   0.880   1.855   1.114  0.0275 -0.2271  0.0133
  546SOL     OW 4530   3.686  10.207   3.375  0.1282 -0.3283  0.3843
  546SOL    HW1 4531   3.746  10.152   3.325 -0.5080 -0.3561 -0.3687
  546SOL    HW2 4532   3.742  10.276   3.412  0.4824  0.3190 -1.2618
  547SOL     OW 4533   6.150   6.171   5.678 -0.0197  0.1300 -0.0762
  547SOL    HW1 4534   6.056   6.165   5.692 -0.0461 -1.8198 -0.8109
  547SOL    HW2 4535   6.185   6.196   5.764 -1.0805 -0.6108  0.5996
  548SOL     OW 4536   2.247   4.285   9.867  0.5457 -0.0683  0.1416
  548SOL    HW1 4537   2.275   4.306   9.956 -1.2474  1.2443  0.4410
  548SOL    HW2 4538   2.189   4.209   9.877  1.6541 -1.0004 -0.1565
  549SOL     OW 4539   7.702   6.201  10.003  0.6322  0.4635  0.1629
  549SOL    HW1 4540   7.644   6.212  10.078 -1.2506  1.3238 -1.3121
  549SOL    HW2 4541   7.716   6.106   9.997  0.6523  0.3734  1.4561
  550SOL     OW 4542   7.656   6.123   3.555 -0.6469 -0.2293  0.3314
  550SOL    HW1 4543   7.737   6.125   3.504  0.2826 -3.9931  1.3869
  550SOL    HW2 4544   7.588   6.099   3.491  0.0785 -2.4380  0.3234
  551SOL     OW 4545   1.692   5.638   2.207  0.3637 -0.5610  0.1053
  551SOL    HW1 4546   1.723   5.603   2.123 -0.5418 -0.8923 -0.1046
  551SOL    HW2 4547   1.708   5.567   2.270  2.5855  0.2864  0.5829
  552SOL     OW 4548   6.740   0.618   9.178 -0.8945 -0.2081 -0.1115
  552SOL    HW1 4549   6.755   0.688   9.115 -1.1744  0.7770  0.8748
  552SOL    HW2 4550   6.759   0.538   9.130  2.0521  0.6339 -0.5545
  553SOL     OW 4551  10.153   2.570   2.300  0.0650  0.1549 -0.3368
  553SOL    HW1 4552  10.097   2.579   2.223  0.6006  0.0204 -0.7471
  553SOL    HW2 4553  10.233   2.617   2.278  1.3130 -2.0891 -0.9650
  554SOL     OW 4554   7.904   2.439   6.803  0.2660 -0.0674 -0.0678
  554SOL    HW1 4555   7.972   2.439   6.871 -0.4075 -0.6999  0.6207
  554SOL    HW2 4556   7.834   2.385   6.839  0.8644 -2.4911 -2.2298
  555SOL     OW 4557   0.500   0.405   2.623 -0.7067  0.4074  0.3439
  555SOL    HW1 4558   0.595   0.396   2.616 -0.7372  0.1180  0.2980
  555SOL    HW2 4559   0.485   0.500   2.629 -0.4237  0.4589  0.2315
  556SOL     OW 4560   5.374   4.300   9.784 -0.6160  0.1121 -0.0826
  556SOL    HW1 4561   5.413   4.383   9.812 -0.1677  0.0487 -0.5026
  556SOL    HW2 4562   5.404   4.237   9.850 -3.0749  0.7084  1.7709
  557SOL     OW 4563   3.228  10.717   2.961 -0.4802  0.4590 -0.1063
  557SOL    HW1 4564   3.174  10.670   3.025 -0.0341 -1.1389 -0.8520
  557SOL    HW2 4565   3.242  10.654   2.891 -0.2967  1.9117 -1.4318
  558SOL     OW 4566   2.584   6.462  10.573 -0.6140  0.4699  0.5670
  558SOL    HW1 4567   2.520   6.465  10.645  0.8321 -0.3875  1.9577
  558SOL    HW2 4568   2.637   6.541  10.586 -1.2168  1.0698 -0.4568
  559SOL     OW 4569   5.603   6.246   8.849 -0.1330  0.4267  0.2142
  559SOL    HW1 4570   5.529   6.186   8.860 -0.3356  0.9104  1.6376
  559SOL    HW2 4571   5.680   6.193   8.869 -0.0040 -0.2009 -1.7056
  560SOL     OW 4572   1.089   1.686   6.522 -0.0431  0.1110 -0.2495
  560SOL    HW1 4573   1.079   1.779   6.506  1.9613  0.3534 -0.3102
  560SOL    HW2 4574   1.179   1.666   6.496 -1.4785 -2.6391 -4.0075
  561SOL     OW 4575   7.507   0.087   3.492  0.3712 -0.2287  0.0574
  561SOL    HW1 4576   7.567   0.019   3.459 -0.3886 -0.2503 -1.3638
  561SOL    HW2 4577   7.474   0.130   3.413 -0.9067  0.2860  0.8422
  562SOL     OW 4578   6.663   3.964   6.817 -0.4500 -0.6846 -0.5328
  562SOL    HW1 4579   6.594   4.029   6.830 -0.5770 -0.4509 -2.1629
  562SOL    HW2 4580   6.677   3.926   6.904 -2.5492 -0.6761 -0.1376
  563SOL     OW 4581   4.280   4.675   3.707 -0.0160  0.2849 -0.2162
  563SOL    HW1 4582   4.222   4.740   3.744 -2.1895 -2.3102  1.3201
  563SOL    HW2 4583   4.225   4.626   3.645  0.3600 -2.3093  1.3509
  564SOL     OW 4584  10.026   4.857   0.084  0.7436  0.2270  0.1163
  564SOL    HW1 4585  10.096   4.921   0.067  1.0681  0.0294  0.7112
  564SOL    HW2 4586   9.949   4.911   0.102  1.1735  0.4706  1.2966
  565SOL     OW 4587   5.919   1.017   9.680  0.6319  0.9724  0.6614
  565SOL    HW1 4588   6.013   1.006   9.665  0.5010  1.0382 -0.2518
  565SOL    HW2 4589   5.879   0.944   9.634  0.0657  2.4448 -1.2881
  566SOL     OW 4590   0.874   8.873   2.656  0.0475  0.2591  0.2182
  566SOL    HW1 4591   0.968   8.891   2.657  0.0795  0.2785 -1.1589
  566SOL    HW2 4592   0.836   8.945   2.606 -0.7226  0.3079  0.8573
  567SOL     OW 4593   2.663   4.297   2.873  0.0708  0.1637 -0.1395
  567SOL    HW1 4594   2.574   4.275   2.848  0.4645 -1.0203 -0.5639
  567SOL    HW2 4595   2.684   4.376   2.823 -1.3110  1.4795  1.2611
  568SOL     OW 4596   5.611   3.221  10.448  0.2695  0.1010  0.0372
  568SOL    HW1 4597   5.659   3.148  10.488 -0.8490  0.2645  1.8048
  568SOL    HW2 4598   5.600   3.284  10.519 -0.9046  0.8837 -0.8091
  569SOL     OW 4599   7.269   2.197   3.704  0.3179 -0.0240  0.6011
  569SOL    HW1 4600   7.211   2.141   3.653  0.1141 -0.0514  0.8643
  569SOL    HW2 4601   7.350   2.147   3.713  0.2636 -0.1249  0.5247
  570SOL     OW 4602   7.250   7.200   9.144  0.3613 -0.1552 -0.1661
  570SOL    HW1 4603   7.174   7.158   9.105  0.3421 -2.6995  2.2250
  570SOL    HW2 4604   7.318   7.195   9.077 -1.0062  0.3611 -1.6294
  571SOL     OW 4605   2.034   1.078   5.919 -0.2033  0.2183 -0.7070
  571SOL    HW1 4606   2.050   1.085   5.825  1.4776 -1.4306 -0.6101
  571SOL    HW2 4607   2.080   1.153   5.957 -0.6010  0.6993 -1.1688
  572SOL     OW 4608   7.439   9.549   3.077 -0.1808 -0.3322  1.0064
  572SOL    HW1 4609   7.408   9.551   3.168 -0.6188 -1.8469  0.9285
  572SOL    HW2 4610   7.396   9.472   3.040  1.1423 -0.5888 -0.0646
  573SOL     OW 4611   5.239   5.755   3.984 -0.0760 -0.1452 -0.2217
  573SOL    HW1 4612   5.264   5.847   3.995  0.1715 -0.3457  1.1610
  573SOL    HW2 4613   5.316   5.713   3.946 -0.4832  0.3587 -1.6425
  574SOL     OW 4614   1.283   7.793  10.522  0.3866  0.2092  0.2264
  574SOL    HW1 4615   1.218   7.777  10.591  1.4546  1.0869  1.4837
  574SOL    HW2 4616   1.322   7.707  10.507  0.4543  0.0792  1.0609
  575SOL     OW 4617   3.802  10.693   4.857 -0.2434  0.3945  0.2956
  575SOL    HW1 4618   3.837  10.668   4.943 -3.1758  0.8688  1.7411
  575SOL    HW2 4619   3.863  10.759   4.824  0.4082  0.9742  2.4994
  576SOL     OW 4620   1.016   4.328   1.534  0.8377 -0.2522 -0.1360
  576SOL    HW1 4621   1.049   4.404   1.484 -0.4095 -0.3369 -1.1367
  576SOL    HW2 4622   0.971   4.275   1.469 -0.1799 -0.7607  0.9588
  577SOL     OW 4623   7.267   9.708   9.139 -0.0120  0.5416 -0.0404
  577SOL    HW1 4624   7.221   9.767   9.079  0.9395  1.2930 -0.0600
  577SOL    HW2 4625   7.216   9.711   9.220  1.8861  4.3519  1.2822
  578SOL     OW 4626   3.391   1.264   4.685  0.3533  0.1470 -0.2727
  578SOL    HW1 4627   3.404   1.276   4.591  0.0249  2.1784 -0.0972
  578SOL    HW2 4628   3.358   1.174   4.693 -0.9105  0.3636 -2.2437
  579SOL     OW 4629   8.120   7.259   5.265  0.2542  0.3045 -0.4408
  579SOL    HW1 4630   8.133   7.266   5.171 -1.8444  3.4743 -0.6649
  579SOL    HW2 4631   8.208   7.265   5.303  1.1594 -1.4256 -2.1429
  580SOL     OW 4632   0.951   6.422   4.281 -0.4718 -0.5437 -0.0140
  580SOL    HW1 4633   0.888   6.438   4.352  0.1377 -0.6707  0.5668
  580SOL    HW2 4634   0.940   6.329   4.260 -0.1082 -0.7029  0.4664
  581SOL     OW 4635   9.920   1.764   4.721 -0.4191  0.1284  0.1104
  581SOL    HW1 4636   9.955   1.675   4.729 -1.9380 -0.4720  0.3951
  581SOL    HW2 4637   9.892   1.770   4.629 -1.2158 -0.0476  0.3363
  582SOL     OW 4638   5.638   7.488   1.281 -0.2574 -0.6151 -0.4312
  582SOL    HW1 4639   5.603   7.416   1.228  1.2252 -0.9980 -0.9304
  582SOL    HW2 4640   5.708   7.448   1.333  0.6803  0.4944 -0.8187
  583SOL     OW 4641   0.071   0.435   0.321 -0.4535 -0.4639  0.1980
  583SOL    HW1 4642   0.165   0.444   0.307 -0.1658 -1.5836  1.2756
  583SOL    HW2 4643   0.056   0.466   0.410 -1.3062  0.7398 -0.3193
  584SOL     OW 4644   7.145  10.416   8.797 -0.0571 -0.3914  0.1962
  584SOL    HW1 4645   7.116  10.379   8.713 -0.1656 -1.4019  0.6667
  584SOL    HW2 4646   7.235  10.385   8.806  0.0194 -0.1209  0.3573
  585SOL     OW 4647   0.077   9.797   0.478  1.0753  0.2751  0.2606
  585SOL    HW1 4648   0.036   9.798   0.565  1.1992  0.2493  0.3191
  585SOL    HW2 4649   0.159   9.751   0.491  1.2233  0.5186  0.1857
  586SOL     OW 4650   4.913   9.193   3.229 -0.3807  0.2076  0.5654
  586SOL    HW1 4651   4.893   9.238   3.311 -1.3233  1.2154 -0.1874
  586SOL    HW2 4652   4.975   9.124   3.254 -0.4246  0.6736  2.0661
  587SOL     OW 4653   3.182   1.973   5.445  1.1900  0.0256 -0.0525
  587SOL    HW1 4654   3.264   1.954   5.491 -0.2793 -0.1352  2.6969
  587SOL    HW2 4655   3.145   1.887   5.426  1.4291  0.1040 -0.9273
  588SOL     OW 4656   7.758   1.241   6.759 -0.6550 -0.6255  0.2981
  588SOL    HW1 4657   7.736   1.301   6.830 -1.0877  1.1108 -1.2345
  588SOL    HW2 4658   7.811   1.173   6.801  1.3089  1.7049  1.8396
  589SOL     OW 4659  10.704   2.577  10.592  0.2182 -0.5300 -0.6948
  589SOL    HW1 4660  10.736   2.661  10.624 -0.5335 -1.0455  1.5982
  589SOL    HW2 4661  10.609   2.589  10.587  0.0224 -1.4648  0.4581
  590SOL     OW 4662   6.584   4.356   7.611 -0.3050 -0.1985 -0.4799
  590SOL    HW1 4663   6.644   4.430   7.619 -0.5977 -0.1554  1.9698
  590SOL    HW2 4664   6.508   4.381   7.663  0.0393 -2.5859  1.3735
  591SOL     OW 4665   7.097   7.051   9.627  0.3518 -0.3581 -0.0112
  591SOL    HW1 4666   7.164   7.038   9.559 -1.1862  0.0074 -1.6753
  591SOL    HW2 4667   7.120   7.135   9.667  0.8457 -0.1909 -0.6122
  592SOL     OW 4668   1.860   6.507   2.631 -0.0345  0.5416  0.2103
  592SOL    HW1 4669   1.843   6.456   2.552  1.1034 -0.5036  0.6101
  592SOL    HW2 4670   1.804   6.584   2.622  0.7799  0.9540 -2.0766
  593SOL     OW 4671   2.538   4.481   0.306 -0.0393 -0.4956  0.5494
  593SOL    HW1 4672   2.579   4.396   0.321  1.0976  0.1936  1.4977
  593SOL    HW2 4673   2.560   4.503   0.215  1.4768 -0.2776  0.9468
  594SOL     OW 4674   1.243   8.308   4.627  0.1681 -0.4593  0.5983
  594SOL    HW1 4675   1.309   8.241   4.613  0.2060 -0.3849  0.4129
  594SOL    HW2 4676   1.216   8.334   4.539  1.1477  0.7543  0.6264
  595SOL     OW 4677   3.289   5.731   8.407  0.0734 -0.1464 -0.0661
  595SOL    HW1 4678   3.202   5.722   8.367 -0.9653  0.5045  1.8872
  595SOL    HW2 4679   3.342   5.773   8.339 -1.3201  0.0848 -1.0708
  596SOL     OW 4680   8.725  10.580   5.485  0.0137 -0.2943  0.1228
  596SOL    HW1 4681   8.734  10.512   5.552  2.6444  0.2485  0.4111
  596SOL    HW2 4682   8.758  10.659   5.527 -0.0673  0.4664 -1.2042
  597SOL     OW 4683   8.893  10.261   7.784 -0.5345 -0.4112 -0.0105
  597SOL    HW1 4684   8.804  10.273   7.815 -0.3957 -2.3449  1.2379
  597SOL    HW2 4685   8.945  10.244   7.863  0.9873  0.7889 -0.6907
  598SOL     OW 4686   8.512   1.501   3.867 -0.2228 -0.4488 -0.0449
  598SOL    HW1 4687   8.569   1.456   3.804 -0.4271 -0.4296 -0.2446
  598SOL    HW2 4688   8.546   1.590   3.871  1.7683 -1.1941  2.2185
  599SOL     OW 4689   6.829   1.509   8.903 -0.1720 -0.2744 -0.4060
  599SOL    HW1 4690   6.905   1.540   8.952 -1.1507  0.2852  0.8159
  599SOL    HW2 4691   6.860   1.431   8.858  0.7241 -0.9985  1.3478
  600SOL     OW 4692   6.517  10.434   9.872  0.1521 -0.0531 -0.3677
  600SOL    HW1 4693   6.484  10.471   9.790  0.7580 -0.1262 -0.6515
  600SOL    HW2 4694   6.578  10.366   9.845  1.0052  0.4880  0.1213
  601SOL     OW 4695   4.893   8.753   2.754  0.5583  0.0206  0.6994
  601SOL    HW1 4696   4.902   8.837   2.708  2.4747  0.1519  1.2062
  601SOL    HW2 4697   4.918   8.687   2.689 -3.4678 -0.5152 -0.5431
  602SOL     OW 4698   9.125   9.051   3.404 -0.0449 -0.0621  0.7387
  602SOL    HW1 4699   9.071   9.052   3.483 -0.1894 -1.0272  0.6682
  602SOL    HW2 4700   9.169   9.136   3.404 -1.5269  0.7381  0.8065
  603SOL     OW 4701   6.518   8.859   7.011  0.0904 -0.5819 -0.4455
  603SOL    HW1 4702   6.537   8.949   6.984  0.6605 -0.9531 -1.3370
  603SOL    HW2 4703   6.602   8.825   7.041 -0.1907 -0.7274  0.1996
  604SOL     OW 4704   0.952  10.669  10.310  0.4045  0.3270 -0.2583
  604SOL    HW1 4705   1.033  10.659  10.360 -0.1459 -1.1265  0.4175
  604SOL    HW2 4706   0.977  10.648  10.220  1.2276  2.1511 -0.5019
  605SOL     OW 4707   0.324  10.553   0.235  0.1475  0.1104  0.0459
  605SOL    HW1 4708   0.389  10.619   0.211 -1.1941  1.2012 -0.7801
  605SOL    HW2 4709   0.295  10.516   0.151  0.3410 -1.0276  0.4575
  606SOL     OW 4710   9.491   4.199   1.199  0.0012  0.1424  0.3272
  606SOL    HW1 4711   9.552   4.153   1.143  0.6959  0.1880  1.0279
  606SOL    HW2 4712   9.545   4.237   1.268 -0.9109 -0.5471  1.4548
  607SOL     OW 4713   3.939   0.543   5.619  0.3325  0.3487 -0.1009
  607SOL    HW1 4714   4.022   0.585   5.596  0.5979  0.2589  0.6489
  607SOL    HW2 4715   3.891   0.537   5.537 -0.1101  2.9222 -0.1070
  608SOL     OW 4716   6.238   9.957   6.413 -0.5020 -0.0101 -0.5094
  608SOL    HW1 4717   6.264   9.903   6.339 -2.6133 -0.7456 -0.7799
  608SOL    HW2 4718   6.319   9.998   6.442  1.2006 -3.0600 -0.4909
  609SOL     OW 4719   6.689   6.340   9.017 -0.4063  0.0053  0.1165
  609SOL    HW1 4720   6.698   6.418   9.071 -2.4354  0.5928 -0.3200
  609SOL    HW2 4721   6.660   6.272   9.078 -0.6722  0.1355  0.1363
  610SOL     OW 4722   8.315   1.359   5.495 -0.4552 -0.6394  0.2810
  610SOL    HW1 4723   8.334   1.265   5.493  0.3058 -0.4736 -0.6988
  610SOL    HW2 4724   8.277   1.378   5.410 -0.3773 -0.0071  0.3826
  611SOL     OW 4725   2.342   0.965   3.948  0.4612  0.9714  0.5425
  611SOL    HW1 4726   2.391   0.907   3.889  0.0530 -1.2210  2.2654
  611SOL    HW2 4727   2.410   1.007   4.001  0.6514  0.5283  0.6525
  612SOL     OW 4728   4.482   1.043   1.056 -0.3793  0.4575  0.1499
  612SOL    HW1 4729   4.472   1.138   1.050  0.1853  0.4198 -3.7384
  612SOL    HW2 4730   4.576   1.030   1.072 -0.7047  0.4809  2.3828
  613SOL     OW 4731   4.416   8.581   0.533  0.4375  0.5417  0.1347
  613SOL    HW1 4732   4.427   8.648   0.466 -0.4110 -1.0804 -1.7140
  613SOL    HW2 4733   4.327   8.595   0.566  0.2191  0.2779 -0.3297
  614SOL     OW 4734   8.716   7.148   4.733  0.4272  0.5238 -1.0294
  614SOL    HW1 4735   8.763   7.084   4.680 -2.2819 -4.6519  1.9975
  614SOL    HW2 4736   8.626   7.143   4.701 -0.4611  0.2406  1.3148
  615SOL     OW 4737   0.947   4.923  10.091  0.1278 -0.0757  0.5455
  615SOL    HW1 4738   0.942   4.879  10.176  0.7169  0.2320  0.7447
  615SOL    HW2 4739   0.997   4.864  10.036  0.5451  0.1450  0.6858
  616SOL     OW 4740   0.759   2.238   6.938 -0.1349  0.1090 -0.5760
  616SOL    HW1 4741   0.754   2.259   7.031  1.9504  0.6603 -0.5424
  616SOL    HW2 4742   0.848   2.206   6.925 -0.6120 -0.6396 -2.2656
  617SOL     OW 4743   4.626   8.567   5.403 -0.0482 -0.7687 -0.2280
  617SOL    HW1 4744   4.555   8.626   5.378 -0.5607 -1.4449 -0.3767
  617SOL    HW2 4745   4.609   8.486   5.355  1.4765 -0.5575 -1.1975
  618SOL     OW 4746  10.682   6.780   9.538  0.0687  0.0607 -0.1474
  618SOL    HW1 4747  10.741   6.833   9.592 -0.0177 -1.0976  1.1403
  618SOL    HW2 4748  10.646   6.714   9.598 -1.6584  0.0074 -1.1541
  619SOL     OW 4749  10.188   7.260   7.905  0.3230 -0.5768 -0.2161
  619SOL    HW1 4750  10.211   7.341   7.950 -1.0438 -0.4241  0.2618
  619SOL    HW2 4751  10.102   7.277   7.867  0.0324 -1.7713 -0.1411
  620SOL     OW 4752   4.355   7.333   7.956 -0.4965  0.0496  0.4369
  620SOL    HW1 4753   4.432   7.371   7.913 -0.7913 -1.3230 -1.4024
  620SOL    HW2 4754   4.372   7.345   8.050  1.7612  0.1422  0.0692
  621SOL     OW 4755   5.755   5.855   4.373 -0.2992 -0.4073  0.0674
  621SOL    HW1 4756   5.829   5.812   4.330 -0.7731  0.1946 -1.4110
  621SOL    HW2 4757   5.795   5.924   4.426  0.1988  0.4731 -1.3903
  622SOL     OW 4758   8.482   2.478   4.986  0.2321  0.0571  0.2127
  622SOL    HW1 4759   8.522   2.445   4.906  0.9909  1.9205 -0.2377
  622SOL    HW2 4760   8.551   2.475   5.051  0.3174  0.7261  0.1608
  623SOL     OW 4761   0.437   7.661   0.346 -0.0184 -0.2608 -0.3017
  623SOL    HW1 4762   0.407   7.604   0.417 -2.5411 -0.4669 -1.4139
  623SOL    HW2 4763   0.388   7.743   0.359 -0.4521 -0.2748 -1.7214
  624SOL     OW 4764   6.096   5.020   5.385  0.0962  0.0376  0.1410
  624SOL    HW1 4765   6.142   4.936   5.373  1.4275  0.5649  1.2128
  624SOL    HW2 4766   6.166   5.082   5.408 -1.1029  1.0204  1.2422
  625SOL     OW 4767   9.512   6.041   8.456  0.9047  0.7114 -0.3105
  625SOL    HW1 4768   9.435   6.059   8.402  1.2858  0.4737 -0.9450
  625SOL    HW2 4769   9.512   6.111   8.521 -0.3300  0.2192  0.2444
  626SOL     OW 4770   5.970   6.516   4.879  0.2568 -0.5932 -0.0235
  626SOL    HW1 4771   5.946   6.460   4.806  0.5409  0.1896 -0.7327
  626SOL    HW2 4772   6.005   6.595   4.838 -1.0951  0.5432  0.9203
  627SOL     OW 4773   5.777   9.289   2.500 -0.0639  0.2359 -0.0304
  627SOL    HW1 4774   5.803   9.198   2.518 -0.1889  0.1171 -0.4559
  627SOL    HW2 4775   5.846   9.342   2.541 -0.5337 -0.0177  1.1514
  628SOL     OW 4776   2.899   1.408   4.248  0.1446 -0.0887  0.0236
  628SOL    HW1 4777   2.869   1.332   4.198  0.2967 -0.1471  0.0211
  628SOL    HW2 4778   2.821   1.438   4.295 -0.0426  0.0809 -0.3919
  629SOL     OW 4779   1.864   5.269   6.010  0.2789  0.8833  0.4294
  629SOL    HW1 4780   1.778   5.232   6.031  1.0123 -0.1913  1.6425
  629SOL    HW2 4781   1.845   5.334   5.942 -1.0601 -1.9888 -2.2123
  630SOL     OW 4782   6.091   7.199   6.642  0.1423  0.5292 -0.1451
  630SOL    HW1 4783   6.010   7.158   6.671 -0.1002  0.8925 -0.3040
  630SOL    HW2 4784   6.160   7.137   6.668 -0.3520 -1.0508 -2.3196
  631SOL     OW 4785   1.694   2.548   6.211  0.4853  0.1723  0.1707
  631SOL    HW1 4786   1.741   2.480   6.161  1.0355  0.7859 -0.1673
  631SOL    HW2 4787   1.621   2.501   6.252  0.5205 -0.5164 -0.5170
  632SOL     OW 4788   6.812   1.525   0.843 -0.4938  0.0222  0.6982
  632SOL    HW1 4789   6.782   1.513   0.753 -0.9367 -0.9843  0.9721
  632SOL    HW2 4790   6.889   1.470   0.851 -0.5701 -0.0445  0.9861
  633SOL     OW 4791   6.791   5.379  10.083 -0.4125 -0.2859 -0.2183
  633SOL    HW1 4792   6.764   5.385  10.175 -2.5928  1.0310 -0.8575
  633SOL    HW2 4793   6.732   5.314  10.045  0.2582 -0.5904 -0.7659
  634SOL     OW 4794   9.503   6.918   9.152 -0.3380 -0.2251  0.0015
  634SOL    HW1 4795   9.461   6.975   9.087 -0.1089 -1.0128 -0.8546
  634SOL    HW2 4796   9.595   6.945   9.150 -0.3718 -0.0956  0.1689
  635SOL     OW 4797   2.298   7.315   1.670  0.6283 -0.4943 -0.0357
  635SOL    HW1 4798   2.359   7.368   1.721 -0.3538 -0.5376  1.2484
  635SOL    HW2 4799   2.340   7.304   1.585  0.7080  2.6614 -0.5274
  636SOL     OW 4800   7.639   2.469   0.936 -0.3650 -0.0924 -0.0962
  636SOL    HW1 4801   7.611   2.383   0.967 -1.5254 -0.2929 -1.5438
  636SOL    HW2 4802   7.720   2.452   0.887 -0.1859 -0.2441  0.2556
  637SOL     OW 4803  10.447   0.554   8.499  0.3688  0.3395 -0.0785
  637SOL    HW1 4804  10.507   0.514   8.435  0.4006  0.6229 -0.2230
  637SOL    HW2 4805  10.441   0.646   8.474 -2.3468 -0.1883 -1.8335
  638SOL     OW 4806   3.833  10.133   0.374  0.4548  0.2350 -0.3191
  638SOL    HW1 4807   3.828  10.124   0.469 -0.4962 -0.9679 -0.4637
  638SOL    HW2 4808   3.759  10.083   0.341  0.2382  1.3943 -1.6742
  639SOL     OW 4809   4.895  10.165   1.668  0.2524  0.5826 -0.8177
  639SOL    HW1 4810   4.939  10.207   1.594  0.3898  0.1313 -0.9958
  639SOL    HW2 4811   4.816  10.127   1.629 -2.3235  4.4380  0.0622
  640SOL     OW 4812   8.694   9.983   0.460  0.2102  0.1463 -0.5915
  640SOL    HW1 4813   8.762   9.919   0.439  0.5498  0.0440  0.7457
  640SOL    HW2 4814   8.633   9.979   0.385  0.1780 -1.7856 -0.5140
  641SOL     OW 4815   4.837   6.543   5.161 -0.5181  0.4875 -0.4210
  641SOL    HW1 4816   4.781   6.585   5.096  0.0653  3.0275  0.5747
  641SOL    HW2 4817   4.899   6.611   5.187  1.3751 -1.4383  0.4133
  642SOL     OW 4818   2.910   6.171   0.523  0.3886 -0.1652  0.3817
  642SOL    HW1 4819   2.881   6.248   0.474  0.8616 -0.2280 -0.0009
  642SOL    HW2 4820   2.830   6.136   0.562  0.1066  0.2639  0.1943
  643SOL     OW 4821   4.418   0.097   7.141  0.2411  0.1467  0.1240
  643SOL    HW1 4822   4.395   0.154   7.216  0.2874 -0.4070  0.5646
  643SOL    HW2 4823   4.378   0.013   7.163 -1.5985  0.5203 -1.4689
  644SOL     OW 4824   7.114   8.946   6.979  0.2542 -0.7396 -0.5379
  644SOL    HW1 4825   7.046   8.901   6.929 -0.1112  1.4433 -2.1491
  644SOL    HW2 4826   7.191   8.889   6.972  0.3112 -0.4276 -3.9179
  645SOL     OW 4827   3.403   9.810  10.173  0.1881 -0.6950  0.0652
  645SOL    HW1 4828   3.346   9.831  10.099  0.7008 -1.3513 -0.5225
  645SOL    HW2 4829   3.457   9.888  10.184  0.3626 -0.7334 -0.4926
  646SOL     OW 4830  10.525   8.259   3.751  0.4384  0.3923  0.3873
  646SOL    HW1 4831  10.599   8.256   3.692  1.0540 -0.5926  1.1597
  646SOL    HW2 4832  10.564   8.252   3.839 -0.5957 -2.6333  0.7516
  647SOL     OW 4833   6.126   3.131   3.873 -0.4359  0.2773 -0.1764
  647SOL    HW1 4834   6.111   3.116   3.966  0.0637 -1.5754 -0.3557
  647SOL    HW2 4835   6.089   3.054   3.830  1.4383 -0.0616 -1.3051
  648SOL     OW 4836   5.352   0.745   6.734  0.0234 -0.4253 -0.3629
  648SOL    HW1 4837   5.416   0.675   6.742 -1.0685 -1.4112  0.0735
  648SOL    HW2 4838   5.320   0.759   6.823  1.0208  1.4399 -0.2492
  649SOL     OW 4839   2.712   9.032   9.789  0.3930 -0.0849 -0.0766
  649SOL    HW1 4840   2.782   9.090   9.759 -0.0205  0.9313  0.8552
  649SOL    HW2 4841   2.735   9.010   9.879 -0.9139  1.0172  0.5693
  650SOL     OW 4842   3.488  10.188   3.990  0.6538 -0.5777 -0.1563
  650SOL    HW1 4843   3.433  10.120   3.951  1.1113 -0.6078 -0.7558
  650SOL    HW2 4844   3.432  10.227   4.058  0.2901 -1.3515  0.0026
  651SOL     OW 4845   8.160   4.430   9.841 -0.3642 -0.5741  0.2672
  651SOL    HW1 4846   8.175   4.424   9.747  0.5251 -0.5150  0.3907
  651SOL    HW2 4847   8.066   4.419   9.852 -0.4227 -0.9666 -0.5945
  652SOL     OW 4848   3.513   6.053   9.318  0.8149 -0.4502 -0.3615
  652SOL    HW1 4849   3.474   6.134   9.285 -1.0001 -1.1270  0.0450
  652SOL    HW2 4850   3.440   5.993   9.328  2.2860 -2.6326 -1.9157
  653SOL     OW 4851   6.688   6.527   0.629 -0.1540  0.4116  0.3200
  653SOL    HW1 4852   6.719   6.593   0.691 -0.7590  0.4203  0.6174
  653SOL    HW2 4853   6.595   6.545   0.620 -0.5461 -1.0479  1.1957
  654SOL     OW 4854   0.642   6.016   9.699 -0.3971 -0.0115 -0.1203
  654SOL    HW1 4855   0.701   6.021   9.774 -0.8598  0.5235  0.2240
  654SOL    HW2 4856   0.591   6.097   9.705 -0.9180 -0.3032 -0.6135
  655SOL     OW 4857   0.431   3.451   1.312  0.5505  0.2512 -0.2178
  655SOL    HW1 4858   0.493   3.503   1.363  1.2710 -0.9217  0.1449
  655SOL    HW2 4859   0.364   3.424   1.375  1.4136 -1.1553  0.1364
  656SOL     OW 4860   7.770   6.796   8.009 -0.2639 -0.1103  0.6997
  656SOL    HW1 4861   7.776   6.711   8.052  3.9192 -0.3245  0.1585
  656SOL    HW2 4862   7.813   6.856   8.069  0.6267  0.7147 -0.6979
  657SOL     OW 4863   2.798   8.779   9.288  0.2107 -0.4545  0.2750
  657SOL    HW1 4864   2.862   8.850   9.289 -0.5056  0.2419 -0.7069
  657SOL    HW2 4865   2.763   8.780   9.199 -2.5720  0.4819  1.2777
  658SOL     OW 4866   1.849   6.356   4.720  0.3216  0.0547  0.1120
  658SOL    HW1 4867   1.770   6.405   4.699 -1.4759 -2.3143  0.9811
  658SOL    HW2 4868   1.846   6.342   4.814  2.7563  1.3876  0.4893
  659SOL     OW 4869   1.348   2.641   2.472  0.1014 -0.0490  1.1098
  659SOL    HW1 4870   1.410   2.568   2.480 -0.4751 -1.1424 -2.5270
  659SOL    HW2 4871   1.385   2.697   2.404 -1.0802  1.3044  1.5372
  660SOL     OW 4872   4.380   0.431   6.634 -0.5011 -0.3314  0.0993
  660SOL    HW1 4873   4.415   0.344   6.651  0.0670 -0.4330 -1.4305
  660SOL    HW2 4874   4.338   0.424   6.549 -0.7064  0.8224  0.0917
  661SOL     OW 4875   4.974   0.811  10.065  0.2071 -0.4072  0.3862
  661SOL    HW1 4876   4.879   0.816  10.051  0.2263  0.6445  0.5882
  661SOL    HW2 4877   5.004   0.749   9.999 -0.9195 -2.5902  1.7876
  662SOL     OW 4878   2.122   5.998   1.117  1.1497  0.1005  0.1872
  662SOL    HW1 4879   2.197   6.057   1.123 -0.5598  2.5652 -1.1769
  662SOL    HW2 4880   2.066   6.022   1.191  0.0582  0.7946 -0.8391
  663SOL     OW 4881   9.937   5.618   0.826 -0.3578 -0.2002  0.3872
  663SOL    HW1 4882   9.929   5.708   0.792  0.4984 -0.2458  0.0418
  663SOL    HW2 4883   9.955   5.630   0.919  1.6800  0.0836  0.0173
  664SOL     OW 4884   5.642   1.741  10.360  0.4270 -0.8098  0.1168
  664SOL    HW1 4885   5.556   1.698  10.353  0.3276 -0.4487 -1.1235
  664SOL    HW2 4886   5.624   1.833  10.342  1.1692 -0.8353 -0.8303
  665SOL     OW 4887   3.400   1.652   9.508  0.0449  0.2814 -0.3880
  665SOL    HW1 4888   3.463   1.585   9.484 -2.3434 -1.3269 -2.7935
  665SOL    HW2 4889   3.387   1.703   9.428 -1.3644  0.8058  0.1362
  666SOL     OW 4890   1.815   3.304   1.328  0.3466  0.7759 -0.3400
  666SOL    HW1 4891   1.888   3.243   1.333  0.5824  1.1265  2.1869
  666SOL    HW2 4892   1.856   3.391   1.333 -0.1668  0.9755  1.0131
  667SOL     OW 4893   1.672   6.900   2.343  0.0436 -0.3750 -0.3449
  667SOL    HW1 4894   1.582   6.933   2.349  0.4490  0.8409 -0.5955
  667SOL    HW2 4895   1.695   6.913   2.251  1.0258  0.8826  0.0523
  668SOL     OW 4896   7.426   9.740   5.718 -0.2369 -0.5179  0.2903
  668SOL    HW1 4897   7.347   9.733   5.771  0.1243  0.4186  0.9794
  668SOL    HW2 4898   7.419   9.668   5.654 -1.5689 -0.5227  0.4155
  669SOL     OW 4899  10.653   7.447   9.320 -0.0449  0.1496 -0.4942
  669SOL    HW1 4900  10.635   7.425   9.228 -1.4301 -0.8409 -0.0163
  669SOL    HW2 4901  10.698   7.531   9.316  0.1285  0.0179 -2.0931
  670SOL     OW 4902  10.516   0.184   9.388  0.1592  0.1435  0.5195
  670SOL    HW1 4903  10.535   0.270   9.350  0.8038 -0.2149  0.0109
  670SOL    HW2 4904  10.594   0.132   9.370 -0.1933 -0.5297  0.8933
  671SOL     OW 4905   5.326   0.249  10.142 -0.0030 -0.2243  0.5704
  671SOL    HW1 4906   5.315   0.223  10.234  0.4565 -0.2481  0.6248
  671SOL    HW2 4907   5.241   0.234  10.102 -1.0981  2.3895  1.6285
  672SOL     OW 4908   8.850   7.738   3.425  0.2576  0.3275 -0.1522
  672SOL    HW1 4909   8.825   7.789   3.348  0.6819 -0.5092 -0.8515
  672SOL    HW2 4910   8.934   7.698   3.402  1.1692  1.2637  1.3122
  673SOL     OW 4911   9.645   7.313   2.940  0.2464 -0.5475 -0.9791
  673SOL    HW1 4912   9.658   7.223   2.969 -2.1378 -0.4098  0.7486
  673SOL    HW2 4913   9.701   7.366   2.997 -0.2779 -0.7386 -0.2830
  674SOL     OW 4914   2.335   7.017   1.490  0.0424 -0.9732 -0.5422
  674SOL    HW1 4915   2.254   7.038   1.445  0.6610  0.9038 -0.8834
  674SOL    HW2 4916   2.395   7.087   1.465  1.5877 -1.9898  0.1704
  675SOL     OW 4917   9.244   3.489   4.427  0.1292  0.1740  0.1716
  675SOL    HW1 4918   9.248   3.554   4.357  1.6400 -0.1405 -0.0676
  675SOL    HW2 4919   9.161   3.507   4.471 -0.2173  1.2482 -0.8550
  676SOL     OW 4920   1.847   6.388   9.330 -0.1587  0.1401 -0.0024
  676SOL    HW1 4921   1.918   6.324   9.319 -0.5119 -0.2963  0.2100
  676SOL    HW2 4922   1.772   6.347   9.288 -0.5876  0.0647  0.8213
  677SOL     OW 4923   1.335   6.541   1.207 -0.2024 -0.2896  0.9156
  677SOL    HW1 4924   1.267   6.544   1.274  0.6676 -1.1460  1.8654
  677SOL    HW2 4925   1.365   6.450   1.207  0.1651 -0.1884 -0.2949
  678SOL     OW 4926   5.178   2.185   4.167  0.8752 -0.7585 -0.5458
  678SOL    HW1 4927   5.242   2.227   4.110  3.3344 -1.5816  1.4602
  678SOL    HW2 4928   5.185   2.092   4.147  1.6211 -1.0324  0.9100
  679SOL     OW 4929   6.109   2.192   0.314 -0.0290 -0.7206  0.0551
  679SOL    HW1 4930   6.019   2.164   0.296 -0.4727  0.8241 -0.2736
  679SOL    HW2 4931   6.130   2.154   0.399 -0.3346 -2.5786 -0.6603
  680SOL     OW 4932  10.292   0.132   2.555 -0.5679 -0.6082 -0.5520
  680SOL    HW1 4933  10.359   0.064   2.564  2.4627  2.0072 -1.5432
  680SOL    HW2 4934  10.271   0.157   2.645  1.3913 -0.1152 -0.1854
  681SOL     OW 4935   5.263  10.754   3.605  0.3947 -0.2386  0.0767
  681SOL    HW1 4936   5.236  10.689   3.540  0.9285  1.0505 -1.4937
  681SOL    HW2 4937   5.345  10.719   3.640  0.9651 -0.1679 -1.1450
  682SOL     OW 4938   8.771   8.422   6.050 -0.2011 -0.4804  0.1731
  682SOL    HW1 4939   8.763   8.351   6.113 -0.1375  0.1119  0.8671
  682SOL    HW2 4940   8.853   8.466   6.074 -0.1677 -0.2607 -0.3336
  683SOL     OW 4941   7.348   3.980   1.747  0.4475  0.2342 -0.2185
  683SOL    HW1 4942   7.368   3.996   1.839  0.2718 -0.1650 -0.1070
  683SOL    HW2 4943   7.277   4.041   1.727 -2.6543 -2.5977  1.1533
  684SOL     OW 4944   2.968  10.479   1.578 -0.3595 -0.3329  0.3926
  684SOL    HW1 4945   3.016  10.561   1.589  1.7241 -1.0437 -2.3797
  684SOL    HW2 4946   2.886  10.504   1.536 -0.1783  0.4053  0.4706
  685SOL     OW 4947   2.335   7.552   3.876  0.3870  0.0083 -0.5396
  685SOL    HW1 4948   2.269   7.607   3.834 -0.2517  0.2855  0.7804
  685SOL    HW2 4949   2.417   7.578   3.835 -0.4098 -1.1625 -3.0712
  686SOL     OW 4950   7.674   9.639   8.879 -0.2767  0.8245  0.3344
  686SOL    HW1 4951   7.653   9.730   8.903  0.2695  0.8729  0.6377
  686SOL    HW2 4952   7.692   9.596   8.963  0.1488  0.6121  0.1361
  687SOL     OW 4953   3.019   4.334   9.708  0.5726  0.0003 -0.3356
  687SOL    HW1 4954   2.944   4.393   9.705  0.9149  0.4781  0.3095
  687SOL    HW2 4955   3.028   4.303   9.618 -1.2397 -1.1480 -0.1867
  688SOL     OW 4956   6.230   9.657   8.352  0.0526  0.1387 -0.0129
  688SOL    HW1 4957   6.279   9.576   8.366 -0.4142 -0.0971  0.2955
  688SOL    HW2 4958   6.272   9.721   8.409 -0.4468 -0.2498  0.8229
  689SOL     OW 4959   6.243   2.747   6.713 -0.3035  0.1632  0.1308
  689SOL    HW1 4960   6.209   2.746   6.803  0.7209 -0.4983  0.5206
  689SOL    HW2 4961   6.312   2.813   6.715  0.9032 -1.0701  0.2918
  690SOL     OW 4962   9.695   4.368   7.998 -0.6549  0.2255 -0.4359
  690SOL    HW1 4963   9.778   4.329   8.026 -0.3213  0.0808 -1.5995
  690SOL    HW2 4964   9.631   4.336   8.061 -0.5512 -2.8023 -1.7089
  691SOL     OW 4965   6.671   2.151   0.465  0.1389  0.4454  0.2719
  691SOL    HW1 4966   6.651   2.062   0.495  0.4516  0.3519  0.2055
  691SOL    HW2 4967   6.603   2.171   0.401  0.6910 -0.1587 -0.5219
  692SOL     OW 4968   9.184   7.169   3.977  0.2697  0.2365 -0.3398
  692SOL    HW1 4969   9.219   7.210   4.057  0.4465  0.4400 -0.5205
  692SOL    HW2 4970   9.203   7.076   3.987 -0.4997  0.1322  0.2642
  693SOL     OW 4971   9.181   8.696   9.107  0.3445 -0.2630 -0.0508
  693SOL    HW1 4972   9.263   8.745   9.096 -0.3400  0.9957  0.3731
  693SOL    HW2 4973   9.142   8.730   9.187 -0.9433 -0.3393 -0.6163
  694SOL     OW 4974   1.699   5.364   6.611  0.1398 -0.0886 -0.0420
  694SOL    HW1 4975   1.692   5.286   6.555 -2.0296  0.0412 -0.0346
  694SOL    HW2 4976   1.632   5.352   6.678  0.4529  1.3305  0.5705
  695SOL     OW 4977   3.044   2.299   7.089 -0.3598 -0.6673  0.4207
  695SOL    HW1 4978   3.133   2.264   7.092  0.1211  0.1374 -2.2559
  695SOL    HW2 4979   3.054   2.391   7.112 -0.5762 -0.6818  0.5769
  696SOL     OW 4980   8.538   9.290   2.900  0.0745  0.0920 -0.0982
  696SOL    HW1 4981   8.539   9.250   2.987  2.4166 -0.5389 -0.3531
  696SOL    HW2 4982   8.630   9.308   2.880 -0.4310  0.5378 -2.3019
  697SOL     OW 4983   1.595   8.537   8.562 -0.6071 -0.1398 -0.4221
  697SOL    HW1 4984   1.684   8.575   8.561 -0.4394 -0.5291 -0.5282
  697SOL    HW2 4985   1.559   8.562   8.647  0.3632 -1.7036  0.5097
  698SOL     OW 4986   1.598   3.873   7.138  0.3356 -0.1297  0.2967
  698SOL    HW1 4987   1.627   3.791   7.179 -0.3919 -0.6284 -0.1733
  698SOL    HW2 4988   1.677   3.905   7.094  0.4875 -0.8781  0.0003
  699SOL     OW 4989   7.209   7.997   4.519 -0.0968  0.1191 -0.3946
  699SOL    HW1 4990   7.169   8.056   4.583  0.9232  1.1025 -0.6375
  699SOL    HW2 4991   7.142   7.986   4.452 -1.8083 -2.1533  1.4892
  700SOL     OW 4992  10.407  10.238   0.831 -0.3763 -0.5063  0.3988
  700SOL    HW1 4993  10.341  10.273   0.772  0.3371 -0.0977 -0.1878
  700SOL    HW2 4994  10.470  10.194   0.773  0.4110  0.0265  0.8290
  701SOL     OW 4995   5.729   5.934   2.046  0.2381  0.1131  0.2666
  701SOL    HW1 4996   5.756   5.842   2.047  0.3876  0.1584  0.5662
  701SOL    HW2 4997   5.664   5.939   1.976  0.7203 -0.0807 -0.2004
  702SOL     OW 4998   3.397  10.225   5.813  0.0406  0.4561  0.0783
  702SOL    HW1 4999   3.435  10.139   5.794 -1.1762  0.3528 -2.3614
  702SOL    HW2 5000   3.464  10.271   5.863  0.6521 -1.9275  1.6009
  703SOL     OW 5001   9.907   5.507   7.766 -0.3625  0.2350  0.4973
  703SOL    HW1 5002   9.994   5.478   7.737 -0.6078 -1.1321  1.0399
  703SOL    HW2 5003   9.915   5.601   7.779 -0.2485  1.1340 -4.2016
  704SOL     OW 5004  10.330   6.641   7.272 -0.2056  0.4248  0.0665
  704SOL    HW1 5005  10.300   6.732   7.281  1.1337  0.9271 -0.3437
  704SOL    HW2 5006  10.391   6.629   7.344  2.0291  0.9037 -1.6350
  705SOL     OW 5007   7.815   8.852   6.201  0.5642 -0.1209  0.3590
  705SOL    HW1 5008   7.750   8.823   6.138  1.1016 -0.7578  0.0913
  705SOL    HW2 5009   7.895   8.804   6.178  1.2293  0.8864  0.4717
  706SOL     OW 5010   5.664   2.083   3.485 -0.7231 -0.5846 -0.5860
  706SOL    HW1 5011   5.726   2.109   3.417  0.4109  1.0608  0.9669
  706SOL    HW2 5012   5.658   1.988   3.478  0.7242 -0.6171 -1.8164
  707SOL     OW 5013   0.303   6.707   6.062 -0.3566 -0.2356 -0.7821
  707SOL    HW1 5014   0.360   6.723   6.136 -2.3554 -0.0756  0.8180
  707SOL    HW2 5015   0.299   6.790   6.015 -1.1865  0.5149  0.5401
  708SOL     OW 5016   6.919   4.087   7.138  0.2403 -0.4581  0.0679
  708SOL    HW1 5017   6.967   4.037   7.073  0.1088 -2.1002  1.1652
  708SOL    HW2 5018   6.842   4.120   7.091  0.6590 -0.7524 -0.8493
  709SOL     OW 5019   2.545  10.274   7.242 -0.0340 -0.3028  0.0387
  709SOL    HW1 5020   2.629  10.227   7.235  0.7790  0.9589  0.7753
  709SOL    HW2 5021   2.497  10.226   7.310  0.0638 -1.0594 -0.4098
  710SOL     OW 5022  10.750   6.064   6.138 -0.0909 -0.0081 -0.5591
  710SOL    HW1 5023  10.845   6.056   6.149  0.1665  0.7505 -1.8876
  710SOL    HW2 5024  10.722   6.116   6.213  1.2271  3.3078 -2.1314
  711SOL     OW 5025   8.557  10.330   6.331  0.3466  0.7332  0.1795
  711SOL    HW1 5026   8.562  10.386   6.408 -0.2399  2.1940 -0.7827
  711SOL    HW2 5027   8.463  10.316   6.317  0.4356  0.5941 -0.3159
  712SOL     OW 5028   8.804   2.304   2.070  0.0907 -0.5983 -0.3849
  712SOL    HW1 5029   8.896   2.285   2.089 -0.2126 -2.9611 -0.9037
  712SOL    HW2 5030   8.787   2.257   1.989 -2.2263 -2.4905  1.0914
  713SOL     OW 5031  10.272   2.255   9.713 -0.2791 -0.2022  0.3675
  713SOL    HW1 5032  10.178   2.248   9.694 -0.2665 -2.9875  0.8338
  713SOL    HW2 5033  10.313   2.261   9.627 -0.7473 -3.2834 -0.2137
  714SOL     OW 5034   0.254   4.392   6.894 -0.3632  0.0393  0.4511
  714SOL    HW1 5035   0.181   4.330   6.885  0.8179 -1.3471 -0.0662
  714SOL    HW2 5036   0.329   4.346   6.855  1.2451  0.5968  2.7021
  715SOL     OW 5037   0.375   8.503   7.591 -0.1417  0.1731 -0.6337
  715SOL    HW1 5038   0.365   8.417   7.633 -2.4347  1.1024  0.9038
  715SOL    HW2 5039   0.449   8.543   7.635  0.4406 -0.6838 -0.8062
  716SOL     OW 5040   8.110   7.929   8.354  0.4600  0.4254 -0.6152
  716SOL    HW1 5041   8.144   7.972   8.275 -0.0812 -1.1817 -1.7974
  716SOL    HW2 5042   8.105   7.836   8.330 -0.5642  0.0102  1.0260
  717SOL     OW 5043   3.283   6.731   6.739 -0.0525 -0.2468 -0.1571
  717SOL    HW1 5044   3.369   6.772   6.735  0.0066 -0.1712  1.3579
  717SOL    HW2 5045   3.235   6.781   6.805 -0.0481 -2.4022  1.6002
  718SOL     OW 5046   9.041   4.991   6.805  0.5179  0.4254  0.1782
  718SOL    HW1 5047   9.088   5.075   6.804  1.0962  0.1077 -0.3308
  718SOL    HW2 5048   8.994   4.988   6.722 -0.8369  0.9657  0.9053
  719SOL     OW 5049   9.346   6.928   6.848  0.0535 -0.4707  0.4755
  719SOL    HW1 5050   9.283   6.885   6.790 -1.3497  1.5190  0.3993
  719SOL    HW2 5051   9.301   6.932   6.933  0.5777 -0.0854  0.7386
  720SOL     OW 5052   8.926   7.745   9.625  0.4947  0.5668  0.1237
  720SOL    HW1 5053   9.010   7.732   9.669  0.1456  2.0067  1.2945
  720SOL    HW2 5054   8.950   7.767   9.535  1.4116  1.4523  0.5568
  721SOL     OW 5055   9.268   8.074   0.417 -0.0066  0.0389 -0.1714
  721SOL    HW1 5056   9.264   8.072   0.513  0.5248  0.2927 -0.1416
  721SOL    HW2 5057   9.358   8.102   0.397  0.1940 -0.9886 -0.7532
  722SOL     OW 5058   8.632   2.959   5.544 -0.1674 -0.9965 -0.0572
  722SOL    HW1 5059   8.599   2.979   5.631  1.3824  1.3031  0.0864
  722SOL    HW2 5060   8.555   2.926   5.496 -1.5383 -0.2332  1.5253
  723SOL     OW 5061  10.071   7.452   5.956 -0.0476 -0.4765  0.5116
  723SOL    HW1 5062  10.146   7.393   5.957 -0.5501 -1.1158  1.0173
  723SOL    HW2 5063  10.101   7.530   6.002 -0.0997 -1.2587  1.9190
  724SOL     OW 5064   7.921   0.299   9.251 -0.2108  0.2895 -0.3245
  724SOL    HW1 5065   7.906   0.360   9.178 -1.0888  0.8035  0.2687
  724SOL    HW2 5066   7.835   0.286   9.290  0.1857 -0.2876  0.3904
  725SOL     OW 5067   2.484   9.623  10.159 -0.1354 -0.0157  0.4479
  725SOL    HW1 5068   2.556   9.561  10.177 -1.4162 -1.9915 -0.8545
  725SOL    HW2 5069   2.408   9.584  10.202 -1.3522 -0.3157 -1.8437
  726SOL     OW 5070   8.091   5.115   0.136  0.0533 -0.1767 -0.1228
  726SOL    HW1 5071   8.145   5.192   0.118 -1.0911  0.3608 -1.4626
  726SOL    HW2 5072   8.131   5.045   0.084 -0.0821  0.0236 -0.4996
  727SOL     OW 5073  10.686   7.890   6.429 -0.7172  0.3486 -0.6220
  727SOL    HW1 5074  10.748   7.952   6.468  1.7288 -1.3382 -1.5582
  727SOL    HW2 5075  10.677   7.821   6.495 -0.4941 -0.0994 -1.0580
  728SOL     OW 5076   6.857   1.142   9.266  0.2018  0.4682 -0.5934
  728SOL    HW1 5077   6.770   1.118   9.299 -0.2440  1.5687 -0.9122
  728SOL    HW2 5078   6.870   1.232   9.295  2.3099 -0.4372  1.5441
  729SOL     OW 5079   0.945   7.590   9.384 -0.0956  0.1649 -0.0585
  729SOL    HW1 5080   0.989   7.656   9.331  1.7377 -1.7641 -1.0353
  729SOL    HW2 5081   0.910   7.640   9.459  2.0278  2.0961 -0.2419
  730SOL     OW 5082   8.888   7.541   9.068  0.1465 -0.1557  0.3262
  730SOL    HW1 5083   8.830   7.602   9.024  0.8589  0.0496 -0.3488
  730SOL    HW2 5084   8.962   7.531   9.008  0.9150 -0.2245  1.2680
  731SOL     OW 5085   3.891   2.985   1.580  0.7121  0.5851 -0.3088
  731SOL    HW1 5086   3.796   2.995   1.578  0.8017  1.4274 -1.7006
  731SOL    HW2 5087   3.917   3.019   1.665 -0.3222 -0.8006  0.6137
  732SOL     OW 5088   4.013   2.061   8.715  0.0683  0.4564  0.1182
  732SOL    HW1 5089   3.926   2.049   8.677  0.3174 -2.2437  0.2263
  732SOL    HW2 5090   4.008   2.020   8.801  1.9639 -1.6907 -0.6961
  733SOL     OW 5091   5.107   4.095  10.789  0.2439 -0.1095 -0.2867
  733SOL    HW1 5092   5.059   4.124  10.710  0.5940  1.0562 -0.0904
  733SOL    HW2 5093   5.125   4.176  10.836 -1.6527 -0.9144  2.0008
  734SOL     OW 5094   5.601   9.872  10.022 -0.3455  0.3326  0.0598
  734SOL    HW1 5095   5.541   9.812  10.067 -1.0108 -0.6092 -1.9400
  734SOL    HW2 5096   5.680   9.872  10.076 -1.2480 -0.3654  1.4343
  735SOL     OW 5097   1.874   3.914   5.916  0.3324  0.1297 -0.0597
  735SOL    HW1 5098   1.849   3.980   5.980 -1.5203  0.1018 -0.7183
  735SOL    HW2 5099   1.969   3.923   5.908  0.3756  1.2528  1.4348
  736SOL     OW 5100   1.563  10.257   5.542  0.0426 -0.2545 -0.3504
  736SOL    HW1 5101   1.651  10.257   5.505  0.8454  0.9502  1.4036
  736SOL    HW2 5102   1.510  10.304   5.478  0.8196 -0.3889 -1.1171
  737SOL     OW 5103   9.858   6.726   3.367  0.5351 -0.4288 -0.3551
  737SOL    HW1 5104   9.929   6.790   3.376 -1.1421  1.3617  0.7965
  737SOL    HW2 5105   9.896   6.644   3.400  2.2300  0.3406 -0.2888
  738SOL     OW 5106   8.727  10.768   6.448  0.2866  0.4267  0.1633
  738SOL    HW1 5107   8.779  10.766   6.528 -0.8748  0.5002  0.9431
  738SOL    HW2 5108   8.730  10.860   6.420  1.1574  0.2951 -0.2093
  739SOL     OW 5109   9.592  10.591   9.517 -0.0537 -0.1273 -0.2242
  739SOL    HW1 5110   9.642  10.550   9.588 -0.4208 -0.3221 -0.0735
  739SOL    HW2 5111   9.621  10.682   9.515  0.7293 -0.3735 -0.5168
  740SOL     OW 5112   1.957   0.076   8.446 -0.1697 -0.4897  0.0846
  740SOL    HW1 5113   1.960   0.135   8.370 -2.3455 -2.2352 -1.5127
  740SOL    HW2 5114   2.048   0.047   8.457  0.2073 -0.3487 -2.0542
  741SOL     OW 5115   0.719   8.093   3.575 -0.1964  0.4551 -0.3628
  741SOL    HW1 5116   0.670   8.173   3.592  0.0509  0.2421  1.6685
  741SOL    HW2 5117   0.810   8.117   3.593 -0.1023 -0.2188  0.0978
  742SOL     OW 5118   4.617   2.114   1.487 -0.0036  0.6407  0.0758
  742SOL    HW1 5119   4.570   2.074   1.561 -0.0405  0.7990  0.1397
  742SOL    HW2 5120   4.569   2.196   1.471  0.0709  0.6581 -0.0536
  743SOL     OW 5121   6.736   4.266   7.321 -0.4920  0.2793  0.2501
  743SOL    HW1 5122   6.702   4.299   7.238 -2.2540 -1.0626  0.3830
  743SOL    HW2 5123   6.672   4.296   7.386  0.9356  1.4418  1.2022
  744SOL     OW 5124   8.972   9.260   4.991 -0.2541 -0.1072 -0.1913
  744SOL    HW1 5125   9.027   9.338   4.986 -0.4539  0.1747  1.3922
  744SOL    HW2 5126   8.956   9.248   5.085 -1.1080 -1.4405 -0.4759
  745SOL     OW 5127   6.635   7.375   6.438 -0.0826 -0.3063  0.2712
  745SOL    HW1 5128   6.659   7.462   6.470 -0.3091 -0.0588 -0.2197
  745SOL    HW2 5129   6.691   7.361   6.362 -3.7584  1.8354 -3.2214
  746SOL     OW 5130   2.729   0.834   4.394 -0.4165 -0.0797 -0.0357
  746SOL    HW1 5131   2.768   0.831   4.307 -0.4638  1.9468 -0.1938
  746SOL    HW2 5132   2.793   0.793   4.452 -1.1482 -3.0873 -1.2159
  747SOL     OW 5133   9.911   3.915   9.409 -0.2458  0.6719 -0.3753
  747SOL    HW1 5134   9.861   3.847   9.455  0.3457  0.7991  0.4879
  747SOL    HW2 5135   9.845   3.969   9.366 -0.7805  0.1765 -0.1911
  748SOL     OW 5136   2.751   6.542   5.439  0.4383  0.1898  0.2442
  748SOL    HW1 5137   2.847   6.541   5.434  0.4719 -1.3506  0.6533
  748SOL    HW2 5138   2.730   6.623   5.487  1.5285  0.5122  0.1994
  749SOL     OW 5139   3.859   6.065   4.356 -0.4076 -0.6309  0.2557
  749SOL    HW1 5140   3.880   6.153   4.389  0.4903 -0.5902 -0.3812
  749SOL    HW2 5141   3.842   6.013   4.435  0.1038 -0.1481  0.6934
  750SOL     OW 5142   7.348   3.793   4.616 -0.8166 -0.5885  0.4508
  750SOL    HW1 5143   7.357   3.752   4.530 -0.0091  0.2071  0.1390
  750SOL    HW2 5144   7.405   3.741   4.673  2.0851  1.3710 -0.4324
  751SOL     OW 5145   1.543   1.016   0.264 -0.1008  0.2406  0.0877
  751SOL    HW1 5146   1.627   1.061   0.255  0.3747 -0.6094  0.2015
  751SOL    HW2 5147   1.555   0.957   0.339 -1.4689  1.5986  1.4532
  752SOL     OW 5148   6.165   8.830   5.064 -0.4664  0.0753 -0.4063
  752SOL    HW1 5149   6.084   8.803   5.107 -0.0158 -0.6826 -0.0021
  752SOL    HW2 5150   6.231   8.772   5.101  0.5169  1.5808  0.3135
  753SOL     OW 5151   1.930   2.388   2.660  0.5334  0.4148 -0.1845
  753SOL    HW1 5152   2.002   2.409   2.719  1.8030 -5.2279  0.9276
  753SOL    HW2 5153   1.853   2.387   2.716  0.8408  0.0104  0.2431
  754SOL     OW 5154   1.802   1.636   3.115 -0.3377  0.5040 -0.8255
  754SOL    HW1 5155   1.868   1.569   3.097 -1.1667  0.0474 -2.2977
  754SOL    HW2 5156   1.734   1.622   3.049 -2.1671  0.6564  0.9366
  755SOL     OW 5157   8.796   4.031   2.115  0.1056  0.2797  0.1838
  755SOL    HW1 5158   8.749   4.047   2.033 -1.6976  2.8722  1.5917
  755SOL    HW2 5159   8.888   4.031   2.090 -0.4003  0.8260 -1.8624
  756SOL     OW 5160   0.194   4.094   3.465  0.0182 -0.3704 -0.2854
  756SOL    HW1 5161   0.261   4.073   3.530  0.3501 -0.9069 -0.7925
  756SOL    HW2 5162   0.173   4.010   3.424 -0.7346 -0.1521 -0.3495
  757SOL     OW 5163   9.519   3.393   9.147  0.7987 -0.0182 -0.1975
  757SOL    HW1 5164   9.499   3.371   9.238  2.1245 -0.6494 -0.0206
  757SOL    HW2 5165   9.487   3.318   9.097  0.4046  0.1569 -0.2062
  758SOL     OW 5166   4.692   9.889   2.753  0.2582 -0.1856  0.5173
  758SOL    HW1 5167   4.703   9.804   2.711  2.0216  0.0852  0.3184
  758SOL    HW2 5168   4.599   9.895   2.773 -0.6548 -0.5271 -2.9543
  759SOL     OW 5169   3.156   8.307   8.870  0.2205 -0.2541  0.3165
  759SOL    HW1 5170   3.239   8.275   8.835  0.7124 -0.0678  1.2725
  759SOL    HW2 5171   3.102   8.324   8.793  0.5744 -1.6698 -0.2818
  760SOL     OW 5172   6.843   9.731   1.900 -0.3617 -0.2986 -0.3898
  760SOL    HW1 5173   6.873   9.719   1.990  1.5075 -1.4494 -1.0964
  760SOL    HW2 5174   6.750   9.711   1.902 -0.5888  0.7633  1.4670
  761SOL     OW 5175   0.469   0.681  10.580  1.0806 -0.0605  0.3628
  761SOL    HW1 5176   0.523   0.759  10.588  3.2832 -1.3772 -0.6594
  761SOL    HW2 5177   0.435   0.683  10.491  1.6622 -0.5598  0.1229
  762SOL     OW 5178   7.075   5.008   3.820  0.3211 -0.1382  0.3845
  762SOL    HW1 5179   7.082   4.957   3.901  1.3041  0.3227  0.6130
  762SOL    HW2 5180   7.036   5.091   3.846  0.6184  0.0027  0.3838
  763SOL     OW 5181  10.197   9.445   5.067  0.2927  0.4013 -0.4305
  763SOL    HW1 5182  10.161   9.370   5.020 -2.2209  1.7169 -0.7881
  763SOL    HW2 5183  10.132   9.514   5.056  2.4223  2.6320  0.0123
  764SOL     OW 5184   5.130   4.436   5.363  0.0052 -0.1971  0.5854
  764SOL    HW1 5185   5.188   4.447   5.288 -0.6894  1.6028  0.2795
  764SOL    HW2 5186   5.064   4.503   5.353 -1.3357 -1.2843  1.6999
  765SOL     OW 5187   0.358   4.278   8.618  0.0016  0.3775 -0.2115
  765SOL    HW1 5188   0.375   4.315   8.704  0.6775  0.4792 -0.3843
  765SOL    HW2 5189   0.393   4.342   8.557 -1.0824  0.6353 -0.5985
  766SOL     OW 5190   6.820   9.210   7.039 -0.2223 -0.0188 -0.1088
  766SOL    HW1 5191   6.798   9.178   7.127 -1.0025  0.5560 -0.0801
  766SOL    HW2 5192   6.915   9.206   7.035 -0.1420  0.4543  0.9602
  767SOL     OW 5193   1.566   4.293   3.814 -0.4631  0.1770 -0.0232
  767SOL    HW1 5194   1.537   4.202   3.807 -2.2390  0.7045 -0.0229
  767SOL    HW2 5195   1.644   4.298   3.760  0.1418 -1.5377  0.6428
  768SOL     OW 5196   4.328   7.224   6.327 -0.5115 -0.3128  0.3705
  768SOL    HW1 5197   4.304   7.237   6.235 -1.8238 -0.0986  0.7261
  768SOL    HW2 5198   4.245   7.224   6.374 -0.2627 -4.0859  1.1481
  769SOL     OW 5199   7.227   2.605   1.672  0.5156  0.3073  0.1726
  769SOL    HW1 5200   7.206   2.554   1.750  2.3125  0.1245  0.5832
  769SOL    HW2 5201   7.323   2.605   1.669  0.4988  0.0968 -2.1760
  770SOL     OW 5202   4.929   4.764   1.876 -0.0982  0.0376 -0.1249
  770SOL    HW1 5203   4.992   4.695   1.896  0.9801 -0.0367 -3.1821
  770SOL    HW2 5204   4.970   4.845   1.907 -0.2817 -0.4046  1.3118
  771SOL     OW 5205   0.157   5.485   4.527  0.2682 -0.2099  0.6517
  771SOL    HW1 5206   0.220   5.464   4.458 -1.2097 -1.7511 -0.3149
  771SOL    HW2 5207   0.072   5.477   4.484 -0.6766 -0.8134  2.5682
  772SOL     OW 5208   9.725   7.827  10.325 -0.1412 -0.7595 -0.3083
  772SOL    HW1 5209   9.818   7.846  10.332 -0.0832 -1.0635 -0.2306
  772SOL    HW2 5210   9.710   7.759  10.391 -0.8639  0.8886  1.2982
  773SOL     OW 5211   9.258   7.041   5.295  0.2165 -0.3212  0.1712
  773SOL    HW1 5212   9.219   7.000   5.372  0.2357 -3.0019 -1.1253
  773SOL    HW2 5213   9.186   7.089   5.254 -0.4962 -1.1750  0.4003
  774SOL     OW 5214   7.169   3.331  10.061 -0.8191 -0.4144 -0.2003
  774SOL    HW1 5215   7.077   3.331  10.090 -0.3656  1.9768  1.5253
  774SOL    HW2 5216   7.164   3.350   9.967 -2.0781  2.1785  0.3091
  775SOL     OW 5217   3.602   6.988  10.647 -0.1435 -0.4766 -0.1114
  775SOL    HW1 5218   3.696   6.992  10.664 -0.0202 -1.0071 -0.6267
  775SOL    HW2 5219   3.587   7.057  10.582  0.1326 -1.2588 -1.0322
  776SOL     OW 5220   9.695   9.079   0.657  0.4501  0.7805 -0.1489
  776SOL    HW1 5221   9.733   9.122   0.580  2.1394  0.1599  0.2956
  776SOL    HW2 5222   9.608   9.050   0.628  1.1558  0.2974 -1.9170
  777SOL     OW 5223   1.903   2.232   7.143  0.0219 -0.6670 -0.4468
  777SOL    HW1 5224   1.949   2.308   7.179  0.6579 -0.4769 -1.6215
  777SOL    HW2 5225   1.811   2.259   7.140  0.2794  0.1951 -1.1481
  778SOL     OW 5226   9.210   4.841   7.256  0.2501  0.8445  0.0243
  778SOL    HW1 5227   9.206   4.936   7.241 -0.1408  0.8923  0.3852
  778SOL    HW2 5228   9.252   4.806   7.178  0.7004  1.3481  0.0303
  779SOL     OW 5229   8.616   6.978   1.531  0.4817  0.8645  0.7698
  779SOL    HW1 5230   8.707   6.960   1.509  0.8492  1.8338  1.4119
  779SOL    HW2 5231   8.620   7.021   1.616 -0.4369  2.4526  0.0479
  780SOL     OW 5232   0.311   7.416   7.977 -0.3376  0.2856 -0.0282
  780SOL    HW1 5233   0.354   7.331   7.985 -1.3423 -0.4154 -1.5418
  780SOL    HW2 5234   0.224   7.395   7.941 -0.3159  2.0075 -1.1582
  781SOL     OW 5235   6.141   9.599  10.593  0.2205  0.1546 -0.1481
  781SOL    HW1 5236   6.069   9.644  10.636  0.1160  0.8139 -0.9765
  781SOL    HW2 5237   6.144   9.638  10.505  0.8260 -0.6965 -0.5179
  782SOL     OW 5238   4.684   6.546  10.135 -0.1514  0.6412 -0.6688
  782SOL    HW1 5239   4.640   6.591  10.063  1.1577 -0.2860 -2.0870
  782SOL    HW2 5240   4.776   6.547  10.113  0.0719 -1.6727 -0.1796
  783SOL     OW 5241   2.654  10.024   1.876 -0.0374  0.4163  0.0094
  783SOL    HW1 5242   2.707   9.979   1.942 -1.1602  0.9613  1.3444
  783SOL    HW2 5243   2.574  10.049   1.923 -0.8050  0.9743 -1.5333
  784SOL     OW 5244   7.230   0.519   8.092  0.9797  0.7765 -0.0866
  784SOL    HW1 5245   7.152   0.477   8.129  1.7431 -0.1055  0.5540
  784SOL    HW2 5246   7.230   0.607   8.129 -0.6674  1.4208 -1.4747
  785SOL     OW 5247   3.389   5.424   0.520  0.1242  0.3782 -0.2040
  785SOL    HW1 5248   3.402   5.430   0.425  0.0574 -0.0453 -0.2387
  785SOL    HW2 5249   3.441   5.348   0.547  1.2901  1.3109  0.3035
  786SOL     OW 5250   9.044  10.028   9.323  0.2450 -0.2502 -0.4481
  786SOL    HW1 5251   9.015  10.044   9.413  0.0010 -0.4593 -0.4880
  786SOL    HW2 5252   9.086  10.110   9.297  1.5523 -0.6326  0.3254
  787SOL     OW 5253   4.398   1.751   7.410 -0.3787  0.6089 -0.2012
  787SOL    HW1 5254   4.469   1.690   7.388  1.1386  1.3381  2.2325
  787SOL    HW2 5255   4.318   1.700   7.398  0.8147 -2.0245  1.8443
  788SOL     OW 5256   5.943   4.961   0.514 -0.5239  0.4456 -0.4687
  788SOL    HW1 5257   5.877   4.896   0.535  0.5601 -0.0110  1.7762
  788SOL    HW2 5258   6.026   4.913   0.520  0.2865  1.9444  1.0613
  789SOL     OW 5259   6.977   3.231   2.671  0.4762 -0.1643  0.5109
  789SOL    HW1 5260   6.937   3.312   2.703  0.7949 -0.4204  1.6028
  789SOL    HW2 5261   6.905   3.168   2.669  0.6529 -0.4550  1.8773
  790SOL     OW 5262   8.172   9.166   2.142  0.1263 -0.6618  0.1101
  790SOL    HW1 5263   8.080   9.147   2.163  0.1613 -0.2887  0.6197
  790SOL    HW2 5264   8.205   9.213   2.219  0.0320  1.5341 -1.1275
  791SOL     OW 5265   4.987   0.006   0.062 -0.1267  0.4276  0.0278
  791SOL    HW1 5266   5.041   0.083   0.045 -0.0376  0.5974  0.9890
  791SOL    HW2 5267   5.029  -0.037   0.137 -1.0226  0.2870  0.4727
  792SOL     OW 5268  10.612   0.072  10.656 -0.8093 -0.2031  0.2395
  792SOL    HW1 5269  10.559  -0.008  10.660 -1.4482  0.2501  1.3992
  792SOL    HW2 5270  10.602   0.111  10.743 -0.9597  1.4293 -0.4822
  793SOL     OW 5271   2.209   0.050   8.678  0.2338 -0.3165  1.1842
  793SOL    HW1 5272   2.272   0.122   8.672 -0.0780 -0.1292 -0.1046
  793SOL    HW2 5273   2.245  -0.018   8.622 -1.5146  0.4564 -1.0389
  794SOL     OW 5274   3.648   4.728   7.847 -0.6855 -0.3284 -0.2557
  794SOL    HW1 5275   3.576   4.677   7.810  1.5521 -2.8332 -1.4727
  794SOL    HW2 5276   3.679   4.782   7.775 -0.7005 -0.0327 -0.0401
  795SOL     OW 5277   0.735   8.929   7.437  0.0767  0.6054 -0.0327
  795SOL    HW1 5278   0.687   8.997   7.484 -0.4722 -0.7380  1.4159
  795SOL    HW2 5279   0.674   8.901   7.368  0.5078  1.8935 -0.9838
  796SOL     OW 5280   5.555   2.007   6.863  0.3010 -0.2588 -0.0324
  796SOL    HW1 5281   5.480   1.989   6.806  0.6393 -0.9717 -0.2685
  796SOL    HW2 5282   5.603   2.076   6.818  0.1010 -0.2067 -0.1729
  797SOL     OW 5283   8.720   5.777   0.415 -0.2361 -0.6481 -0.1310
  797SOL    HW1 5284   8.709   5.682   0.422 -0.2556 -0.6083  0.4491
  797SOL    HW2 5285   8.784   5.799   0.482  1.2384 -0.4937 -1.5322
  798SOL     OW 5286   9.844   5.456   8.223  0.5848 -0.8458  0.3931
  798SOL    HW1 5287   9.829   5.524   8.158  0.3684 -1.4911 -0.2404
  798SOL    HW2 5288   9.758   5.441   8.262  0.5082 -1.1968  0.0909
  799SOL     OW 5289   2.391   0.260   3.902 -0.2232  0.3299  0.6196
  799SOL    HW1 5290   2.369   0.270   3.995  1.5621  2.1547  0.9228
  799SOL    HW2 5291   2.446   0.182   3.899 -0.3146  0.2412  1.0950
  800SOL     OW 5292   4.866  10.086  10.602 -0.5339 -0.5829 -0.0487
  800SOL    HW1 5293   4.847  10.176  10.577 -0.1369 -0.6819 -0.7398
  800SOL    HW2 5294   4.873  10.089  10.698  2.0023  0.6461 -0.1851
  801SOL     OW 5295   7.325   0.480   4.708  0.3994 -0.0927 -0.1501
  801SOL    HW1 5296   7.366   0.510   4.627 -1.1572  0.4598 -0.7604
  801SOL    HW2 5297   7.314   0.386   4.696  1.9940 -0.3660  0.2792
  802SOL     OW 5298   4.294  10.322   9.716  0.3132  0.2111 -0.3540
  802SOL    HW1 5299   4.379  10.335   9.673  1.0740 -1.3562  0.5940
  802SOL    HW2 5300   4.247  10.404   9.702  0.7314  0.0396 -3.6500
  803SOL     OW 5301   3.538   3.739   0.901 -0.4382  0.4006 -0.1933
  803SOL    HW1 5302   3.488   3.692   0.835 -0.1560  0.8021 -0.6969
  803SOL    HW2 5303   3.627   3.741   0.867 -0.1134 -0.1254  0.5955
  804SOL     OW 5304   8.968   3.092   6.679  0.0085  0.3465  0.0773
  804SOL    HW1 5305   9.001   3.165   6.628  0.2447 -0.1997 -0.5694
  804SOL    HW2 5306   8.892   3.060   6.630 -0.7641  0.8385  0.9250
  805SOL     OW 5307   7.978  10.551   6.478 -0.3622  0.0636 -0.1188
  805SOL    HW1 5308   8.063  10.550   6.520 -0.7699  1.2771  0.7844
  805SOL    HW2 5309   7.995  10.584   6.389  0.0825  0.4520  0.1111
  806SOL     OW 5310   9.422   6.852   0.450  0.5978  0.2612  0.1934
  806SOL    HW1 5311   9.511   6.820   0.431  0.1344 -0.7541 -0.3683
  806SOL    HW2 5312   9.370   6.819   0.377 -0.3075  0.5595  0.7019
  807SOL     OW 5313   0.277   6.288   1.132 -0.3326 -0.0027  0.1659
  807SOL    HW1 5314   0.309   6.334   1.210  1.6513 -0.6487 -0.1982
  807SOL    HW2 5315   0.223   6.353   1.086  0.1960  1.0694  1.0152
  808SOL     OW 5316   0.849   8.415   2.446  0.4000 -0.1136  0.1759
  808SOL    HW1 5317   0.839   8.493   2.502  2.1142 -0.4608  1.0304
  808SOL    HW2 5318   0.874   8.345   2.507 -0.6889 -1.2580 -0.6420
  809SOL     OW 5319   0.378   4.155   6.039  0.3243 -0.9053 -0.4015
  809SOL    HW1 5320   0.396   4.249   6.032 -1.0249 -0.6650 -0.8952
  809SOL    HW2 5321   0.340   4.145   6.126  0.6100 -1.0353 -0.2879
  810SOL     OW 5322   9.460   1.720   4.053  0.5418 -0.4485 -0.1848
  810SOL    HW1 5323   9.488   1.782   4.120 -0.5841 -1.4993  1.3669
  810SOL    HW2 5324   9.379   1.682   4.089 -0.6195 -0.4248 -2.5729
  811SOL     OW 5325   8.811  10.793   5.624  0.3505  0.0078 -0.3870
  811SOL    HW1 5326   8.740  10.857   5.623 -0.4122 -0.8248 -0.9295
  811SOL    HW2 5327   8.856  10.809   5.707 -0.8637  0.1283  0.2742
  812SOL     OW 5328   6.296   3.550   0.069  0.3415 -0.0880  0.4289
  812SOL    HW1 5329   6.258   3.462   0.079  0.7192 -0.3134 -0.1169
  812SOL    HW2 5330   6.307   3.561  -0.025 -0.6927  0.9732  0.4168
  813SOL     OW 5331   1.347   1.516   8.805 -0.1136 -0.0073  0.3988
  813SOL    HW1 5332   1.303   1.467   8.735 -3.3750  0.1413  2.1807
  813SOL    HW2 5333   1.314   1.478   8.886 -0.3300  3.0393  1.8760
  814SOL     OW 5334   1.785   8.552   7.156  0.3407  0.2195  0.0031
  814SOL    HW1 5335   1.784   8.466   7.115 -0.7857 -0.9906  2.3696
  814SOL    HW2 5336   1.843   8.542   7.232  0.5272  1.6667  0.0830
  815SOL     OW 5337   9.774   2.843   9.000  0.2818  0.2817 -0.0419
  815SOL    HW1 5338   9.683   2.816   9.014  0.1827  1.0215  0.8153
  815SOL    HW2 5339   9.786   2.835   8.906 -0.3034 -0.9518 -0.0406
  816SOL     OW 5340   7.202   9.765   1.779  0.2520  0.0181  0.4672
  816SOL    HW1 5341   7.137   9.831   1.753  0.9603  0.7071  0.3831
  816SOL    HW2 5342   7.171   9.732   1.863 -0.1312  0.4410  0.4967
  817SOL     OW 5343   3.892   8.026   7.434 -0.2920 -0.0139  0.2121
  817SOL    HW1 5344   3.849   8.108   7.409 -0.1884  0.0320  0.1826
  817SOL    HW2 5345   3.916   7.985   7.351 -0.7788 -0.3051  0.2147
  818SOL     OW 5346   1.376   9.926   6.846  0.3916  0.3730  0.3884
  818SOL    HW1 5347   1.462   9.958   6.872  0.2466  0.0213  1.3806
  818SOL    HW2 5348   1.391   9.880   6.764  1.5440 -1.3997  1.5170
  819SOL     OW 5349   6.816   8.357   4.555  0.3055  0.6506  0.6270
  819SOL    HW1 5350   6.817   8.261   4.552 -2.8651  0.5287  0.3646
  819SOL    HW2 5351   6.764   8.377   4.633  0.0234  2.1355  0.0771
  820SOL     OW 5352   3.009   6.644   7.924  0.0787 -0.0041  0.8214
  820SOL    HW1 5353   3.090   6.615   7.968  0.2178  1.4541  1.5695
  820SOL    HW2 5354   3.016   6.607   7.836  1.3994 -0.1879  0.9752
  821SOL     OW 5355   9.256   5.137   0.072 -0.2354 -0.0535  0.4594
  821SOL    HW1 5356   9.203   5.212   0.100  0.2860  0.5147 -0.0521
  821SOL    HW2 5357   9.345   5.160   0.099  0.4593  0.9406 -2.3836
  822SOL     OW 5358   4.608   1.725   2.729 -0.3656 -0.1545 -0.3176
  822SOL    HW1 5359   4.545   1.770   2.786  0.3314  1.4312 -0.7408
  822SOL    HW2 5360   4.692   1.766   2.750  0.5193 -2.0723  0.0742
  823SOL     OW 5361   6.006   8.086   3.815  0.0345 -0.5133  0.2128
  823SOL    HW1 5362   6.050   8.007   3.846  1.9068 -0.1988 -1.4864
  823SOL    HW2 5363   5.930   8.053   3.767 -0.3267 -1.1704  1.2066
  824SOL     OW 5364  10.157   3.868   4.231  0.1886  0.4965 -0.1914
  824SOL    HW1 5365  10.231   3.867   4.293 -1.5273  0.7057  1.9959
  824SOL    HW2 5366  10.096   3.932   4.269 -2.3521 -1.6905 -0.3533
  825SOL     OW 5367   2.283   1.587   4.642 -0.2601  0.1340 -0.5767
  825SOL    HW1 5368   2.376   1.570   4.656 -0.5778 -2.5133 -1.1969
  825SOL    HW2 5369   2.275   1.682   4.651  2.8320  0.7207 -2.4850
  826SOL     OW 5370   5.592   4.942   6.510  0.0752 -0.2979 -0.1795
  826SOL    HW1 5371   5.562   4.946   6.419 -1.9963  1.6201  0.4947
  826SOL    HW2 5372   5.539   5.007   6.555  1.7680 -0.4728  2.2286
  827SOL     OW 5373   1.703   6.229   6.208  0.2467 -0.1892 -0.0722
  827SOL    HW1 5374   1.769   6.160   6.201  1.5644  0.8305  1.4620
  827SOL    HW2 5375   1.743   6.305   6.165  0.0752  0.4323  0.8338
  828SOL     OW 5376   3.346   8.242   4.976 -0.0870  0.2696 -0.3237
  828SOL    HW1 5377   3.268   8.296   4.986  0.6265  1.3330 -0.2309
  828SOL    HW2 5378   3.380   8.231   5.065  0.6981  1.1309 -0.4978
  829SOL     OW 5379  10.629   4.527  10.542  0.4024  0.0852 -0.1550
  829SOL    HW1 5380  10.642   4.598  10.605 -0.5410  0.7950 -0.7219
  829SOL    HW2 5381  10.632   4.447  10.594 -1.3038  0.7011  0.9944
  830SOL     OW 5382  10.188   7.985   0.949 -0.2072  0.0172  0.0320
  830SOL    HW1 5383  10.282   7.986   0.970 -0.2045 -2.0322  0.3250
  830SOL    HW2 5384  10.144   8.007   1.031 -0.0199 -0.9990  0.4123
  831SOL     OW 5385   9.482   4.203   9.244 -0.4486 -0.2550 -0.0605
  831SOL    HW1 5386   9.504   4.188   9.336  0.5055  0.8009 -0.0987
  831SOL    HW2 5387   9.443   4.121   9.215  2.8327 -2.0810  0.2055
  832SOL     OW 5388   2.442   9.518   8.806  0.1708  0.3903 -0.2440
  832SOL    HW1 5389   2.457   9.566   8.725 -0.6552  2.0492  0.5386
  832SOL    HW2 5390   2.347   9.518   8.817  0.2977  0.7327  1.0165
  833SOL     OW 5391   3.312   5.535  10.008  0.3400 -0.0224  0.1995
  833SOL    HW1 5392   3.363   5.480  10.069 -2.4765 -2.6455  0.4327
  833SOL    HW2 5393   3.314   5.486   9.926 -1.4427 -0.0086  0.1309
  834SOL     OW 5394   5.423   4.004   9.305  0.3805  0.0740 -0.0834
  834SOL    HW1 5395   5.484   4.012   9.378  1.0874  0.6526 -0.7160
  834SOL    HW2 5396   5.443   3.918   9.266  1.6676  0.7644 -1.0246
  835SOL     OW 5397   0.867  10.116   8.614  0.3220 -0.1140  0.3473
  835SOL    HW1 5398   0.774  10.136   8.604 -1.1306 -4.0963  3.2172
  835SOL    HW2 5399   0.895  10.172   8.687 -0.1066  0.3255  0.1854
  836SOL     OW 5400   8.561   2.722   5.986 -0.0588 -0.1767 -0.1626
  836SOL    HW1 5401   8.524   2.748   5.901 -0.7544 -0.7196 -0.0368
  836SOL    HW2 5402   8.649   2.760   5.987 -0.4978  0.8760 -0.6078
  837SOL     OW 5403   0.720   6.069   1.158 -0.1826 -0.5934  0.0575
  837SOL    HW1 5404   0.692   6.069   1.066 -1.0392  0.1803  0.3073
  837SOL    HW2 5405   0.643   6.099   1.206  1.0392  1.5840  0.7880
  838SOL     OW 5406   6.809   2.030   8.550  0.4902 -0.4088  0.4148
  838SOL    HW1 5407   6.876   2.001   8.488 -0.0236  1.0274 -0.8720
  838SOL    HW2 5408   6.730   2.042   8.497  0.3942  2.2779  0.9931
  839SOL     OW 5409  10.209   8.856   8.673 -0.0799 -0.0350 -0.2177
  839SOL    HW1 5410  10.291   8.860   8.623 -0.3914 -2.8225 -1.1473
  839SOL    HW2 5411  10.235   8.871   8.764  1.3096  0.1121 -0.6183
  840SOL     OW 5412   6.630   1.464   6.349 -0.2279 -0.3185  0.0327
  840SOL    HW1 5413   6.718   1.497   6.332 -0.9032  1.1640 -0.8214
  840SOL    HW2 5414   6.608   1.413   6.271 -0.5997  0.3882 -0.3286
  841SOL     OW 5415   6.067   3.536   5.533 -0.6172 -0.1540 -0.1115
  841SOL    HW1 5416   5.977   3.545   5.502 -0.8706 -1.0281  0.3354
  841SOL    HW2 5417   6.074   3.444   5.559  0.3397 -0.0395  0.0621
  842SOL     OW 5418   0.188   8.906   4.010 -0.8464  0.3230 -0.5084
  842SOL    HW1 5419   0.098   8.876   4.026 -0.3353 -2.1415 -1.8036
  842SOL    HW2 5420   0.243   8.846   4.060  0.1562  2.9519  1.8656
  843SOL     OW 5421   9.820   2.867   7.776  0.1898 -0.0956  0.6448
  843SOL    HW1 5422   9.867   2.801   7.828  0.2760 -0.9795 -0.5103
  843SOL    HW2 5423   9.886   2.904   7.718 -0.0422  0.3894  0.6898
  844SOL     OW 5424   8.104   3.130   5.757  0.3229 -0.0132 -0.1321
  844SOL    HW1 5425   8.090   3.170   5.672  2.7387 -0.3067 -0.7478
  844SOL    HW2 5426   8.173   3.183   5.798  0.1901 -0.6950  1.0452
  845SOL     OW 5427   5.641   1.982   9.625 -0.0530 -0.3201 -0.1394
  845SOL    HW1 5428   5.648   2.026   9.540  1.3174  1.2754  0.7381
  845SOL    HW2 5429   5.732   1.964   9.650 -0.4664 -1.2323  0.7736
  846SOL     OW 5430   1.833   1.121   0.990 -0.0458 -0.3363 -0.1010
  846SOL    HW1 5431   1.770   1.129   0.919  1.2447  0.8763 -1.1646
  846SOL    HW2 5432   1.851   1.027   0.995 -1.6290 -0.6695  0.0007
  847SOL     OW 5433   1.443   1.889   4.275 -0.1081 -0.5176 -0.4217
  847SOL    HW1 5434   1.489   1.854   4.351  3.2052  0.6392 -1.7174
  847SOL    HW2 5435   1.360   1.921   4.311  0.3390 -2.0314  2.2587
  848SOL     OW 5436   3.207   1.652   7.381 -0.0941  0.6337  0.8326
  848SOL    HW1 5437   3.144   1.587   7.350 -0.0762  0.9804  0.0514
  848SOL    HW2 5438   3.271   1.659   7.310  0.5016  0.7167  1.3701
  849SOL     OW 5439   7.199   4.119   7.981  0.0093 -0.0801  0.0540
  849SOL    HW1 5440   7.228   4.198   8.025  0.6759  0.1346 -0.7457
  849SOL    HW2 5441   7.151   4.070   8.048 -1.1022  1.3537  0.3447
  850SOL     OW 5442   5.330   3.337   2.702 -0.1920  0.2184 -0.2136
  850SOL    HW1 5443   5.322   3.422   2.745 -1.4288 -0.6584  1.4001
  850SOL    HW2 5444   5.383   3.284   2.762 -0.9863 -0.6898 -0.2815
  851SOL     OW 5445   4.711   2.610   2.400  0.7804 -0.2854  0.6527
  851SOL    HW1 5446   4.716   2.596   2.494  1.7125  0.9496  0.8160
  851SOL    HW2 5447   4.617   2.603   2.380  0.1279  2.3522  2.2064
  852SOL     OW 5448   0.898   7.033   6.769  0.3471  0.0509 -0.4885
  852SOL    HW1 5449   0.850   7.027   6.686  0.9595 -0.2669 -0.8262
  852SOL    HW2 5450   0.851   6.975   6.828 -0.9958  1.4136 -0.1486
  853SOL     OW 5451   9.406   6.797   2.091  0.0951  0.7213 -0.1350
  853SOL    HW1 5452   9.344   6.792   2.018  0.5580  0.3130 -0.5075
  853SOL    HW2 5453   9.364   6.855   2.154  0.2946  2.1853 -1.3108
  854SOL     OW 5454   1.368   1.374   3.348 -0.2347 -0.1339 -0.5648
  854SOL    HW1 5455   1.361   1.461   3.309 -0.8618 -0.7652 -1.9478
  854SOL    HW2 5456   1.278   1.352   3.373  0.0427 -0.0685  0.5336
  855SOL     OW 5457   8.426   1.501  10.460  0.0605  0.0991 -0.1418
  855SOL    HW1 5458   8.477   1.492  10.380 -0.4027  3.1944 -0.9283
  855SOL    HW2 5459   8.335   1.508  10.429 -0.0852  1.7354  0.5421
  856SOL     OW 5460  10.151   2.667   1.209 -0.3689 -0.5183 -0.2046
  856SOL    HW1 5461  10.067   2.657   1.163 -0.4606 -1.4300  0.1579
  856SOL    HW2 5462  10.133   2.734   1.276 -0.0822  1.2500 -1.8117
  857SOL     OW 5463   5.154   5.380  10.534 -0.3699 -0.2725  0.7429
  857SOL    HW1 5464   5.230   5.387  10.592  0.0897 -1.0861  0.2541
  857SOL    HW2 5465   5.129   5.471  10.516  0.7935  0.0169  0.5221
  858SOL     OW 5466   0.136   2.536   3.436 -0.2954 -0.0514  0.2689
  858SOL    HW1 5467   0.041   2.530   3.424 -0.4465 -1.9323  1.7920
  858SOL    HW2 5468   0.147   2.575   3.523  0.2552 -1.4555  0.8551
  859SOL     OW 5469   0.737   9.000   5.896  0.0246  0.1953 -0.5090
  859SOL    HW1 5470   0.784   8.917   5.900  0.0939  0.1676 -1.7304
  859SOL    HW2 5471   0.801   9.065   5.926 -0.3676 -0.2839  1.5421
  860SOL     OW 5472   0.722   5.038   1.488  0.0894 -0.2500  0.4361
  860SOL    HW1 5473   0.795   5.087   1.451  0.1570  0.1646  1.1069
  860SOL    HW2 5474   0.697   4.977   1.419  0.3667  0.3472 -0.2024
  861SOL     OW 5475   0.535   0.850   0.900  0.0556 -0.2470  0.1633
  861SOL    HW1 5476   0.561   0.844   0.992  0.7254  1.5014  0.1132
  861SOL    HW2 5477   0.440   0.857   0.903  0.1007  0.2527  0.7631
  862SOL     OW 5478   4.970   0.645   0.026 -0.2520 -0.0296  0.2004
  862SOL    HW1 5479   4.984   0.567   0.079 -1.0442  0.3671  1.0213
  862SOL    HW2 5480   5.057   0.677   0.006  0.1181 -1.5335 -0.7820
  863SOL     OW 5481   7.325   4.981   6.744 -0.1280 -0.4107  0.6317
  863SOL    HW1 5482   7.418   5.000   6.730  0.0516 -0.7134  1.3509
  863SOL    HW2 5483   7.325   4.905   6.802 -0.8291 -0.6710  0.3035
  864SOL     OW 5484   2.305   9.733   6.603  0.4769  0.2054 -0.8098
  864SOL    HW1 5485   2.312   9.794   6.530  1.4987 -0.5217 -1.3359
  864SOL    HW2 5486   2.222   9.756   6.645  0.3159  1.2260 -1.6468
  865SOL     OW 5487   7.397   3.991  10.678 -0.5718 -0.1675  0.2748
  865SOL    HW1 5488   7.356   4.037  10.751  0.0842 -1.7782  1.6958
  865SOL    HW2 5489   7.337   4.006  10.604 -0.6360  2.4858  0.7738
  866SOL     OW 5490   7.411   4.704   0.595 -0.0890  0.4907 -0.3132
  866SOL    HW1 5491   7.416   4.613   0.624  0.0432  0.7435  0.5018
  866SOL    HW2 5492   7.435   4.702   0.503  0.9300 -0.1696 -0.0477
  867SOL     OW 5493   4.338   1.281   4.353 -0.3842 -0.0782 -0.2886
  867SOL    HW1 5494   4.377   1.368   4.360 -0.9501  0.2356 -0.8956
  867SOL    HW2 5495   4.248   1.293   4.384 -0.0193 -0.7986  1.1370
  868SOL     OW 5496   4.502   4.893   1.590  0.5087 -0.3959  0.8588
  868SOL    HW1 5497   4.431   4.830   1.574 -0.5378  0.8950  0.2383
  868SOL    HW2 5498   4.582   4.840   1.584 -0.3893 -1.9722  2.0284
  869SOL     OW 5499   4.962   3.545   6.196 -0.2359  0.3870  0.0583
  869SOL    HW1 5500   5.021   3.586   6.133 -0.2992 -0.4650 -0.5793
  869SOL    HW2 5501   5.001   3.459   6.213 -1.5942 -0.4466 -0.8517
  870SOL     OW 5502   1.057  10.138   8.880 -0.0608  0.5533  0.3552
  870SOL    HW1 5503   1.037  10.060   8.931  0.2362 -0.0774 -0.4680
  870SOL    HW2 5504   1.120  10.187   8.933  1.5439 -0.9142 -0.1113
  871SOL     OW 5505   3.336   8.549   0.159  0.1569  0.0538  0.0312
  871SOL    HW1 5506   3.251   8.507   0.147  0.1038 -0.3479  1.5459
  871SOL    HW2 5507   3.348   8.603   0.081 -1.1341 -0.4687 -0.5544
  872SOL     OW 5508   7.328   5.701   2.604 -0.0801  0.4799  0.3112
  872SOL    HW1 5509   7.333   5.606   2.615  0.2893  0.6213  1.5474
  872SOL    HW2 5510   7.254   5.715   2.546  0.3185 -0.6021 -0.4936
  873SOL     OW 5511   1.643   4.397  10.527  0.2625  0.1217  0.0572
  873SOL    HW1 5512   1.573   4.433  10.473  1.2275  0.1166 -1.2314
  873SOL    HW2 5513   1.720   4.450  10.508  2.1396 -3.2118 -2.9875
  874SOL     OW 5514   2.948   0.171   5.965  0.6334 -0.0765  0.0839
  874SOL    HW1 5515   2.864   0.156   6.009  0.5109  0.6292  0.1115
  874SOL    HW2 5516   3.014   0.153   6.031  0.4622  0.4882  0.4183
  875SOL     OW 5517   9.784   1.465   8.444  0.7824 -0.1090 -0.0636
  875SOL    HW1 5518   9.746   1.470   8.356 -0.3828 -1.5866  0.3183
  875SOL    HW2 5519   9.749   1.541   8.490  1.8758  1.0201 -1.0172
  876SOL     OW 5520   4.439   4.945   8.663 -0.2857 -0.0921 -0.1201
  876SOL    HW1 5521   4.382   5.021   8.667  0.8661  0.8496 -0.8020
  876SOL    HW2 5522   4.453   4.930   8.569 -0.5419 -1.1889  0.0028
  877SOL     OW 5523   3.952   2.010   0.492  0.2547  0.4662 -0.0197
  877SOL    HW1 5524   4.028   1.954   0.477  0.0337  0.2361 -0.2797
  877SOL    HW2 5525   3.911   2.019   0.406  0.3434  1.1109 -0.0030
  878SOL     OW 5526   7.566   4.828   0.757  0.1253  0.2933 -0.1263
  878SOL    HW1 5527   7.512   4.907   0.765 -1.0620 -0.4907 -0.1684
  878SOL    HW2 5528   7.515   4.769   0.702  2.1009  0.4155 -2.2780
  879SOL     OW 5529   9.582   1.639   0.945 -0.2203  0.2877 -0.0888
  879SOL    HW1 5530   9.502   1.633   0.998 -0.7750  0.4233 -0.8912
  879SOL    HW2 5531   9.554   1.612   0.857  0.7377 -0.1462 -0.2648
  880SOL     OW 5532  10.621   1.382   5.943 -0.4133 -0.0292  0.3850
  880SOL    HW1 5533  10.612   1.296   5.902 -0.6226 -0.4267  1.2429
  880SOL    HW2 5534  10.661   1.364   6.028 -1.3926  0.6028  1.0060
  881SOL     OW 5535   4.061   9.101   1.986  0.2749 -0.0729  0.1414
  881SOL    HW1 5536   4.043   9.195   1.979 -0.3981 -0.2523 -0.7245
  881SOL    HW2 5537   3.976   9.059   1.970  0.8069 -0.8645 -0.6613
  882SOL     OW 5538   6.258   2.674   5.241 -0.3091 -1.0169  0.5512
  882SOL    HW1 5539   6.329   2.738   5.249  0.5046 -1.8609  0.2863
  882SOL    HW2 5540   6.203   2.690   5.319  0.8418 -1.1448  1.4202
  883SOL     OW 5541   4.775   2.305   8.105  0.5081  0.1957  0.1677
  883SOL    HW1 5542   4.804   2.363   8.175 -0.8339  0.6248  0.4086
  883SOL    HW2 5543   4.680   2.317   8.102  0.3141 -1.2544 -0.4501
  884SOL     OW 5544   5.312   2.979   2.718 -0.3228  0.0563  0.3512
  884SOL    HW1 5545   5.230   2.951   2.677  0.3138 -1.2521 -0.0886
  884SOL    HW2 5546   5.294   2.976   2.812 -0.0045 -3.0364  0.4277
  885SOL     OW 5547   4.490   2.772   9.075  0.7288 -0.6241 -0.9367
  885SOL    HW1 5548   4.498   2.689   9.121 -0.2700 -0.5947 -0.6677
  885SOL    HW2 5549   4.521   2.838   9.137 -4.4887 -0.0569  1.6140
  886SOL     OW 5550   1.984   0.061  10.596  0.1477 -0.4660  0.4836
  886SOL    HW1 5551   1.941   0.113  10.528  1.8536  0.6653  0.2270
  886SOL    HW2 5552   1.946  -0.027  10.586 -0.7256  0.0415 -0.9366
  887SOL     OW 5553   0.410   0.579   4.158  0.2716 -0.0031 -0.0022
  887SOL    HW1 5554   0.371   0.649   4.107  0.5371  0.1451 -0.0065
  887SOL    HW2 5555   0.346   0.508   4.156 -0.2377  0.4412  0.4727
  888SOL     OW 5556  10.517  10.740   5.636  0.3317  0.5103 -0.1478
  888SOL    HW1 5557  10.562  10.775   5.559  2.1318  0.0632  0.6576
  888SOL    HW2 5558  10.580  10.679   5.675 -0.4320  0.9170  1.8288
  889SOL     OW 5559   7.158   2.552   0.786  0.1832 -0.1773 -0.1090
  889SOL    HW1 5560   7.198   2.539   0.700 -1.9858 -1.1215 -1.0573
  889SOL    HW2 5561   7.153   2.463   0.823  2.1203  0.3404  1.5323
  890SOL     OW 5562   5.114   0.994   0.178 -0.7248  0.1337 -0.2319
  890SOL    HW1 5563   5.041   1.046   0.146 -2.3444 -1.4935  0.6516
  890SOL    HW2 5564   5.125   1.023   0.269 -0.9875 -0.3616 -0.0390
  891SOL     OW 5565   6.518  10.627   4.182  0.0545 -0.4005 -0.1049
  891SOL    HW1 5566   6.480  10.629   4.270  1.1442  1.8264  0.3914
  891SOL    HW2 5567   6.457  10.574   4.130 -0.7435 -1.5539  1.9104
  892SOL     OW 5568   3.087   9.042   2.616  0.8004 -0.0832  0.0054
  892SOL    HW1 5569   3.176   9.021   2.586  1.3301  0.8374  0.8709
  892SOL    HW2 5570   3.042   8.958   2.617  1.6729 -0.5783 -0.3913
  893SOL     OW 5571   7.776   3.896   9.182 -0.3621  0.5088 -0.1122
  893SOL    HW1 5572   7.862   3.935   9.169  0.4175 -1.4645 -1.2881
  893SOL    HW2 5573   7.725   3.964   9.227  1.3109  2.2943 -0.7966
  894SOL     OW 5574   7.595   8.151   9.439 -0.1724 -0.4270 -0.3422
  894SOL    HW1 5575   7.685   8.122   9.454  0.3056  0.4379 -1.4037
  894SOL    HW2 5576   7.541   8.075   9.461  0.8099 -0.9531  0.3101
  895SOL     OW 5577   8.369   6.776   8.262 -0.1219 -0.0277 -0.6170
  895SOL    HW1 5578   8.414   6.692   8.255 -1.4595 -0.6616 -2.1238
  895SOL    HW2 5579   8.340   6.779   8.353  0.8836 -0.6682 -0.2457
  896SOL     OW 5580   9.775   8.923   2.312 -0.0913  0.4078  0.1813
  896SOL    HW1 5581   9.867   8.947   2.308 -0.6029  2.4076 -1.7650
  896SOL    HW2 5582   9.742   8.964   2.392  0.3248  1.3688 -0.1229
  897SOL     OW 5583   0.715   2.122   9.860  0.4969 -0.1029 -0.1691
  897SOL    HW1 5584   0.809   2.134   9.847  0.4345  0.7278  0.0967
  897SOL    HW2 5585   0.677   2.208   9.840  0.1631  0.6589  3.1239
  898SOL     OW 5586  10.053   3.335   8.595  0.2790 -0.2104 -0.0540
  898SOL    HW1 5587  10.128   3.393   8.587  0.5537 -0.5362  0.1483
  898SOL    HW2 5588   9.981   3.393   8.622  0.1966  0.2795 -1.2644
  899SOL     OW 5589   0.594   0.145   7.463 -0.2351  0.0401 -0.4095
  899SOL    HW1 5590   0.592   0.059   7.422  0.8938 -0.0309 -0.3383
  899SOL    HW2 5591   0.686   0.171   7.461 -0.2758  0.4291  1.2693
  900SOL     OW 5592   3.153   5.198   4.211 -0.0324 -0.3195  0.8071
  900SOL    HW1 5593   3.187   5.109   4.209  1.1325  0.0176  2.5480
  900SOL    HW2 5594   3.058   5.188   4.212  0.0722 -1.6790  2.9926
  901SOL     OW 5595   9.664   1.586   6.749 -0.2183 -0.1539 -0.1852
  901SOL    HW1 5596   9.690   1.665   6.797  1.5969 -2.4059  2.9505
  901SOL    HW2 5597   9.576   1.567   6.780 -1.2905  1.3205 -2.1018
  902SOL     OW 5598   5.727   2.395   2.161 -0.4517  0.5713 -0.2699
  902SOL    HW1 5599   5.654   2.335   2.142  0.7367 -0.5350 -1.5874
  902SOL    HW2 5600   5.688   2.482   2.158 -1.7335  0.0012 -0.9458
  903SOL     OW 5601  10.446   3.875   6.727  0.2892 -0.2267 -0.4270
  903SOL    HW1 5602  10.353   3.854   6.739  0.3349 -0.6050 -0.7264
  903SOL    HW2 5603  10.483   3.869   6.815 -0.2682  1.4537 -0.0278
  904SOL     OW 5604   3.071   0.982   9.514  0.4542  0.0249  0.1437
  904SOL    HW1 5605   2.989   0.957   9.471  0.7724 -0.6154 -0.1139
  904SOL    HW2 5606   3.128   0.905   9.502  1.2306  0.6191 -0.0408
  905SOL     OW 5607   7.125   0.781   3.564 -0.6320  0.0315  0.1201
  905SOL    HW1 5608   7.216   0.776   3.533 -0.9309 -0.6094 -0.6969
  905SOL    HW2 5609   7.099   0.690   3.576 -1.3616  0.1839 -0.2531
  906SOL     OW 5610   5.816   3.830   5.393 -0.8673 -0.3650 -0.2012
  906SOL    HW1 5611   5.858   3.793   5.315 -1.7711  1.4720 -1.6424
  906SOL    HW2 5612   5.889   3.859   5.448 -0.2182 -1.0642 -0.6772
  907SOL     OW 5613   2.051   1.771   3.694  0.1051 -1.1018 -0.3052
  907SOL    HW1 5614   2.027   1.730   3.611 -1.4298 -1.4487  0.2774
  907SOL    HW2 5615   1.975   1.824   3.718  0.6873 -0.6816  0.6816
  908SOL     OW 5616  10.739   5.097   4.400 -0.0801  0.4871 -0.8357
  908SOL    HW1 5617  10.710   5.050   4.479 -0.7078  0.3145 -1.1654
  908SOL    HW2 5618  10.815   5.048   4.370  0.5002  0.8682 -0.0334
  909SOL     OW 5619   5.073   4.490   8.878  0.3763 -0.1278  0.0200
  909SOL    HW1 5620   5.126   4.479   8.799  0.6920 -1.1053  0.3530
  909SOL    HW2 5621   4.985   4.463   8.852 -0.1225  2.0161 -0.6846
  910SOL     OW 5622  10.210   5.435   8.021 -0.0161 -0.4686  0.0147
  910SOL    HW1 5623  10.219   5.380   7.943  2.2626 -2.4997  1.5621
  910SOL    HW2 5624  10.292   5.484   8.025  0.0975 -0.7267  1.3152
  911SOL     OW 5625   6.502   6.750   7.674  0.1471 -0.7406 -0.1255
  911SOL    HW1 5626   6.441   6.677   7.683 -0.4733 -0.1074  1.1314
  911SOL    HW2 5627   6.536   6.764   7.762  0.2927  0.4318 -0.3491
  912SOL     OW 5628   3.509   1.463   2.089  0.2920 -0.1054 -0.3462
  912SOL    HW1 5629   3.465   1.396   2.037 -0.5930 -0.4363  0.7920
  912SOL    HW2 5630   3.510   1.427   2.178  1.3112  0.6684 -0.0336
  913SOL     OW 5631   2.294   3.779   2.788 -0.4558 -0.3472  0.1850
  913SOL    HW1 5632   2.288   3.686   2.809 -1.7365 -0.4751 -0.6251
  913SOL    HW2 5633   2.351   3.783   2.712  0.4516 -0.3443  0.8476
  914SOL     OW 5634   1.836   8.703  10.390 -0.1173 -0.4581  0.9174
  914SOL    HW1 5635   1.915   8.743  10.427  0.2932 -0.2524 -0.1532
  914SOL    HW2 5636   1.840   8.723  10.297 -0.3228 -2.3092  0.4841
  915SOL     OW 5637   1.704   3.146  10.117  0.3532  0.8244 -0.3985
  915SOL    HW1 5638   1.699   3.242  10.122  1.0754  0.8214  0.7774
  915SOL    HW2 5639   1.625   3.116  10.161  0.8114  0.8844  0.4848
  916SOL     OW 5640   5.168   1.738   3.718  0.2221 -0.2015  0.4496
  916SOL    HW1 5641   5.252   1.778   3.739 -0.7030  0.8602  2.3755
  916SOL    HW2 5642   5.112   1.811   3.693 -0.7458 -0.5877  1.4129
  917SOL     OW 5643   7.286   1.070   4.116  0.1510 -0.0947  0.4672
  917SOL    HW1 5644   7.325   1.038   4.034 -0.3790 -0.0179  0.1830
  917SOL    HW2 5645   7.233   0.997   4.146 -0.5118  0.2631  0.1784
  918SOL     OW 5646   4.017   7.897   0.698 -0.6379 -0.1911 -0.1800
  918SOL    HW1 5647   4.016   7.951   0.619 -0.5255 -0.0549 -0.0890
  918SOL    HW2 5648   3.939   7.923   0.746 -1.2110 -0.9274 -0.6791
  919SOL     OW 5649   3.673   4.889   6.967 -0.5557 -0.0609 -0.1463
  919SOL    HW1 5650   3.738   4.825   6.997 -1.6503 -1.2698 -0.2693
  919SOL    HW2 5651   3.599   4.877   7.026 -0.8302  1.0366 -0.2500
  920SOL     OW 5652   8.463   6.012   2.185  0.5582 -0.1616 -0.2311
  920SOL    HW1 5653   8.437   5.920   2.174 -1.9739  0.2771  1.2206
  920SOL    HW2 5654   8.428   6.056   2.108  0.6937 -0.2187 -0.3262
  921SOL     OW 5655  10.278   4.980   0.217 -0.1734 -0.2958 -0.3062
  921SOL    HW1 5656  10.199   4.994   0.269  0.5154 -2.4101  1.4266
  921SOL    HW2 5657  10.306   4.891   0.239  2.4648  0.2423 -1.1901
  922SOL     OW 5658   2.229   9.777   4.025  0.1332  0.0126  0.0544
  922SOL    HW1 5659   2.263   9.711   3.964 -0.5065 -0.6778  0.4302
  922SOL    HW2 5660   2.225   9.732   4.109  2.6095  1.4401  1.0503
  923SOL     OW 5661   9.387   6.367   8.110 -0.0468  0.4766  0.1277
  923SOL    HW1 5662   9.369   6.461   8.120 -1.0071  0.4947 -1.4424
  923SOL    HW2 5663   9.309   6.332   8.068  0.2692 -1.0721  0.7541
  924SOL     OW 5664   7.021   2.802   7.493 -0.7623 -0.0826 -0.7595
  924SOL    HW1 5665   7.044   2.763   7.577 -1.5701  0.9595 -0.0307
  924SOL    HW2 5666   7.060   2.743   7.428  1.5437  0.1183  0.3312
  925SOL     OW 5667   3.889   0.479   2.702 -0.3436  0.1625  0.7626
  925SOL    HW1 5668   3.906   0.392   2.667  2.6667  0.5306  1.0490
  925SOL    HW2 5669   3.799   0.475   2.734 -0.4316 -2.6889  0.3976
  926SOL     OW 5670   5.071   6.979   5.587 -0.4693 -0.0825  0.1788
  926SOL    HW1 5671   5.105   7.069   5.588 -1.7970  0.5863 -2.6301
  926SOL    HW2 5672   4.988   6.984   5.634  0.0542 -0.1538  1.1262
  927SOL     OW 5673   3.884   1.016   3.202 -0.5982 -0.1201  0.2686
  927SOL    HW1 5674   3.969   0.994   3.163 -0.1509 -1.2201  1.7582
  927SOL    HW2 5675   3.827   0.943   3.180 -0.7776 -0.0166  0.3802
  928SOL     OW 5676  10.405   0.128   1.344  0.5823 -0.2323 -0.0511
  928SOL    HW1 5677  10.439   0.171   1.265  2.3021  0.1918  0.8711
  928SOL    HW2 5678  10.448   0.042   1.345 -0.3549 -0.7197 -0.1733
  929SOL     OW 5679   4.122   9.844   9.466  0.5532 -0.3904 -0.1177
  929SOL    HW1 5680   4.074   9.766   9.437 -0.8504  0.3159  0.1755
  929SOL    HW2 5681   4.065   9.917   9.442  0.9090  0.4195  1.3711
  930SOL     OW 5682   0.741   5.428   6.602  0.3154  1.1777  0.5539
  930SOL    HW1 5683   0.718   5.347   6.555 -0.0628  2.0493 -0.8217
  930SOL    HW2 5684   0.678   5.433   6.673 -0.7749  1.1204 -0.3815
  931SOL     OW 5685   3.336   0.211   6.024  0.4473  0.1906  0.0541
  931SOL    HW1 5686   3.420   0.166   6.009  1.3628  1.9296 -0.3689
  931SOL    HW2 5687   3.333   0.278   5.955 -0.3471  1.4403  1.2495
  932SOL     OW 5688   2.219   2.526   8.064  0.1876 -0.4661  0.0846
  932SOL    HW1 5689   2.201   2.432   8.070  0.6034 -0.5023  0.8888
  932SOL    HW2 5690   2.136   2.568   8.088  0.3563 -0.6368  1.0124
  933SOL     OW 5691   6.059   6.166   0.521 -0.2489 -0.1793 -0.3997
  933SOL    HW1 5692   6.099   6.251   0.538 -0.5059 -0.2148  0.4219
  933SOL    HW2 5693   6.128   6.102   0.541 -0.2698 -0.1875 -0.3517
  934SOL     OW 5694   7.738   2.638   8.924  0.1109  0.4451  0.2625
  934SOL    HW1 5695   7.649   2.602   8.927 -0.7408  2.4155 -0.0708
  934SOL    HW2 5696   7.738   2.697   8.849  2.8026 -2.1325 -2.0447
  935SOL     OW 5697   7.023   6.781   3.330  0.2707 -0.0942  0.2742
  935SOL    HW1 5698   7.109   6.804   3.294  0.1889 -0.5581 -0.2268
  935SOL    HW2 5699   6.995   6.705   3.279 -1.4564  1.4225 -1.1818
  936SOL     OW 5700   4.925   1.439   6.913 -0.4179 -0.6401 -0.0922
  936SOL    HW1 5701   5.011   1.443   6.954 -0.5043 -0.6244  0.0867
  936SOL    HW2 5702   4.866   1.482   6.975 -0.5663 -0.7088 -0.1843
  937SOL     OW 5703   4.912   7.225   1.013 -0.7915  0.0923  0.2846
  937SOL    HW1 5704   4.859   7.154   1.049  0.9551 -0.2705  2.3256
  937SOL    HW2 5705   4.879   7.304   1.056 -0.7526  0.1037  0.2938
  938SOL     OW 5706   3.042   6.836   6.924  0.4820  0.0830  0.0529
  938SOL    HW1 5707   2.953   6.869   6.931  1.3928  3.2169 -1.5985
  938SOL    HW2 5708   3.039   6.751   6.970 -2.9235  0.7291  1.3493
  939SOL     OW 5709   6.914   2.614   6.485 -0.6471  0.6481 -0.0015
  939SOL    HW1 5710   6.934   2.592   6.394  0.2412  0.3449  0.2622
  939SOL    HW2 5711   6.834   2.566   6.504 -0.6331  0.4134 -0.5065
  940SOL     OW 5712   4.403   8.411   0.811 -0.7958  0.2758 -0.6273
  940SOL    HW1 5713   4.406   8.405   0.716  1.5354 -1.2888 -0.5375
  940SOL    HW2 5714   4.403   8.505   0.829 -0.8299  0.5947 -2.1523
  941SOL     OW 5715   3.285   4.487   6.690 -0.1333 -0.1501  0.1766
  941SOL    HW1 5716   3.233   4.546   6.635  0.5286 -0.4415 -0.7846
  941SOL    HW2 5717   3.327   4.545   6.754 -1.5710  0.0989  0.9595
  942SOL     OW 5718   4.652   4.805   8.988  0.4603 -0.6191 -0.5884
  942SOL    HW1 5719   4.736   4.762   9.005  0.6546 -0.2715 -0.6483
  942SOL    HW2 5720   4.676   4.895   8.964  0.0202 -0.2164  0.4337
  943SOL     OW 5721   0.567   4.680   7.172  0.0535  0.1493 -0.5365
  943SOL    HW1 5722   0.474   4.659   7.174  0.1251 -0.2060 -0.8280
  943SOL    HW2 5723   0.612   4.599   7.194  0.2982  0.2935 -0.4919
  944SOL     OW 5724  10.765   8.631   3.284 -0.5168 -0.0039 -0.2950
  944SOL    HW1 5725  10.797   8.716   3.315  0.9241 -0.8849  0.7906
  944SOL    HW2 5726  10.705   8.652   3.213 -1.5655  1.9898  1.0950
  945SOL     OW 5727   5.669   5.739   9.227 -0.5341 -0.3668 -0.5642
  945SOL    HW1 5728   5.650   5.782   9.143 -1.3542 -1.4389 -0.9441
  945SOL    HW2 5729   5.743   5.789   9.263 -1.4667  1.3815 -0.9620
  946SOL     OW 5730  10.106   0.608   6.450 -0.0244 -0.3816  0.1630
  946SOL    HW1 5731  10.135   0.656   6.528  0.6489  0.8239 -0.8054
  946SOL    HW2 5732  10.159   0.528   6.450  0.6847  0.0817  0.4020
  947SOL     OW 5733   5.076   4.327   6.584  0.1299  0.4504  0.4220
  947SOL    HW1 5734   5.088   4.403   6.527 -0.2030  1.0147  1.0847
  947SOL    HW2 5735   5.015   4.357   6.651 -0.9793 -0.7677  0.0224
  948SOL     OW 5736   2.207   0.069   9.775 -0.8821  0.3331 -0.3251
  948SOL    HW1 5737   2.209  -0.020   9.810  1.1977  0.0621 -0.9735
  948SOL    HW2 5738   2.126   0.073   9.724 -1.2863 -0.9911  0.1703
  949SOL     OW 5739   2.261   8.974   9.160  0.2072 -0.1662 -0.7662
  949SOL    HW1 5740   2.344   8.988   9.204  1.1892 -3.9717 -1.0703
  949SOL    HW2 5741   2.196   8.975   9.230  1.0360 -0.7430  0.0386
  950SOL     OW 5742  10.286   7.850   6.428 -0.6182 -0.7367  0.1559
  950SOL    HW1 5743  10.352   7.785   6.453 -0.3831 -0.3936  0.4382
  950SOL    HW2 5744  10.203   7.802   6.431 -0.6484 -0.6396  1.9294
  951SOL     OW 5745   7.365   5.461   2.266  0.3538  0.0027  0.2103
  951SOL    HW1 5746   7.358   5.445   2.360 -2.4270 -1.0585 -0.0722
  951SOL    HW2 5747   7.281   5.432   2.230  1.3786  0.1890 -2.6517
  952SOL     OW 5748   8.555   6.549   4.091  0.3495  0.1685 -0.4856
  952SOL    HW1 5749   8.614   6.497   4.146  0.7362 -0.5509 -1.5564
  952SOL    HW2 5750   8.470   6.539   4.134  0.8512  0.6340  0.6730
  953SOL     OW 5751   0.256   9.493   5.935  0.2239  0.7180  0.4633
  953SOL    HW1 5752   0.324   9.429   5.955 -1.3046 -0.9804  0.4520
  953SOL    HW2 5753   0.296   9.551   5.870  1.8531  0.1502  0.9198
  954SOL     OW 5754   2.778   0.135   4.475 -0.5832  0.0663 -0.2253
  954SOL    HW1 5755   2.692   0.092   4.467 -0.7717  0.5255 -0.7725
  954SOL    HW2 5756   2.833   0.071   4.520 -1.2235 -0.2212  0.1606
  955SOL     OW 5757  10.719   3.216   9.521  0.5097  0.7282  0.1656
  955SOL    HW1 5758  10.668   3.137   9.503  1.5525 -0.0358  0.5046
  955SOL    HW2 5759  10.758   3.239   9.437  1.8148 -0.2951  0.4580
  956SOL     OW 5760  10.498   1.444   9.700 -0.0687 -0.2651  0.5658
  956SOL    HW1 5761  10.490   1.539   9.695  1.5800 -0.1168  0.0999
  956SOL    HW2 5762  10.429   1.412   9.642 -0.3692  0.6604  0.3893
  957SOL     OW 5763   7.209   8.353   9.283 -0.0228 -0.2005  0.4354
  957SOL    HW1 5764   7.246   8.441   9.279  0.3292 -0.2430  1.9599
  957SOL    HW2 5765   7.268   8.300   9.229 -0.0850  0.4362 -0.2738
  958SOL     OW 5766   2.529  10.775   5.855 -0.7806  0.2814 -0.1224
  958SOL    HW1 5767   2.518  10.789   5.949 -0.7499 -1.5549  0.2027
  958SOL    HW2 5768   2.463  10.831   5.814 -1.3709  0.4592  1.0401
  959SOL     OW 5769   3.932   4.389  10.385  0.2939 -0.4032  0.7450
  959SOL    HW1 5770   3.943   4.476  10.347 -0.0497  0.3536  2.3084
  959SOL    HW2 5771   3.891   4.338  10.315  1.6569  0.3070 -0.6414
  960SOL     OW 5772   9.740   7.480   3.122 -0.6145  0.2749 -0.0387
  960SOL    HW1 5773   9.829   7.506   3.144 -0.6016 -0.6684  1.1381
  960SOL    HW2 5774   9.688   7.505   3.198 -1.2301  0.2080 -0.4344
  961SOL     OW 5775   1.992   9.743   7.112  0.3019 -0.0076 -0.0960
  961SOL    HW1 5776   2.034   9.786   7.038 -0.0460  1.2064  0.3835
  961SOL    HW2 5777   2.040   9.661   7.123  0.8962  0.1919 -1.1289
  962SOL     OW 5778   4.746   4.454   7.358  0.0259 -0.8907 -0.7658
  962SOL    HW1 5779   4.711   4.541   7.377 -0.6003 -1.3748  0.3820
  962SOL    HW2 5780   4.714   4.434   7.270 -1.9223 -0.9618 -0.0824
  963SOL     OW 5781  10.256   1.564   9.112  0.0515  0.2309 -0.2458
  963SOL    HW1 5782  10.295   1.571   9.026  0.2040 -0.4334 -0.2350
  963SOL    HW2 5783  10.170   1.606   9.103  0.1041  0.2458 -0.6889
  964SOL     OW 5784   0.022   5.294   3.078 -0.4453  0.6514 -0.0663
  964SOL    HW1 5785   0.011   5.202   3.103 -1.9289  0.3596 -1.5871
  964SOL    HW2 5786   0.040   5.339   3.160 -0.0808 -0.9328  0.7778
  965SOL     OW 5787   5.982   3.638   3.743  0.3188  0.4997  0.6839
  965SOL    HW1 5788   6.007   3.555   3.702 -0.5256  0.8135 -0.5084
  965SOL    HW2 5789   5.951   3.613   3.830 -1.1850 -0.6264 -0.1258
  966SOL     OW 5790   1.465   4.427   2.777  0.0285  0.3457 -0.2518
  966SOL    HW1 5791   1.473   4.405   2.870 -2.4728  0.3206  0.0286
  966SOL    HW2 5792   1.479   4.344   2.731 -2.2544 -0.4966  0.3902
  967SOL     OW 5793   5.626   6.864   6.350  0.0022  0.2529  0.3737
  967SOL    HW1 5794   5.698   6.858   6.413 -0.1453  1.9131  0.7554
  967SOL    HW2 5795   5.662   6.915   6.277 -0.3311 -0.2440 -0.1460
  968SOL     OW 5796   6.678   1.594   2.866  0.9704  0.0808 -0.5935
  968SOL    HW1 5797   6.659   1.687   2.851  0.1269  0.1543  0.7431
  968SOL    HW2 5798   6.668   1.553   2.780 -1.1947  0.8421 -0.7745
  969SOL     OW 5799  10.405   4.361   6.120 -0.9254  0.7776 -0.2641
  969SOL    HW1 5800  10.329   4.326   6.166 -0.6882  1.1327  0.4008
  969SOL    HW2 5801  10.448   4.283   6.083 -0.4835  0.3569  1.0834
  970SOL     OW 5802   0.278   9.195   4.991 -0.6600  0.4064  0.5934
  970SOL    HW1 5803   0.298   9.169   5.080  2.4428 -0.6820 -0.3042
  970SOL    HW2 5804   0.221   9.126   4.958  3.1260 -2.7065 -0.0508
  971SOL     OW 5805   2.078   3.561   2.697 -0.3090  0.7231 -0.6513
  971SOL    HW1 5806   2.109   3.485   2.746 -0.7019  1.3965  0.7060
  971SOL    HW2 5807   1.995   3.584   2.739  0.5924  2.8901  0.0880
  972SOL     OW 5808   5.210   5.678   5.045  0.4412  0.4112 -0.5298
  972SOL    HW1 5809   5.181   5.765   5.017  0.2362  0.7720  0.7547
  972SOL    HW2 5810   5.142   5.619   5.015 -0.3978  0.9429  0.2584
  973SOL     OW 5811   6.556   2.581   8.162  0.1926 -0.4625  0.0411
  973SOL    HW1 5812   6.460   2.572   8.163  0.1013  0.2304 -0.9049
  973SOL    HW2 5813   6.584   2.546   8.246 -1.0811  1.3417  1.2856
  974SOL     OW 5814   1.917   3.371   7.368  0.0455  0.2943 -0.8706
  974SOL    HW1 5815   1.930   3.307   7.298  1.8504 -1.1305  0.6141
  974SOL    HW2 5816   1.840   3.340   7.415 -0.6678  0.7783 -1.6830
  975SOL     OW 5817   7.352   3.398  10.275  0.2880  0.3936 -0.1301
  975SOL    HW1 5818   7.281   3.373  10.216  0.4259  0.3621 -0.2843
  975SOL    HW2 5819   7.312   3.458  10.337 -0.2857 -0.9802  0.8623
  976SOL     OW 5820   3.010   1.499   2.389 -0.3474 -0.4240 -0.7013
  976SOL    HW1 5821   3.057   1.483   2.470 -1.1758  3.1181  0.6953
  976SOL    HW2 5822   3.078   1.516   2.324  0.3033 -1.9118 -0.4443
  977SOL     OW 5823   3.502   2.757   1.117 -0.1396 -0.0437  0.0236
  977SOL    HW1 5824   3.507   2.792   1.206 -0.8606  0.3593 -0.0797
  977SOL    HW2 5825   3.592   2.738   1.093  0.0517 -0.2932  0.8918
  978SOL     OW 5826   0.366   9.454  10.500  0.5701 -0.5516  0.2959
  978SOL    HW1 5827   0.348   9.413  10.415  1.5763 -1.5874  0.5551
  978SOL    HW2 5828   0.456   9.484  10.493  0.6045 -0.5002  0.9407
  979SOL     OW 5829   2.009   8.447   6.263 -0.4669 -0.4377  0.2529
  979SOL    HW1 5830   1.917   8.421   6.271  0.0294 -2.4171  0.1828
  979SOL    HW2 5831   2.050   8.413   6.343  0.1962  0.5023  0.3229
  980SOL     OW 5832   7.542   0.071   8.180  0.1971 -0.1433 -0.1909
  980SOL    HW1 5833   7.507   0.014   8.248  1.6799 -1.4832 -0.5171
  980SOL    HW2 5834   7.603   0.016   8.130  0.1740  1.1712 -1.7642
  981SOL     OW 5835  10.749   3.228   7.526 -0.1171  0.8492  0.0610
  981SOL    HW1 5836  10.658   3.198   7.529 -0.3235  1.1719 -1.8528
  981SOL    HW2 5837  10.777   3.229   7.617 -1.4607 -0.9882  0.5559
  982SOL     OW 5838   4.809   2.490   0.215  0.0805  0.7324 -0.0629
  982SOL    HW1 5839   4.824   2.478   0.309 -0.2247 -0.0550 -0.1082
  982SOL    HW2 5840   4.714   2.483   0.205 -0.1398  3.1217 -0.1258
  983SOL     OW 5841   6.967   0.269   6.309 -0.1595 -0.2562 -0.3004
  983SOL    HW1 5842   6.892   0.211   6.297 -0.4751 -0.0209  0.4563
  983SOL    HW2 5843   6.996   0.290   6.220 -0.3464 -1.1721 -0.5833
  984SOL     OW 5844   5.400  10.042   0.757 -0.3894 -0.0601 -0.0584
  984SOL    HW1 5845   5.341  10.027   0.684 -2.2864  0.3845  1.3093
  984SOL    HW2 5846   5.342  10.057   0.832  1.4707  0.6922  1.2974
  985SOL     OW 5847   7.509  10.336  10.394  0.1119 -0.3812 -0.2807
  985SOL    HW1 5848   7.470  10.377  10.472  0.1784  0.3032 -0.6026
  985SOL    HW2 5849   7.433  10.309  10.342  0.0632 -1.2769  0.2415
  986SOL     OW 5850   9.886   3.012   6.408  0.2783 -0.1125 -0.3969
  986SOL    HW1 5851   9.969   3.043   6.371 -0.5921 -1.4251 -3.7954
  986SOL    HW2 5852   9.820   3.070   6.371 -0.4779  0.7085  2.0121
  987SOL     OW 5853   2.018   5.642   8.073  0.2952  0.2157  0.3624
  987SOL    HW1 5854   2.006   5.591   7.993  1.6380 -0.9836  0.8802
  987SOL    HW2 5855   1.929   5.658   8.106 -0.2376  0.1314 -0.9771
  988SOL     OW 5856  10.562   6.070   9.779  0.6051  0.3559 -0.4150
  988SOL    HW1 5857  10.610   6.037   9.854  0.4365  1.6942  0.3099
  988SOL    HW2 5858  10.628   6.085   9.711  0.5851 -2.2152 -1.0902
  989SOL     OW 5859   6.839   3.009   4.478 -0.0558 -0.4104 -0.0532
  989SOL    HW1 5860   6.745   2.996   4.481 -0.1389  0.2419  0.2250
  989SOL    HW2 5861   6.851   3.101   4.454  0.4893 -0.0387  1.5513
  990SOL     OW 5862   1.925   8.538  10.100  0.1984  0.1391 -0.1732
  990SOL    HW1 5863   1.979   8.608  10.063  1.5573 -0.4497  0.6055
  990SOL    HW2 5864   1.982   8.461  10.099 -1.1244 -0.8761 -0.6316
  991SOL     OW 5865   0.691   2.057   9.164 -0.2534  0.3757  0.1130
  991SOL    HW1 5866   0.773   2.016   9.137 -1.4134 -1.0340 -1.3683
  991SOL    HW2 5867   0.664   2.008   9.242 -0.5976 -0.3757 -0.4668
  992SOL     OW 5868   5.504   4.728   4.444 -0.0278 -0.7826 -0.3887
  992SOL    HW1 5869   5.468   4.805   4.400  0.2515 -0.7120 -0.4953
  992SOL    HW2 5870   5.513   4.663   4.374  1.0268 -0.4568 -0.5706
  993SOL     OW 5871   8.706   6.492   9.836  0.1969 -0.6057  0.1133
  993SOL    HW1 5872   8.734   6.564   9.893 -0.7303 -0.3645  0.2894
  993SOL    HW2 5873   8.629   6.527   9.790  0.2698 -1.1818 -0.4623
  994SOL     OW 5874   5.438   0.334   8.374  0.0891 -0.4119  0.1836
  994SOL    HW1 5875   5.365   0.342   8.312  0.8956 -0.7968 -0.8369
  994SOL    HW2 5876   5.512   0.376   8.329  1.0919 -2.0957  0.1926
  995SOL     OW 5877   2.446   7.042   5.705  0.2016 -0.2730  0.0537
  995SOL    HW1 5878   2.493   7.028   5.787  0.1839 -1.4854 -0.1244
  995SOL    HW2 5879   2.355   7.053   5.732  0.4582  1.4272  0.3449
  996SOL     OW 5880   1.489   4.077   4.061  0.0126  0.5940  0.2766
  996SOL    HW1 5881   1.551   4.125   4.115  1.0995  1.4182 -1.6105
  996SOL    HW2 5882   1.424   4.044   4.123  1.2039  1.4359  2.0665
  997SOL     OW 5883   8.905   9.154   7.586 -0.3043  0.4096 -0.0972
  997SOL    HW1 5884   8.864   9.068   7.574  0.1649  0.3234 -1.2171
  997SOL    HW2 5885   8.834   9.212   7.612 -0.7606 -0.1597 -0.0718
  998SOL     OW 5886   3.979   8.115   8.688  0.3196  0.0104  0.1777
  998SOL    HW1 5887   3.959   8.110   8.782  0.1913 -0.2142  0.1404
  998SOL    HW2 5888   4.074   8.126   8.685  0.6189 -2.1165  0.3029
  999SOL     OW 5889   2.386   0.054   9.022  0.1691 -0.2395 -0.4376
  999SOL    HW1 5890   2.416  -0.010   9.088  1.1217 -0.3471 -0.9620
  999SOL    HW2 5891   2.294   0.068   9.044  0.3316 -0.6583  0.6121
 1000SOL     OW 5892   2.043   2.684   5.272 -0.0689  0.4515  0.4748
 1000SOL    HW1 5893   2.043   2.722   5.360  3.8435  0.8775  0.4932
 1000SOL    HW2 5894   2.034   2.590   5.286  0.2361  0.5402  1.3360
 1001SOL     OW 5895   8.713   1.927   1.866  0.1730 -0.0888 -0.1030
 1001SOL    HW1 5896   8.690   1.839   1.896  0.3407 -0.2669 -0.4970
 1001SOL    HW2 5897   8.646   1.949   1.803 -0.8513  0.7572  1.2369
 1002SOL     OW 5898  10.175   9.695   8.906 -0.0596  0.3053 -0.4996
 1002SOL    HW1 5899  10.102   9.750   8.934  0.0109  0.1661 -0.0390
 1002SOL    HW2 5900  10.253   9.746   8.927  0.0134 -0.0524  0.1228
 1003SOL     OW 5901   7.116   5.100   0.823 -0.7824  0.0234  0.0503
 1003SOL    HW1 5902   7.092   5.164   0.756  1.1315  0.1673 -0.5416
 1003SOL    HW2 5903   7.042   5.039   0.824 -2.6681  2.1364  0.6007
 1004SOL     OW 5904   9.006  10.547   4.543  0.2888 -0.3294  0.4138
 1004SOL    HW1 5905   9.099  10.526   4.547  0.5951  1.0300  0.9694
 1004SOL    HW2 5906   8.990  10.603   4.619 -1.1365 -1.0863  0.7149
 1005SOL     OW 5907   0.879   3.846   7.812 -0.5950 -0.0250 -0.0336
 1005SOL    HW1 5908   0.827   3.917   7.850  0.1066  1.1831 -1.2565
 1005SOL    HW2 5909   0.917   3.884   7.733  0.5495 -1.4897 -0.2194
 1006SOL     OW 5910   1.226   6.700   2.443 -0.1130 -0.1538 -0.6252
 1006SOL    HW1 5911   1.283   6.641   2.493 -1.6034 -0.4868  0.7610
 1006SOL    HW2 5912   1.267   6.705   2.356  3.0329  1.0824  0.7691
 1007SOL     OW 5913   8.557  10.208   3.659 -0.2096 -0.1800 -0.4483
 1007SOL    HW1 5914   8.560  10.156   3.578  1.7523  1.5287 -1.5656
 1007SOL    HW2 5915   8.582  10.147   3.728  1.0476 -1.0059 -1.5810
 1008SOL     OW 5916   7.743   4.506   9.657 -0.0632  0.4141 -0.3630
 1008SOL    HW1 5917   7.814   4.509   9.592  0.7247  0.9190  0.4930
 1008SOL    HW2 5918   7.787   4.523   9.741 -1.0658 -0.1631  0.2973
 1009SOL     OW 5919   2.043   8.645   5.852 -0.1746  0.2280 -0.0004
 1009SOL    HW1 5920   2.130   8.683   5.847 -1.8666  4.8898  1.1912
 1009SOL    HW2 5921   2.000   8.673   5.771 -0.9657 -0.9679 -0.0184
 1010SOL     OW 5922   8.789   1.306   2.454 -0.0452 -0.2615  0.3998
 1010SOL    HW1 5923   8.879   1.326   2.478  0.6284 -1.7962 -0.6378
 1010SOL    HW2 5924   8.749   1.273   2.535 -0.0709  1.5643  1.1623
 1011SOL     OW 5925   0.128  10.618   0.399  0.6022  0.3489 -0.2563
 1011SOL    HW1 5926   0.165  10.574   0.476  2.0911  2.2194  0.1495
 1011SOL    HW2 5927   0.203  10.644   0.347 -0.2101  2.2698 -0.5457
 1012SOL     OW 5928   5.852   8.700   8.642 -0.3738 -0.4386 -0.1994
 1012SOL    HW1 5929   5.902   8.635   8.692 -1.1521  1.0197  2.7119
 1012SOL    HW2 5930   5.780   8.650   8.603  0.1973 -1.6640  0.2553
 1013SOL     OW 5931   5.922   9.421   0.807  0.1021  0.8154  0.2240
 1013SOL    HW1 5932   5.993   9.363   0.780 -0.6551 -0.2212  0.3720
 1013SOL    HW2 5933   5.946   9.448   0.896  0.6578  1.0565  0.0047
 1014SOL     OW 5934   2.376   5.416   7.892  0.4829  0.1852 -0.0949
 1014SOL    HW1 5935   2.428   5.339   7.871 -0.0517  0.0005 -0.8290
 1014SOL    HW2 5936   2.286   5.390   7.871  0.3169  1.0544 -0.5217
 1015SOL     OW 5937   2.295   9.600   3.801  0.5049 -0.0610  0.1289
 1015SOL    HW1 5938   2.324   9.641   3.720  0.1842 -0.3871 -0.1592
 1015SOL    HW2 5939   2.259   9.515   3.774 -0.0774  0.0406  0.5438
 1016SOL     OW 5940   2.687   9.056   9.101 -0.5276 -0.5436 -0.1674
 1016SOL    HW1 5941   2.720   8.967   9.086  0.5058 -0.7297  2.5366
 1016SOL    HW2 5942   2.619   9.045   9.168  1.1722  0.8269  1.9160
 1017SOL     OW 5943   9.361   2.545   0.583 -0.4717 -0.3122  0.3750
 1017SOL    HW1 5944   9.291   2.487   0.551  1.6458 -1.8785 -1.7924
 1017SOL    HW2 5945   9.436   2.487   0.596  0.7515  1.4518  1.6550
 1018SOL     OW 5946   9.609   0.630   6.475  0.4626  0.3082  0.4499
 1018SOL    HW1 5947   9.656   0.710   6.452 -0.0901  0.2884 -0.8215
 1018SOL    HW2 5948   9.539   0.624   6.410  1.6413 -2.2198 -0.6958
 1019SOL     OW 5949   1.634   3.382  10.253  0.0780 -0.0944  0.1265
 1019SOL    HW1 5950   1.609   3.313  10.315  0.2221 -0.7669 -0.5480
 1019SOL    HW2 5951   1.568   3.450  10.266 -0.7480 -0.8460  0.0082
 1020SOL     OW 5952   0.993   8.461   3.287 -0.4441 -0.4674 -0.1352
 1020SOL    HW1 5953   0.972   8.368   3.275  1.7783 -1.0661  0.0409
 1020SOL    HW2 5954   1.040   8.464   3.370  0.6632  0.5615 -0.7563
 1021SOL     OW 5955   1.521   4.937   4.393 -0.3352  0.8819  0.0971
 1021SOL    HW1 5956   1.438   4.899   4.366  0.2865 -0.8000  0.4285
 1021SOL    HW2 5957   1.508   5.032   4.385 -1.4965  0.6033 -2.1202
 1022SOL     OW 5958   8.352   9.365  10.196 -0.0747 -0.2736  0.3005
 1022SOL    HW1 5959   8.318   9.278  10.176  0.3116  0.3196 -3.6733
 1022SOL    HW2 5960   8.281   9.425  10.173  0.9880  0.5966 -0.8445
 1023SOL     OW 5961   6.437   4.289   4.280 -0.0264  0.2481 -0.0612
 1023SOL    HW1 5962   6.343   4.275   4.275 -0.0718  0.2026  0.7786
 1023SOL    HW2 5963   6.470   4.215   4.331  0.1679  1.3464  1.4988
 1024SOL     OW 5964   1.995   7.854   7.540 -0.2934 -0.3179 -0.0344
 1024SOL    HW1 5965   1.990   7.940   7.582 -1.0456  0.7458 -2.1692
 1024SOL    HW2 5966   1.905   7.833   7.518 -0.1063 -1.6646  0.4326
 1025SOL     OW 5967   9.990   0.050   3.835  0.3540  0.0099  0.2160
 1025SOL    HW1 5968  10.049  -0.021   3.857 -0.7193 -0.9458  0.1010
 1025SOL    HW2 5969  10.024   0.085   3.752  0.5766 -0.7293 -0.0130
 1026SOL     OW 5970   3.011   7.693   6.851 -0.4550 -0.1557 -0.5366
 1026SOL    HW1 5971   3.036   7.783   6.830 -0.8916 -0.0261 -0.5108
 1026SOL    HW2 5972   3.093   7.651   6.879 -0.6057  0.8560  1.6803
 1027SOL     OW 5973   5.241   7.599   9.042 -0.2252  0.0871  0.2740
 1027SOL    HW1 5974   5.157   7.584   9.085 -0.0741 -2.9775 -0.3104
 1027SOL    HW2 5975   5.300   7.533   9.078  1.1258  0.2785 -1.4439
 1028SOL     OW 5976   4.730   9.486   1.801  0.0638 -0.0559  0.5306
 1028SOL    HW1 5977   4.678   9.453   1.727 -0.6380  0.1796  0.9110
 1028SOL    HW2 5978   4.817   9.502   1.764  0.1433 -1.3471  0.0928
 1029SOL     OW 5979   3.636   2.118   8.131 -0.1289  0.2355 -0.5301
 1029SOL    HW1 5980   3.682   2.192   8.091  0.4805  0.2139  0.1038
 1029SOL    HW2 5981   3.693   2.092   8.204 -0.2458 -0.9690 -0.8564
 1030SOL     OW 5982   7.401   5.436  10.566 -0.1664  0.1307  0.2564
 1030SOL    HW1 5983   7.496   5.422  10.571 -0.2198 -0.2703  0.2016
 1030SOL    HW2 5984   7.392   5.527  10.537  0.2003  0.1807  0.2879
 1031SOL     OW 5985   2.609   2.043   3.352  0.3311  0.0134  0.8600
 1031SOL    HW1 5986   2.657   1.964   3.327  0.3098  0.4257 -0.5907
 1031SOL    HW2 5987   2.566   2.071   3.271 -0.1375  1.1844  1.4896
 1032SOL     OW 5988   6.965   7.224   8.715 -0.4996  0.3079  0.0101
 1032SOL    HW1 5989   7.031   7.271   8.664 -0.2540  0.7598  0.7158
 1032SOL    HW2 5990   6.936   7.153   8.658 -1.6674  1.9242 -1.5341
 1033SOL     OW 5991   2.291   8.946   2.415  0.1045  0.4626 -0.4729
 1033SOL    HW1 5992   2.240   8.992   2.481  0.5470  0.8875 -0.4261
 1033SOL    HW2 5993   2.271   8.853   2.430  0.1118  0.5620  0.1788
 1034SOL     OW 5994   1.234  10.126   5.972  0.5661  0.1955  0.0297
 1034SOL    HW1 5995   1.325  10.121   6.002  0.9740  0.3220 -1.1390
 1034SOL    HW2 5996   1.236  10.093   5.883 -0.4110  0.9180 -0.2796
 1035SOL     OW 5997   2.211   8.048   1.433 -0.4608  0.2660 -0.3743
 1035SOL    HW1 5998   2.171   8.046   1.520 -0.9883  1.0968 -0.5832
 1035SOL    HW2 5999   2.144   8.088   1.377 -0.8060 -1.7530 -1.5330
 1036SOL     OW 6000  10.630   5.002   6.796  0.1180 -0.2171 -0.2312
 1036SOL    HW1 6001  10.713   4.965   6.766  0.6915  0.3946  0.5653
 1036SOL    HW2 6002  10.568   4.982   6.726  0.8831 -0.8876 -0.7282
 1037SOL     OW 6003   5.014   9.143   9.926 -0.3641  0.3042  0.4996
 1037SOL    HW1 6004   4.965   9.115  10.004 -1.4117 -0.3710 -0.3719
 1037SOL    HW2 6005   5.007   9.069   9.865 -2.0868  1.8869 -1.3741
 1038SOL     OW 6006   8.279   7.620  10.631 -0.4465  0.4328 -0.5935
 1038SOL    HW1 6007   8.225   7.675  10.575 -1.1241 -0.3517 -0.7335
 1038SOL    HW2 6008   8.337   7.681  10.676 -3.0922  1.6403  1.4758
 1039SOL     OW 6009   5.322   1.587   5.630  0.5540 -0.0835  0.7009
 1039SOL    HW1 6010   5.321   1.541   5.713 -0.6855  0.2918  0.9176
 1039SOL    HW2 6011   5.295   1.676   5.651 -0.1452 -0.0783 -0.1397
 1040SOL     OW 6012   7.093   4.575  10.408  0.6163 -0.5096 -0.4895
 1040SOL    HW1 6013   7.036   4.630  10.354  1.3639 -0.2858 -1.0590
 1040SOL    HW2 6014   7.032   4.525  10.464 -0.1348 -0.3120 -1.1161
 1041SOL     OW 6015   5.268   8.028   6.780  0.0159  0.5662  0.1432
 1041SOL    HW1 6016   5.182   7.994   6.803  0.7726 -1.1292  0.5720
 1041SOL    HW2 6017   5.255   8.070   6.695 -1.1616  0.0877  0.0716
 1042SOL     OW 6018   7.662   5.341  10.671  0.0149 -0.7679 -0.0129
 1042SOL    HW1 6019   7.711   5.263  10.644  0.3707 -0.8486  0.8373
 1042SOL    HW2 6020   7.674   5.402  10.598  2.1233 -0.4658  0.5091
 1043SOL     OW 6021   1.587   2.167   5.441  0.0977  0.3156 -0.1971
 1043SOL    HW1 6022   1.674   2.187   5.407  0.3476 -1.3694 -0.6690
 1043SOL    HW2 6023   1.601   2.091   5.498 -1.0715  0.0054 -0.3030
 1044SOL     OW 6024   5.536   6.380   6.231  0.2590 -0.3331 -0.0673
 1044SOL    HW1 6025   5.447   6.402   6.205  0.2753  0.3236  0.3907
 1044SOL    HW2 6026   5.585   6.461   6.216  0.8358 -0.7582 -0.5479
 1045SOL     OW 6027   4.953   8.719   1.952 -0.6002 -0.0635  0.2312
 1045SOL    HW1 6028   5.030   8.699   1.898 -0.3187 -0.3993  0.7441
 1045SOL    HW2 6029   4.989   8.729   2.041 -1.3754 -2.1592  0.8391
 1046SOL     OW 6030   0.857  10.223   9.693 -0.0878 -0.4742  0.5218
 1046SOL    HW1 6031   0.834  10.268   9.611 -0.6584 -1.6211  0.0251
 1046SOL    HW2 6032   0.949  10.200   9.683 -0.1550 -0.6122  0.1906
 1047SOL     OW 6033   2.639   7.235   6.467  0.3835 -0.1376 -0.1323
 1047SOL    HW1 6034   2.656   7.143   6.490  1.0127 -0.1185 -0.5007
 1047SOL    HW2 6035   2.562   7.231   6.410 -0.2838 -0.3213  0.7614
 1048SOL     OW 6036   3.403   5.622   6.096  0.3085 -0.1250 -0.3526
 1048SOL    HW1 6037   3.342   5.582   6.159  0.3279  0.7586  0.2450
 1048SOL    HW2 6038   3.395   5.716   6.112  0.4807  0.1011 -1.5324
 1049SOL     OW 6039   8.330   2.555   6.444 -0.1670 -0.2449  0.1558
 1049SOL    HW1 6040   8.329   2.461   6.428 -0.6054 -0.2584  0.2331
 1049SOL    HW2 6041   8.247   2.586   6.408  0.3834  0.2589 -0.6941
 1050SOL     OW 6042  10.423   6.096   2.779  0.2250  0.0863 -0.7998
 1050SOL    HW1 6043  10.443   6.098   2.873 -1.1247  1.0999 -0.5102
 1050SOL    HW2 6044  10.506   6.115   2.736  1.6287 -3.4194  0.0200
 1051SOL     OW 6045   7.531   2.154   7.670 -0.3226 -0.0117 -0.1595
 1051SOL    HW1 6046   7.507   2.062   7.684  1.0109 -0.3176  0.2738
 1051SOL    HW2 6047   7.564   2.157   7.581  0.8422 -0.2371  0.2534
 1052SOL     OW 6048   0.004   0.786   1.583  0.0894  0.1025  0.2124
 1052SOL    HW1 6049  -0.083   0.747   1.590  0.5461 -1.0938 -0.4990
 1052SOL    HW2 6050   0.054   0.746   1.654  0.8873 -1.5836 -1.2252
 1053SOL     OW 6051   6.502  10.776   7.989 -0.3057 -0.0067 -0.7933
 1053SOL    HW1 6052   6.418  10.755   8.030 -0.7625  0.3500 -1.5161
 1053SOL    HW2 6053   6.500  10.871   7.977  1.4288  0.4600  1.7771
 1054SOL     OW 6054   7.529   4.133   8.332  0.3051 -0.0672 -0.5807
 1054SOL    HW1 6055   7.484   4.114   8.414  0.9645  1.1374  0.0929
 1054SOL    HW2 6056   7.478   4.203   8.292 -0.2303 -0.9041 -1.4105
 1055SOL     OW 6057   8.798   1.692   5.081  0.2624  0.1522 -0.4217
 1055SOL    HW1 6058   8.892   1.694   5.065  0.6021 -4.0299  0.0039
 1055SOL    HW2 6059   8.789   1.703   5.175  0.6569 -2.0777 -0.0726
 1056SOL     OW 6060   2.144  10.537   2.520 -0.6165  0.3055 -0.4025
 1056SOL    HW1 6061   2.116  10.596   2.450 -0.5602  1.2317  0.3325
 1056SOL    HW2 6062   2.231  10.508   2.493 -1.7373 -1.6697 -2.1290
 1057SOL     OW 6063   6.555   5.933  10.615  0.4417  0.0204  0.3505
 1057SOL    HW1 6064   6.637   5.893  10.643 -0.6493 -2.8199 -0.1507
 1057SOL    HW2 6065   6.524   5.981  10.692  1.4451 -0.8235  1.3123
 1058SOL     OW 6066   9.836   9.786   1.931 -0.0576  0.7121 -0.4223
 1058SOL    HW1 6067   9.901   9.851   1.903 -0.0549  0.7465 -0.3377
 1058SOL    HW2 6068   9.875   9.702   1.909 -0.0459  0.7382 -0.5027
 1059SOL     OW 6069   1.657   8.295   0.528  0.3574 -0.0855  0.7147
 1059SOL    HW1 6070   1.720   8.281   0.458  0.5628  2.1314  0.3756
 1059SOL    HW2 6071   1.573   8.269   0.491  0.7190 -0.7202  0.3248
 1060SOL     OW 6072   9.551   9.604   5.815 -0.1204  0.5990 -0.1505
 1060SOL    HW1 6073   9.548   9.602   5.910 -1.3467 -1.9719 -0.1460
 1060SOL    HW2 6074   9.597   9.524   5.791 -0.4622  0.8368 -1.7180
 1061SOL     OW 6075   6.557   1.775  10.709  0.0082  0.0620 -0.0204
 1061SOL    HW1 6076   6.497   1.721  10.658  0.2324  0.0222 -0.2389
 1061SOL    HW2 6077   6.582   1.846  10.651  0.2437  0.0307  0.0418
 1062SOL     OW 6078   4.695   0.686   4.618 -0.0280 -0.0322  0.3048
 1062SOL    HW1 6079   4.756   0.612   4.627  0.3236 -0.0877 -1.9116
 1062SOL    HW2 6080   4.748   0.763   4.638  0.7530 -0.1022 -1.3394
 1063SOL     OW 6081   0.914   7.596   8.053  0.1954  0.8555 -0.1691
 1063SOL    HW1 6082   0.940   7.688   8.046  0.6963  0.7141 -0.2189
 1063SOL    HW2 6083   0.830   7.598   8.098  0.0081  1.3649 -0.5271
 1064SOL     OW 6084   9.106   5.351   0.154  0.3100 -0.2029 -0.0941
 1064SOL    HW1 6085   9.052   5.410   0.101 -0.8108 -2.1667 -1.2248
 1064SOL    HW2 6086   9.158   5.410   0.209 -2.2806  1.8199  0.4130
 1065SOL     OW 6087   7.872   9.318   5.158  0.0007 -0.2294  0.2558
 1065SOL    HW1 6088   7.923   9.394   5.129  3.3029 -1.8029  1.4526
 1065SOL    HW2 6089   7.810   9.303   5.087  1.3457  1.7079 -1.4782
 1066SOL     OW 6090   9.891   0.963   1.716 -0.3847  0.0546 -0.3546
 1066SOL    HW1 6091   9.813   0.962   1.772  0.7403  1.1089  1.3029
 1066SOL    HW2 6092   9.926   0.874   1.723  0.1556  0.3735  1.2500
 1067SOL     OW 6093   9.609   9.503   3.286 -0.2680  0.1846  0.0266
 1067SOL    HW1 6094   9.585   9.439   3.219  0.0213  0.6835 -0.5741
 1067SOL    HW2 6095   9.628   9.452   3.364  2.2334 -0.6864 -1.0613
 1068SOL     OW 6096   3.301   1.503   3.903  0.0974 -0.6442 -0.3066
 1068SOL    HW1 6097   3.268   1.424   3.860  1.4383 -0.1070 -2.5157
 1068SOL    HW2 6098   3.368   1.537   3.843 -0.9346  2.5957  0.1659
 1069SOL     OW 6099   0.956   1.196   8.427  0.0478 -0.1625 -0.6729
 1069SOL    HW1 6100   1.013   1.120   8.427 -1.4540 -1.3295 -0.7503
 1069SOL    HW2 6101   0.974   1.240   8.343  0.6617 -0.6171 -0.7817
 1070SOL     OW 6102  10.610   3.224   7.015 -0.3169  0.6096  0.2706
 1070SOL    HW1 6103  10.697   3.190   7.036 -0.3227  0.0720 -0.5521
 1070SOL    HW2 6104  10.550   3.152   7.037 -0.8049  1.6973  2.8658
 1071SOL     OW 6105   6.098   3.819   9.787 -0.1937  0.3647 -0.4054
 1071SOL    HW1 6106   6.103   3.888   9.721  1.0252  0.0866 -0.6307
 1071SOL    HW2 6107   6.048   3.858   9.859 -0.7946  0.9637 -1.1351
 1072SOL     OW 6108   1.664   2.905   8.417  0.0588 -0.0774  0.1473
 1072SOL    HW1 6109   1.753   2.871   8.404  0.2117  0.8853 -1.8645
 1072SOL    HW2 6110   1.673   2.970   8.487  1.5113  1.6757 -1.5328
 1073SOL     OW 6111   0.386   9.009   8.394  0.2346 -0.0689 -0.3849
 1073SOL    HW1 6112   0.424   8.928   8.427 -1.4323 -0.2111  1.3504
 1073SOL    HW2 6113   0.298   8.986   8.366 -0.1144  1.0572 -0.2836
 1074SOL     OW 6114   5.032   9.416   5.989 -0.1069  0.2394 -0.9091
 1074SOL    HW1 6115   5.109   9.468   5.966 -0.6601  1.8180  0.6082
 1074SOL    HW2 6116   5.066   9.342   6.039  0.5196  0.1735 -1.4259
 1075SOL     OW 6117   6.216   0.188   2.079  0.5388 -0.5439 -0.0588
 1075SOL    HW1 6118   6.149   0.178   2.146  0.9489 -2.8222  0.0872
 1075SOL    HW2 6119   6.178   0.148   2.000  1.7606 -2.1225  0.1002
 1076SOL     OW 6120   9.566   2.365   1.162  0.3239 -0.2932  0.3884
 1076SOL    HW1 6121   9.614   2.347   1.243 -0.4814  0.5790  1.0875
 1076SOL    HW2 6122   9.474   2.359   1.188  0.0230  2.2551  0.1087
 1077SOL     OW 6123   5.565   7.302   4.724  0.0689 -0.3515  0.3553
 1077SOL    HW1 6124   5.472   7.325   4.719 -0.5688 -2.5094  1.1346
 1077SOL    HW2 6125   5.605   7.373   4.776 -0.9988  0.8946 -0.4676
 1078SOL     OW 6126   6.701   2.305   4.090  0.0606  0.2017 -0.6355
 1078SOL    HW1 6127   6.713   2.277   4.000 -1.5846  0.6244 -1.0156
 1078SOL    HW2 6128   6.790   2.325   4.121  0.6363  0.1732 -2.1863
 1079SOL     OW 6129   6.738   5.812   5.810 -0.2028 -0.6060 -0.0287
 1079SOL    HW1 6130   6.834   5.802   5.815 -0.0920  0.2386 -0.3469
 1079SOL    HW2 6131   6.709   5.808   5.901  0.4317  1.8470  0.3513
 1080SOL     OW 6132  10.048   3.837   5.635  0.5965 -0.0982  0.2973
 1080SOL    HW1 6133   9.983   3.826   5.566 -0.3364 -0.9632  1.2837
 1080SOL    HW2 6134  10.011   3.904   5.693 -0.4785 -2.0741  2.0082
 1081SOL     OW 6135   6.382   4.460   4.040 -0.1899  0.0556  0.0102
 1081SOL    HW1 6136   6.406   4.368   4.051 -0.9314  0.0826  2.5265
 1081SOL    HW2 6137   6.287   4.458   4.025 -0.6370  0.4465  2.4274
 1082SOL     OW 6138   7.023   4.953   6.577  0.0134 -0.0765 -0.3264
 1082SOL    HW1 6139   7.073   4.880   6.541 -1.2603 -0.2814 -1.7845
 1082SOL    HW2 6140   7.072   5.031   6.551  0.3935 -0.3310 -0.3768
 1083SOL     OW 6141   8.329   3.557   0.290  0.3102 -0.5668 -0.3438
 1083SOL    HW1 6142   8.278   3.579   0.367  1.6938 -0.2148  0.4945
 1083SOL    HW2 6143   8.269   3.506   0.236 -0.3609 -1.7607  1.4464
 1084SOL     OW 6144   0.550   3.337   3.612  0.3444  0.0689 -0.1109
 1084SOL    HW1 6145   0.527   3.280   3.685  3.2106 -0.6742  0.3457
 1084SOL    HW2 6146   0.546   3.280   3.535 -3.5199  1.0556 -0.8208
 1085SOL     OW 6147   7.782   8.523   2.789  0.5794 -0.4289  0.0673
 1085SOL    HW1 6148   7.854   8.572   2.749 -0.7053 -0.4239 -2.4205
 1085SOL    HW2 6149   7.786   8.547   2.881  0.9844  3.1971 -0.7362
 1086SOL     OW 6150   5.911   1.570   5.756  0.2338 -0.1248 -0.0738
 1086SOL    HW1 6151   5.907   1.476   5.743  0.5490 -0.4816  2.0106
 1086SOL    HW2 6152   6.003   1.587   5.779 -0.1393  0.4226  1.1045
 1087SOL     OW 6153   9.473   4.055   7.977 -0.3040  0.5746  0.2790
 1087SOL    HW1 6154   9.501   4.131   8.028 -1.4423  1.0108  0.2776
 1087SOL    HW2 6155   9.417   4.006   8.036 -1.3708  0.9114 -0.4082
 1088SOL     OW 6156   0.603   8.286   7.521  0.2101 -0.1604  0.5011
 1088SOL    HW1 6157   0.673   8.323   7.575 -0.7151  2.3645  0.1306
 1088SOL    HW2 6158   0.532   8.269   7.582 -0.2646  1.1919  0.3717
 1089SOL     OW 6159   8.404   9.481   1.907  0.4616  0.0134  0.0860
 1089SOL    HW1 6160   8.434   9.513   1.992 -2.2390  1.2710  0.6967
 1089SOL    HW2 6161   8.396   9.560   1.853  1.4946 -0.6911 -1.1627
 1090SOL     OW 6162   5.961   6.013   5.792  0.7359 -0.4162  0.3963
 1090SOL    HW1 6163   5.952   6.045   5.882  1.1162  0.4128  0.1469
 1090SOL    HW2 6164   5.979   5.919   5.802  0.8554 -0.3149  1.1931
 1091SOL     OW 6165   3.523  10.159   7.935  0.0149 -0.1353  0.2450
 1091SOL    HW1 6166   3.484  10.191   8.016 -1.3457  1.1208 -0.8611
 1091SOL    HW2 6167   3.450  10.149   7.875  0.9540 -1.3908 -0.7471
 1092SOL     OW 6168   3.536   5.345   1.352  0.2386  0.4207 -0.1155
 1092SOL    HW1 6169   3.586   5.276   1.396 -1.6497 -1.4920 -0.8138
 1092SOL    HW2 6170   3.524   5.313   1.263 -2.0139  0.9052 -0.0292
 1093SOL     OW 6171   7.788   8.747   9.252 -0.1802 -0.7597  0.4326
 1093SOL    HW1 6172   7.716   8.795   9.211 -0.5486 -0.4003  1.4673
 1093SOL    HW2 6173   7.761   8.655   9.250 -0.6746 -0.6276  0.8072
 1094SOL     OW 6174   1.566   3.764   0.715  0.1452 -0.3111 -0.3766
 1094SOL    HW1 6175   1.476   3.731   0.723 -0.4695  0.5189 -3.0031
 1094SOL    HW2 6176   1.565   3.846   0.763  0.3189 -1.5856  1.9491
 1095SOL     OW 6177   9.708  10.523   9.767  0.3648 -0.2616  0.2364
 1095SOL    HW1 6178   9.698  10.428   9.776 -0.6312 -0.0095  2.5706
 1095SOL    HW2 6179   9.793  10.542   9.807 -0.4708  0.0016  2.0354
 1096SOL     OW 6180   2.337   1.609   6.318  0.1550 -0.5753  0.1761
 1096SOL    HW1 6181   2.388   1.592   6.398 -0.6398  0.2712  0.8784
 1096SOL    HW2 6182   2.338   1.704   6.308  0.0240 -0.6559 -0.6857
 1097SOL     OW 6183   6.906   9.238   7.566  0.1188  0.0657  0.4224
 1097SOL    HW1 6184   6.813   9.254   7.549 -0.0175  1.1643  1.9713
 1097SOL    HW2 6185   6.922   9.280   7.651  1.9694 -0.3422  0.3096
 1098SOL     OW 6186   6.012   3.657   4.412 -0.0592 -0.3230 -0.1650
 1098SOL    HW1 6187   5.964   3.695   4.484  0.5488 -0.4947  0.3454
 1098SOL    HW2 6188   5.966   3.575   4.393 -0.0198 -0.4472  0.2612
 1099SOL     OW 6189   0.657   0.214  10.650 -0.6502  0.8541 -0.4515
 1099SOL    HW1 6190   0.676   0.145  10.713 -0.1590  0.5576 -0.9272
 1099SOL    HW2 6191   0.623   0.286  10.704 -2.9274 -0.3721 -0.1127
 1100SOL     OW 6192   8.659   6.745   2.011 -0.1002  0.0311  0.2031
 1100SOL    HW1 6193   8.674   6.722   2.103 -1.0572  1.9581  0.9080
 1100SOL    HW2 6194   8.576   6.792   2.011  0.8947  1.9772 -1.2854
 1101SOL     OW 6195   2.111   5.352   8.276  0.2680 -0.8741  0.1642
 1101SOL    HW1 6196   2.043   5.337   8.210  0.3215 -0.7280  0.0761
 1101SOL    HW2 6197   2.191   5.317   8.236  0.1240 -1.6612  0.5353
 1102SOL     OW 6198   0.137   4.132   3.074  0.3588  0.5286 -0.3439
 1102SOL    HW1 6199   0.067   4.195   3.086 -0.5063 -0.2133 -1.3078
 1102SOL    HW2 6200   0.098   4.048   3.097 -0.4768 -0.5418 -4.7059
 1103SOL     OW 6201   4.582   5.964   9.109  0.1410 -0.9403 -0.1189
 1103SOL    HW1 6202   4.607   6.047   9.070  1.7685 -0.5442  1.6143
 1103SOL    HW2 6203   4.487   5.973   9.125  0.2587  0.5330 -0.0986
 1104SOL     OW 6204   4.720   1.568   6.528  0.1853 -0.3790  0.3561
 1104SOL    HW1 6205   4.673   1.508   6.586  0.5974  0.2526  1.3618
 1104SOL    HW2 6206   4.810   1.570   6.562  0.1822  0.7954  0.3332
 1105SOL     OW 6207   8.421   6.267   5.875  0.1103  0.2491  0.2463
 1105SOL    HW1 6208   8.442   6.298   5.787  0.1880 -2.4406 -0.7625
 1105SOL    HW2 6209   8.327   6.249   5.873 -0.3037  2.0385  1.3900
 1106SOL     OW 6210   0.935   8.529   2.208 -0.1263 -0.3137 -0.3878
 1106SOL    HW1 6211   0.906   8.475   2.282  1.1606 -0.4016  0.0891
 1106SOL    HW2 6212   0.901   8.484   2.131 -1.7122 -0.0877  0.1408
 1107SOL     OW 6213   4.332   8.404   5.239 -0.4577 -0.1184 -0.1838
 1107SOL    HW1 6214   4.311   8.311   5.255  0.0927 -0.2628 -0.2853
 1107SOL    HW2 6215   4.255   8.438   5.194 -1.0700 -0.2854  0.6990
 1108SOL     OW 6216   0.186   3.013   3.916 -0.1044  0.1439 -0.0144
 1108SOL    HW1 6217   0.128   2.947   3.956  1.7078 -0.6508  1.4305
 1108SOL    HW2 6218   0.241   2.963   3.856 -0.2789  0.7459 -0.6915
 1109SOL     OW 6219  10.659   6.419   2.944  0.7664  0.3778  0.0683
 1109SOL    HW1 6220  10.642   6.500   2.895  0.1009 -0.0632 -0.4613
 1109SOL    HW2 6221  10.745   6.390   2.914  1.5876  1.5331  1.1954
 1110SOL     OW 6222   3.501   8.162   4.539 -0.1280  0.0090 -0.4853
 1110SOL    HW1 6223   3.478   8.117   4.458  0.9676 -2.2320  0.3683
 1110SOL    HW2 6224   3.425   8.150   4.596  0.3841 -1.3436 -0.0564
 1111SOL     OW 6225   5.700   9.931   7.571  0.1342 -0.4614 -0.0783
 1111SOL    HW1 6226   5.740  10.013   7.542  1.2246 -1.2672 -0.9701
 1111SOL    HW2 6227   5.749   9.906   7.649  0.5504 -0.8047 -0.4412
 1112SOL     OW 6228   5.666   0.684   2.194  0.3395  1.0790  0.4523
 1112SOL    HW1 6229   5.732   0.747   2.223 -0.9632  3.2709 -1.0392
 1112SOL    HW2 6230   5.681   0.675   2.100 -0.9049  0.9460  0.2410
 1113SOL     OW 6231   6.596   4.312   5.169  0.1589  0.7352  0.0852
 1113SOL    HW1 6232   6.564   4.371   5.101 -0.8455  0.0071 -0.0901
 1113SOL    HW2 6233   6.569   4.225   5.140 -1.5434  0.5302  2.0695
 1114SOL     OW 6234   3.897   1.667  10.530  0.1530 -0.0385 -0.0793
 1114SOL    HW1 6235   3.858   1.582  10.548  0.1217  0.6128  3.6499
 1114SOL    HW2 6236   3.964   1.678  10.596  0.6805  2.5413 -0.9240
 1115SOL     OW 6237   8.634   3.359   3.880 -0.4002  0.2391  0.5494
 1115SOL    HW1 6238   8.556   3.409   3.855  0.7849  1.2125 -1.4803
 1115SOL    HW2 6239   8.707   3.410   3.844  1.1163 -1.1306  1.5742
 1116SOL     OW 6240   0.932   8.828  10.118 -0.5399 -0.1330  0.6249
 1116SOL    HW1 6241   0.860   8.880  10.080 -0.2819  1.4523  2.1590
 1116SOL    HW2 6242   0.979   8.890  10.174  0.7084 -1.6941  1.3828
 1117SOL     OW 6243   6.577   7.498   3.593  0.0283 -0.6940 -0.1320
 1117SOL    HW1 6244   6.554   7.590   3.610  3.5245  0.1820  0.5707
 1117SOL    HW2 6245   6.567   7.489   3.498  0.4155  0.6678 -0.3257
 1118SOL     OW 6246   5.793   0.235   6.991 -0.6616 -0.1117  0.3862
 1118SOL    HW1 6247   5.780   0.298   7.061 -1.6979  0.0839  0.0276
 1118SOL    HW2 6248   5.821   0.288   6.916 -1.2861 -0.1046  0.1562
 1119SOL     OW 6249   3.194   4.195   2.402 -0.1133 -0.3134  0.1787
 1119SOL    HW1 6250   3.163   4.237   2.322  0.6745  0.6711  0.3673
 1119SOL    HW2 6251   3.176   4.259   2.472 -0.9178 -1.2126  0.8225
 1120SOL     OW 6252   3.593  10.013  10.536  0.5994  0.0424 -0.6196
 1120SOL    HW1 6253   3.655   9.964  10.481  0.0677  1.0369 -2.1824
 1120SOL    HW2 6254   3.524  10.041  10.475 -1.7840 -1.5334  1.1232
 1121SOL     OW 6255   2.170  10.723   6.973  0.1311  0.2728 -0.3065
 1121SOL    HW1 6256   2.164  10.815   6.998  0.6808  0.5702 -1.2481
 1121SOL    HW2 6257   2.264  10.703   6.975 -0.0216 -0.4340  0.4608
 1122SOL     OW 6258   3.531   6.646   9.949  0.5205 -0.0158  0.1855
 1122SOL    HW1 6259   3.536   6.705  10.024  0.0470 -0.0351  0.2357
 1122SOL    HW2 6260   3.506   6.561   9.987 -1.3304  0.3264 -0.1442
 1123SOL     OW 6261   8.652   7.095   0.280 -0.3798  0.5297 -0.3673
 1123SOL    HW1 6262   8.711   7.151   0.331  0.0788  0.6932 -1.0570
 1123SOL    HW2 6263   8.695   7.010   0.279 -0.6012  0.4131 -0.1259
 1124SOL     OW 6264   7.252   1.303   6.494  0.3854 -0.5373  0.1034
 1124SOL    HW1 6265   7.333   1.261   6.520  1.2844 -0.0631 -1.7892
 1124SOL    HW2 6266   7.205   1.237   6.443 -0.5559 -0.8808  1.3594
 1125SOL     OW 6267   8.419   4.883   3.261 -0.0671 -0.3912  0.3387
 1125SOL    HW1 6268   8.504   4.878   3.218 -0.8974 -3.1048 -1.2296
 1125SOL    HW2 6269   8.417   4.806   3.318 -1.2322 -0.0171  0.8321
 1126SOL     OW 6270  10.075   5.131   8.559  0.0539  0.2496 -0.0249
 1126SOL    HW1 6271  10.141   5.086   8.506 -0.2687  0.2442 -0.4251
 1126SOL    HW2 6272  10.082   5.223   8.534 -1.1214  0.0449 -1.2042
 1127SOL     OW 6273   7.686   4.427   8.890 -0.3933  0.4543  0.6300
 1127SOL    HW1 6274   7.593   4.407   8.903 -0.4415  0.0072 -0.3748
 1127SOL    HW2 6275   7.721   4.432   8.979 -1.0904 -0.7354  0.9999
 1128SOL     OW 6276   4.062   5.945   1.583  0.3170 -0.2103  0.9465
 1128SOL    HW1 6277   4.013   5.915   1.659  0.0243 -1.0687  0.4391
 1128SOL    HW2 6278   4.152   5.955   1.615  0.2871 -0.9967  1.3021
 1129SOL     OW 6279   8.238   8.472   8.051  0.7144 -0.5135  0.1692
 1129SOL    HW1 6280   8.186   8.417   8.110  0.9770  0.3093  1.2022
 1129SOL    HW2 6281   8.181   8.546   8.030  0.1362 -1.4427 -1.7119
 1130SOL     OW 6282   7.407   4.372   6.290  0.1189  0.6624 -0.1050
 1130SOL    HW1 6283   7.465   4.351   6.363 -0.6302  0.9418  0.5724
 1130SOL    HW2 6284   7.368   4.456   6.313 -1.4069 -0.0497 -0.0240
 1131SOL     OW 6285   5.940   0.806   5.957 -0.4646  0.2779 -0.1858
 1131SOL    HW1 6286   5.902   0.885   5.996 -0.8333 -0.4428  0.9692
 1131SOL    HW2 6287   5.993   0.838   5.884  0.5533  1.7370  1.1208
 1132SOL     OW 6288   5.137   5.472   8.682 -0.2343  0.4738  0.6423
 1132SOL    HW1 6289   5.119   5.394   8.735 -1.3858 -0.9498 -1.6441
 1132SOL    HW2 6290   5.071   5.536   8.710 -1.9730 -0.8651 -0.1893
 1133SOL     OW 6291   0.888   7.163   7.455  0.2485  0.0343  0.1071
 1133SOL    HW1 6292   0.932   7.079   7.444 -1.1243 -0.5287 -1.5962
 1133SOL    HW2 6293   0.851   7.159   7.543  4.3079  0.9898  2.1073
 1134SOL     OW 6294   3.857   5.186   5.229  0.4644 -0.3717 -0.2163
 1134SOL    HW1 6295   3.789   5.127   5.260  1.3985 -1.8916 -0.9780
 1134SOL    HW2 6296   3.845   5.266   5.282 -1.6558 -0.7151 -0.1032
 1135SOL     OW 6297   9.423   4.465   4.464 -0.0222  0.6012  0.2050
 1135SOL    HW1 6298   9.493   4.484   4.402 -0.2216  1.5359  0.2628
 1135SOL    HW2 6299   9.348   4.515   4.433 -0.1172  1.1066  1.2079
 1136SOL     OW 6300   8.286   4.853   2.222 -0.6691  0.3408 -0.2183
 1136SOL    HW1 6301   8.277   4.763   2.188 -0.8888 -0.2257  1.2583
 1136SOL    HW2 6302   8.205   4.867   2.271 -0.4056  1.1653 -0.0184
 1137SOL     OW 6303   4.569   9.019   5.236 -0.5642 -0.4970  0.3846
 1137SOL    HW1 6304   4.493   9.043   5.182  0.4437  0.0004 -0.8614
 1137SOL    HW2 6305   4.643   9.062   5.193  0.2157  0.4341  2.5428
 1138SOL     OW 6306   8.376   5.927   3.767 -0.3660 -0.2002  0.3029
 1138SOL    HW1 6307   8.299   5.877   3.739 -0.2375  0.1166 -0.6484
 1138SOL    HW2 6308   8.397   5.982   3.692  0.2978  0.3158  0.8596
 1139SOL     OW 6309   5.136   3.654   0.276 -0.0315  0.6849  0.2868
 1139SOL    HW1 6310   5.174   3.566   0.285  0.8726  1.2066  2.3549
 1139SOL    HW2 6311   5.048   3.639   0.241  0.6370 -0.9048 -0.8231
 1140SOL     OW 6312   8.472   3.292  10.628  0.4458 -0.4361 -0.3562
 1140SOL    HW1 6313   8.445   3.236  10.701  0.3061 -0.5384 -0.4850
 1140SOL    HW2 6314   8.403   3.358  10.622  0.4661 -0.4175 -0.3851
 1141SOL     OW 6315   4.506   3.334   3.657  1.0748  0.1034  1.0931
 1141SOL    HW1 6316   4.452   3.302   3.585  1.2405  1.1444  0.4854
 1141SOL    HW2 6317   4.456   3.406   3.695  0.8890 -0.5722  2.1787
 1142SOL     OW 6318   9.353   3.858   3.332  0.1315  0.0468 -0.1844
 1142SOL    HW1 6319   9.383   3.872   3.242  1.9678 -2.0778  0.0144
 1142SOL    HW2 6320   9.321   3.944   3.360  2.7085  1.6405 -1.7241
 1143SOL     OW 6321   3.378   1.491   4.833 -0.2297 -0.5978 -0.2961
 1143SOL    HW1 6322   3.393   1.410   4.785 -0.4710 -0.1262 -1.2058
 1143SOL    HW2 6323   3.309   1.535   4.784  0.0225  0.2361  0.0755
 1144SOL     OW 6324   4.819   1.888   5.698 -0.1948 -0.1429 -0.1202
 1144SOL    HW1 6325   4.728   1.893   5.726 -0.8147 -0.4138 -1.9322
 1144SOL    HW2 6326   4.852   1.978   5.708 -1.0093  0.2099 -0.5151
 1145SOL     OW 6327   0.644   0.412   8.175 -0.4608  0.1212  0.3069
 1145SOL    HW1 6328   0.725   0.451   8.143 -0.5443 -0.1482 -0.2481
 1145SOL    HW2 6329   0.583   0.485   8.182  0.0412  0.4521  1.4491
 1146SOL     OW 6330   9.248   5.548   0.299  0.0496  0.4166  0.5148
 1146SOL    HW1 6331   9.240   5.606   0.374  0.8458  0.2394  0.7417
 1146SOL    HW2 6332   9.264   5.461   0.337 -1.4669 -0.0332  0.1929
 1147SOL     OW 6333   0.956   3.734   8.263 -0.5454 -0.0685  0.3365
 1147SOL    HW1 6334   1.014   3.661   8.282 -1.0801 -0.7585 -0.6009
 1147SOL    HW2 6335   0.873   3.693   8.238 -1.1605  0.8801  0.7464
 1148SOL     OW 6336   1.068  10.115   1.542 -0.2188  0.4713 -0.0369
 1148SOL    HW1 6337   0.973  10.101   1.543 -0.0428 -1.0063 -0.7919
 1148SOL    HW2 6338   1.088  10.132   1.450  0.4575 -1.1196 -0.2172
 1149SOL     OW 6339   1.630   3.559   4.019  0.4336 -0.1012 -0.0251
 1149SOL    HW1 6340   1.725   3.544   4.019  0.2835 -1.1497  0.3453
 1149SOL    HW2 6341   1.620   3.649   4.050  1.3806  0.6038 -1.6389
 1150SOL     OW 6342   4.166   6.527   0.058 -0.1484 -0.1324  0.0314
 1150SOL    HW1 6343   4.174   6.431   0.054 -1.6282 -0.3124  0.5988
 1150SOL    HW2 6344   4.072   6.543   0.053  0.1278  1.3972 -1.4960
 1151SOL     OW 6345   7.414   8.027   0.377 -0.3948 -0.0899  0.2610
 1151SOL    HW1 6346   7.435   8.010   0.469 -1.0963  0.3672  0.5132
 1151SOL    HW2 6347   7.412   7.941   0.336 -1.0038 -0.3769  0.8755
 1152SOL     OW 6348  10.553   0.151   6.698 -0.0219  0.2345  0.5132
 1152SOL    HW1 6349  10.521   0.191   6.779  0.3089  1.2433  0.1553
 1152SOL    HW2 6350  10.511   0.201   6.628  1.1590  0.5987  0.0494
 1153SOL     OW 6351   5.173   1.659   4.187 -0.6493 -0.3240  0.0641
 1153SOL    HW1 6352   5.228   1.626   4.117 -1.7526 -0.4494 -0.7844
 1153SOL    HW2 6353   5.225   1.649   4.266  1.1413  0.9921 -0.8657
 1154SOL     OW 6354   2.352   3.423   1.010 -0.5132  0.3026 -0.7154
 1154SOL    HW1 6355   2.365   3.516   1.031 -1.1531  0.2440 -0.0293
 1154SOL    HW2 6356   2.367   3.378   1.092  1.3110 -0.3685 -1.3745
 1155SOL     OW 6357   1.364   8.887   2.527  0.3827 -0.1549 -0.4979
 1155SOL    HW1 6358   1.334   8.960   2.581  1.6131  1.6379 -2.1377
 1155SOL    HW2 6359   1.428   8.841   2.582  1.0446  1.1683 -0.1332
 1156SOL     OW 6360   5.440   6.438   8.032  0.2799  0.2129 -0.3724
 1156SOL    HW1 6361   5.468   6.528   8.050  0.4641  0.4908 -1.9382
 1156SOL    HW2 6362   5.505   6.404   7.971 -1.6329  0.2188 -2.5681
 1157SOL     OW 6363   0.396   7.211   8.685  0.6408  0.3899 -0.6021
 1157SOL    HW1 6364   0.387   7.129   8.635 -1.0185 -0.6957  1.3219
 1157SOL    HW2 6365   0.349   7.276   8.633 -0.3007 -0.5054 -0.9133
 1158SOL     OW 6366   6.250  10.251   7.567 -0.4538 -0.0587  0.5997
 1158SOL    HW1 6367   6.199  10.268   7.646 -0.8491 -0.7357  0.4948
 1158SOL    HW2 6368   6.294  10.168   7.584  0.7058  0.5616  0.7325
 1159SOL     OW 6369   3.407   5.103   1.969 -0.2989  0.0502  0.0347
 1159SOL    HW1 6370   3.374   5.056   1.893 -0.5194 -0.3036  0.3435
 1159SOL    HW2 6371   3.328   5.134   2.014 -0.3593 -2.2247  1.6849
 1160SOL     OW 6372   4.673   9.475   9.474 -0.1238 -0.1622 -0.0515
 1160SOL    HW1 6373   4.705   9.536   9.407 -1.6794  0.6577 -0.0735
 1160SOL    HW2 6374   4.745   9.412   9.484  0.7371  0.5418 -1.4260
 1161SOL     OW 6375   7.778   0.486   8.296  0.4006  0.2031  0.4109
 1161SOL    HW1 6376   7.829   0.436   8.232  0.1146  0.6519 -0.1738
 1161SOL    HW2 6377   7.694   0.441   8.300  0.8740 -0.6241  1.4840
 1162SOL     OW 6378   4.935   8.147   1.392  0.1758  0.9796 -0.6280
 1162SOL    HW1 6379   4.993   8.073   1.410 -0.0392  1.0199  0.2444
 1162SOL    HW2 6380   4.995   8.218   1.368  0.5533  1.2091  0.9140
 1163SOL     OW 6381   0.425   9.259   0.392 -0.0618 -0.3524 -0.2552
 1163SOL    HW1 6382   0.419   9.318   0.466 -1.2618 -1.8389  0.9052
 1163SOL    HW2 6383   0.500   9.291   0.341  1.9567 -0.3159  2.5263
 1164SOL     OW 6384   2.276   9.247  10.666  0.2495 -0.3684 -0.6681
 1164SOL    HW1 6385   2.235   9.178  10.718  1.1014 -1.8505 -1.8798
 1164SOL    HW2 6386   2.289   9.208  10.580  2.6718  0.5557 -0.8232
 1165SOL     OW 6387   1.336   6.049   2.263 -0.3359  0.1884  0.5471
 1165SOL    HW1 6388   1.393   5.973   2.270 -0.6784 -0.0234  1.0400
 1165SOL    HW2 6389   1.350   6.081   2.174  1.5284  0.9103  1.0447
 1166SOL     OW 6390   9.303   4.127   2.872 -0.1283 -0.2856  0.1242
 1166SOL    HW1 6391   9.325   4.183   2.798  0.8889 -1.8112 -0.7893
 1166SOL    HW2 6392   9.350   4.165   2.946  1.8554 -0.7849 -0.8158
 1167SOL     OW 6393   4.066   8.718   6.673 -0.1027 -0.4129  0.0936
 1167SOL    HW1 6394   4.133   8.666   6.628 -0.6928  0.4766 -1.9621
 1167SOL    HW2 6395   3.983   8.685   6.638 -0.6519 -0.2210  1.1778
 1168SOL     OW 6396   1.441   0.146   2.230  0.6126 -0.3206  0.6180
 1168SOL    HW1 6397   1.370   0.151   2.293  1.7311 -0.5174  1.9406
 1168SOL    HW2 6398   1.456   0.236   2.202  1.4655  0.0865  2.2466
 1169SOL     OW 6399   5.322   6.143   9.094  0.2333 -0.1785 -0.3814
 1169SOL    HW1 6400   5.332   6.057   9.053  1.0017  0.1974 -1.0116
 1169SOL    HW2 6401   5.376   6.139   9.173  1.0212  0.0191 -0.8972
 1170SOL     OW 6402   5.184   9.024   6.780 -0.0890 -0.0369  0.8589
 1170SOL    HW1 6403   5.149   9.066   6.859 -1.3064 -0.9564  0.8306
 1170SOL    HW2 6404   5.123   9.049   6.710  1.5730  1.6812 -0.0719
 1171SOL     OW 6405   9.314   6.426   8.994  0.1611 -0.3269 -0.3430
 1171SOL    HW1 6406   9.375   6.363   9.030 -1.4437 -0.3007  2.7966
 1171SOL    HW2 6407   9.227   6.393   9.018 -0.8291  2.0602 -0.2797
 1172SOL     OW 6408   9.590   3.930   3.720 -0.2105  0.3507 -0.0665
 1172SOL    HW1 6409   9.651   3.903   3.789 -0.3194 -0.6192 -0.3421
 1172SOL    HW2 6410   9.644   3.982   3.661  0.1885  0.0918  0.0655
 1173SOL     OW 6411   0.242   4.596   7.074  0.2761 -0.1441 -0.3877
 1173SOL    HW1 6412   0.258   4.519   7.019 -0.0697  0.8574 -1.9681
 1173SOL    HW2 6413   0.156   4.581   7.112 -1.3230  0.8118 -3.2788
 1174SOL     OW 6414   7.541   7.606   9.681 -0.6597 -0.5262  0.5073
 1174SOL    HW1 6415   7.546   7.639   9.591 -1.5951 -0.2597  0.5407
 1174SOL    HW2 6416   7.509   7.680   9.732  1.0229 -0.2949  1.2976
 1175SOL     OW 6417   3.563   3.720   4.247  0.5833 -0.1198 -0.3360
 1175SOL    HW1 6418   3.517   3.754   4.323  1.1411 -2.7481  1.3054
 1175SOL    HW2 6419   3.494   3.686   4.189  0.2637 -0.2220  0.1044
 1176SOL     OW 6420   7.698   5.216   4.484  0.1091 -0.8901 -0.1276
 1176SOL    HW1 6421   7.710   5.258   4.399 -0.3221 -2.1520 -0.8423
 1176SOL    HW2 6422   7.768   5.251   4.538 -0.5636  1.1478 -0.5000
 1177SOL     OW 6423   3.788   2.576   1.297 -0.5100  0.2627  0.3384
 1177SOL    HW1 6424   3.778   2.645   1.363  1.0345  0.6156  0.2332
 1177SOL    HW2 6425   3.793   2.624   1.214  0.6353  0.0490  0.2725
 1178SOL     OW 6426  10.024  10.525   3.643 -0.3186 -0.1957  0.2096
 1178SOL    HW1 6427   9.958  10.510   3.575  1.0441 -1.9553 -0.8551
 1178SOL    HW2 6428  10.045  10.437   3.674  0.6881  0.4222  1.3318
 1179SOL     OW 6429   8.077   0.050   2.337 -0.0299 -0.2072  0.0780
 1179SOL    HW1 6430   8.110  -0.039   2.323  1.5628  0.4348 -0.5186
 1179SOL    HW2 6431   8.082   0.063   2.432 -3.9719 -2.0428  0.7080
 1180SOL     OW 6432   2.935   7.568   4.983  0.1019 -0.3341  0.2928
 1180SOL    HW1 6433   2.943   7.582   4.888 -1.3957  0.6760  0.2886
 1180SOL    HW2 6434   2.924   7.473   4.992 -1.8035 -0.2615 -0.7476
 1181SOL     OW 6435   3.694   5.066  10.039 -0.2791  0.2751  0.1408
 1181SOL    HW1 6436   3.624   5.022  10.087 -0.2701  0.9189  0.7635
 1181SOL    HW2 6437   3.666   5.158  10.036  0.4411  0.5012  0.2189
 1182SOL     OW 6438   0.692  10.372   3.425  0.1959  0.2208  0.2821
 1182SOL    HW1 6439   0.702  10.385   3.331  2.0987  0.0908  0.4245
 1182SOL    HW2 6440   0.761  10.310   3.447  0.5373  1.1543  1.9555
 1183SOL     OW 6441   2.931   4.034   0.951  0.1827  0.1992  0.4364
 1183SOL    HW1 6442   2.970   4.008   1.035 -0.3063 -0.0415  0.5937
 1183SOL    HW2 6443   3.006   4.052   0.895  0.7202 -3.6323 -0.3863
 1184SOL     OW 6444   1.725   5.102   8.671  0.4846  0.2619  0.2908
 1184SOL    HW1 6445   1.795   5.115   8.607  0.6648  1.1075  0.6487
 1184SOL    HW2 6446   1.694   5.191   8.691  0.0717 -0.0307  0.9836
 1185SOL     OW 6447   7.350   8.366   3.104 -0.5679 -0.1993 -0.2256
 1185SOL    HW1 6448   7.313   8.286   3.143 -0.1024  0.1976  1.0390
 1185SOL    HW2 6449   7.374   8.421   3.178  0.9188  0.3145 -1.0492
 1186SOL     OW 6450   3.059   2.573   4.376  0.2828  0.0886 -0.6310
 1186SOL    HW1 6451   3.042   2.624   4.296  2.0912  0.6606 -0.7026
 1186SOL    HW2 6452   2.992   2.602   4.438  0.5291  1.7069 -1.0687
 1187SOL     OW 6453   5.102   9.740   7.354 -0.7576 -0.3676  0.7299
 1187SOL    HW1 6454   5.149   9.657   7.348 -0.6157 -0.2255 -0.3535
 1187SOL    HW2 6455   5.145   9.787   7.425  0.9045 -0.1511 -0.3641
 1188SOL     OW 6456   4.836   9.224   7.469 -0.0275 -0.4929  0.5156
 1188SOL    HW1 6457   4.766   9.285   7.492  0.3728  0.0732  0.2504
 1188SOL    HW2 6458   4.840   9.163   7.542 -0.3195 -0.1006  0.8615
 1189SOL     OW 6459  10.482   3.186   2.005 -0.1625  0.6827 -0.2048
 1189SOL    HW1 6460  10.523   3.151   1.926 -0.7972 -1.7873  0.4680
 1189SOL    HW2 6461  10.396   3.217   1.975 -0.2886  0.0283 -0.5456
 1190SOL     OW 6462   1.403   1.530   9.873  0.3141 -0.3873  0.4136
 1190SOL    HW1 6463   1.374   1.465   9.810  0.7530  0.7304 -0.9874
 1190SOL    HW2 6464   1.385   1.491   9.958 -0.6101 -1.7886 -0.3958
 1191SOL     OW 6465   3.744   8.707   5.850  0.5298 -0.2878 -0.1829
 1191SOL    HW1 6466   3.708   8.632   5.898 -1.0913  0.4076 -0.2210
 1191SOL    HW2 6467   3.708   8.698   5.761  2.1094 -0.6296 -0.8246
 1192SOL     OW 6468   9.572   5.156  10.702  0.2023 -0.1982 -0.0875
 1192SOL    HW1 6469   9.630   5.171  10.628  0.9343 -2.1916  0.0356
 1192SOL    HW2 6470   9.549   5.064  10.697 -2.7011  0.4241  0.1018
 1193SOL     OW 6471  10.009   2.112   1.086  0.1739  0.2299 -0.0539
 1193SOL    HW1 6472  10.067   2.120   1.161  0.8820  1.5303 -0.6986
 1193SOL    HW2 6473  10.030   2.027   1.048 -1.0293 -0.9901  1.8429
 1194SOL     OW 6474  10.311   2.194   6.915  0.7091  0.1534 -0.4633
 1194SOL    HW1 6475  10.386   2.135   6.913 -0.0881 -0.9651  0.9219
 1194SOL    HW2 6476  10.316   2.236   7.001 -0.1546  0.1783 -0.4212
 1195SOL     OW 6477   5.699   8.556   8.908  0.1010 -0.2692  0.3727
 1195SOL    HW1 6478   5.693   8.584   8.817  2.7139  0.9367  0.4670
 1195SOL    HW2 6479   5.648   8.620   8.957 -0.4629 -0.3252 -0.1275
 1196SOL     OW 6480   2.540   4.249  10.036  0.6400 -0.0173  0.3732
 1196SOL    HW1 6481   2.559   4.224   9.945 -0.1883 -0.5439  0.3359
 1196SOL    HW2 6482   2.467   4.193  10.061  1.0244 -0.0556  1.4546
 1197SOL     OW 6483   4.255   5.205   7.274 -0.1910  0.6349 -0.5210
 1197SOL    HW1 6484   4.177   5.260   7.263 -0.8029 -0.5470 -2.7375
 1197SOL    HW2 6485   4.327   5.257   7.237  0.3349  2.0378  2.1893
 1198SOL     OW 6486   2.406   3.036   0.504 -0.2712  1.0573 -0.3686
 1198SOL    HW1 6487   2.330   3.093   0.516 -1.3809 -0.0034 -2.0446
 1198SOL    HW2 6488   2.372   2.948   0.517  1.1798  0.6475  0.9937
 1199SOL     OW 6489   1.622   0.900   2.930  0.2818  0.7279 -0.0828
 1199SOL    HW1 6490   1.606   0.810   2.958 -1.2862  0.2796 -2.1223
 1199SOL    HW2 6491   1.704   0.896   2.881 -0.5208  0.0700 -1.4116
 1200SOL     OW 6492   5.572   0.961   5.846 -0.1093  0.0908  0.2690
 1200SOL    HW1 6493   5.536   0.883   5.804 -0.9320  0.3912  0.3935
 1200SOL    HW2 6494   5.630   0.927   5.914 -0.5228 -0.4176  0.3747
 1201SOL     OW 6495   6.584   9.433   8.147 -0.3206 -0.2691  0.2108
 1201SOL    HW1 6496   6.677   9.411   8.142  0.0170  1.2630 -1.0394
 1201SOL    HW2 6497   6.545   9.390   8.070 -0.5494 -0.4210  0.4086
 1202SOL     OW 6498   2.968   8.021   9.325  0.3102 -0.2429  0.3236
 1202SOL    HW1 6499   2.891   8.063   9.286  2.1258  2.7570 -0.3411
 1202SOL    HW2 6500   2.990   7.950   9.265 -0.7974  0.0907 -0.5014
 1203SOL     OW 6501   7.297   6.533   9.839 -0.0694  0.4625  0.0952
 1203SOL    HW1 6502   7.284   6.449   9.884  0.9296  0.5007  0.4825
 1203SOL    HW2 6503   7.236   6.530   9.766  1.7909 -1.7783 -1.5035
 1204SOL     OW 6504   4.603   2.542  10.576  0.3302 -0.0026 -0.2748
 1204SOL    HW1 6505   4.522   2.564  10.622  0.6925  0.8002  0.0028
 1204SOL    HW2 6506   4.633   2.625  10.539  0.2951 -0.5549 -1.5712
 1205SOL     OW 6507   1.796   9.691   3.207 -0.0172  0.1003  0.2374
 1205SOL    HW1 6508   1.741   9.658   3.278 -1.5038  0.5621 -0.6555
 1205SOL    HW2 6509   1.771   9.783   3.198  0.0486  0.0222 -0.9587
 1206SOL     OW 6510   8.041   3.973   0.410 -0.0084 -0.1777 -0.7151
 1206SOL    HW1 6511   8.112   3.974   0.346  0.8388  0.4664  0.2083
 1206SOL    HW2 6512   7.963   3.999   0.361  0.1397 -1.9994 -2.0062
 1207SOL     OW 6513   8.148   1.912   5.636  0.5034 -0.0646  0.2904
 1207SOL    HW1 6514   8.074   1.972   5.634  0.1447 -0.4524  1.2187
 1207SOL    HW2 6515   8.115   1.833   5.592  0.3948 -0.1889  0.5868
 1208SOL     OW 6516   2.319   3.831   4.847 -0.1814 -0.0135 -0.1809
 1208SOL    HW1 6517   2.325   3.918   4.806 -0.1157  0.2477  0.3616
 1208SOL    HW2 6518   2.408   3.796   4.842 -0.2832 -0.1977 -0.7137
 1209SOL     OW 6519   6.414   0.219   6.285 -0.0257 -0.0463 -0.1244
 1209SOL    HW1 6520   6.342   0.159   6.263 -0.3979  0.4034 -0.1560
 1209SOL    HW2 6521   6.374   0.285   6.342  0.2252  0.5216 -0.5861
 1210SOL     OW 6522   5.779   9.089   9.484  0.3995 -0.1760  0.1815
 1210SOL    HW1 6523   5.705   9.092   9.424 -0.7847  2.9986  1.6030
 1210SOL    HW2 6524   5.855   9.109   9.429 -0.4914  1.3696 -0.5572
 1211SOL     OW 6525   6.944   1.781   5.901 -0.2466 -0.4310 -0.4958
 1211SOL    HW1 6526   6.876   1.836   5.861 -0.9880 -0.5371  0.5751
 1211SOL    HW2 6527   6.938   1.698   5.854  0.1301  0.0315 -1.3757
 1212SOL     OW 6528   9.426   4.667   4.178  0.1373  0.1889  0.2576
 1212SOL    HW1 6529   9.374   4.671   4.098 -1.5777 -1.3284  1.2261
 1212SOL    HW2 6530   9.516   4.662   4.148 -0.5362 -1.8090 -1.6591
 1213SOL     OW 6531   0.255   2.557   2.340  0.0664  0.5216 -0.3574
 1213SOL    HW1 6532   0.213   2.543   2.425 -1.1846  2.4215 -0.6075
 1213SOL    HW2 6533   0.305   2.638   2.350  0.0981  0.6448 -1.3610
 1214SOL     OW 6534   2.721   4.646   4.186  0.6881 -0.7884 -0.2314
 1214SOL    HW1 6535   2.631   4.622   4.165  0.1492  0.9534 -0.0691
 1214SOL    HW2 6536   2.772   4.611   4.113 -0.1117 -1.7665 -0.3420
 1215SOL     OW 6537   6.700   1.887   5.030  0.2605 -0.2456 -0.5278
 1215SOL    HW1 6538   6.718   1.968   5.078  1.0529 -1.4133  1.2664
 1215SOL    HW2 6539   6.607   1.871   5.045  0.6255 -0.9558  1.3366
 1216SOL     OW 6540   2.904   9.203   9.224  0.1965 -0.0792  0.3320
 1216SOL    HW1 6541   2.823   9.161   9.196  0.2470  0.0039  0.0542
 1216SOL    HW2 6542   2.922   9.269   9.156  0.1883  0.2969  0.6873
 1217SOL     OW 6543   0.173  10.487   2.814  0.7363 -0.2529 -0.1469
 1217SOL    HW1 6544   0.178  10.552   2.883 -1.2001  1.9833 -1.9320
 1217SOL    HW2 6545   0.091  10.441   2.830  0.5690 -0.1179 -0.5915
 1218SOL     OW 6546   5.242   5.356   6.470  0.5811  0.3390  0.0100
 1218SOL    HW1 6547   5.243   5.383   6.562 -1.4161 -1.6393  0.6818
 1218SOL    HW2 6548   5.240   5.439   6.422 -1.8248  1.5102  1.8715
 1219SOL     OW 6549   0.905   2.106   3.389 -0.0785  0.3411  0.2213
 1219SOL    HW1 6550   0.844   2.122   3.317  0.2541  0.6727  0.0077
 1219SOL    HW2 6551   0.857   2.049   3.449 -0.8551  1.1931  0.4274
 1220SOL     OW 6552   8.922   4.399   7.524  0.5292 -0.2242 -0.0876
 1220SOL    HW1 6553   8.839   4.355   7.544  1.2347 -1.6298 -0.1014
 1220SOL    HW2 6554   8.918   4.415   7.429  0.2840 -0.3182 -0.0937
 1221SOL     OW 6555   3.794   5.665   9.388 -0.5266  0.5847 -0.0547
 1221SOL    HW1 6556   3.867   5.726   9.401 -0.0161  0.3622 -1.6279
 1221SOL    HW2 6557   3.729   5.716   9.340 -1.3891  0.7410  1.2248
 1222SOL     OW 6558   2.740   0.546   0.776  0.5059 -0.3102  0.1191
 1222SOL    HW1 6559   2.647   0.531   0.794  0.5421  0.2454  0.8219
 1222SOL    HW2 6560   2.783   0.531   0.860  0.9286  0.4090  0.0386
 1223SOL     OW 6561   9.746   7.162   9.979 -0.4446 -0.3530  0.6934
 1223SOL    HW1 6562   9.751   7.210   9.897  0.3544  1.5728  1.7791
 1223SOL    HW2 6563   9.797   7.082   9.964 -0.7437 -0.2716 -0.8139
 1224SOL     OW 6564   9.888   7.646   4.024 -0.4734 -0.7458  0.2740
 1224SOL    HW1 6565   9.844   7.695   4.093  0.4781 -1.2708  1.2938
 1224SOL    HW2 6566   9.867   7.554   4.042 -0.4455 -0.8697 -0.2991
 1225SOL     OW 6567   2.948   9.888   7.590  0.2410 -0.1150 -0.3125
 1225SOL    HW1 6568   2.913   9.800   7.574 -1.7927  0.2669  1.6224
 1225SOL    HW2 6569   2.873   9.946   7.578  1.0262  1.1325  0.6041
 1226SOL     OW 6570   0.508   7.564   4.069 -0.0098  0.0965  0.8065
 1226SOL    HW1 6571   0.432   7.547   4.013  0.5879 -0.0803  0.0310
 1226SOL    HW2 6572   0.487   7.646   4.113 -0.2666  0.5377 -0.0992
 1227SOL     OW 6573   8.058   9.823   4.316 -0.2774 -0.6512  0.5283
 1227SOL    HW1 6574   8.068   9.812   4.410  0.7104 -1.4416  0.3608
 1227SOL    HW2 6575   8.117   9.756   4.278 -2.4189 -1.9856 -0.6514
 1228SOL     OW 6576   4.512   7.256   0.173 -0.7482  0.1093  0.0702
 1228SOL    HW1 6577   4.456   7.215   0.239  0.0655 -0.0697  0.6797
 1228SOL    HW2 6578   4.566   7.184   0.140 -0.9639  0.2541 -0.5934
 1229SOL     OW 6579   8.361   0.467   4.045 -0.0429  0.0731  0.8785
 1229SOL    HW1 6580   8.399   0.511   4.121  0.6796 -0.5401  0.8847
 1229SOL    HW2 6581   8.286   0.418   4.080 -0.6092  0.9700  0.9359
 1230SOL     OW 6582   4.680   3.761   8.779  0.4855  0.0074  0.7658
 1230SOL    HW1 6583   4.678   3.728   8.689  2.3853  1.1297  0.2437
 1230SOL    HW2 6584   4.721   3.690   8.829 -1.3193 -0.9535  0.9554
 1231SOL     OW 6585   3.934   1.428   0.701  0.4495  0.4048 -0.2501
 1231SOL    HW1 6586   3.974   1.515   0.703  0.6794  0.4058  3.5147
 1231SOL    HW2 6587   3.856   1.437   0.756  0.8139 -1.8610  0.7464
 1232SOL     OW 6588   3.002  10.332   4.884  0.0089 -0.1115 -0.0293
 1232SOL    HW1 6589   3.067  10.402   4.888 -0.4054  0.2330  0.8221
 1232SOL    HW2 6590   2.934  10.366   4.826 -1.0624  0.9613  1.7794
 1233SOL     OW 6591   4.161   8.499   5.904  0.0033 -0.5211  0.0068
 1233SOL    HW1 6592   4.139   8.569   5.966  2.0564 -0.3534  0.6129
 1233SOL    HW2 6593   4.206   8.544   5.832 -0.7801 -0.9446 -0.7631
 1234SOL     OW 6594   1.230   9.218   0.660 -0.2158  0.0973  0.2468
 1234SOL    HW1 6595   1.169   9.279   0.703 -1.1225 -1.7391  1.7243
 1234SOL    HW2 6596   1.313   9.266   0.657 -1.0199  1.6060  0.8476
 1235SOL     OW 6597   3.791   1.189   0.141  0.0353 -0.6763 -0.1033
 1235SOL    HW1 6598   3.759   1.260   0.085  0.8096 -1.3813 -1.4767
 1235SOL    HW2 6599   3.887   1.197   0.136  0.1214 -0.7756  1.1134
 1236SOL     OW 6600   3.180  10.778   6.552 -0.0088 -0.9310  0.6171
 1236SOL    HW1 6601   3.140  10.699   6.517 -1.1338 -0.6949  1.3249
 1236SOL    HW2 6602   3.231  10.748   6.627 -1.8117 -0.8167  1.9467
 1237SOL     OW 6603   9.793   2.065   0.434  0.5898 -0.0613  0.7908
 1237SOL    HW1 6604   9.826   2.135   0.490 -1.3119  0.8365  0.8639
 1237SOL    HW2 6605   9.826   2.086   0.346 -0.1179  1.0406  0.7810
 1238SOL     OW 6606  10.424   9.297   7.758 -0.2741  0.0581  0.3395
 1238SOL    HW1 6607  10.343   9.337   7.727 -0.7329 -1.0712  0.0266
 1238SOL    HW2 6608  10.421   9.306   7.853 -1.2419 -0.8344  0.4070
 1239SOL     OW 6609   2.298   1.769   4.084 -0.8462  0.2990 -0.3250
 1239SOL    HW1 6610   2.236   1.729   4.023 -0.3987 -1.5414  0.3762
 1239SOL    HW2 6611   2.383   1.761   4.039 -0.5453 -0.8820  0.4173
 1240SOL     OW 6612   6.766   4.746   5.968 -0.0254 -0.1472 -0.0643
 1240SOL    HW1 6613   6.706   4.763   5.895 -0.5473 -0.8710  0.1798
 1240SOL    HW2 6614   6.816   4.827   5.977  0.2484 -0.1392 -1.4056
 1241SOL     OW 6615   7.234   0.675   8.741 -0.1104  0.4390 -0.3839
 1241SOL    HW1 6616   7.242   0.754   8.795 -0.3594  1.0043 -1.1500
 1241SOL    HW2 6617   7.147   0.641   8.760  0.0308  0.2992  0.0140
 1242SOL     OW 6618   9.720   3.182   8.458  0.1627 -0.6672 -0.6776
 1242SOL    HW1 6619   9.771   3.117   8.507 -0.7330 -1.7282 -1.1064
 1242SOL    HW2 6620   9.782   3.218   8.395  1.0037 -0.1826  0.3959
 1243SOL     OW 6621   0.528   6.227   0.685  0.3732 -0.4895 -0.2116
 1243SOL    HW1 6622   0.468   6.295   0.655  0.2175 -1.2048 -1.6016
 1243SOL    HW2 6623   0.583   6.271   0.750 -0.0987  0.8064 -0.6546
 1244SOL     OW 6624   5.845  10.315   7.701  0.0209  0.3596  0.4937
 1244SOL    HW1 6625   5.772  10.276   7.749 -0.2963 -0.1947 -0.4205
 1244SOL    HW2 6626   5.922  10.267   7.730 -0.2988 -0.6281 -0.2446
 1245SOL     OW 6627   3.379   3.125   0.355 -0.2357 -0.2759 -0.2283
 1245SOL    HW1 6628   3.380   3.115   0.450 -1.9230  1.2242  0.0197
 1245SOL    HW2 6629   3.456   3.177   0.335 -0.4800  0.3816  0.4877
 1246SOL     OW 6630   1.782   5.964   5.206 -0.3212 -1.2223 -0.4828
 1246SOL    HW1 6631   1.790   5.957   5.301  1.3567 -0.4743 -0.5166
 1246SOL    HW2 6632   1.772   6.057   5.190 -1.3324 -1.4106 -1.0262
 1247SOL     OW 6633   7.840   4.929   6.349  0.1566 -0.5548  0.4492
 1247SOL    HW1 6634   7.930   4.940   6.380  0.1388  0.2182  0.2529
 1247SOL    HW2 6635   7.845   4.947   6.255 -0.4079  0.7097  0.6521
 1248SOL     OW 6636   4.203   1.487   5.505 -0.6846  0.1457  0.3727
 1248SOL    HW1 6637   4.168   1.576   5.508 -1.8178 -0.3097  0.9792
 1248SOL    HW2 6638   4.204   1.458   5.596 -1.3277 -0.8354  0.0877
 1249SOL     OW 6639   1.378   3.701   5.345 -0.2661 -0.0676 -0.1031
 1249SOL    HW1 6640   1.402   3.709   5.252 -0.3768  0.0280 -0.1236
 1249SOL    HW2 6641   1.444   3.643   5.382 -0.2978 -0.2147 -0.2741
 1250SOL     OW 6642   9.047   8.594   1.419 -0.6686  0.3463  0.1922
 1250SOL    HW1 6643   8.978   8.620   1.479 -0.0536 -1.0466  1.5617
 1250SOL    HW2 6644   9.111   8.665   1.425 -0.8447  0.4598  0.8047
 1251SOL     OW 6645   5.974   5.656   7.044 -0.5157 -0.2126  0.3905
 1251SOL    HW1 6646   5.931   5.595   7.103 -0.2309  0.8842  1.7693
 1251SOL    HW2 6647   6.033   5.707   7.099 -1.1643  1.7084 -0.5947
 1252SOL     OW 6648   9.860   9.637   6.678 -0.2568 -0.8385 -0.3168
 1252SOL    HW1 6649   9.903   9.690   6.745 -0.2761 -1.6318  0.3432
 1252SOL    HW2 6650   9.929   9.617   6.615  0.1415 -1.3497  0.2652
 1253SOL     OW 6651   2.773   5.024   1.834  0.2043 -0.1605 -0.7533
 1253SOL    HW1 6652   2.778   4.957   1.903 -0.3551  2.0645  1.6133
 1253SOL    HW2 6653   2.710   4.990   1.771 -2.1895 -0.7499  1.7814
 1254SOL     OW 6654   6.032  10.532   9.661  0.0008 -0.4289  0.4257
 1254SOL    HW1 6655   6.038  10.479   9.582 -0.9398  1.3065 -0.8584
 1254SOL    HW2 6656   6.070  10.617   9.637 -0.6142  0.2467  1.7302
 1255SOL     OW 6657   0.852   2.257   7.496  0.3428 -0.2565  0.3029
 1255SOL    HW1 6658   0.823   2.172   7.464 -1.7344  0.7962 -0.8107
 1255SOL    HW2 6659   0.914   2.288   7.430 -0.9624  0.2235 -0.7313
 1256SOL     OW 6660   9.401   3.980   0.417  0.6859  0.0294 -0.1077
 1256SOL    HW1 6661   9.435   3.902   0.373  0.8603  0.5680 -0.9375
 1256SOL    HW2 6662   9.311   3.956   0.441  0.8495 -0.5465 -0.0570
 1257SOL     OW 6663   5.646   2.579   8.533 -0.2695 -0.1268 -0.1653
 1257SOL    HW1 6664   5.676   2.666   8.560  1.4439 -0.8484  0.4165
 1257SOL    HW2 6665   5.652   2.582   8.437 -0.6811  0.5395 -0.1784
 1258SOL     OW 6666   3.412   1.562   7.190 -0.3008  0.7574 -0.0310
 1258SOL    HW1 6667   3.469   1.486   7.202  0.7262  1.5278  0.1089
 1258SOL    HW2 6668   3.416   1.580   7.096  1.4188  2.0701  0.2317
 1259SOL     OW 6669   1.810   1.711   2.783 -0.3759  0.0236 -0.3125
 1259SOL    HW1 6670   1.832   1.801   2.806  2.1278 -0.0475 -2.0255
 1259SOL    HW2 6671   1.731   1.719   2.729 -1.7347  0.8662  1.6803
 1260SOL     OW 6672   8.531   2.327   9.784 -0.6680  0.1268  0.1360
 1260SOL    HW1 6673   8.454   2.274   9.764 -0.0641 -1.4985  1.8178
 1260SOL    HW2 6674   8.521   2.350   9.877  1.1405 -0.6573  0.5693
 1261SOL     OW 6675   0.280   4.173  10.025 -0.9450  0.5868 -0.0597
 1261SOL    HW1 6676   0.327   4.090  10.019  0.7924  1.6469 -2.6434
 1261SOL    HW2 6677   0.221   4.173   9.950 -1.3476  1.4576  0.2434
 1262SOL     OW 6678  10.174   1.722   2.515 -0.0675 -0.1741  0.0181
 1262SOL    HW1 6679  10.212   1.647   2.562 -0.8930 -0.5398  0.1260
 1262SOL    HW2 6680  10.111   1.682   2.455 -0.0256  0.3943 -0.4075
 1263SOL     OW 6681   0.679   5.303   4.288  0.0906 -0.4568 -0.4702
 1263SOL    HW1 6682   0.719   5.369   4.345 -0.7829 -1.1217  0.9611
 1263SOL    HW2 6683   0.733   5.305   4.209  0.6640  1.2830 -0.0878
 1264SOL     OW 6684   7.355   6.988   2.569 -0.0295 -0.0694  0.3961
 1264SOL    HW1 6685   7.295   7.063   2.572  0.0133  0.0358 -0.9529
 1264SOL    HW2 6686   7.434   7.022   2.527  0.1276 -0.7794  0.1170
 1265SOL     OW 6687   2.623   3.888   6.183  0.0206  0.7852 -1.1206
 1265SOL    HW1 6688   2.665   3.804   6.166 -1.0701  0.2157 -1.0533
 1265SOL    HW2 6689   2.695   3.946   6.208  0.6844 -0.3466 -0.3135
 1266SOL     OW 6690  10.735   2.911  10.303  0.7458 -0.4842 -0.5691
 1266SOL    HW1 6691  10.711   2.829  10.261 -0.1218 -0.5865  0.0869
 1266SOL    HW2 6692  10.788   2.885  10.378  1.7933 -0.3381 -1.2408
 1267SOL     OW 6693   3.268   2.590   8.439 -0.1321  0.0092 -0.4616
 1267SOL    HW1 6694   3.280   2.557   8.528 -0.7567 -1.1511 -0.7899
 1267SOL    HW2 6695   3.315   2.528   8.384 -0.0813  0.5023 -0.9826
 1268SOL     OW 6696  10.343   5.159   9.998 -0.1366 -0.6770  0.0233
 1268SOL    HW1 6697  10.327   5.223  10.068 -0.7498 -2.0344  1.1876
 1268SOL    HW2 6698  10.342   5.210   9.918  1.4790  1.0821  1.0493
 1269SOL     OW 6699  10.678   7.992   1.031  0.0120 -0.0372 -0.0813
 1269SOL    HW1 6700  10.730   8.049   1.088 -1.8295  0.2097  1.4502
 1269SOL    HW2 6701  10.724   7.908   1.034  1.2173  0.5958 -0.1166
 1270SOL     OW 6702   4.986   0.853   1.037  0.1438  1.0052 -0.3733
 1270SOL    HW1 6703   5.040   0.775   1.024  1.5904  2.0829 -1.1425
 1270SOL    HW2 6704   5.028   0.899   1.109 -1.3380  0.5717  0.8059
 1271SOL     OW 6705   2.216  10.406   4.885 -0.2686 -0.3543  0.1311
 1271SOL    HW1 6706   2.132  10.416   4.930  0.6025 -1.6249  2.1933
 1271SOL    HW2 6707   2.244  10.316   4.906  1.4131 -0.1082 -0.8387
 1272SOL     OW 6708   8.620   5.385   0.116 -0.5515 -0.2295  0.3477
 1272SOL    HW1 6709   8.547   5.332   0.147 -1.4120  1.1416  0.7757
 1272SOL    HW2 6710   8.583   5.438   0.045 -0.0856  0.7120  0.7771
 1273SOL     OW 6711   3.382   5.304   5.889  0.1419 -0.0252  0.3650
 1273SOL    HW1 6712   3.428   5.220   5.894  0.2443  0.1077  1.9474
 1273SOL    HW2 6713   3.313   5.289   5.824  1.3541 -0.7241 -0.8197
 1274SOL     OW 6714   1.816   9.535   9.020 -0.2354  0.4682 -0.3180
 1274SOL    HW1 6715   1.784   9.534   8.930  0.5577  2.3637 -0.6531
 1274SOL    HW2 6716   1.912   9.543   9.012 -0.2750  2.6766  0.6372
 1275SOL     OW 6717   1.274   9.545   8.620  0.3864  0.3722 -0.1399
 1275SOL    HW1 6718   1.243   9.457   8.643 -0.9511  1.1338  1.1154
 1275SOL    HW2 6719   1.331   9.531   8.545 -0.3261 -1.4909 -0.3911
 1276SOL     OW 6720   1.756   1.434   6.622  0.5354  0.1798  0.2879
 1276SOL    HW1 6721   1.807   1.447   6.702 -0.0264 -1.7689  1.0139
 1276SOL    HW2 6722   1.711   1.517   6.609 -0.1790  0.2251  2.5977
 1277SOL     OW 6723   6.516   4.121  10.595 -0.5054 -0.8227 -0.0346
 1277SOL    HW1 6724   6.480   4.067  10.665 -0.6815 -1.1325 -0.3618
 1277SOL    HW2 6725   6.594   4.160  10.633 -0.5128 -1.1159  0.2863
 1278SOL     OW 6726   2.673   7.800   2.857 -0.6167 -0.0980 -0.1395
 1278SOL    HW1 6727   2.586   7.767   2.875  0.1473 -1.4037  1.3935
 1278SOL    HW2 6728   2.665   7.896   2.863 -1.9784 -0.1897 -0.3273
 1279SOL     OW 6729   2.130   3.302   3.263 -0.1810 -0.1411  0.3537
 1279SOL    HW1 6730   2.143   3.351   3.345  1.6023  0.2564 -0.1172
 1279SOL    HW2 6731   2.096   3.217   3.291  1.2881 -0.3595  1.6171
 1280SOL     OW 6732   0.571   3.933   4.694  0.0340 -0.6897 -0.6839
 1280SOL    HW1 6733   0.627   3.913   4.768 -1.0406  0.4380  0.4782
 1280SOL    HW2 6734   0.618   4.000   4.645 -0.5629  0.7969  0.6923
 1281SOL     OW 6735   1.468   4.098   8.220 -0.3603  0.1656  0.0264
 1281SOL    HW1 6736   1.479   4.106   8.125  0.8839  0.6227  0.1809
 1281SOL    HW2 6737   1.485   4.187   8.253  1.9448 -0.5332  0.8785
 1282SOL     OW 6738   9.463   7.939   4.448 -0.5902  0.1456  0.0825
 1282SOL    HW1 6739   9.513   8.020   4.433 -0.1909 -0.4196 -1.8339
 1282SOL    HW2 6740   9.515   7.891   4.512  0.2546  0.4791 -0.3396
 1283SOL     OW 6741   1.499   6.668   5.925  0.4150  0.1180  0.0750
 1283SOL    HW1 6742   1.448   6.734   5.878  0.6793  0.3884  0.1612
 1283SOL    HW2 6743   1.449   6.648   6.003  0.8354  0.9937  0.5781
 1284SOL     OW 6744   5.356   6.217   1.583 -0.0703  0.3487 -0.7804
 1284SOL    HW1 6745   5.352   6.247   1.492  1.5923 -0.2498 -1.0709
 1284SOL    HW2 6746   5.359   6.298   1.634  2.3349  0.7710 -1.4550
 1285SOL     OW 6747   4.627   8.737   2.833  0.7410 -0.1662  0.2429
 1285SOL    HW1 6748   4.722   8.732   2.831  0.6841 -2.9767  0.7037
 1285SOL    HW2 6749   4.608   8.812   2.890  2.6867 -0.1711  0.9657
 1286SOL     OW 6750   7.790   7.552   9.865 -0.5618  0.0606 -0.0041
 1286SOL    HW1 6751   7.850   7.623   9.890 -1.3789  0.1261  1.9881
 1286SOL    HW2 6752   7.732   7.592   9.800 -0.4025  0.9511  0.3842
 1287SOL     OW 6753   6.280   8.390   4.963  0.1615 -0.0662  0.1394
 1287SOL    HW1 6754   6.195   8.432   4.972 -0.1196 -0.4813 -0.4640
 1287SOL    HW2 6755   6.343   8.457   4.988 -0.3393  0.2733  0.5107
 1288SOL     OW 6756   5.200   5.699   2.156  0.1073  0.2762  0.1283
 1288SOL    HW1 6757   5.151   5.658   2.085  0.7724 -1.6154  0.6945
 1288SOL    HW2 6758   5.281   5.648   2.162  0.1033  0.4308  2.1579
 1289SOL     OW 6759   2.225   8.454  10.176 -0.0590 -0.1596  0.0679
 1289SOL    HW1 6760   2.275   8.536  10.172 -0.5019  0.0988 -0.1994
 1289SOL    HW2 6761   2.193   8.450  10.266 -1.3817  0.7771 -0.3303
 1290SOL     OW 6762   1.838   9.829   9.982  0.5192 -0.1466  0.2352
 1290SOL    HW1 6763   1.818   9.749  10.029  1.2754  0.2790  1.3237
 1290SOL    HW2 6764   1.871   9.799   9.897 -1.5455 -0.9036 -0.3533
 1291SOL     OW 6765   5.383   1.407   2.942 -0.4149 -0.0648  0.1178
 1291SOL    HW1 6766   5.463   1.392   2.992  0.4752  2.8671 -0.2221
 1291SOL    HW2 6767   5.322   1.447   3.004 -0.2078  1.2185 -0.4558
 1292SOL     OW 6768   3.669   9.287   0.424  0.1399 -0.1409  0.0251
 1292SOL    HW1 6769   3.754   9.330   0.432 -0.4980  1.1577 -0.0336
 1292SOL    HW2 6770   3.610   9.355   0.394 -0.7973 -1.1897 -0.5953
 1293SOL     OW 6771   1.193   9.663   6.491 -0.3367 -0.0621 -0.4084
 1293SOL    HW1 6772   1.289   9.674   6.492 -0.4080  0.5847 -0.3077
 1293SOL    HW2 6773   1.168   9.681   6.401 -0.4011  0.1374 -0.3520
 1294SOL     OW 6774   4.629   6.145   7.046  0.0873  0.2259  0.0570
 1294SOL    HW1 6775   4.702   6.169   7.103 -1.3135  0.0603  2.0456
 1294SOL    HW2 6776   4.552   6.147   7.104 -1.2279 -1.3475 -1.5104
 1295SOL     OW 6777   7.795  10.560   6.692 -0.0563 -0.3136 -0.3638
 1295SOL    HW1 6778   7.833  10.586   6.608  0.7303 -2.3508 -0.6796
 1295SOL    HW2 6779   7.850  10.488   6.723  1.2199  1.8846  3.1341
 1296SOL     OW 6780   8.456   3.888   5.023 -0.5504  0.2309  0.8198
 1296SOL    HW1 6781   8.525   3.942   5.063  2.6750 -2.1758 -0.9725
 1296SOL    HW2 6782   8.453   3.809   5.078 -1.9959  0.3229  0.9074
 1297SOL     OW 6783   3.818   3.178   9.100 -0.1134 -0.6689  0.3396
 1297SOL    HW1 6784   3.867   3.237   9.043 -0.7602 -1.1569 -0.7604
 1297SOL    HW2 6785   3.848   3.091   9.076 -1.3426 -0.9609 -0.1995
 1298SOL     OW 6786   5.391   7.193   5.307  0.1736  0.3189 -0.4891
 1298SOL    HW1 6787   5.428   7.179   5.395  0.9941  1.0819 -0.6889
 1298SOL    HW2 6788   5.408   7.111   5.261  1.2765  0.4952 -0.4395
 1299SOL     OW 6789   8.320   7.113   7.603 -0.0127 -0.4535  0.0624
 1299SOL    HW1 6790   8.278   7.074   7.679 -0.3182  0.1599  0.2125
 1299SOL    HW2 6791   8.408   7.137   7.634  0.2355 -1.1763 -0.0796
 1300SOL     OW 6792   5.411  10.088   7.623  0.1008 -0.0460 -0.0154
 1300SOL    HW1 6793   5.434  10.167   7.575 -1.5168  2.0945  2.4255
 1300SOL    HW2 6794   5.485  10.074   7.682  0.0021  0.2220  0.1767
 1301SOL     OW 6795   1.188   6.282  10.050 -0.3499  0.4520  0.0118
 1301SOL    HW1 6796   1.219   6.372  10.063  0.1910  0.4011 -0.8455
 1301SOL    HW2 6797   1.195   6.268   9.956  1.8844 -1.3055  0.3555
 1302SOL     OW 6798   8.770   9.518   4.004 -0.8673  0.2042 -0.4848
 1302SOL    HW1 6799   8.713   9.487   4.074  2.4247 -1.7374  1.6032
 1302SOL    HW2 6800   8.765   9.613   4.009 -1.5390  0.1137  1.7155
 1303SOL     OW 6801   2.430   3.482   7.437 -0.5564  0.0055 -0.1313
 1303SOL    HW1 6802   2.433   3.565   7.484  0.2691 -0.4883  0.7367
 1303SOL    HW2 6803   2.383   3.423   7.496 -0.5435 -0.3167 -0.4434
 1304SOL     OW 6804   6.499   3.129   2.806  0.2322  0.1424 -0.6905
 1304SOL    HW1 6805   6.434   3.062   2.784  1.0068 -1.0458  0.4679
 1304SOL    HW2 6806   6.453   3.192   2.861 -0.5518  0.6817 -1.9354
 1305SOL     OW 6807   0.078   0.956   1.076  0.1696 -0.3395  0.1324
 1305SOL    HW1 6808   0.109   0.955   1.166  0.5359 -0.7150  0.0047
 1305SOL    HW2 6809  -0.008   0.913   1.080  0.5385 -1.1022  0.1823
 1306SOL     OW 6810   1.507   0.245   6.920  0.1543  0.4967 -0.0144
 1306SOL    HW1 6811   1.503   0.340   6.914 -2.6821  0.4275 -0.9033
 1306SOL    HW2 6812   1.436   0.222   6.980  0.6630 -1.0910  0.0370
 1307SOL     OW 6813   5.057   6.941  10.745 -0.1932 -0.1068  0.0744
 1307SOL    HW1 6814   5.107   6.986  10.676 -1.4694  0.3599 -0.5722
 1307SOL    HW2 6815   5.119   6.877  10.781  0.2263 -1.0874 -2.1998
 1308SOL     OW 6816   7.589   1.241   4.124 -0.3232  0.2320 -0.3998
 1308SOL    HW1 6817   7.502   1.260   4.160 -0.4878  0.3407 -0.8555
 1308SOL    HW2 6818   7.591   1.287   4.040  0.0020 -0.1602 -0.6081
 1309SOL     OW 6819   0.517   2.230   3.537  0.5183  0.5204  0.0221
 1309SOL    HW1 6820   0.521   2.146   3.493 -0.7552  1.0634 -1.2086
 1309SOL    HW2 6821   0.578   2.286   3.490  0.6625  0.5529  0.2434
 1310SOL     OW 6822   9.034   3.692  10.447 -0.0969 -0.8230 -0.1809
 1310SOL    HW1 6823   9.016   3.601  10.422 -1.1138 -0.1230 -2.2407
 1310SOL    HW2 6824   9.105   3.719  10.388  0.4405 -0.3680  0.6573
 1311SOL     OW 6825  10.537   7.852   7.358  0.2958 -0.8356 -0.3792
 1311SOL    HW1 6826  10.493   7.890   7.434  0.7527  1.8198 -1.3604
 1311SOL    HW2 6827  10.562   7.764   7.387 -2.3844 -1.1363  1.4186
 1312SOL     OW 6828   1.921   8.927   9.576 -0.1078  0.4442  0.2865
 1312SOL    HW1 6829   1.882   9.001   9.623  0.5035  1.3524 -0.6099
 1312SOL    HW2 6830   1.868   8.919   9.497  0.2623  0.3778  0.0440
 1313SOL     OW 6831   9.704  10.328   0.870  0.5115 -0.6248  0.4552
 1313SOL    HW1 6832   9.652  10.339   0.950  0.4067 -0.1712  0.3295
 1313SOL    HW2 6833   9.673  10.397   0.812  0.7635 -0.7961  0.1128
 1314SOL     OW 6834   0.777   3.635   4.974 -0.5847  0.3826  0.3179
 1314SOL    HW1 6835   0.859   3.649   4.926 -0.8831  0.0969 -0.2770
 1314SOL    HW2 6836   0.712   3.618   4.906 -0.9546 -0.3040  0.8368
 1315SOL     OW 6837   6.386   1.211   0.962 -0.3608  0.0273  0.2418
 1315SOL    HW1 6838   6.469   1.256   0.980 -0.8503  0.7387  0.7632
 1315SOL    HW2 6839   6.367   1.230   0.870  1.1234 -1.9299 -0.5445
 1316SOL     OW 6840   2.685   2.392   7.114  0.5882  0.3976  0.3634
 1316SOL    HW1 6841   2.733   2.430   7.040 -1.6524  0.2206 -1.2868
 1316SOL    HW2 6842   2.713   2.301   7.116  1.2464  0.5937  0.2214
 1317SOL     OW 6843   5.219   9.668   5.594  0.4488 -0.3522  0.0985
 1317SOL    HW1 6844   5.277   9.666   5.518 -1.2787  1.2014 -1.3603
 1317SOL    HW2 6845   5.236   9.753   5.635  1.0084 -0.9717  1.2025
 1318SOL     OW 6846   3.002   1.305   3.865  0.4437  0.6174 -0.2359
 1318SOL    HW1 6847   2.986   1.390   3.907 -0.6906  0.1063  0.3984
 1318SOL    HW2 6848   2.916   1.277   3.835  1.1015  0.5279 -2.1115
 1319SOL     OW 6849   1.163   0.362   4.233  0.1081  0.2835  0.3786
 1319SOL    HW1 6850   1.208   0.366   4.318  0.1478  0.2697  0.3583
 1319SOL    HW2 6851   1.223   0.404   4.172  1.4693 -2.3742 -0.2559
 1320SOL     OW 6852   7.436   4.313   8.682 -0.1944 -0.3107 -0.0698
 1320SOL    HW1 6853   7.431   4.389   8.624  1.3449  0.0043  0.1614
 1320SOL    HW2 6854   7.446   4.351   8.770 -0.7364 -0.7910  0.2110
 1321SOL     OW 6855   1.895   1.894   2.545  0.4244 -0.0061 -0.3949
 1321SOL    HW1 6856   1.921   1.950   2.618  1.4244  1.0861 -1.5405
 1321SOL    HW2 6857   1.825   1.942   2.501  0.1710 -0.4210 -0.4526
 1322SOL     OW 6858   6.514   3.359   0.884  0.0103 -0.2933  0.0443
 1322SOL    HW1 6859   6.579   3.427   0.903  0.0417 -1.0087  2.8556
 1322SOL    HW2 6860   6.565   3.278   0.877 -0.3943 -0.6146  0.6836
 1323SOL     OW 6861  10.393   8.822   9.153  0.4008  0.1723  0.2866
 1323SOL    HW1 6862  10.451   8.748   9.172 -0.4625 -1.0217 -1.4569
 1323SOL    HW2 6863  10.320   8.812   9.215 -0.5020 -1.4448 -0.9470
 1324SOL     OW 6864   5.266   2.800   9.691 -0.2938 -0.2387 -0.2497
 1324SOL    HW1 6865   5.231   2.799   9.602 -0.2342 -0.7510 -0.2701
 1324SOL    HW2 6866   5.361   2.800   9.680 -0.2560  1.5573 -0.1979
 1325SOL     OW 6867   6.437   6.880   6.092  0.1088 -0.5086  0.2895
 1325SOL    HW1 6868   6.370   6.812   6.088  1.5381 -2.2241  2.8268
 1325SOL    HW2 6869   6.391   6.957   6.126 -0.8564 -1.2227  0.6397
 1326SOL     OW 6870   3.611  10.574   5.651 -0.3195  0.2032 -0.0270
 1326SOL    HW1 6871   3.636  10.654   5.697 -0.4946  0.2376  0.0043
 1326SOL    HW2 6872   3.694  10.539   5.618 -0.3575  0.9801 -0.9956
 1327SOL     OW 6873   2.971   1.701   4.326  0.0148  0.2676  0.1864
 1327SOL    HW1 6874   3.009   1.632   4.381  1.4648  0.2261 -0.8034
 1327SOL    HW2 6875   3.026   1.777   4.342 -0.1196  0.5148 -0.5087
 1328SOL     OW 6876   9.979   6.668   7.958 -0.0256  0.1610  0.0537
 1328SOL    HW1 6877   9.947   6.578   7.963 -1.9914  0.8844  1.8344
 1328SOL    HW2 6878  10.018   6.674   7.870 -1.2505 -1.9593 -0.7220
 1329SOL     OW 6879   0.064   8.515   4.436 -0.3030 -0.1147  0.3119
 1329SOL    HW1 6880   0.019   8.542   4.356 -0.6917  1.0275  0.8911
 1329SOL    HW2 6881   0.136   8.577   4.445  0.5385 -1.0463  0.1630
 1330SOL     OW 6882   8.961   1.384   9.509  0.0547 -0.5527  0.0996
 1330SOL    HW1 6883   8.977   1.440   9.433  0.7007  0.3879  0.9028
 1330SOL    HW2 6884   8.943   1.445   9.581  1.3955 -1.3218  1.1420
 1331SOL     OW 6885   5.160   4.881   0.500 -0.2434  0.0377 -0.4118
 1331SOL    HW1 6886   5.099   4.952   0.477  0.0734 -0.1733 -1.9940
 1331SOL    HW2 6887   5.107   4.802   0.498 -0.6328  0.1776  1.5072
 1332SOL     OW 6888   5.113   8.191   3.319 -0.9449 -0.2525  0.2553
 1332SOL    HW1 6889   5.023   8.218   3.339 -1.3173  0.5608 -2.1452
 1332SOL    HW2 6890   5.167   8.262   3.354 -1.4589  0.5208 -0.4518
 1333SOL     OW 6891   2.019   1.882   9.933  0.2626  0.4287  0.3083
 1333SOL    HW1 6892   2.018   1.793   9.897  0.0430 -0.1045  1.5733
 1333SOL    HW2 6893   1.989   1.938   9.861 -1.3016 -0.7246  0.0095
 1334SOL     OW 6894   1.844   2.530   7.543  0.2462  0.4989 -0.2281
 1334SOL    HW1 6895   1.935   2.543   7.515  1.4689 -0.4237  2.8548
 1334SOL    HW2 6896   1.821   2.610   7.590 -0.7904  0.9528 -1.4491
 1335SOL     OW 6897   2.819   3.887   5.844  0.1177 -0.0674  0.2404
 1335SOL    HW1 6898   2.832   3.873   5.750  0.2312 -0.8792  0.3680
 1335SOL    HW2 6899   2.905   3.916   5.876  0.8048 -2.2157  0.5062
 1336SOL     OW 6900   5.193   8.323   7.011  0.4088  0.0086  0.8128
 1336SOL    HW1 6901   5.244   8.311   7.091  0.1688 -1.1187  0.8254
 1336SOL    HW2 6902   5.102   8.319   7.041  0.3134  0.8701  0.6455
 1337SOL     OW 6903   5.339  10.295   4.415  0.1801 -0.4073  0.3603
 1337SOL    HW1 6904   5.374  10.260   4.333 -0.3671 -1.6681  0.6299
 1337SOL    HW2 6905   5.272  10.231   4.441 -1.9125  1.6118  0.1752
 1338SOL     OW 6906   7.926  10.080   5.739 -0.2760 -0.7891 -0.2092
 1338SOL    HW1 6907   7.949  10.111   5.651  1.4201 -1.4367 -0.0374
 1338SOL    HW2 6908   7.840  10.119   5.756  0.2971  1.1068 -1.2826
 1339SOL     OW 6909   3.609   1.559   3.316  0.0751  0.1835 -0.0762
 1339SOL    HW1 6910   3.642   1.474   3.288  0.1302  0.0133  0.4890
 1339SOL    HW2 6911   3.672   1.588   3.382  0.0987  0.7003 -0.3253
 1340SOL     OW 6912   2.966   9.260   1.553  0.3972  0.6886 -0.1494
 1340SOL    HW1 6913   2.878   9.232   1.579  0.2697  1.3163  0.1063
 1340SOL    HW2 6914   2.951   9.325   1.484  0.6864  0.2524 -0.6266
 1341SOL     OW 6915   9.180   7.295   1.738 -0.2009 -0.5193  0.5060
 1341SOL    HW1 6916   9.159   7.273   1.648  1.3395 -0.9269  0.2135
 1341SOL    HW2 6917   9.275   7.283   1.744 -0.3836 -1.3699  2.3969
 1342SOL     OW 6918   9.706   1.206   3.811  0.0971  0.1065 -0.1538
 1342SOL    HW1 6919   9.685   1.244   3.897  1.3647  1.3613 -0.3616
 1342SOL    HW2 6920   9.621   1.183   3.774 -0.5067  0.0562  1.2124
 1343SOL     OW 6921   4.635   4.352   6.535 -0.1838  0.0371 -0.1193
 1343SOL    HW1 6922   4.584   4.360   6.454 -0.1150 -0.7450 -0.2467
 1343SOL    HW2 6923   4.712   4.301   6.510 -0.3746 -0.5869  0.5366
 1344SOL     OW 6924  10.329   6.322   3.081  0.0173 -0.0736  0.0405
 1344SOL    HW1 6925  10.354   6.294   3.169  1.5081 -0.3557 -0.4463
 1344SOL    HW2 6926  10.244   6.364   3.093  0.1525 -0.1719  1.6027
 1345SOL     OW 6927   7.618   4.320   6.724  0.2627 -0.4022  0.3913
 1345SOL    HW1 6928   7.631   4.271   6.643  0.1300 -2.2048  1.4023
 1345SOL    HW2 6929   7.569   4.398   6.697 -0.8116 -1.5321 -1.1029
 1346SOL     OW 6930   9.954   2.489   5.395 -0.5865  0.0340 -0.0789
 1346SOL    HW1 6931   9.913   2.547   5.331 -0.7913  0.3201  0.3061
 1346SOL    HW2 6932  10.024   2.542   5.433 -1.0446  0.1899  0.5767
 1347SOL     OW 6933   8.111   6.543   2.858  0.1559 -0.0807 -0.2364
 1347SOL    HW1 6934   8.134   6.485   2.785 -0.1575 -0.3059 -0.1589
 1347SOL    HW2 6935   8.093   6.627   2.818 -0.1918 -0.2519 -0.4385
 1348SOL     OW 6936  10.398   8.830   5.371  0.1304 -0.3465  0.0784
 1348SOL    HW1 6937  10.350   8.834   5.454 -0.1600  0.0832 -0.1045
 1348SOL    HW2 6938  10.480   8.875   5.389  0.4342 -1.0061  0.3686
 1349SOL     OW 6939   0.685   9.644   2.443 -0.1571  0.2631  0.3345
 1349SOL    HW1 6940   0.645   9.633   2.530  0.4560  0.3794  0.6387
 1349SOL    HW2 6941   0.675   9.737   2.424 -1.6814 -0.0281 -0.4208
 1350SOL     OW 6942  10.452   1.656   5.213 -0.0039  0.1459 -0.5835
 1350SOL    HW1 6943  10.403   1.585   5.254  0.3906  0.6050  0.7334
 1350SOL    HW2 6944  10.391   1.729   5.210 -0.8060 -0.5488 -3.0431
 1351SOL     OW 6945   1.752   9.645   0.732  0.2082  0.3242 -0.3750
 1351SOL    HW1 6946   1.840   9.618   0.707  0.3138 -0.1795  0.4838
 1351SOL    HW2 6947   1.707   9.563   0.755 -0.3512  0.6149 -0.4184
 1352SOL     OW 6948  10.424   1.447   3.086 -0.3368  0.4134  0.0971
 1352SOL    HW1 6949  10.503   1.431   3.034  1.5470  1.1016  2.5358
 1352SOL    HW2 6950  10.389   1.530   3.052  1.2341  1.2010  0.2974
 1353SOL     OW 6951   2.127   9.549   0.290  0.1900 -0.0042  0.1599
 1353SOL    HW1 6952   2.092   9.637   0.279  0.9184  0.3431  0.5279
 1353SOL    HW2 6953   2.137   9.516   0.201 -1.4038 -0.2707  0.0438
 1354SOL     OW 6954   7.427   6.915   0.329 -0.1957 -0.2181 -0.7331
 1354SOL    HW1 6955   7.406   6.971   0.254 -0.9579 -0.2708 -0.5687
 1354SOL    HW2 6956   7.342   6.879   0.355  0.0656 -0.1891  0.1618
 1355SOL     OW 6957   7.884   5.662   5.518 -0.8591  0.1979 -0.2656
 1355SOL    HW1 6958   7.964   5.615   5.500 -0.1317  1.3426 -0.1501
 1355SOL    HW2 6959   7.849   5.686   5.432  0.3609  1.9932 -0.3093
 1356SOL     OW 6960   8.992   7.886   2.103  0.3952 -0.0078 -0.1887
 1356SOL    HW1 6961   8.936   7.855   2.032 -3.2884  0.3627  2.2739
 1356SOL    HW2 6962   9.022   7.972   2.074 -0.6889 -0.0226 -1.4350
 1357SOL     OW 6963   6.207   1.523   4.266 -0.3570 -0.2688 -0.4977
 1357SOL    HW1 6964   6.288   1.511   4.216  0.1770 -2.0901  0.7071
 1357SOL    HW2 6965   6.139   1.486   4.211  0.0395 -1.1396 -0.4127
 1358SOL     OW 6966   0.289   8.171   3.433 -0.9360 -0.3018  0.2265
 1358SOL    HW1 6967   0.351   8.109   3.395  0.7395  0.5832  1.3859
 1358SOL    HW2 6968   0.255   8.220   3.358  0.5468 -0.1344 -0.3605
 1359SOL     OW 6969   3.400   7.774   7.209 -0.1398 -0.0698  0.5416
 1359SOL    HW1 6970   3.437   7.694   7.172  0.5353  0.8230 -0.7957
 1359SOL    HW2 6971   3.432   7.777   7.299 -0.0085 -1.1806  0.5389
 1360SOL     OW 6972   6.181   6.793   1.444 -0.3915 -0.4429 -0.2660
 1360SOL    HW1 6973   6.135   6.722   1.489  0.7321 -1.4977 -0.7124
 1360SOL    HW2 6974   6.274   6.775   1.461 -0.0309  0.1486 -1.5369
 1361SOL     OW 6975   2.167   2.396   8.676  0.0854 -0.1117  0.0371
 1361SOL    HW1 6976   2.092   2.444   8.712  0.3027 -0.0718  0.4428
 1361SOL    HW2 6977   2.163   2.311   8.718  1.3205  0.4969  1.4937
 1362SOL     OW 6978   9.328   6.535   7.124 -0.1522 -0.3628 -0.1101
 1362SOL    HW1 6979   9.290   6.498   7.204  0.4393 -0.4744  0.1219
 1362SOL    HW2 6980   9.253   6.549   7.066 -0.4771 -1.1683  0.1038
 1363SOL     OW 6981   9.355   8.078   9.538 -0.2418  0.1666  0.3438
 1363SOL    HW1 6982   9.352   8.029   9.457 -1.3575  1.5000 -0.4729
 1363SOL    HW2 6983   9.263   8.088   9.564  0.0179  0.9180  1.0388
 1364SOL     OW 6984   3.249   8.945   9.046  0.1742  0.2773  0.2333
 1364SOL    HW1 6985   3.172   8.930   9.101 -0.1863 -0.0710 -0.3633
 1364SOL    HW2 6986   3.225   8.909   8.961  0.2531  1.9218 -0.5191
 1365SOL     OW 6987   2.283   7.808   6.968  0.0729  0.5399  0.1372
 1365SOL    HW1 6988   2.286   7.740   7.035  0.9471  0.3794 -0.0551
 1365SOL    HW2 6989   2.374   7.820   6.942 -0.0997  1.5798 -0.0415
 1366SOL     OW 6990   3.391   1.314   1.331 -0.0330  0.1993  0.0783
 1366SOL    HW1 6991   3.397   1.220   1.343 -0.0018 -0.0334 -1.5184
 1366SOL    HW2 6992   3.297   1.332   1.328 -0.0474  0.0259 -0.8126
 1367SOL     OW 6993   8.887   3.072  10.314 -0.0373  0.6055  0.4169
 1367SOL    HW1 6994   8.866   3.013  10.387  3.0066 -0.0554  0.8767
 1367SOL    HW2 6995   8.871   3.019  10.236 -0.0718  0.1687  0.7165
 1368SOL     OW 6996   0.607   8.225   1.075 -0.2728 -0.1633 -0.2017
 1368SOL    HW1 6997   0.544   8.259   1.139  1.5720  1.0804  1.0366
 1368SOL    HW2 6998   0.636   8.142   1.112 -0.0246  0.0237  0.0251
 1369SOL     OW 6999   2.717   2.962   3.688  0.1703  0.5612  0.2802
 1369SOL    HW1 7000   2.731   3.039   3.744 -0.1142 -0.0642  1.2358
 1369SOL    HW2 7001   2.800   2.951   3.642  0.8404  0.3879  1.4904
 1370SOL     OW 7002   6.784   1.295   2.285 -0.3151 -0.0936  0.4163
 1370SOL    HW1 7003   6.700   1.284   2.330 -0.1969 -3.7067  0.0701
 1370SOL    HW2 7004   6.845   1.238   2.332  1.2550  0.3856 -0.9120
 1371SOL     OW 7005   1.759   6.294   4.095 -0.6572 -0.1390  0.5815
 1371SOL    HW1 7006   1.712   6.210   4.101 -2.5487  0.7445 -0.7891
 1371SOL    HW2 7007   1.703   6.356   4.142  0.9058  0.3463  1.8996
 1372SOL     OW 7008   7.794   6.807   7.307  0.4650 -0.4255 -1.0754
 1372SOL    HW1 7009   7.871   6.773   7.352  0.3360  0.0049 -0.5157
 1372SOL    HW2 7010   7.802   6.902   7.313 -0.3480 -0.3788 -0.5869
 1373SOL     OW 7011   7.889   6.046   8.758 -0.5773 -0.3195  0.1501
 1373SOL    HW1 7012   7.862   6.121   8.811 -1.5231 -1.1892  0.9065
 1373SOL    HW2 7013   7.870   6.074   8.668 -2.3393 -0.1976  0.5201
 1374SOL     OW 7014   3.080   3.543   2.848 -0.0714  0.5615  0.0169
 1374SOL    HW1 7015   3.140   3.617   2.843 -0.5970  0.9993  0.0640
 1374SOL    HW2 7016   3.060   3.521   2.757  1.4837 -0.7104 -0.0805
 1375SOL     OW 7017   1.302   3.888   6.847 -0.1717  0.7726 -0.1560
 1375SOL    HW1 7018   1.344   3.808   6.815 -0.5607  0.5964 -0.2324
 1375SOL    HW2 7019   1.340   3.957   6.793 -0.4984  0.5273 -0.7146
 1376SOL     OW 7020   4.032   1.640  10.774 -0.0032  0.4693  0.0369
 1376SOL    HW1 7021   4.120   1.673  10.790  0.2053  0.5367 -1.1840
 1376SOL    HW2 7022   4.005   1.603  10.858  0.6411  1.6783  0.8158
 1377SOL     OW 7023   4.486   3.986   1.548 -0.1729  0.0939  0.1359
 1377SOL    HW1 7024   4.467   3.927   1.620  3.2565  0.3850  1.4413
 1377SOL    HW2 7025   4.539   4.056   1.586 -1.7554  2.6217 -1.8915
 1378SOL     OW 7026   8.999   3.728   0.000  0.3587  0.1284 -0.3584
 1378SOL    HW1 7027   9.060   3.674  -0.049  2.3328  0.1267  1.8980
 1378SOL    HW2 7028   8.936   3.665   0.037 -0.8097  0.0816 -2.2700
 1379SOL     OW 7029   7.976   9.743   0.462  0.1320  0.0638 -0.1046
 1379SOL    HW1 7030   8.051   9.800   0.477 -0.0727 -0.1034  1.7353
 1379SOL    HW2 7031   8.013   9.654   0.467  0.0196 -0.0109 -0.5135
 1380SOL     OW 7032   2.241   9.748   1.405 -0.4606  0.3111 -0.3130
 1380SOL    HW1 7033   2.319   9.803   1.411 -0.7214  0.6125  0.3736
 1380SOL    HW2 7034   2.176   9.792   1.459 -1.2389  0.2686 -1.1843
 1381SOL     OW 7035   8.103   7.751   0.370 -0.0607 -0.2158 -0.1368
 1381SOL    HW1 7036   8.110   7.814   0.442 -0.5301  0.4450 -0.6602
 1381SOL    HW2 7037   8.193   7.743   0.338  0.4612 -1.7749  1.5498
 1382SOL     OW 7038  10.090   2.474  10.372 -0.1516 -0.2290  0.8047
 1382SOL    HW1 7039  10.088   2.524  10.290 -1.3558 -1.9836 -0.3145
 1382SOL    HW2 7040  10.163   2.412  10.361 -1.8091 -2.1389 -0.0806
 1383SOL     OW 7041   9.506   7.201   8.408 -0.4588  0.0598  0.1775
 1383SOL    HW1 7042   9.590   7.237   8.438 -1.2128  0.7806  1.5222
 1383SOL    HW2 7043   9.450   7.277   8.398 -0.1865 -0.0510 -3.6611
 1384SOL     OW 7044  10.137   3.794   2.792 -0.3787 -0.2799  0.1966
 1384SOL    HW1 7045  10.224   3.828   2.772 -0.2879 -1.1505 -0.9981
 1384SOL    HW2 7046  10.152   3.722   2.853 -0.4547  0.8401  1.5875
 1385SOL     OW 7047  10.566   7.069   4.482  0.1468 -0.1369  0.1751
 1385SOL    HW1 7048  10.642   7.121   4.509 -0.5854  1.1485 -0.1361
 1385SOL    HW2 7049  10.496   7.096   4.541 -0.2061 -0.9358  0.1337
 1386SOL     OW 7050   8.113   1.979   0.903 -0.1193 -0.3197  0.1045
 1386SOL    HW1 7051   8.060   2.030   0.964 -0.2393  0.3977 -0.5888
 1386SOL    HW2 7052   8.202   2.011   0.917 -0.1037 -0.3643  0.1051
 1387SOL     OW 7053   0.921   1.549   0.314 -0.2622 -0.1198 -0.2011
 1387SOL    HW1 7054   1.010   1.570   0.287 -0.6688  1.1329 -0.6697
 1387SOL    HW2 7055   0.888   1.630   0.353 -0.8421 -0.8836  0.9464
 1388SOL     OW 7056   8.622  10.379   7.207  0.6140 -0.2597  0.2426
 1388SOL    HW1 7057   8.575  10.437   7.267  0.7342  1.7607 -1.4566
 1388SOL    HW2 7058   8.555  10.322   7.170  0.0586  0.3249  0.3299
 1389SOL     OW 7059   8.725   1.803   8.574  0.0691 -0.1492 -0.4102
 1389SOL    HW1 7060   8.778   1.859   8.518  1.3612 -3.1938 -2.5437
 1389SOL    HW2 7061   8.635   1.818   8.545  0.3575  0.9798 -0.7411
 1390SOL     OW 7062   9.447   6.527   5.205  0.0775  0.0838 -0.3425
 1390SOL    HW1 7063   9.504   6.592   5.244  0.4253 -0.1258 -0.4930
 1390SOL    HW2 7064   9.478   6.519   5.114  0.2827 -0.5514 -0.2246
 1391SOL     OW 7065   2.051   4.840   8.735 -0.2382  0.3264  0.1296
 1391SOL    HW1 7066   2.041   4.756   8.691 -0.5644  0.7653 -0.6502
 1391SOL    HW2 7067   2.031   4.821   8.827 -0.0073 -0.5032  0.0182
 1392SOL     OW 7068   1.971   1.375   0.220 -0.5181  0.2076  0.5136
 1392SOL    HW1 7069   1.928   1.358   0.136 -1.5453  2.5007  0.5122
 1392SOL    HW2 7070   2.037   1.306   0.227 -0.2846  0.0306 -2.2530
 1393SOL     OW 7071   3.280   0.800   5.192 -0.3580 -0.1227  0.4245
 1393SOL    HW1 7072   3.220   0.822   5.121 -1.1876 -1.2156  0.7577
 1393SOL    HW2 7073   3.307   0.710   5.174  0.2002 -0.0713  0.9646
 1394SOL     OW 7074   6.456   1.538   4.167 -0.4881  0.2523  0.1837
 1394SOL    HW1 7075   6.489   1.494   4.088 -1.3424 -0.0596 -0.0036
 1394SOL    HW2 7076   6.465   1.631   4.147  1.7259  0.2100  0.7485
 1395SOL     OW 7077   8.712   8.160   2.323  0.1246 -0.1539 -0.4486
 1395SOL    HW1 7078   8.798   8.121   2.339 -0.0764 -0.5722 -0.3484
 1395SOL    HW2 7079   8.720   8.251   2.350  0.5037 -0.2226 -0.3348
 1396SOL     OW 7080   7.625   5.185   5.308  0.4735 -0.1873  0.1537
 1396SOL    HW1 7081   7.716   5.199   5.283  0.5061  0.0916  0.4154
 1396SOL    HW2 7082   7.604   5.098   5.276  1.5389 -1.2329  2.1144
 1397SOL     OW 7083   7.071   2.871   4.498  0.0115  0.4440 -0.1990
 1397SOL    HW1 7084   6.996   2.930   4.483 -0.6798 -0.0004  1.2972
 1397SOL    HW2 7085   7.118   2.911   4.571  0.5917  0.1091 -0.3886
 1398SOL     OW 7086   9.009   6.088   5.344 -0.3907 -0.0881 -0.1116
 1398SOL    HW1 7087   8.947   6.111   5.275 -0.1092  0.9701 -0.0249
 1398SOL    HW2 7088   9.079   6.153   5.337  0.2447 -0.6988  0.3986
 1399SOL     OW 7089   4.022  10.680   9.178 -0.5219 -0.4438 -0.6785
 1399SOL    HW1 7090   4.026  10.590   9.210 -1.7760 -0.9281 -1.7718
 1399SOL    HW2 7091   4.032  10.734   9.256 -0.4615 -1.5343  0.0992
 1400SOL     OW 7092   8.338   8.649   4.099  0.3758  0.4524 -0.0569
 1400SOL    HW1 7093   8.388   8.593   4.158 -0.1374  0.1589  0.0982
 1400SOL    HW2 7094   8.297   8.714   4.155 -0.5344 -0.1410 -0.0277
 1401SOL     OW 7095   1.599   2.491   9.677 -0.2731  0.3370  0.3864
 1401SOL    HW1 7096   1.671   2.490   9.740 -0.3529 -0.5727  0.4830
 1401SOL    HW2 7097   1.555   2.407   9.691 -1.6179  1.0564  0.6373
 1402SOL     OW 7098   2.583   7.906   4.953 -0.2171  0.2115  0.3156
 1402SOL    HW1 7099   2.669   7.941   4.975 -1.6348  2.9641  2.0537
 1402SOL    HW2 7100   2.560   7.947   4.870 -0.5771  0.9530  0.7727
 1403SOL     OW 7101   9.366   3.826   3.875 -0.1141 -0.7591 -0.2563
 1403SOL    HW1 7102   9.411   3.868   3.802 -0.7345 -0.3675 -0.4266
 1403SOL    HW2 7103   9.361   3.894   3.943 -0.7334 -0.6831 -0.3679
 1404SOL     OW 7104   6.175   5.398   4.548  0.3692  0.6744 -0.2189
 1404SOL    HW1 7105   6.189   5.492   4.541 -1.4957  1.0380  0.1764
 1404SOL    HW2 7106   6.131   5.387   4.633 -1.0977 -0.2872 -1.0568
 1405SOL     OW 7107   3.795   4.585   4.142 -0.4433  0.0297  0.4168
 1405SOL    HW1 7108   3.746   4.543   4.213 -0.1453 -1.1127 -0.0233
 1405SOL    HW2 7109   3.887   4.579   4.170 -0.4133  0.6267  0.4584
 1406SOL     OW 7110   1.191   1.296   1.456  0.3057  0.0136 -0.0519
 1406SOL    HW1 7111   1.173   1.231   1.525  1.3740 -0.6366 -0.3559
 1406SOL    HW2 7112   1.106   1.338   1.440 -0.4068 -1.2524  0.2142
 1407SOL     OW 7113   2.787   5.373   1.596  0.0468  0.5481 -0.7092
 1407SOL    HW1 7114   2.794   5.283   1.565 -0.2469  0.9487 -2.0355
 1407SOL    HW2 7115   2.740   5.419   1.526  0.5099  1.8112 -0.2359
 1408SOL     OW 7116   5.381   7.366   1.545 -0.1545 -0.4799  0.4184
 1408SOL    HW1 7117   5.466   7.371   1.587 -0.4393 -0.7968  1.0435
 1408SOL    HW2 7118   5.374   7.275   1.516  0.1376 -0.2093 -0.5342
 1409SOL     OW 7119  10.003   7.817  10.318  0.1336  0.7206 -0.9438
 1409SOL    HW1 7120  10.081   7.867  10.345 -0.4626  0.5791  1.2425
 1409SOL    HW2 7121   9.963   7.790  10.401 -1.6220 -0.1920 -2.0500
 1410SOL     OW 7122   6.725   7.593   4.878 -0.3103 -0.0546  0.2029
 1410SOL    HW1 7123   6.808   7.599   4.925  0.3917  1.5072 -1.1250
 1410SOL    HW2 7124   6.664   7.645   4.929 -0.1648 -0.2353  0.5631
 1411SOL     OW 7125   2.862  10.126   5.835  0.1278  0.3870  0.5158
 1411SOL    HW1 7126   2.930  10.078   5.786  0.4121  0.1444  1.1377
 1411SOL    HW2 7127   2.874  10.217   5.809 -1.0912  0.0490 -1.5005
 1412SOL     OW 7128   7.756   3.424   2.064  0.2200  0.3560 -0.1752
 1412SOL    HW1 7129   7.764   3.490   1.995 -0.5283  1.1898  0.4962
 1412SOL    HW2 7130   7.843   3.383   2.068  0.8535  1.6007 -0.3436
 1413SOL     OW 7131   7.138   5.472   8.879 -0.5319 -0.2957 -0.1378
 1413SOL    HW1 7132   7.138   5.391   8.828  0.3352  0.7274 -1.8870
 1413SOL    HW2 7133   7.053   5.511   8.862 -0.5112 -0.2968 -0.2483
 1414SOL     OW 7134   0.377   8.611   9.196 -0.0789  0.3103 -0.0534
 1414SOL    HW1 7135   0.454   8.591   9.250  1.8300  1.8477 -2.0179
 1414SOL    HW2 7136   0.386   8.705   9.178 -2.7058  0.6282  0.0004
 1415SOL     OW 7137   1.308   4.994   3.271 -0.1580  0.1434  0.1476
 1415SOL    HW1 7138   1.334   4.912   3.313  1.0605 -0.0492 -0.8962
 1415SOL    HW2 7139   1.346   5.063   3.326  0.4578 -0.0648 -0.0092
 1416SOL     OW 7140   1.126   9.780   3.217 -0.0329  0.0817 -0.4272
 1416SOL    HW1 7141   1.171   9.783   3.133  1.3463 -1.3105  0.2191
 1416SOL    HW2 7142   1.036   9.753   3.195  0.3694 -0.4726 -1.4487
 1417SOL     OW 7143   1.497   8.290   7.868  0.0242 -0.0207  1.0717
 1417SOL    HW1 7144   1.477   8.279   7.961  1.1636 -1.7203  1.1553
 1417SOL    HW2 7145   1.436   8.231   7.823  0.0884  0.1133  0.8034
 1418SOL     OW 7146   7.169   8.837   2.382 -0.4850 -0.4225  0.0102
 1418SOL    HW1 7147   7.223   8.761   2.403  1.2676  0.5589 -0.7623
 1418SOL    HW2 7148   7.201   8.867   2.297 -0.2494  1.9227  0.8538
 1419SOL     OW 7149   2.466   1.836   8.908 -0.1392 -0.0690  0.2088
 1419SOL    HW1 7150   2.434   1.833   8.818  0.8083  1.1207 -0.1938
 1419SOL    HW2 7151   2.393   1.872   8.958 -0.3837  0.0385 -0.2225
 1420SOL     OW 7152   1.265  10.631   7.458 -0.4197 -0.2216  0.2874
 1420SOL    HW1 7153   1.352  10.651   7.494 -0.1383 -0.5381 -0.2182
 1420SOL    HW2 7154   1.222  10.716   7.452  0.2641  0.0811 -0.5121
 1421SOL     OW 7155   3.549   3.357   3.136 -0.0223  0.0740 -0.2309
 1421SOL    HW1 7156   3.580   3.446   3.120 -1.6266  1.0455  1.6550
 1421SOL    HW2 7157   3.589   3.332   3.219  0.4875 -1.0236 -0.7906
 1422SOL     OW 7158   9.264   3.195   2.617 -0.2373 -0.4643  0.1832
 1422SOL    HW1 7159   9.345   3.229   2.656 -1.5924 -0.6578  3.5890
 1422SOL    HW2 7160   9.202   3.268   2.626 -0.8162 -0.7922 -1.0419
 1423SOL     OW 7161   5.712  10.023   9.156  0.1352 -0.0759  0.0047
 1423SOL    HW1 7162   5.753   9.974   9.227  1.1001 -0.1907 -0.6084
 1423SOL    HW2 7163   5.780  10.027   9.088  0.3088  2.6265  0.2563
 1424SOL     OW 7164  10.177   3.758   6.783  0.7269 -0.4145 -0.3075
 1424SOL    HW1 7165  10.194   3.713   6.866  1.7655 -0.0060 -0.2826
 1424SOL    HW2 7166  10.200   3.694   6.716  0.1293 -0.6560 -0.2925
 1425SOL     OW 7167   6.817   4.176   1.051 -0.0544 -0.4853 -0.0717
 1425SOL    HW1 7168   6.890   4.183   0.989  0.6022 -1.2244  0.5917
 1425SOL    HW2 7169   6.740   4.202   1.000  1.0090  3.5412  0.0538
 1426SOL     OW 7170   6.773   5.910   1.805 -0.4381 -0.3721 -0.1544
 1426SOL    HW1 7171   6.712   5.861   1.860  0.0775 -0.8449  0.0071
 1426SOL    HW2 7172   6.826   5.842   1.763 -1.3313 -0.0766 -1.8536
 1427SOL     OW 7173   9.219   4.102   5.824  0.6865 -0.0354  0.2816
 1427SOL    HW1 7174   9.201   4.099   5.919  0.7878 -0.0293  0.3009
 1427SOL    HW2 7175   9.222   4.010   5.798  0.8143 -0.0404  0.3137
 1428SOL     OW 7176   3.604  10.591   2.207 -0.2223 -0.2699  0.1421
 1428SOL    HW1 7177   3.663  10.662   2.184 -0.8645  0.5028  0.8023
 1428SOL    HW2 7178   3.625  10.521   2.146  1.5382 -0.1151  0.5086
 1429SOL     OW 7179   1.730   1.022   5.347 -0.1060  0.4486  0.0547
 1429SOL    HW1 7180   1.683   0.965   5.408 -0.2987  0.8935  0.3240
 1429SOL    HW2 7181   1.804   0.969   5.318  0.4512  0.4997  1.2973
 1430SOL     OW 7182   3.068   0.554   4.219  0.6185  0.0763 -0.0336
 1430SOL    HW1 7183   3.137   0.600   4.172 -0.0493 -0.9394 -2.1250
 1430SOL    HW2 7184   3.100   0.465   4.228  0.0197 -0.1534 -0.1149
 1431SOL     OW 7185   4.744   8.404   4.006 -0.0595 -0.0692 -0.5441
 1431SOL    HW1 7186   4.813   8.341   4.027 -0.0625  0.1166  0.0243
 1431SOL    HW2 7187   4.687   8.403   4.082  0.4274  1.2774 -0.1347
 1432SOL     OW 7188   5.780   7.373  10.436 -0.5276 -0.2796  0.5251
 1432SOL    HW1 7189   5.729   7.449  10.409  0.7024  0.2273 -0.4396
 1432SOL    HW2 7190   5.731   7.298  10.401 -0.2573  0.2430 -1.0368
 1433SOL     OW 7191   9.251   1.014   9.536 -0.0610  0.5863  0.0778
 1433SOL    HW1 7192   9.285   1.101   9.557  1.6650  0.7534 -2.8149
 1433SOL    HW2 7193   9.319   0.975   9.480 -1.2115 -2.2835  0.4976
 1434SOL     OW 7194   2.541   1.556   9.743  0.3260  0.2383  0.4142
 1434SOL    HW1 7195   2.518   1.512   9.824 -1.7106  0.1160 -0.1576
 1434SOL    HW2 7196   2.474   1.624   9.733  0.2036 -0.0956 -1.3884
 1435SOL     OW 7197   6.763   0.092   3.857  0.5370  0.9767  0.1317
 1435SOL    HW1 7198   6.668   0.093   3.871  0.7375  0.4504  1.7358
 1435SOL    HW2 7199   6.776   0.031   3.784 -0.3508  1.0936 -0.1400
 1436SOL     OW 7200   8.356   9.148   2.678  0.1415  0.1428  0.0110
 1436SOL    HW1 7201   8.430   9.087   2.682  0.2229  0.1301 -1.1629
 1436SOL    HW2 7202   8.392   9.226   2.635 -0.4509  0.2487 -0.3033
 1437SOL     OW 7203   5.985   1.347   1.200 -0.2054 -0.4023  0.1203
 1437SOL    HW1 7204   5.904   1.309   1.166  0.0483 -0.9091  0.0716
 1437SOL    HW2 7205   5.993   1.431   1.155 -0.9203 -0.1535  0.4362
 1438SOL     OW 7206   1.950   3.404   3.069  0.3915  0.3617 -0.4938
 1438SOL    HW1 7207   2.011   3.355   3.124 -1.6040 -1.8069 -0.0078
 1438SOL    HW2 7208   1.978   3.385   2.979 -0.6932 -2.4590 -0.3592
 1439SOL     OW 7209   5.331   2.574   4.670 -0.3423 -0.2001 -0.2514
 1439SOL    HW1 7210   5.384   2.564   4.749  0.4608 -1.0415 -0.8770
 1439SOL    HW2 7211   5.379   2.638   4.618 -0.6978  0.1050 -0.2062
 1440SOL     OW 7212   8.800  10.080   9.834 -0.1398 -0.0516 -0.1270
 1440SOL    HW1 7213   8.867  10.051   9.896 -0.2902 -1.7224 -0.6791
 1440SOL    HW2 7214   8.721  10.034   9.861 -0.0958 -1.1814 -1.7879
 1441SOL     OW 7215   5.172   2.254   7.964 -0.6145  0.3611 -0.2055
 1441SOL    HW1 7216   5.215   2.291   8.041 -0.2418 -2.1576  0.8830
 1441SOL    HW2 7217   5.209   2.303   7.891  2.3199 -0.0164  0.8869
 1442SOL     OW 7218   6.916   4.973   6.067 -0.1337  0.0641  0.3397
 1442SOL    HW1 7219   6.936   4.897   6.122  0.0159 -0.4225 -0.3676
 1442SOL    HW2 7220   6.984   4.971   5.999  0.8007  1.7258  1.1826
 1443SOL     OW 7221   7.609   2.436   5.302 -0.3919 -0.0287  0.4884
 1443SOL    HW1 7222   7.648   2.405   5.220 -0.6831  1.3587 -0.2148
 1443SOL    HW2 7223   7.595   2.530   5.288  0.4714  0.4651  2.4938
 1444SOL     OW 7224   8.115   5.193   8.680  0.0580  0.0664  0.1912
 1444SOL    HW1 7225   8.077   5.187   8.768 -1.4214  1.1352 -0.3516
 1444SOL    HW2 7226   8.085   5.278   8.646  1.5490  0.1891 -0.9233
 1445SOL     OW 7227  10.482   7.710   5.524 -0.6082  0.3463 -0.3456
 1445SOL    HW1 7228  10.555   7.766   5.499 -1.5657  0.9845 -1.8812
 1445SOL    HW2 7229  10.512   7.664   5.603  1.9187 -0.4277 -1.6682
 1446SOL     OW 7230   4.149   6.033   2.048 -0.6116  0.2820 -0.1956
 1446SOL    HW1 7231   4.111   6.117   2.024 -0.3343  0.5586  0.3226
 1446SOL    HW2 7232   4.244   6.048   2.046 -0.4284 -0.7165 -2.6775
 1447SOL     OW 7233  10.134   2.427   3.824  0.4185 -0.2894 -0.4489
 1447SOL    HW1 7234  10.156   2.508   3.778  0.4549 -0.0096  0.0575
 1447SOL    HW2 7235  10.215   2.401   3.867  0.7072 -1.1818 -1.4744
 1448SOL     OW 7236   3.125   8.270   0.495 -0.1611  0.3216 -0.1305
 1448SOL    HW1 7237   3.047   8.223   0.465 -0.2869  0.5759 -0.2016
 1448SOL    HW2 7238   3.132   8.345   0.436  2.2982 -1.6536 -2.6896
 1449SOL     OW 7239   2.262   2.838   2.371  0.5080 -0.0450 -0.3954
 1449SOL    HW1 7240   2.242   2.915   2.424  0.7887 -1.3049  1.6450
 1449SOL    HW2 7241   2.176   2.798   2.353  0.4292  0.2576 -0.6931
 1450SOL     OW 7242   6.949   7.577  10.426  0.1238  0.4417  0.0360
 1450SOL    HW1 7243   6.908   7.651  10.471  1.3938  0.4302  1.2866
 1450SOL    HW2 7244   6.922   7.500  10.477  0.2088  0.2324 -0.2326
 1451SOL     OW 7245   9.783   4.306   3.878 -0.2289  0.0081 -0.4298
 1451SOL    HW1 7246   9.834   4.235   3.917  0.2453 -0.2989 -1.5465
 1451SOL    HW2 7247   9.693   4.290   3.907  0.3792  0.9867  2.1820
 1452SOL     OW 7248  10.414  10.396   9.214 -0.6735  0.4638 -0.3621
 1452SOL    HW1 7249  10.385  10.407   9.123  0.0294 -0.0542 -0.6575
 1452SOL    HW2 7250  10.333  10.374   9.262 -0.9096 -0.2088 -1.0359
 1453SOL     OW 7251   9.581   8.654  10.621  0.2216 -0.6073  0.3367
 1453SOL    HW1 7252   9.505   8.672  10.676 -0.9451  1.0741 -1.7097
 1453SOL    HW2 7253   9.656   8.678  10.675 -0.9093  1.8232  0.9653
 1454SOL     OW 7254   5.671   4.465   8.936  0.0493  0.6109 -0.8273
 1454SOL    HW1 7255   5.707   4.454   9.024  1.2740  1.4630 -1.1858
 1454SOL    HW2 7256   5.605   4.533   8.945 -1.3824 -0.8100 -0.1978
 1455SOL     OW 7257   7.243   6.080   7.777 -0.0849 -0.0997  0.4517
 1455SOL    HW1 7258   7.305   6.075   7.704  0.9277 -0.8116  1.3332
 1455SOL    HW2 7259   7.276   6.152   7.831 -0.2067 -0.2769  0.7629
 1456SOL     OW 7260   2.938   6.620   7.053 -0.5736  0.8603 -0.8377
 1456SOL    HW1 7261   2.980   6.535   7.041 -0.0804  1.4190 -3.8960
 1456SOL    HW2 7262   2.876   6.606   7.124  0.2463 -1.7412 -0.5198
 1457SOL     OW 7263   0.678   7.356   4.203 -0.0427 -0.3391  0.0459
 1457SOL    HW1 7264   0.606   7.390   4.150  0.2120  0.4593  0.1969
 1457SOL    HW2 7265   0.721   7.434   4.238  1.6322 -0.7431 -1.0028
 1458SOL     OW 7266   6.657   7.981   8.498  0.1470  0.6870 -0.0649
 1458SOL    HW1 7267   6.566   7.987   8.527  0.4212 -1.3401  1.4021
 1458SOL    HW2 7268   6.655   8.014   8.408 -1.7171  2.2138  0.4563
 1459SOL     OW 7269   7.551   4.987   2.170 -0.1256  0.8158  0.1100
 1459SOL    HW1 7270   7.555   5.046   2.245  0.9288  1.4954 -0.4575
 1459SOL    HW2 7271   7.609   5.027   2.105  0.6862 -0.8698 -0.2588
 1460SOL     OW 7272   2.242   7.446   6.220  0.0521  0.3772  0.4435
 1460SOL    HW1 7273   2.217   7.536   6.200  1.2356  0.5712 -0.2497
 1460SOL    HW2 7274   2.271   7.410   6.136 -1.2165 -0.9349  0.5281
 1461SOL     OW 7275   4.192   8.907   8.273  0.2874  0.1150  0.5824
 1461SOL    HW1 7276   4.278   8.941   8.299  0.4588  0.0488  0.1028
 1461SOL    HW2 7277   4.133   8.981   8.282  0.7492  0.7029 -0.9480
 1462SOL     OW 7278   2.642   3.149   2.727  0.4126 -0.7295 -0.1565
 1462SOL    HW1 7279   2.563   3.201   2.743  1.4249  0.5905  0.8196
 1462SOL    HW2 7280   2.649   3.092   2.804  0.7287 -0.4070  0.0565
 1463SOL     OW 7281   1.897   3.313   8.013  0.1304 -0.2720 -0.1650
 1463SOL    HW1 7282   1.954   3.385   7.986 -0.5052  0.4526  0.3904
 1463SOL    HW2 7283   1.933   3.285   8.098 -0.3379  0.1927  0.1905
 1464SOL     OW 7284   7.746   4.153   2.309 -1.0763  0.6530 -0.1238
 1464SOL    HW1 7285   7.693   4.073   2.312 -1.0714  0.6397 -0.3563
 1464SOL    HW2 7286   7.831   4.124   2.276 -0.7728  0.5974  0.6742
 1465SOL     OW 7287   9.455   9.848   2.996 -0.0395 -0.1650 -0.2074
 1465SOL    HW1 7288   9.410   9.928   3.023  0.4562 -0.2404  0.8732
 1465SOL    HW2 7289   9.482   9.865   2.906  0.3889  1.0357  0.1280
 1466SOL     OW 7290   4.420   6.852  10.676  0.3817  0.4278  0.3444
 1466SOL    HW1 7291   4.324   6.846  10.673  0.4156 -0.0183  0.0359
 1466SOL    HW2 7292   4.448   6.765  10.707  0.6614  0.7601  1.0448
 1467SOL     OW 7293   4.543   7.317   8.900  0.4185 -0.1827  0.3965
 1467SOL    HW1 7294   4.474   7.380   8.919  0.7586  0.6601 -1.0096
 1467SOL    HW2 7295   4.496   7.237   8.877 -0.0538  0.0061  0.6737
 1468SOL     OW 7296   4.767   7.060   5.663  0.1266  0.4964 -0.4725
 1468SOL    HW1 7297   4.678   7.026   5.655  0.8174 -1.2011 -1.3306
 1468SOL    HW2 7298   4.787   7.094   5.576  1.2653 -1.6765 -1.1318
 1469SOL     OW 7299   5.739   5.113   8.160  0.5840 -0.8769  0.1249
 1469SOL    HW1 7300   5.777   5.065   8.234  0.0271 -1.6499 -0.0708
 1469SOL    HW2 7301   5.645   5.114   8.179  0.4982 -0.6279 -0.3133
 1470SOL     OW 7302  10.303   4.901   7.028  0.5509 -0.7071 -0.0124
 1470SOL    HW1 7303  10.351   4.819   7.012 -0.3875 -1.0875 -1.0415
 1470SOL    HW2 7304  10.368   4.970   7.013  0.3346 -1.1028 -3.6621
 1471SOL     OW 7305   8.589   7.973   1.769 -1.2200  0.1674  0.3565
 1471SOL    HW1 7306   8.556   8.024   1.844  0.2046  0.6772  0.6577
 1471SOL    HW2 7307   8.647   7.907   1.808  0.1547  0.9298 -0.3318
 1472SOL     OW 7308   6.017   1.757   2.789  0.0899 -0.6146  0.0749
 1472SOL    HW1 7309   6.033   1.841   2.746 -0.0557  0.4438  1.9848
 1472SOL    HW2 7310   5.974   1.704   2.722  1.1948  0.4148 -1.5348
 1473SOL     OW 7311   4.384   3.207   7.264 -0.2558 -0.1775  0.6035
 1473SOL    HW1 7312   4.375   3.118   7.299  0.8234 -0.6084 -0.1621
 1473SOL    HW2 7313   4.352   3.263   7.334  0.3917 -1.0932  1.6697
 1474SOL     OW 7314   2.367   9.054   0.924 -0.0495  0.4993 -0.5622
 1474SOL    HW1 7315   2.331   9.083   0.840  1.2487  2.2388 -0.5875
 1474SOL    HW2 7316   2.329   9.115   0.988 -0.2423 -0.1806 -0.0164
 1475SOL     OW 7317   7.349   0.464   9.483 -0.7056  0.1469  0.3624
 1475SOL    HW1 7318   7.290   0.493   9.413 -0.3501 -3.1338 -1.5052
 1475SOL    HW2 7319   7.312   0.381   9.513  0.8134  0.0051  2.0113
 1476SOL     OW 7320   7.059   3.109   5.701 -0.3956 -0.5608  0.1367
 1476SOL    HW1 7321   7.017   3.187   5.737 -0.1284  1.5511 -3.6116
 1476SOL    HW2 7322   7.007   3.035   5.735 -0.5070  1.0802  4.0366
 1477SOL     OW 7323   1.746   1.465   5.872  0.1603 -0.1116 -0.2140
 1477SOL    HW1 7324   1.758   1.431   5.960 -0.2215  0.0470 -0.0996
 1477SOL    HW2 7325   1.656   1.442   5.849 -0.6407  2.0644  0.4349
 1478SOL     OW 7326   3.631   8.034   1.017 -0.5425 -0.3645 -0.3128
 1478SOL    HW1 7327   3.592   7.996   1.096 -1.1986  3.0815  1.2130
 1478SOL    HW2 7328   3.568   8.016   0.948 -1.8925 -0.1556  0.8170
 1479SOL     OW 7329   9.508   3.566   1.835 -0.0845  0.2512 -0.2473
 1479SOL    HW1 7330   9.442   3.636   1.844  0.7652  1.1095 -0.5319
 1479SOL    HW2 7331   9.508   3.523   1.920 -0.9072  0.3372 -0.1910
 1480SOL     OW 7332   8.894   1.672   0.967  0.6014  0.3321 -0.7212
 1480SOL    HW1 7333   8.944   1.749   0.995 -0.3842  1.0465 -0.8846
 1480SOL    HW2 7334   8.947   1.597   0.996  0.2251  1.0188  2.0830
 1481SOL     OW 7335   4.984   9.047   0.496 -0.6768 -0.5621 -0.1122
 1481SOL    HW1 7336   5.008   8.955   0.487  1.9542  0.1308 -1.0800
 1481SOL    HW2 7337   4.937   9.051   0.580  0.3418 -2.5593  0.6362
 1482SOL     OW 7338   1.906   1.096   2.696  0.3574 -0.6298 -0.4459
 1482SOL    HW1 7339   1.997   1.075   2.716  0.3185 -0.7303 -0.3760
 1482SOL    HW2 7340   1.861   1.012   2.692 -0.0942 -0.5200  1.3022
 1483SOL     OW 7341   6.131   2.761   3.527  0.2831  0.1034 -0.3457
 1483SOL    HW1 7342   6.191   2.699   3.567  0.9373  1.4998  0.9263
 1483SOL    HW2 7343   6.167   2.778   3.440  2.3212  1.6284  0.7296
 1484SOL     OW 7344  10.757  10.652   2.442  0.6221  0.3627 -0.0480
 1484SOL    HW1 7345  10.836  10.703   2.458  1.3194 -1.3163  2.3912
 1484SOL    HW2 7346  10.734  10.616   2.527 -2.3640  0.1452 -0.8306
 1485SOL     OW 7347   0.579   7.930   6.031 -0.0099  0.5926 -0.2011
 1485SOL    HW1 7348   0.535   7.877   6.098 -0.0555  0.1579 -0.5717
 1485SOL    HW2 7349   0.520   7.928   5.956  1.8490 -2.4558 -1.7999
 1486SOL     OW 7350   7.090   0.846   7.295 -0.1823 -0.1335 -0.2392
 1486SOL    HW1 7351   7.085   0.755   7.326 -1.6992  0.1311  0.4201
 1486SOL    HW2 7352   7.116   0.840   7.204  1.0345 -1.1477  0.1512
 1487SOL     OW 7353   7.015  10.533   8.369 -0.3141  0.2613  0.4340
 1487SOL    HW1 7354   6.989  10.605   8.310 -2.2568 -0.4476  0.3509
 1487SOL    HW2 7355   7.110  10.538   8.372 -0.3183  1.9260 -0.7373
 1488SOL     OW 7356  10.778   7.095   9.867 -0.3466 -0.2995 -0.3014
 1488SOL    HW1 7357  10.871   7.085   9.887  0.0202  1.7448 -0.7683
 1488SOL    HW2 7358  10.733   7.059   9.943  0.8282 -0.6440  0.2532
 1489SOL     OW 7359   2.302   7.889   3.204 -0.1787  0.3259  0.0612
 1489SOL    HW1 7360   2.321   7.795   3.196 -0.7979  0.3535 -2.5498
 1489SOL    HW2 7361   2.310   7.907   3.298 -1.0158 -2.5426  0.7768
 1490SOL     OW 7362   0.617   7.573   7.219  0.2004  0.1708  0.2590
 1490SOL    HW1 7363   0.706   7.606   7.233  0.8499 -0.7106 -1.4369
 1490SOL    HW2 7364   0.561   7.650   7.227  1.1305  0.7820  1.1243
 1491SOL     OW 7365   0.559   4.668   8.278  0.0256  0.5267 -0.2869
 1491SOL    HW1 7366   0.491   4.695   8.340 -0.2888 -0.2503 -0.2776
 1491SOL    HW2 7367   0.510   4.635   8.202  0.3849 -0.0696 -0.2660
 1492SOL     OW 7368  10.028   9.562   5.888 -0.2801  0.3425 -0.1779
 1492SOL    HW1 7369   9.982   9.508   5.823  0.4216 -0.4813  0.0011
 1492SOL    HW2 7370   9.986   9.648   5.880  0.9103  0.7872 -2.9645
 1493SOL     OW 7371   6.969   2.417   4.084  0.3906 -0.1215 -0.1920
 1493SOL    HW1 7372   6.946   2.508   4.065 -1.0712 -0.3331  0.4388
 1493SOL    HW2 7373   7.042   2.398   4.025  1.6179  1.8637  0.5952
 1494SOL     OW 7374   7.313   5.278   5.520  0.3860  0.1470 -0.1547
 1494SOL    HW1 7375   7.278   5.367   5.524  0.7384  0.2488  0.9638
 1494SOL    HW2 7376   7.344   5.269   5.430  0.8248  1.3361 -0.1413
 1495SOL     OW 7377  10.423   8.958   6.731 -0.3869  0.6389  0.2076
 1495SOL    HW1 7378  10.384   8.872   6.743 -0.0849  0.5028  0.2140
 1495SOL    HW2 7379  10.363   9.018   6.776 -2.0692  0.7900 -2.0437
 1496SOL     OW 7380   7.409   2.029   4.625 -0.2555 -0.1570  0.4410
 1496SOL    HW1 7381   7.344   2.028   4.696 -2.5221 -0.4566 -1.5055
 1496SOL    HW2 7382   7.379   1.962   4.564  2.7512 -1.3346  0.0588
 1497SOL     OW 7383   2.049   2.410   9.382 -0.5679 -0.5470 -0.4039
 1497SOL    HW1 7384   1.981   2.397   9.448 -0.0408  0.3363  0.3336
 1497SOL    HW2 7385   2.060   2.505   9.377 -0.8768 -0.5783 -2.0773
 1498SOL     OW 7386  10.609   1.553   2.311  0.1072 -0.2108 -0.1981
 1498SOL    HW1 7387  10.558   1.614   2.364 -0.9884 -0.1035 -1.3192
 1498SOL    HW2 7388  10.609   1.593   2.224  1.8016 -0.4106 -0.3134
 1499SOL     OW 7389   7.408   5.820   0.296 -0.3778  0.4779  0.7215
 1499SOL    HW1 7390   7.332   5.875   0.280 -0.7763 -0.2273  0.1186
 1499SOL    HW2 7391   7.436   5.842   0.385 -1.3370  0.6805  0.9774
 1500SOL     OW 7392   6.924   7.437   5.140  0.4858  0.0719  0.1167
 1500SOL    HW1 7393   6.898   7.524   5.108  0.9145  0.1416 -0.0585
 1500SOL    HW2 7394   6.845   7.384   5.133 -0.2422  0.8823  1.8234
 1501SOL     OW 7395   3.188   1.131  10.406 -0.4892  0.3256 -0.4940
 1501SOL    HW1 7396   3.110   1.180  10.382  0.0954  1.8108  0.4587
 1501SOL    HW2 7397   3.227   1.103  10.323 -0.9502  1.3277 -1.0557
 1502SOL     OW 7398   6.672   0.059   9.491 -0.1509  0.0105  0.4371
 1502SOL    HW1 7399   6.680  -0.016   9.432  0.5557 -0.1390  0.7171
 1502SOL    HW2 7400   6.674   0.022   9.579  1.2435  0.4309  0.6053
 1503SOL     OW 7401   4.741   4.010   6.263 -0.9380  0.3488 -0.4622
 1503SOL    HW1 7402   4.772   3.984   6.176  1.5574  0.0669  0.4300
 1503SOL    HW2 7403   4.760   3.936   6.319  0.5319  1.6887  0.9215
 1504SOL     OW 7404   8.567   0.753   0.506  0.0608  0.4846 -0.2047
 1504SOL    HW1 7405   8.510   0.746   0.430 -0.4441  1.8229  0.0244
 1504SOL    HW2 7406   8.592   0.663   0.526 -1.7835 -0.1126 -0.4553
 1505SOL     OW 7407   8.156  10.180   4.073 -0.7317  0.2411 -0.1286
 1505SOL    HW1 7408   8.100  10.247   4.112 -0.5064  1.9069 -2.4353
 1505SOL    HW2 7409   8.243  10.196   4.109 -1.0600 -0.1611  0.8707
 1506SOL     OW 7410   3.192   3.006   7.573  0.1808 -0.0571 -0.1072
 1506SOL    HW1 7411   3.254   3.011   7.500  1.1018 -1.8265  0.4944
 1506SOL    HW2 7412   3.228   3.066   7.638 -0.0687  0.7295 -0.6794
 1507SOL     OW 7413   9.305   0.567   9.539  0.3599 -0.1709 -0.5916
 1507SOL    HW1 7414   9.356   0.486   9.534 -0.5726 -0.7172 -1.5541
 1507SOL    HW2 7415   9.369   0.634   9.564  0.8713 -1.4234  1.8171
 1508SOL     OW 7416  10.447   9.094   4.471  1.0175  0.5640  0.4580
 1508SOL    HW1 7417  10.409   9.033   4.408 -0.7517 -0.3328  2.2688
 1508SOL    HW2 7418  10.385   9.167   4.473  1.9110  1.3472 -0.0019
 1509SOL     OW 7419   6.971   0.079   3.659 -0.1457 -0.1077  0.0282
 1509SOL    HW1 7420   6.899   0.123   3.614  0.7104  0.8266 -0.4651
 1509SOL    HW2 7421   6.995   0.138   3.731  0.1908 -0.3548  0.1246
 1510SOL     OW 7422   3.871   1.834   3.736 -0.0411 -0.4436  0.2984
 1510SOL    HW1 7423   3.788   1.882   3.727 -0.1164  0.2880  3.6382
 1510SOL    HW2 7424   3.930   1.878   3.675 -0.9650  1.9546  0.9888
 1511SOL     OW 7425   0.413   6.631   0.647  0.2407 -0.6117 -0.6687
 1511SOL    HW1 7426   0.381   6.702   0.592 -0.5946 -1.3592 -1.1628
 1511SOL    HW2 7427   0.444   6.674   0.727 -0.1624  0.3053 -1.0040
 1512SOL     OW 7428   6.589   7.008   5.506 -0.5946  0.2608  0.0678
 1512SOL    HW1 7429   6.628   6.956   5.435  1.0506 -0.6277  1.5664
 1512SOL    HW2 7430   6.589   6.949   5.581 -0.0302  1.9668  1.4432
 1513SOL     OW 7431  10.497   4.464   1.519 -0.3316  1.0235 -0.7693
 1513SOL    HW1 7432  10.490   4.510   1.435 -2.6269  0.6229 -0.8608
 1513SOL    HW2 7433  10.436   4.510   1.577 -1.5139 -0.8725 -0.4095
 1514SOL     OW 7434   9.762   6.439   0.760 -0.1578 -0.0232  0.1361
 1514SOL    HW1 7435   9.682   6.491   0.771 -0.0925 -0.0291  0.6942
 1514SOL    HW2 7436   9.775   6.434   0.666 -1.7015 -1.3455 -0.0493
 1515SOL     OW 7437   9.991   1.082   3.441  0.0633 -0.6940 -0.0749
 1515SOL    HW1 7438   9.918   1.123   3.395 -0.2543 -1.5843 -0.3928
 1515SOL    HW2 7439   9.960   0.993   3.459  0.2822 -0.4611  1.6058
 1516SOL     OW 7440  10.327  10.672   0.484  0.5923 -0.1027  0.4809
 1516SOL    HW1 7441  10.405  10.618   0.474  1.2521  0.8783  0.2090
 1516SOL    HW2 7442  10.359  10.762   0.482 -0.5634  0.3276  0.1906
 1517SOL     OW 7443   1.906   2.473  10.563 -0.1837  0.5481 -0.4736
 1517SOL    HW1 7444   1.964   2.406  10.528 -1.1818  0.0141 -1.1558
 1517SOL    HW2 7445   1.922   2.472  10.657 -1.0658 -1.5389 -0.2957
 1518SOL     OW 7446   6.740   8.522   2.801  0.8466 -0.1081 -0.0181
 1518SOL    HW1 7447   6.794   8.530   2.880  0.0389  0.1811  0.5128
 1518SOL    HW2 7448   6.756   8.603   2.753  0.6060  0.1443  0.3215
 1519SOL     OW 7449   2.903   7.654   8.710 -0.5467  0.7228 -0.2584
 1519SOL    HW1 7450   2.821   7.652   8.759  0.1740 -0.1298  1.0056
 1519SOL    HW2 7451   2.935   7.743   8.721 -0.4357  0.5704  0.8283
 1520SOL     OW 7452   3.649   8.345   6.472 -0.8694 -0.3665  0.2908
 1520SOL    HW1 7453   3.618   8.415   6.530 -0.8257  0.5782 -0.7836
 1520SOL    HW2 7454   3.744   8.358   6.467 -0.9895  0.2323 -0.8024
 1521SOL     OW 7455   6.694   3.013   2.022  0.5398 -0.3805 -0.4474
 1521SOL    HW1 7456   6.690   3.006   2.117 -0.5845 -3.3008 -0.5987
 1521SOL    HW2 7457   6.604   3.030   1.995 -0.0163 -3.5718 -1.0525
 1522SOL     OW 7458   2.609   8.916   1.450 -0.0202  0.4947 -0.2770
 1522SOL    HW1 7459   2.537   8.886   1.395  0.2231  1.8640 -1.4187
 1522SOL    HW2 7460   2.605   8.861   1.528 -0.1475 -1.8066 -1.8052
 1523SOL     OW 7461   0.988   9.821   8.072 -0.2071  0.3462 -0.4737
 1523SOL    HW1 7462   0.961   9.790   7.986  1.5017 -0.3253 -0.8037
 1523SOL    HW2 7463   0.960   9.913   8.074 -2.5375 -0.2967 -0.6943
 1524SOL     OW 7464   7.779   3.885   2.921  0.6009 -0.1564  0.1135
 1524SOL    HW1 7465   7.801   3.842   2.838  0.8928  1.6868 -0.8033
 1524SOL    HW2 7466   7.850   3.859   2.980  1.0691 -0.4852 -0.5708
 1525SOL     OW 7467   2.354   7.516   8.736 -0.1393  0.1813 -0.3309
 1525SOL    HW1 7468   2.298   7.570   8.680 -1.8217 -1.6193 -0.5179
 1525SOL    HW2 7469   2.433   7.568   8.750 -0.6101  1.6178 -2.5410
 1526SOL     OW 7470   2.178   7.688   5.916 -0.0278  0.4112 -0.6129
 1526SOL    HW1 7471   2.184   7.779   5.888  0.8678  0.3784 -0.5462
 1526SOL    HW2 7472   2.136   7.692   6.002 -0.5398  0.7064 -0.8743
 1527SOL     OW 7473   7.573   9.938   5.841  0.2284 -0.1072  0.2580
 1527SOL    HW1 7474   7.544  10.020   5.802  0.2555 -0.5651 -0.7768
 1527SOL    HW2 7475   7.539   9.870   5.782  0.6539 -0.8124  0.8021
 1528SOL     OW 7476   2.187  10.182   2.876  0.5040  0.5989  0.2563
 1528SOL    HW1 7477   2.158  10.091   2.883  0.7356  0.5362  0.4209
 1528SOL    HW2 7478   2.283  10.177   2.873  0.5031  0.8125 -0.1439
 1529SOL     OW 7479   0.383   0.545   7.583 -0.2812 -0.6820  0.4604
 1529SOL    HW1 7480   0.348   0.563   7.670 -0.9251  0.7112 -0.0655
 1529SOL    HW2 7481   0.462   0.599   7.577 -1.2204  0.6242 -0.4624
 1530SOL     OW 7482   8.148   8.376   4.468  0.2745 -0.1420 -0.1538
 1530SOL    HW1 7483   8.165   8.300   4.522  1.1052  1.3397  1.8027
 1530SOL    HW2 7484   8.055   8.393   4.479  0.3578 -0.0920  0.5111
 1531SOL     OW 7485   2.078   9.448   3.553  0.2466  0.5307 -0.2416
 1531SOL    HW1 7486   2.060   9.542   3.560 -2.4586  0.2218 -1.7141
 1531SOL    HW2 7487   1.993   9.406   3.565  1.2175 -1.7012 -0.6120
 1532SOL     OW 7488   2.126   1.537   5.314  0.1398 -0.4057 -0.0527
 1532SOL    HW1 7489   2.139   1.449   5.277 -2.3496 -1.1481  0.6275
 1532SOL    HW2 7490   2.188   1.542   5.386  0.3947 -1.6012 -0.1662
 1533SOL     OW 7491   1.559   5.732  10.756  0.6458  0.3370 -0.7849
 1533SOL    HW1 7492   1.622   5.802  10.773  1.2897 -0.2194 -0.8561
 1533SOL    HW2 7493   1.611   5.661  10.718 -0.2208  0.3420 -2.0542
 1534SOL     OW 7494   2.991   4.638   3.275 -0.2862  0.0166 -0.4296
 1534SOL    HW1 7495   2.924   4.601   3.332  0.1228 -2.6341 -1.5078
 1534SOL    HW2 7496   3.068   4.582   3.289  0.0525 -0.2962 -2.9537
 1535SOL     OW 7497   4.858   4.485   3.351  0.2055 -0.1760  0.0318
 1535SOL    HW1 7498   4.950   4.465   3.371  0.8875  1.6126 -1.0161
 1535SOL    HW2 7499   4.841   4.442   3.267  0.0131 -0.7073  0.3446
 1536SOL     OW 7500   0.934   2.419   8.201  0.4644 -0.0049 -0.2903
 1536SOL    HW1 7501   0.970   2.338   8.236  1.8409  0.0096 -1.5679
 1536SOL    HW2 7502   0.862   2.441   8.261  0.2024 -2.0181  0.2235
 1537SOL     OW 7503   3.180   7.873  10.060 -0.3797  0.1497  0.5132
 1537SOL    HW1 7504   3.086   7.884  10.053 -0.2503  0.2318 -2.1342
 1537SOL    HW2 7505   3.208   7.943  10.119 -1.8495  0.8808  0.3934
 1538SOL     OW 7506   2.527   6.468  10.163  0.0306 -0.4482 -0.2354
 1538SOL    HW1 7507   2.548   6.527  10.090  0.3189 -1.1291 -0.7153
 1538SOL    HW2 7508   2.533   6.524  10.241 -0.5317  0.3533 -0.7491
 1539SOL     OW 7509   8.661   0.204  10.691  0.4633  0.4799  0.0991
 1539SOL    HW1 7510   8.714   0.178  10.615 -0.7880  1.1068 -1.0427
 1539SOL    HW2 7511   8.702   0.285  10.722  0.9795  0.2267  0.0862
 1540SOL     OW 7512   0.007   9.501   2.157  0.1561  0.1612 -0.6503
 1540SOL    HW1 7513   0.044   9.552   2.229 -0.6331 -0.3572  0.1512
 1540SOL    HW2 7514  -0.014   9.416   2.196 -2.2446  0.5590 -0.9195
 1541SOL     OW 7515   3.819   6.331   3.070 -0.2230  0.6428 -0.1784
 1541SOL    HW1 7516   3.862   6.330   2.985 -0.5682  0.3152 -0.3517
 1541SOL    HW2 7517   3.733   6.370   3.053 -0.1020  1.0519  0.1155
 1542SOL     OW 7518   6.298   3.719   4.634  0.1977 -0.4036 -0.3205
 1542SOL    HW1 7519   6.337   3.749   4.716 -0.6796 -1.2452  0.4312
 1542SOL    HW2 7520   6.230   3.783   4.615 -0.0812 -0.6011  0.0027
 1543SOL     OW 7521   8.526   2.939   2.235  0.0626 -0.3543  0.1473
 1543SOL    HW1 7522   8.532   2.861   2.290  0.4421  0.3077  1.0698
 1543SOL    HW2 7523   8.435   2.968   2.243 -0.2158 -1.0033 -0.6275
 1544SOL     OW 7524   3.834   4.754   2.110 -0.6168 -0.6390 -0.1440
 1544SOL    HW1 7525   3.777   4.823   2.145 -0.0090  0.6152 -1.4855
 1544SOL    HW2 7526   3.779   4.710   2.044 -0.7176 -0.8407  0.0748
 1545SOL     OW 7527  10.470   9.221   8.622  0.3553 -1.0745 -0.4986
 1545SOL    HW1 7528  10.395   9.277   8.600 -1.0668 -1.7939  2.1291
 1545SOL    HW2 7529  10.470   9.153   8.554 -0.1571 -0.0080 -1.6126
 1546SOL     OW 7530   7.807   9.303   9.993 -0.7629  0.1372  0.1746
 1546SOL    HW1 7531   7.841   9.341  10.074 -2.7570 -0.6710  1.4821
 1546SOL    HW2 7532   7.747   9.368   9.958  0.2819  0.5886 -0.8321
 1547SOL     OW 7533  10.156   0.654   8.740  0.6014  0.2370 -0.3512
 1547SOL    HW1 7534  10.197   0.688   8.661  0.4038  0.6372 -0.2843
 1547SOL    HW2 7535  10.063   0.673   8.729  0.4724 -0.3618 -0.3513
 1548SOL     OW 7536   7.457   5.071   4.880 -0.0554 -0.0668 -0.3594
 1548SOL    HW1 7537   7.440   5.051   4.788 -1.6056 -0.7044  0.0378
 1548SOL    HW2 7538   7.544   5.112   4.880  0.0552 -0.2357 -2.0703
 1549SOL     OW 7539  10.100   6.713  10.404  0.6426  0.3427 -0.3215
 1549SOL    HW1 7540  10.094   6.658  10.483  1.3932 -0.7949 -1.0207
 1549SOL    HW2 7541  10.013   6.707  10.364  1.1810 -1.9138 -1.3462
 1550SOL     OW 7542   7.679  10.057   1.159 -0.3298 -0.5440 -0.4062
 1550SOL    HW1 7543   7.623  10.011   1.097  0.1914  0.4538 -1.6614
 1550SOL    HW2 7544   7.734  10.113   1.105  1.9931 -1.5667  0.7643
 1551SOL     OW 7545   1.238   6.742  10.235  0.0512  0.0943 -0.2946
 1551SOL    HW1 7546   1.284   6.667  10.197 -0.2555  0.1357 -0.7545
 1551SOL    HW2 7547   1.146   6.724  10.219 -0.1458 -0.2511  1.1085
 1552SOL     OW 7548   6.569   4.881   0.366  0.3746 -0.2532 -0.3219
 1552SOL    HW1 7549   6.580   4.915   0.277  2.0563 -0.5049 -0.2441
 1552SOL    HW2 7550   6.532   4.955   0.415  2.1559  0.8961 -0.5986
 1553SOL     OW 7551  10.230   5.199  10.555  0.5570 -0.2123  0.3212
 1553SOL    HW1 7552  10.234   5.256  10.631  1.7182 -0.3892  0.4145
 1553SOL    HW2 7553  10.312   5.217  10.508 -0.5331  0.5563 -1.3741
 1554SOL     OW 7554   9.515   6.557   6.654  0.2535 -0.0385 -0.0617
 1554SOL    HW1 7555   9.527   6.503   6.576  1.3955 -0.6216  0.4998
 1554SOL    HW2 7556   9.420   6.563   6.665  0.0482 -3.2307  0.7444
 1555SOL     OW 7557   0.576   8.740   5.854  0.0943  0.3854 -0.1183
 1555SOL    HW1 7558   0.613   8.684   5.786  1.7162  0.2395  0.8121
 1555SOL    HW2 7559   0.651   8.760   5.911 -0.7771  2.2145  0.4514
 1556SOL     OW 7560   4.503   4.218   5.618 -0.0048  0.2701  0.0261
 1556SOL    HW1 7561   4.495   4.209   5.713  2.2794 -2.9826  0.0806
 1556SOL    HW2 7562   4.530   4.309   5.605 -0.0565  0.7284  2.5119
 1557SOL     OW 7563   7.990   6.657   1.324 -0.0347  0.0563 -0.0502
 1557SOL    HW1 7564   7.969   6.568   1.297 -1.2097  0.4385 -0.4684
 1557SOL    HW2 7565   8.034   6.696   1.248 -0.5231  0.1681 -0.2792
 1558SOL     OW 7566   0.397  10.747   1.283 -0.1534  0.3625 -0.1520
 1558SOL    HW1 7567   0.429  10.697   1.358  1.2937  2.8569  1.0070
 1558SOL    HW2 7568   0.319  10.792   1.316  0.5486  1.5499 -0.0528
 1559SOL     OW 7569   1.178   7.648   8.392 -0.4869 -0.3121 -0.1001
 1559SOL    HW1 7570   1.206   7.727   8.440 -1.5227  0.1170 -0.1889
 1559SOL    HW2 7571   1.189   7.577   8.455  1.5076 -0.2931 -0.3608
 1560SOL     OW 7572   6.516  10.096   2.349 -0.2440  0.5041 -0.1848
 1560SOL    HW1 7573   6.455  10.023   2.336  0.7379 -0.2781 -0.4940
 1560SOL    HW2 7574   6.527  10.133   2.261  0.6031 -0.0777 -0.3296
 1561SOL     OW 7575   5.372   3.004   1.557 -0.4899  0.2362  0.1940
 1561SOL    HW1 7576   5.285   2.984   1.590 -0.3830 -0.9323 -0.1988
 1561SOL    HW2 7577   5.373   2.969   1.468  0.1870  0.7817 -0.0242
 1562SOL     OW 7578   4.496   2.402   3.216 -0.1101  0.0700 -0.8120
 1562SOL    HW1 7579   4.439   2.461   3.265 -1.2990 -1.4628 -0.2365
 1562SOL    HW2 7580   4.526   2.338   3.280  1.5950  0.3283 -1.2996
 1563SOL     OW 7581   2.759   1.661   7.924  0.0170  0.3503  0.0703
 1563SOL    HW1 7582   2.766   1.618   8.009 -0.6212 -0.5293 -0.3039
 1563SOL    HW2 7583   2.791   1.595   7.862  1.5604  1.3766 -0.2940
 1564SOL     OW 7584   4.402   3.822  10.635 -0.1850 -0.3716 -0.3129
 1564SOL    HW1 7585   4.359   3.905  10.614 -2.4359 -1.7067 -1.4564
 1564SOL    HW2 7586   4.334   3.756  10.620  1.9289 -2.5699 -0.9091
 1565SOL     OW 7587   8.111   7.777   4.762  0.0871 -0.1849  0.1569
 1565SOL    HW1 7588   8.158   7.815   4.836 -0.5094  0.5968  0.1511
 1565SOL    HW2 7589   8.022   7.812   4.770 -0.0638 -0.3355 -0.7572
 1566SOL     OW 7590   9.978   5.457   4.753  0.1281  0.7715 -0.4097
 1566SOL    HW1 7591   9.948   5.459   4.844  1.4132 -0.9598  0.1160
 1566SOL    HW2 7592   9.916   5.399   4.709 -0.0134  0.9514 -0.4492
 1567SOL     OW 7593   1.110   3.953   0.122  0.1979 -0.3768 -0.6666
 1567SOL    HW1 7594   1.091   4.035   0.167  2.1681  0.6397 -1.5156
 1567SOL    HW2 7595   1.028   3.927   0.082 -1.4757 -0.9604  2.7980
 1568SOL     OW 7596   5.401   0.314   1.350  0.4329 -0.0440  0.1168
 1568SOL    HW1 7597   5.489   0.331   1.319  0.4726 -0.1897  0.1491
 1568SOL    HW2 7598   5.383   0.383   1.413  1.2328 -1.0928  1.5344
 1569SOL     OW 7599   2.080   8.810   3.454 -0.1841 -0.1560  0.4307
 1569SOL    HW1 7600   2.020   8.879   3.485  0.3203  1.2841 -1.5957
 1569SOL    HW2 7601   2.158   8.821   3.509 -0.0506  1.0277  0.0460
 1570SOL     OW 7602   1.161   5.126   2.184 -0.1511  0.1396  0.0042
 1570SOL    HW1 7603   1.168   5.115   2.279  0.2785 -0.4964 -0.0936
 1570SOL    HW2 7604   1.178   5.219   2.170 -0.9051  0.3779  0.6041
 1571SOL     OW 7605   8.211  10.669   8.708 -0.1491 -0.0523  0.4964
 1571SOL    HW1 7606   8.160  10.640   8.632 -0.4235 -0.3086  0.7761
 1571SOL    HW2 7607   8.187  10.761   8.719  0.6369  0.2660 -0.3224
 1572SOL     OW 7608  10.290   5.432   9.872  0.0240 -0.1774  0.0232
 1572SOL    HW1 7609  10.364   5.441   9.813  0.7993 -0.8517  0.8446
 1572SOL    HW2 7610  10.304   5.499   9.939 -1.2274  1.0523 -0.9159
 1573SOL     OW 7611   9.018   0.007   2.130 -0.2371 -0.3942 -0.3092
 1573SOL    HW1 7612   9.088   0.052   2.082  0.1697 -0.3641  0.3108
 1573SOL    HW2 7613   9.021   0.045   2.218  1.5805 -3.1195  0.9548
 1574SOL     OW 7614   0.218  10.392   2.554  0.3497 -0.1694 -0.1669
 1574SOL    HW1 7615   0.200  10.444   2.633 -0.6993  0.5913 -0.8876
 1574SOL    HW2 7616   0.233  10.303   2.587  0.8134  0.3043  0.9677
 1575SOL     OW 7617   3.514   6.085   1.115 -0.8240  0.1636  0.0711
 1575SOL    HW1 7618   3.490   6.155   1.176 -2.0237  0.2299 -0.4495
 1575SOL    HW2 7619   3.517   6.007   1.169  1.2926  0.7035  0.8097
 1576SOL     OW 7620  10.060   8.917   4.747  0.3995  0.6641  0.2077
 1576SOL    HW1 7621  10.079   8.885   4.659  0.1294  0.0299  0.3778
 1576SOL    HW2 7622   9.976   8.961   4.739  0.0357  0.0025  0.2848
 1577SOL     OW 7623   6.380   9.350   3.919 -0.1229  0.8382 -0.0929
 1577SOL    HW1 7624   6.470   9.382   3.913  1.1500 -2.5507 -1.6187
 1577SOL    HW2 7625   6.348   9.386   4.002  3.0072  1.2980  1.0687
 1578SOL     OW 7626   0.828   0.003   0.672 -0.1981  0.9147 -0.3354
 1578SOL    HW1 7627   0.774  -0.014   0.748  1.1926 -0.9223  0.3278
 1578SOL    HW2 7628   0.770  -0.010   0.597 -0.6317 -1.6074  0.3246
 1579SOL     OW 7629   4.278   3.755   9.821 -0.2472  0.0481  0.5897
 1579SOL    HW1 7630   4.361   3.716   9.847 -0.6716 -0.5357  1.0919
 1579SOL    HW2 7631   4.247   3.801   9.898 -0.0892  0.7957  0.2109
 1580SOL     OW 7632   9.908   9.663   7.506  0.6896  0.6143  0.0110
 1580SOL    HW1 7633   9.842   9.702   7.450 -0.1655  0.1526  0.6715
 1580SOL    HW2 7634   9.928   9.579   7.464  0.5082  0.5422  0.0708
 1581SOL     OW 7635   3.399   1.173   6.541  0.2637 -0.0564  0.3168
 1581SOL    HW1 7636   3.452   1.171   6.462  1.2128 -0.6266  0.9458
 1581SOL    HW2 7637   3.318   1.127   6.518  0.0468  0.7764 -0.6362
 1582SOL     OW 7638   1.126   5.199   4.920 -0.0124  0.1140  0.3286
 1582SOL    HW1 7639   1.128   5.133   4.990 -2.6352 -2.4906 -1.8129
 1582SOL    HW2 7640   1.210   5.188   4.876 -0.6246 -2.4138 -0.3787
 1583SOL     OW 7641   4.528   8.459   2.587  0.1474 -0.0517 -0.6591
 1583SOL    HW1 7642   4.519   8.483   2.495  2.4589  1.0931 -0.6593
 1583SOL    HW2 7643   4.622   8.444   2.599  0.1685  1.4290  1.8549
 1584SOL     OW 7644   5.116   4.858   4.744 -0.2633  0.2681 -0.1648
 1584SOL    HW1 7645   5.168   4.936   4.726 -1.8275  1.5338  0.5627
 1584SOL    HW2 7646   5.093   4.864   4.836 -1.1153 -0.6191 -0.2975
 1585SOL     OW 7647   1.064   5.882   5.548  0.1514  0.3491  0.2009
 1585SOL    HW1 7648   1.104   5.856   5.465  1.3283  2.8935 -0.1199
 1585SOL    HW2 7649   0.971   5.889   5.529  0.1068 -1.1808 -0.2889
 1586SOL     OW 7650   1.872   2.512   5.684  0.4997 -0.3273  0.4459
 1586SOL    HW1 7651   1.814   2.584   5.711  0.0164  0.2863 -2.0238
 1586SOL    HW2 7652   1.813   2.437   5.673  0.9315 -1.0560  2.5073
 1587SOL     OW 7653   8.491   5.495   2.311 -0.0658  0.3069  0.4398
 1587SOL    HW1 7654   8.565   5.449   2.271  0.4697 -1.7631  3.4250
 1587SOL    HW2 7655   8.425   5.426   2.323 -0.4973  0.9639  2.1915
 1588SOL     OW 7656   8.065   8.759   2.907 -0.4009 -0.1490  0.2271
 1588SOL    HW1 7657   7.978   8.768   2.946 -1.0320 -0.9768 -0.9271
 1588SOL    HW2 7658   8.048   8.753   2.813  0.9288 -0.1121 -0.0243
 1589SOL     OW 7659   5.925  10.658   3.414 -0.5386 -0.5854  0.0749
 1589SOL    HW1 7660   5.896  10.703   3.335 -0.1414 -2.3006 -1.0953
 1589SOL    HW2 7661   5.873  10.578   3.417  0.6319 -1.3535  0.6074
 1590SOL     OW 7662   2.803  10.718   9.100 -0.6920  0.1571  0.0664
 1590SOL    HW1 7663   2.890  10.752   9.077  0.0916 -1.7269  0.0465
 1590SOL    HW2 7664   2.768  10.685   9.017 -0.6846 -0.6002  0.3495
 1591SOL     OW 7665   2.916   7.427   0.370  0.0665  0.2924 -0.7300
 1591SOL    HW1 7666   2.944   7.379   0.291  1.1258  1.6571 -1.2301
 1591SOL    HW2 7667   2.900   7.359   0.435 -0.1907 -0.8325 -1.9319
 1592SOL     OW 7668   9.889   0.774   6.690 -0.1514 -0.0614  1.0318
 1592SOL    HW1 7669   9.947   0.847   6.710  0.9392 -0.8603  0.8202
 1592SOL    HW2 7670   9.837   0.805   6.615  0.0644  0.6090  1.1530
 1593SOL     OW 7671   4.737   2.190   5.268  0.1280 -0.2286  0.1106
 1593SOL    HW1 7672   4.787   2.224   5.194  1.0563  0.7948  1.1592
 1593SOL    HW2 7673   4.646   2.191   5.238  0.5339 -0.4468 -1.2173
 1594SOL     OW 7674   6.619   8.013   8.183  0.3587  0.2959 -0.6035
 1594SOL    HW1 7675   6.540   7.961   8.195 -0.2324  1.1445 -0.7241
 1594SOL    HW2 7676   6.587   8.100   8.158  1.3190  0.7085 -0.4479
 1595SOL     OW 7677   4.105   1.695   9.600 -0.2209  0.3236  0.6578
 1595SOL    HW1 7678   4.099   1.609   9.640  1.0994  0.4225  1.1264
 1595SOL    HW2 7679   4.167   1.743   9.655 -2.0718  2.1096  1.3225
 1596SOL     OW 7680   7.198   8.270   2.561 -0.0534 -0.1841  0.2082
 1596SOL    HW1 7681   7.244   8.231   2.486 -0.6110 -0.6081  0.0862
 1596SOL    HW2 7682   7.263   8.269   2.631  0.5395  0.3956 -0.3197
 1597SOL     OW 7683   1.086   3.896   4.489 -0.1667  0.2414 -0.2171
 1597SOL    HW1 7684   1.090   3.953   4.565  1.6035  0.0803 -0.1573
 1597SOL    HW2 7685   1.136   3.818   4.514 -2.0566 -1.1572 -0.4894
 1598SOL     OW 7686   3.747   2.640   0.544 -0.5384  0.4143  0.2448
 1598SOL    HW1 7687   3.820   2.691   0.507 -2.5623  3.4526  0.0890
 1598SOL    HW2 7688   3.704   2.601   0.468 -1.5451  2.2007 -0.1412
 1599SOL     OW 7689   6.039  10.050   3.315 -0.0623 -0.0771  0.4681
 1599SOL    HW1 7690   5.992   9.973   3.283 -0.4895  0.6749 -0.7682
 1599SOL    HW2 7691   6.076  10.090   3.236 -1.8172  2.2835  0.7630
 1600SOL     OW 7692  10.623   2.371   9.721  0.3169 -0.5129 -0.0084
 1600SOL    HW1 7693  10.656   2.312   9.788 -0.4594  0.7981  1.5984
 1600SOL    HW2 7694  10.530   2.383   9.743 -0.1932 -0.7111 -1.8448
 1601SOL     OW 7695  10.040   3.264   2.194  0.1107  0.1633  0.3239
 1601SOL    HW1 7696   9.945   3.267   2.183  0.0769  0.1198  0.5957
 1601SOL    HW2 7697  10.066   3.180   2.157  0.1868  0.6696 -0.8097
 1602SOL     OW 7698   8.171   5.987   4.237 -0.1459  0.3944  0.4066
 1602SOL    HW1 7699   8.150   6.037   4.159  2.0896  0.4450 -0.2493
 1602SOL    HW2 7700   8.201   5.902   4.205  0.4733  0.2881  1.2061
 1603SOL     OW 7701   8.818  10.237   5.583 -0.3601  0.3129  0.0981
 1603SOL    HW1 7702   8.728  10.269   5.576 -0.4421  0.7094  2.2140
 1603SOL    HW2 7703   8.816  10.149   5.545 -1.9162 -0.1217  1.1321
 1604SOL     OW 7704  10.759   6.207   0.890  0.1121 -0.3296  0.0161
 1604SOL    HW1 7705  10.719   6.265   0.955  3.2730  1.7780  0.3300
 1604SOL    HW2 7706  10.796   6.135   0.941  0.2031 -0.1340  0.2259
 1605SOL     OW 7707   0.865   6.220  10.679 -0.5096 -0.2150  0.0778
 1605SOL    HW1 7708   0.927   6.272  10.627 -0.1536 -1.4825 -0.8228
 1605SOL    HW2 7709   0.920   6.175  10.743 -0.3598 -1.7659 -1.0674
 1606SOL     OW 7710   5.463   0.085   2.754 -0.7683  0.4559  0.6753
 1606SOL    HW1 7711   5.545   0.127   2.728 -0.8573 -0.4556 -1.2448
 1606SOL    HW2 7712   5.412   0.079   2.673 -1.9320 -0.7201  1.4545
 1607SOL     OW 7713   9.623   2.658   3.800  0.2843 -0.1622  0.1950
 1607SOL    HW1 7714   9.550   2.696   3.752  0.7250  0.0442 -0.3297
 1607SOL    HW2 7715   9.635   2.571   3.761  0.8420  0.1265 -0.2960
 1608SOL     OW 7716   1.115   5.359   8.277 -0.6678  0.1356 -0.1608
 1608SOL    HW1 7717   1.195   5.409   8.292  0.4946 -1.9984  1.2990
 1608SOL    HW2 7718   1.071   5.405   8.205  1.9283  1.2783 -1.1378
 1609SOL     OW 7719   9.482   7.234   3.442 -0.5871 -0.0965  0.9047
 1609SOL    HW1 7720   9.548   7.164   3.441 -0.1923  0.2734  0.2510
 1609SOL    HW2 7721   9.529   7.311   3.411 -1.5561 -0.0204 -0.4399
 1610SOL     OW 7722   4.226   2.207   6.118 -0.2160  0.0257 -0.3936
 1610SOL    HW1 7723   4.155   2.267   6.094 -0.7464  0.3201  1.6917
 1610SOL    HW2 7724   4.306   2.252   6.094 -0.6458  1.1671  0.2479
 1611SOL     OW 7725   2.522   8.243   4.170  0.4627  0.1316 -0.2661
 1611SOL    HW1 7726   2.492   8.173   4.228  1.2354 -0.7120 -0.8548
 1611SOL    HW2 7727   2.608   8.214   4.140  0.1193  0.5902 -1.7675
 1612SOL     OW 7728   1.316   5.092   0.852  0.1600 -0.8693  0.1221
 1612SOL    HW1 7729   1.322   5.184   0.828  0.5489 -0.9918 -0.2649
 1612SOL    HW2 7730   1.376   5.082   0.926 -0.2971 -0.6993  0.5201
 1613SOL     OW 7731   2.159   3.061   4.239  0.5226  0.1884 -0.0831
 1613SOL    HW1 7732   2.157   2.969   4.215  1.1466  0.2023 -0.2037
 1613SOL    HW2 7733   2.208   3.063   4.321  0.1623  0.3693  0.1309
 1614SOL     OW 7734   8.865   9.768   0.407  0.1282  0.2217  0.1886
 1614SOL    HW1 7735   8.826   9.697   0.356 -0.0435 -0.8797  1.7973
 1614SOL    HW2 7736   8.910   9.822   0.341  1.8715 -2.3946 -0.9351
 1615SOL     OW 7737   8.654   8.428   7.252  0.3533 -0.2948 -0.6570
 1615SOL    HW1 7738   8.562   8.414   7.274  0.0059 -0.4015 -2.0554
 1615SOL    HW2 7739   8.661   8.403   7.160  1.6477  0.3409 -0.7655
 1616SOL     OW 7740   5.310   2.807   5.569  0.0128 -0.4046  0.0893
 1616SOL    HW1 7741   5.287   2.893   5.605 -2.9439 -0.3981 -1.5735
 1616SOL    HW2 7742   5.282   2.745   5.636 -2.6658 -0.2368 -0.7598
 1617SOL     OW 7743   5.254   7.259   3.030 -0.2382  0.5324  0.2501
 1617SOL    HW1 7744   5.321   7.192   3.047  0.0379  1.1981  2.0226
 1617SOL    HW2 7745   5.302   7.342   3.032 -0.6555  0.8641 -1.4710
 1618SOL     OW 7746   9.803   3.847   3.876  0.5212 -0.3651 -0.1155
 1618SOL    HW1 7747   9.863   3.828   3.804  0.3066 -1.7347  0.0414
 1618SOL    HW2 7748   9.848   3.815   3.954  0.0074 -0.5032  0.1279
 1619SOL     OW 7749   4.086   6.087   7.209 -0.4272 -0.0641 -0.3155
 1619SOL    HW1 7750   4.112   6.138   7.285 -0.6163 -2.2431  1.3306
 1619SOL    HW2 7751   4.091   6.148   7.135 -3.0340  3.0053  1.7812
 1620SOL     OW 7752   9.599   7.001   2.104  0.3299 -0.6009 -0.0081
 1620SOL    HW1 7753   9.548   6.926   2.075  0.2798 -0.1139 -1.2422
 1620SOL    HW2 7754   9.629   6.977   2.192 -1.5166 -1.1302  0.5155
 1621SOL     OW 7755   1.650   5.877   8.609 -0.5692 -0.2850  0.2338
 1621SOL    HW1 7756   1.692   5.795   8.583  2.2822 -0.5208  4.5737
 1621SOL    HW2 7757   1.582   5.850   8.672  0.7060  0.5898  2.0562
 1622SOL     OW 7758   1.154   2.019   5.568 -0.1092 -0.2716 -0.3698
 1622SOL    HW1 7759   1.063   2.044   5.553 -0.3997 -0.1086  1.4890
 1622SOL    HW2 7760   1.154   1.924   5.561 -0.1345 -0.2069 -1.6351
 1623SOL     OW 7761   8.485   1.231   9.490 -0.1715 -0.5440 -0.3524
 1623SOL    HW1 7762   8.455   1.192   9.572  1.0830 -0.2349  0.2832
 1623SOL    HW2 7763   8.451   1.173   9.421 -2.3864 -0.0664  0.2717
 1624SOL     OW 7764   1.830   0.823   6.660 -0.6598 -0.4132  0.1274
 1624SOL    HW1 7765   1.886   0.765   6.608 -1.4440 -1.3609  0.3002
 1624SOL    HW2 7766   1.754   0.769   6.681 -1.2262  0.5684  0.6458
 1625SOL     OW 7767   7.975   8.809   5.801 -0.3382  0.7704 -0.2328
 1625SOL    HW1 7768   8.011   8.879   5.855  0.8174 -1.3776  1.9537
 1625SOL    HW2 7769   8.040   8.796   5.732  0.2996  0.7018  0.3699
 1626SOL     OW 7770   8.423   4.945   4.043 -0.1227 -0.0709 -0.2669
 1626SOL    HW1 7771   8.481   4.986   3.979  0.8209 -1.1569 -0.1312
 1626SOL    HW2 7772   8.474   4.873   4.080  0.2780  1.8076  3.3743
 1627SOL     OW 7773   2.051   9.556   1.068 -0.0448  0.3941 -0.4339
 1627SOL    HW1 7774   1.990   9.616   1.110  0.6615  1.5429 -0.9980
 1627SOL    HW2 7775   2.103   9.520   1.139 -0.5912  0.3146 -0.0702
 1628SOL     OW 7776   7.647   1.460   0.279 -0.1808  0.0610  0.5187
 1628SOL    HW1 7777   7.712   1.451   0.349  0.5467 -0.5683 -0.2203
 1628SOL    HW2 7778   7.631   1.371   0.249  0.3793  0.4073 -0.8879
 1629SOL     OW 7779   3.479   4.429   9.827  0.0411  0.4365  0.6009
 1629SOL    HW1 7780   3.508   4.499   9.886 -1.9583  0.7420  1.3020
 1629SOL    HW2 7781   3.474   4.470   9.741  0.0110  0.8231  0.7861
 1630SOL     OW 7782   6.211   1.714   7.506 -0.3203 -0.1387 -0.5713
 1630SOL    HW1 7783   6.170   1.739   7.589  1.9408  0.0857  0.5620
 1630SOL    HW2 7784   6.257   1.793   7.477 -0.4325 -0.4521 -1.6698
 1631SOL     OW 7785   1.503   2.292   4.889 -0.2613  0.0366  0.0937
 1631SOL    HW1 7786   1.569   2.226   4.868 -1.6139 -0.8625 -1.5933
 1631SOL    HW2 7787   1.509   2.355   4.817 -1.3091 -0.1522 -0.1781
 1632SOL     OW 7788   5.159   5.266   2.000 -0.2265 -0.9812 -0.2747
 1632SOL    HW1 7789   5.186   5.283   2.090  0.1065 -1.1204 -0.3473
 1632SOL    HW2 7790   5.232   5.296   1.947 -0.6819 -0.3189 -0.5338
 1633SOL     OW 7791   1.287   1.241  10.475 -0.5885  0.3086  0.4136
 1633SOL    HW1 7792   1.327   1.322  10.444 -0.8210  0.2960  0.0785
 1633SOL    HW2 7793   1.230   1.269  10.547 -0.3378  0.3850  0.5853
 1634SOL     OW 7794   3.556   6.600   3.976 -0.6148  0.1893  0.0677
 1634SOL    HW1 7795   3.558   6.679   4.030 -2.8894 -0.0167  0.5661
 1634SOL    HW2 7796   3.502   6.624   3.901  0.2282 -0.3660 -0.7460
 1635SOL     OW 7797   9.405  10.466  10.627  0.2182 -0.5131  0.0116
 1635SOL    HW1 7798   9.420  10.489  10.719 -1.4151  1.1928 -0.1015
 1635SOL    HW2 7799   9.318  10.426  10.627  1.0795 -2.5255 -0.5279
 1636SOL     OW 7800   7.789   7.038   2.087 -0.5870 -0.0322 -0.3281
 1636SOL    HW1 7801   7.694   7.053   2.087 -1.1075 -2.8139 -0.6936
 1636SOL    HW2 7802   7.825   7.111   2.037 -2.5754  0.8203 -0.6131
 1637SOL     OW 7803  10.647   9.622   3.215  0.5146  0.3736  0.4478
 1637SOL    HW1 7804  10.634   9.704   3.263 -0.2170 -0.1147  1.0871
 1637SOL    HW2 7805  10.634   9.646   3.123 -0.3618  0.8422  0.6891
 1638SOL     OW 7806   3.479   8.939   5.832 -0.0452  0.0412 -0.2223
 1638SOL    HW1 7807   3.481   8.845   5.813  0.3718  0.1749 -0.8900
 1638SOL    HW2 7808   3.555   8.975   5.784 -0.0421  0.6749  0.2448
 1639SOL     OW 7809   6.813   3.328   7.797  0.0682  0.0825 -0.1235
 1639SOL    HW1 7810   6.849   3.301   7.713 -0.5837 -0.2241 -0.3161
 1639SOL    HW2 7811   6.722   3.296   7.795 -0.5508  1.7382 -0.1059
 1640SOL     OW 7812   6.231  10.003   9.167 -0.5032  0.0844  0.0995
 1640SOL    HW1 7813   6.237   9.963   9.081  2.2356  0.3932  0.0571
 1640SOL    HW2 7814   6.214   9.929   9.226 -1.8128 -0.2082 -0.6169
 1641SOL     OW 7815  10.214   1.929   0.413 -0.0827 -0.2483 -0.7318
 1641SOL    HW1 7816  10.263   1.896   0.487  0.6335 -0.4575 -1.2912
 1641SOL    HW2 7817  10.127   1.889   0.422 -0.1177  0.0081  0.1740
 1642SOL     OW 7818   9.931   5.923   8.059  0.2046 -0.0286 -0.1132
 1642SOL    HW1 7819   9.837   5.936   8.073 -0.0220  1.5455 -2.4527
 1642SOL    HW2 7820   9.964   5.888   8.142 -2.3125  0.0210  0.9814
 1643SOL     OW 7821   2.460   7.342   0.297 -0.0651  0.3654 -0.1413
 1643SOL    HW1 7822   2.410   7.283   0.242 -2.7720  2.3530 -0.0239
 1643SOL    HW2 7823   2.496   7.407   0.236 -1.7714  1.6761  0.1525
 1644SOL     OW 7824   5.452   6.043   3.088 -0.4120  0.1319 -0.2929
 1644SOL    HW1 7825   5.389   6.113   3.107 -0.6851 -0.7733  2.6098
 1644SOL    HW2 7826   5.521   6.054   3.154  0.7795 -0.8863 -1.3283
 1645SOL     OW 7827   8.580   4.216   2.587 -0.2087  0.3592 -0.1112
 1645SOL    HW1 7828   8.576   4.121   2.582  1.2801  0.3281 -1.5709
 1645SOL    HW2 7829   8.607   4.244   2.500  1.0510  2.0021  0.7462
 1646SOL     OW 7830   5.873   7.638   5.811  0.1732  0.1976  0.1723
 1646SOL    HW1 7831   5.938   7.574   5.840  0.3328  1.7618  3.8306
 1646SOL    HW2 7832   5.923   7.718   5.794 -0.4461  0.4887 -0.3617
 1647SOL     OW 7833   5.349   9.903   1.221  0.7864  0.1461 -0.0248
 1647SOL    HW1 7834   5.336   9.854   1.140  1.8201  1.3935 -0.9818
 1647SOL    HW2 7835   5.443   9.904   1.235  0.6668  0.4707  0.8551
 1648SOL     OW 7836   1.386   1.099   6.957 -0.2988 -0.2996 -0.3740
 1648SOL    HW1 7837   1.428   1.112   7.042 -0.3306  0.3869 -0.4647
 1648SOL    HW2 7838   1.328   1.174   6.946  0.9630  0.5284 -1.7679
 1649SOL     OW 7839   2.567   4.549   1.845 -0.2893  0.2268  0.2294
 1649SOL    HW1 7840   2.614   4.631   1.860 -0.6662  0.6279 -0.7251
 1649SOL    HW2 7841   2.490   4.555   1.902  0.7038 -0.3816  1.7055
 1650SOL     OW 7842   0.189   0.045  10.316  0.4441 -0.0276  0.5545
 1650SOL    HW1 7843   0.245   0.123  10.320  0.5619 -0.1245  0.8063
 1650SOL    HW2 7844   0.251  -0.029  10.313  0.3379 -0.1967  1.9859
 1651SOL     OW 7845   4.087   0.934   9.773 -0.4121  0.3047 -0.0294
 1651SOL    HW1 7846   4.074   0.856   9.826 -2.2187 -0.7389 -1.8999
 1651SOL    HW2 7847   4.008   0.986   9.786  0.0110  1.0088 -0.1788
 1652SOL     OW 7848   2.760   2.499   3.216  0.2383  0.0750 -0.5613
 1652SOL    HW1 7849   2.786   2.407   3.210  0.4716  0.2371 -2.4622
 1652SOL    HW2 7850   2.837   2.548   3.189 -0.7181  0.7141 -2.2647
 1653SOL     OW 7851   7.519   9.246   8.696  0.1839 -0.1986  0.1295
 1653SOL    HW1 7852   7.482   9.185   8.632  1.8441  0.3646 -1.4457
 1653SOL    HW2 7853   7.577   9.192   8.749 -0.7965 -0.5653  0.8620
 1654SOL     OW 7854   2.703   0.625   4.987  0.4814 -0.3328  0.0693
 1654SOL    HW1 7855   2.778   0.585   5.031  1.4514  0.4451 -0.8235
 1654SOL    HW2 7856   2.728   0.717   4.975 -1.3493  0.3914  1.3234
 1655SOL     OW 7857   9.306  10.283   6.604  0.3571  0.1832  0.0374
 1655SOL    HW1 7858   9.384  10.271   6.659  0.7826 -0.4923 -0.6974
 1655SOL    HW2 7859   9.307  10.376   6.581  1.6520 -0.0490 -0.9724
 1656SOL     OW 7860   1.061   4.914   9.165  0.1061 -0.4571  0.4586
 1656SOL    HW1 7861   1.131   4.923   9.230 -1.4291  1.2381  2.0027
 1656SOL    HW2 7862   1.074   4.987   9.105 -1.2400  0.9519  1.7692
 1657SOL     OW 7863   3.807   3.631   8.122 -0.3452  0.5839 -0.1433
 1657SOL    HW1 7864   3.712   3.628   8.116 -0.6395  1.4675  2.6587
 1657SOL    HW2 7865   3.828   3.722   8.143  0.4008 -0.4546  5.3453
 1658SOL     OW 7866   5.395   6.891   5.726 -0.1606 -0.0693 -0.3661
 1658SOL    HW1 7867   5.456   6.945   5.776 -0.3070  1.0015 -1.2985
 1658SOL    HW2 7868   5.416   6.801   5.750 -0.4431  0.4065  1.8574
 1659SOL     OW 7869   0.458  10.560   2.798 -0.4174  0.5932  0.2187
 1659SOL    HW1 7870   0.429  10.512   2.721  0.1372  2.6673 -1.3578
 1659SOL    HW2 7871   0.380  10.567   2.853 -0.8356 -0.8608 -0.1438
 1660SOL     OW 7872   0.985   2.679   5.329  0.2942  0.0256 -0.1773
 1660SOL    HW1 7873   0.890   2.677   5.337  0.2811  0.6109 -0.1680
 1660SOL    HW2 7874   1.013   2.747   5.390  0.8239 -0.9573  0.6986
 1661SOL     OW 7875   6.101   8.487   5.609 -0.3753 -0.2369  0.2883
 1661SOL    HW1 7876   6.127   8.553   5.674  0.9523 -1.0355  0.6021
 1661SOL    HW2 7877   6.064   8.416   5.662 -0.9303 -0.1514  0.0225
 1662SOL     OW 7878   8.187   2.384   7.718  0.2958 -0.0955 -0.6970
 1662SOL    HW1 7879   8.133   2.402   7.641 -1.1316 -1.3421 -0.0520
 1662SOL    HW2 7880   8.187   2.288   7.725 -0.9402  0.0000  1.6937
 1663SOL     OW 7881   9.644   2.484   9.963  0.1849  0.0948 -0.2561
 1663SOL    HW1 7882   9.709   2.546   9.996 -0.4049  0.4947  0.1843
 1663SOL    HW2 7883   9.596   2.456  10.041 -1.1220  0.9203 -0.7315
 1664SOL     OW 7884   9.391  10.485   2.292  0.0827 -0.1657  0.5773
 1664SOL    HW1 7885   9.318  10.479   2.353 -0.1233 -1.0886  0.2562
 1664SOL    HW2 7886   9.407  10.579   2.283 -0.3374  0.0033  1.5004
 1665SOL     OW 7887   5.774   3.032  10.520  0.0541 -0.0455 -0.2402
 1665SOL    HW1 7888   5.765   2.949  10.474 -0.3119 -0.8589  1.2403
 1665SOL    HW2 7889   5.868   3.049  10.521 -0.0077  0.6928 -2.4286
 1666SOL     OW 7890   6.285   1.866   5.649 -0.5503  0.3417  0.2630
 1666SOL    HW1 7891   6.193   1.863   5.624 -0.2268  0.1468 -1.0252
 1666SOL    HW2 7892   6.297   1.794   5.710 -1.1575  0.1145  0.1173
 1667SOL     OW 7893   4.714   1.259   1.525 -0.1395 -0.2043 -0.0291
 1667SOL    HW1 7894   4.673   1.235   1.608 -2.4046  1.5736 -0.4928
 1667SOL    HW2 7895   4.735   1.352   1.535 -1.1290  0.2426 -1.6148
 1668SOL     OW 7896   4.807   2.881   3.743  0.8626  0.6632 -0.0556
 1668SOL    HW1 7897   4.733   2.858   3.688  1.2202 -2.0354  0.4228
 1668SOL    HW2 7898   4.768   2.911   3.825  0.3389  1.7922 -0.6967
 1669SOL     OW 7899   9.878   6.110   2.517 -0.3035  0.4069 -0.1967
 1669SOL    HW1 7900   9.905   6.167   2.589 -0.8260  0.5896 -0.1424
 1669SOL    HW2 7901   9.955   6.106   2.460  0.4070 -0.3857  0.7687
 1670SOL     OW 7902   8.070   9.456   7.002  0.7655 -0.3712  0.3795
 1670SOL    HW1 7903   8.009   9.443   7.075  0.3695  1.1881  0.3729
 1670SOL    HW2 7904   8.049   9.385   6.941 -1.5309  0.4368  0.1003
 1671SOL     OW 7905  10.545   7.997   9.300 -0.1904  0.8632 -0.1239
 1671SOL    HW1 7906  10.566   7.927   9.238 -0.4866  0.9893 -0.3705
 1671SOL    HW2 7907  10.582   8.076   9.260  2.1266  0.5400  1.2060
 1672SOL     OW 7908   1.791   1.793   4.694 -0.3560  0.0839  0.3454
 1672SOL    HW1 7909   1.713   1.741   4.714 -0.2954 -0.0423  0.2520
 1672SOL    HW2 7910   1.864   1.743   4.730 -0.1349 -0.6683 -1.0928
 1673SOL     OW 7911   1.068   9.608   2.067  0.2879 -0.1837  0.1708
 1673SOL    HW1 7912   1.053   9.603   2.161 -2.1817  2.0617  0.0103
 1673SOL    HW2 7913   0.988   9.573   2.028 -0.1360  1.9135 -0.9780
 1674SOL     OW 7914  10.022   7.338   8.938  0.0421 -0.5307 -0.0747
 1674SOL    HW1 7915  10.052   7.268   8.995  1.6236 -0.0862 -0.3234
 1674SOL    HW2 7916  10.042   7.308   8.849 -0.8838 -0.5030 -0.3074
 1675SOL     OW 7917  10.083   6.081   6.922  0.2297 -0.8169  0.6037
 1675SOL    HW1 7918  10.107   6.005   6.869 -0.1643  0.7656 -2.0077
 1675SOL    HW2 7919  10.165   6.130   6.932  0.0176 -0.3506  0.1110
 1676SOL     OW 7920   9.494   8.833   0.374 -0.8424  0.2051  0.4713
 1676SOL    HW1 7921   9.415   8.815   0.423 -0.2486  0.5468  1.5904
 1676SOL    HW2 7922   9.502   8.929   0.375  0.3470  0.1198  1.6597
 1677SOL     OW 7923   9.539   3.283   2.636 -0.0142 -0.3558  0.3208
 1677SOL    HW1 7924   9.613   3.231   2.668 -0.5548  0.2965  2.9013
 1677SOL    HW2 7925   9.539   3.361   2.692 -1.3893  0.6773 -1.0510
 1678SOL     OW 7926   4.454   6.070   7.963  0.2750 -0.3207  0.0187
 1678SOL    HW1 7927   4.393   6.012   8.009  0.1996  1.2201  1.9936
 1678SOL    HW2 7928   4.540   6.046   7.996  0.3591 -0.0379  0.0052
 1679SOL     OW 7929   5.108   1.281   3.086  0.1911 -0.4204  0.1998
 1679SOL    HW1 7930   5.126   1.253   2.997 -0.2734 -0.4647  0.1190
 1679SOL    HW2 7931   5.137   1.208   3.141  0.4319 -0.4127  0.0834
 1680SOL     OW 7932   4.025   2.238   3.556  0.0114 -0.0457 -0.6278
 1680SOL    HW1 7933   4.069   2.274   3.479 -1.3720  0.3769 -1.2389
 1680SOL    HW2 7934   3.935   2.224   3.528 -0.3165 -0.6833  0.6724
 1681SOL     OW 7935   6.550   9.494   3.460 -0.2971 -0.1446 -0.5418
 1681SOL    HW1 7936   6.511   9.547   3.529 -1.2005  0.0707 -1.1968
 1681SOL    HW2 7937   6.530   9.542   3.379  2.7564  0.8831 -0.8298
 1682SOL     OW 7938   4.405   1.910   8.654  0.3930 -0.0653  0.2749
 1682SOL    HW1 7939   4.319   1.952   8.658 -1.2147 -2.8825 -1.4072
 1682SOL    HW2 7940   4.397   1.832   8.709  1.0634 -1.5442 -1.5955
 1683SOL     OW 7941   7.014   9.521   9.606  0.1901 -0.0394  0.3662
 1683SOL    HW1 7942   7.076   9.459   9.644  0.6996 -0.6005 -1.2670
 1683SOL    HW2 7943   6.928   9.491   9.635  0.5808 -0.1369  1.4435
 1684SOL     OW 7944   8.352   3.792  10.047 -0.0795 -0.0739 -0.3498
 1684SOL    HW1 7945   8.326   3.843   9.971 -0.3777  0.6484  0.2175
 1684SOL    HW2 7946   8.282   3.728  10.058 -0.3579  0.2325 -0.3135
 1685SOL     OW 7947   8.356   4.113  10.516 -0.5409 -0.0090 -0.1584
 1685SOL    HW1 7948   8.288   4.175  10.491 -0.4220 -0.4953 -1.7666
 1685SOL    HW2 7949   8.418   4.113  10.443  0.6495 -0.3639  0.7971
 1686SOL     OW 7950   0.635  10.389   4.213 -0.2583 -0.0365  0.4322
 1686SOL    HW1 7951   0.568  10.449   4.243 -0.6112  0.7974 -1.8293
 1686SOL    HW2 7952   0.718  10.426   4.244 -0.6498  0.2984  1.0778
 1687SOL     OW 7953   3.977   2.416   1.188 -0.4611 -0.3891 -0.3481
 1687SOL    HW1 7954   3.923   2.379   1.118 -0.4337  0.8774 -1.0759
 1687SOL    HW2 7955   3.917   2.474   1.236 -0.0284  0.2078 -0.5140
 1688SOL     OW 7956   7.981   6.301   5.703  0.2992  0.1903 -0.0323
 1688SOL    HW1 7957   7.895   6.342   5.707 -0.2132 -0.9285  0.7488
 1688SOL    HW2 7958   7.978   6.246   5.625  0.0544 -0.3827  0.3769
 1689SOL     OW 7959   6.067   0.742   6.559 -0.1587 -0.2354 -0.4850
 1689SOL    HW1 7960   6.147   0.783   6.593 -0.1977  0.9777 -1.7788
 1689SOL    HW2 7961   6.035   0.803   6.493 -0.8190 -1.8705 -1.7480
 1690SOL     OW 7962   1.417   1.466   9.135 -0.2562  0.0462  0.1105
 1690SOL    HW1 7963   1.487   1.443   9.197  0.6068  1.1054 -0.4308
 1690SOL    HW2 7964   1.371   1.538   9.178 -1.7331 -1.3250  0.9422
 1691SOL     OW 7965   0.310   2.671   4.665 -0.4174 -0.0160 -0.4496
 1691SOL    HW1 7966   0.227   2.635   4.694 -0.0709  0.5896  1.4479
 1691SOL    HW2 7967   0.359   2.595   4.633 -1.0308 -0.6517  0.0901
 1692SOL     OW 7968   3.403   9.137   0.131  0.0027  0.3377 -0.8576
 1692SOL    HW1 7969   3.496   9.118   0.135  0.2917  1.7945  1.0465
 1692SOL    HW2 7970   3.374   9.131   0.222 -1.5441  0.8505 -1.2849
 1693SOL     OW 7971   2.725   0.983   1.816  0.2140 -0.2911 -0.3150
 1693SOL    HW1 7972   2.642   0.937   1.801 -0.5221  0.7450  0.4392
 1693SOL    HW2 7973   2.792   0.923   1.783 -0.8349 -1.1297 -0.9830
 1694SOL     OW 7974   2.128  10.635   3.888  0.5120  0.0382 -0.1592
 1694SOL    HW1 7975   2.107  10.559   3.833  1.0214  0.0395 -0.3551
 1694SOL    HW2 7976   2.218  10.657   3.866  0.1646  1.0891 -0.5610
 1695SOL     OW 7977   6.051   0.023   4.943  0.0310  0.3706 -0.0209
 1695SOL    HW1 7978   5.978   0.014   4.881 -1.7193 -0.2796  1.9846
 1695SOL    HW2 7979   6.046  -0.057   4.996  2.1072  0.4320  0.3253
 1696SOL     OW 7980  10.707   2.771   7.759 -0.2824  0.3210 -0.1829
 1696SOL    HW1 7981  10.631   2.712   7.759 -1.4984  1.8015  0.2093
 1696SOL    HW2 7982  10.776   2.722   7.715 -1.3282 -1.2572 -0.1500
 1697SOL     OW 7983   9.800   8.229  10.561  0.1330  0.4244 -0.1497
 1697SOL    HW1 7984   9.755   8.183  10.490  1.2001 -0.1321 -0.4771
 1697SOL    HW2 7985   9.730   8.277  10.606 -0.8109 -0.5393 -0.5478
 1698SOL     OW 7986   3.386   5.206   0.011 -0.0752  1.1315 -0.0099
 1698SOL    HW1 7987   3.461   5.164  -0.031 -0.3366  0.4926  0.1574
 1698SOL    HW2 7988   3.345   5.257  -0.058 -0.9331 -0.4916 -0.7513
 1699SOL     OW 7989   9.986   9.067   9.223 -0.3920  0.1634 -0.7164
 1699SOL    HW1 7990   9.991   9.154   9.182  1.7416 -0.4042 -1.8342
 1699SOL    HW2 7991   9.895   9.059   9.250 -0.3935  3.2584  0.6426
 1700SOL     OW 7992   5.253   1.583   3.101  0.3950  0.5420  0.3099
 1700SOL    HW1 7993   5.218   1.610   3.016  0.8568 -1.0797 -0.4326
 1700SOL    HW2 7994   5.202   1.633   3.165 -1.5694  0.0908 -0.8327
 1701SOL     OW 7995   7.819   6.636   6.187 -1.0301 -0.0358  0.0831
 1701SOL    HW1 7996   7.832   6.572   6.257 -3.1613 -0.9875 -0.3257
 1701SOL    HW2 7997   7.758   6.700   6.223  0.0388  1.0696  0.0175
 1702SOL     OW 7998   7.910   8.814   4.437 -0.3306 -0.2372  0.3488
 1702SOL    HW1 7999   7.925   8.844   4.348 -0.0633  0.1622  0.5254
 1702SOL    HW2 8000   7.848   8.741   4.428 -0.6217  0.0631 -0.1278
 1703SOL     OW 8001   3.295   6.719   7.982 -0.1512  0.3150 -0.3297
 1703SOL    HW1 8002   3.279   6.723   7.888 -1.1391 -0.0208 -0.1917
 1703SOL    HW2 8003   3.292   6.810   8.011 -1.2685  0.3190 -0.4191
 1704SOL     OW 8004   3.817  10.621   1.623  0.3233 -0.9502 -0.2086
 1704SOL    HW1 8005   3.811  10.653   1.533  0.6899 -0.8859 -0.2121
 1704SOL    HW2 8006   3.824  10.700   1.676 -1.7304 -0.8980  0.0459
 1705SOL     OW 8007   2.311   3.850   3.181  0.0128 -0.1167  0.4787
 1705SOL    HW1 8008   2.286   3.763   3.212  0.1793 -0.0623  0.7720
 1705SOL    HW2 8009   2.397   3.865   3.219 -0.0572  0.2168  0.5067
 1706SOL     OW 8010   0.535  10.785  10.473 -0.3720  0.7138 -0.3306
 1706SOL    HW1 8011   0.571  10.863  10.517  0.6405  0.5285 -0.7931
 1706SOL    HW2 8012   0.456  10.764  10.522  0.1413  1.1620  0.7224
 1707SOL     OW 8013   0.338   2.403   8.559  0.5918 -0.0568  0.0909
 1707SOL    HW1 8014   0.390   2.347   8.501  0.5590 -1.0436  0.9841
 1707SOL    HW2 8015   0.388   2.408   8.640  0.1048  0.3826  0.3757
 1708SOL     OW 8016   8.428   6.389   5.578  0.0650  0.6210  0.0261
 1708SOL    HW1 8017   8.403   6.476   5.548  0.9767  0.4155 -1.4304
 1708SOL    HW2 8018   8.522   6.385   5.563 -0.0703 -0.8569 -0.6306
 1709SOL     OW 8019   8.863   9.455   2.253 -0.0110  0.2378  0.0001
 1709SOL    HW1 8020   8.791   9.518   2.250  0.4370  0.7238 -0.8159
 1709SOL    HW2 8021   8.922   9.489   2.320 -0.5226 -0.1517  0.6591
 1710SOL     OW 8022   7.462   6.246   6.943  0.1585 -0.1945  0.5971
 1710SOL    HW1 8023   7.397   6.300   6.899  0.8449 -0.8808 -1.3873
 1710SOL    HW2 8024   7.415   6.206   7.015 -0.6882  1.9895  1.3307
 1711SOL     OW 8025   2.153   1.036   2.815 -0.3015  0.4564 -0.1470
 1711SOL    HW1 8026   2.217   1.039   2.744 -1.3087 -0.6142 -1.1473
 1711SOL    HW2 8027   2.201   1.065   2.893  1.3308 -0.1720 -0.8924
 1712SOL     OW 8028   4.904   2.019   7.458 -0.5333 -0.0016 -0.3814
 1712SOL    HW1 8029   4.921   1.925   7.465 -0.9535  0.0331  4.1032
 1712SOL    HW2 8030   4.990   2.059   7.458 -0.2922 -0.3766  1.9585
 1713SOL     OW 8031   3.944   4.327   8.726  0.2487 -0.4815  0.1220
 1713SOL    HW1 8032   3.884   4.255   8.746 -2.1163  1.0840 -0.8634
 1713SOL    HW2 8033   4.030   4.287   8.726 -0.9484 -3.3001 -0.2986
 1714SOL     OW 8034   9.775   6.730   1.986  0.1460 -0.1207  0.1312
 1714SOL    HW1 8035   9.792   6.703   2.076 -0.6200 -0.1128  0.2789
 1714SOL    HW2 8036   9.704   6.674   1.957  0.2446  0.0248 -0.4018
 1715SOL     OW 8037   4.094   8.732   1.719 -0.1500  0.0545  0.0892
 1715SOL    HW1 8038   4.005   8.758   1.696  0.0267  1.7694  1.1674
 1715SOL    HW2 8039   4.147   8.757   1.643 -0.5394 -0.7463 -0.4557
 1716SOL     OW 8040   9.638   3.499   6.248  0.7135 -0.0277 -0.0217
 1716SOL    HW1 8041   9.724   3.515   6.210  0.3124  0.2398 -0.8374
 1716SOL    HW2 8042   9.587   3.461   6.176 -0.6738  2.3603 -0.3958
 1717SOL     OW 8043   1.155   5.828   8.802  0.1696  0.6665 -0.2260
 1717SOL    HW1 8044   1.134   5.794   8.889 -1.0099  0.3316 -0.6200
 1717SOL    HW2 8045   1.224   5.770   8.769 -0.4050 -0.1130 -0.0848
 1718SOL     OW 8046   6.538   4.698  10.043  0.1945 -0.0544 -0.3390
 1718SOL    HW1 8047   6.582   4.616  10.020  3.0000  1.0640  0.5035
 1718SOL    HW2 8048   6.528   4.694  10.138 -2.0597 -0.4520 -0.5506
 1719SOL     OW 8049   4.004   9.769   8.988 -0.3412 -0.5860 -0.1929
 1719SOL    HW1 8050   4.095   9.797   8.993 -0.8927  1.3306 -0.1992
 1719SOL    HW2 8051   4.007   9.687   8.939  1.2333  0.2121 -1.5234
 1720SOL     OW 8052   2.458   3.219   2.182  0.3600  0.0437  0.1460
 1720SOL    HW1 8053   2.488   3.184   2.266 -2.9350 -2.1946  0.5710
 1720SOL    HW2 8054   2.507   3.169   2.117  1.7815  0.6804  0.6813
 1721SOL     OW 8055   4.353   8.977   4.479  0.4738 -0.2862 -0.1838
 1721SOL    HW1 8056   4.447   8.977   4.498  0.2779  1.3289  1.0236
 1721SOL    HW2 8057   4.334   9.068   4.454 -1.2453  0.2014  2.4664
 1722SOL     OW 8058   2.481   6.161   6.896  0.5037 -0.4894  0.6048
 1722SOL    HW1 8059   2.514   6.232   6.841 -0.3079 -0.0041  0.7259
 1722SOL    HW2 8060   2.422   6.112   6.839 -0.0749 -0.1892  0.9397
 1723SOL     OW 8061   3.104   4.054   4.879  0.1415 -0.3624 -0.0046
 1723SOL    HW1 8062   3.148   4.139   4.881  0.3587 -0.3735 -2.1418
 1723SOL    HW2 8063   3.015   4.073   4.849 -0.0737 -0.7959  0.3460
 1724SOL     OW 8064   1.172   5.808   6.968  0.5959  0.9071 -0.7673
 1724SOL    HW1 8065   1.233   5.878   6.946 -0.2307  1.3702 -1.6939
 1724SOL    HW2 8066   1.090   5.834   6.925  0.5978 -1.2462 -2.2448
 1725SOL     OW 8067   4.701   4.440   0.979 -0.0622  0.9569 -0.1007
 1725SOL    HW1 8068   4.795   4.435   0.963 -0.0908 -0.7080  0.0049
 1725SOL    HW2 8069   4.665   4.363   0.934 -1.4724  1.9266 -0.7175
 1726SOL     OW 8070   3.908   7.899  10.333  0.0441 -0.0280  0.1962
 1726SOL    HW1 8071   3.957   7.966  10.380 -0.7436  0.7341 -0.0478
 1726SOL    HW2 8072   3.940   7.816  10.369  2.8631  0.3109 -1.2149
 1727SOL     OW 8073  10.579   6.769   0.198 -0.0796  0.2499  0.1076
 1727SOL    HW1 8074  10.609   6.690   0.153  1.8635  1.1563 -0.2888
 1727SOL    HW2 8075  10.535   6.737   0.276  0.9340 -1.2348  0.1106
 1728SOL     OW 8076   1.307   2.204   8.888 -0.1277 -0.3522  0.2999
 1728SOL    HW1 8077   1.402   2.193   8.892 -0.1910 -1.0986 -0.2007
 1728SOL    HW2 8078   1.273   2.143   8.954 -0.1930  1.2009  1.7875
 1729SOL     OW 8079   1.864   4.932   7.155  0.1753 -0.0578 -0.1589
 1729SOL    HW1 8080   1.935   4.995   7.146  0.4357 -0.2472  0.5259
 1729SOL    HW2 8081   1.789   4.984   7.182  0.0104  0.1651 -1.0310
 1730SOL     OW 8082   9.129   6.442   0.568 -0.2531  0.1596  0.2466
 1730SOL    HW1 8083   9.215   6.401   0.562  0.0179  0.7617 -0.0930
 1730SOL    HW2 8084   9.087   6.422   0.484  0.5011  1.9050 -0.5989
 1731SOL     OW 8085   3.334   8.768   7.319  0.3809  0.4078  0.7928
 1731SOL    HW1 8086   3.314   8.857   7.291  1.1066 -0.0101 -1.2472
 1731SOL    HW2 8087   3.427   8.758   7.301 -0.2622 -1.7047 -2.0043
 1732SOL     OW 8088   9.928   9.802   5.778  0.3783  0.5809 -0.1753
 1732SOL    HW1 8089   9.909   9.844   5.694 -1.2080 -0.0149 -0.1369
 1732SOL    HW2 8090   9.868   9.844   5.840  0.4604 -0.0647  0.3478
 1733SOL     OW 8091   4.266   7.264   6.020 -0.0635  0.1918  0.1264
 1733SOL    HW1 8092   4.199   7.242   5.956  0.1239 -1.1370  0.3552
 1733SOL    HW2 8093   4.346   7.272   5.969  0.3127 -1.9957  0.2666
 1734SOL     OW 8094   4.538   6.787   7.991 -0.2616  0.3676  0.1033
 1734SOL    HW1 8095   4.554   6.700   8.028  0.0268  0.9507  1.4164
 1734SOL    HW2 8096   4.626   6.823   7.976 -0.3782  0.3954 -0.5655
 1735SOL     OW 8097   8.068   1.901   6.120 -0.2196 -0.1636  0.0853
 1735SOL    HW1 8098   7.997   1.860   6.071 -0.8058  1.4364 -0.4524
 1735SOL    HW2 8099   8.027   1.931   6.201 -0.3204  1.2689 -0.4726
 1736SOL     OW 8100   5.220   4.182   9.244 -0.0880 -0.3582  0.5758
 1736SOL    HW1 8101   5.254   4.236   9.172 -0.6470  2.4300  2.2546
 1736SOL    HW2 8102   5.293   4.127   9.270 -0.0850 -2.0368 -2.5550
 1737SOL     OW 8103   2.373   3.959   4.446  0.5520 -0.1145  0.6993
 1737SOL    HW1 8104   2.374   3.904   4.368 -0.1585 -0.5927  1.0151
 1737SOL    HW2 8105   2.443   4.022   4.432  1.1155 -0.8501  0.1476
 1738SOL     OW 8106   1.377   7.830   5.891 -0.2689  0.3449 -0.5278
 1738SOL    HW1 8107   1.310   7.875   5.943 -0.5748 -1.9205  1.1480
 1738SOL    HW2 8108   1.349   7.844   5.800 -1.5976  1.5682  0.0323
 1739SOL     OW 8109   4.671   8.842   9.967 -1.0424 -0.5386  0.7826
 1739SOL    HW1 8110   4.715   8.817   9.886  0.4548 -0.1114  1.4228
 1739SOL    HW2 8111   4.638   8.930   9.951 -0.5089 -0.3476  0.7066
 1740SOL     OW 8112   5.308   2.580   7.550  0.3239 -0.3730  0.2352
 1740SOL    HW1 8113   5.309   2.517   7.477 -2.4368 -0.7337  0.4133
 1740SOL    HW2 8114   5.347   2.659   7.513 -0.3699 -0.7667 -1.4537
 1741SOL     OW 8115   5.620   7.058   3.231 -0.5761  0.3138  0.0307
 1741SOL    HW1 8116   5.619   7.147   3.267  3.3102  0.2295  0.7293
 1741SOL    HW2 8117   5.597   7.002   3.305  1.1126  0.5368  0.7601
 1742SOL     OW 8118   7.299   7.396   7.976 -0.0458 -0.8947  0.8437
 1742SOL    HW1 8119   7.377   7.451   7.984 -0.7365  0.3273 -0.4189
 1742SOL    HW2 8120   7.309   7.330   8.045  2.6022 -1.4347  0.0433
 1743SOL     OW 8121   6.418   9.411   4.987  0.2566  0.3479  0.2510
 1743SOL    HW1 8122   6.370   9.474   4.935 -0.9316  0.7372  1.7411
 1743SOL    HW2 8123   6.506   9.410   4.949 -0.3929  1.0349 -1.3398
 1744SOL     OW 8124   9.912   1.152   9.448 -0.3028 -0.8543 -0.3313
 1744SOL    HW1 8125   9.936   1.153   9.355  0.3501  0.5228 -0.1690
 1744SOL    HW2 8126   9.970   1.087   9.487  0.1267 -0.7042 -0.7118
 1745SOL     OW 8127   5.460  10.250  10.583 -0.0774 -0.1659  0.1832
 1745SOL    HW1 8128   5.386  10.248  10.523  0.8129  0.1232 -0.9450
 1745SOL    HW2 8129   5.532  10.212  10.534  0.4530 -0.8163  1.4005
 1746SOL     OW 8130   4.066   2.649   3.742 -0.1151  0.3852  0.0931
 1746SOL    HW1 8131   4.100   2.624   3.656 -0.9466 -1.5944  0.2883
 1746SOL    HW2 8132   3.990   2.593   3.755 -1.4425  2.2909  1.1409
 1747SOL     OW 8133   8.594   2.743   1.944  1.1223 -0.0182 -0.0505
 1747SOL    HW1 8134   8.617   2.655   1.911  1.1234  0.3872 -1.1911
 1747SOL    HW2 8135   8.512   2.764   1.900 -0.4364 -0.5745  2.3837
 1748SOL     OW 8136   4.838   4.676   4.289 -0.0208  0.1819  0.3996
 1748SOL    HW1 8137   4.791   4.621   4.227  1.1413  0.5110 -0.8113
 1748SOL    HW2 8138   4.930   4.659   4.271  0.3476  0.5547  1.8138
 1749SOL     OW 8139   1.733   9.610   8.230  0.1470  0.0537  0.1230
 1749SOL    HW1 8140   1.659   9.668   8.210  0.1039 -0.0821 -0.1123
 1749SOL    HW2 8141   1.769   9.588   8.144 -0.4230 -1.0374  0.1458
 1750SOL     OW 8142   8.680   7.369   9.173  0.8923  0.2924  0.5207
 1750SOL    HW1 8143   8.758   7.405   9.129  0.5559  0.6480  0.2096
 1750SOL    HW2 8144   8.631   7.326   9.104  0.5957  0.4443  0.6365
 1751SOL     OW 8145   3.759   2.714   1.077  0.1023 -0.3861 -0.1334
 1751SOL    HW1 8146   3.800   2.799   1.094 -0.7503 -0.1079  0.5983
 1751SOL    HW2 8147   3.791   2.689   0.990 -1.1839  1.6279 -1.2724
 1752SOL     OW 8148   9.207  10.764   6.386 -0.1174  0.2852  0.2337
 1752SOL    HW1 8149   9.250  10.783   6.303  1.5901  0.9976  1.2311
 1752SOL    HW2 8150   9.197  10.850   6.428 -1.1849 -0.0345  0.6756
 1753SOL     OW 8151   6.663   9.420   3.997 -0.4600 -0.6632  0.2341
 1753SOL    HW1 8152   6.614   9.448   4.074  2.0964 -1.0745  2.1086
 1753SOL    HW2 8153   6.687   9.329   4.015 -1.9325 -1.6677 -2.2571
 1754SOL     OW 8154  10.625   5.359   2.889 -0.1743  0.3686 -0.0017
 1754SOL    HW1 8155  10.695   5.329   2.947 -0.1509  2.6348  1.2622
 1754SOL    HW2 8156  10.545   5.324   2.929  0.1148 -2.1082 -1.3747
 1755SOL     OW 8157   3.982   5.344  10.429 -0.0617  0.0220 -0.2327
 1755SOL    HW1 8158   3.959   5.363  10.519  0.1878 -1.1248  0.0864
 1755SOL    HW2 8159   3.978   5.429  10.385 -1.8957  0.3279  0.4559
 1756SOL     OW 8160   4.188   3.682  10.533 -0.4825  0.4312 -0.1973
 1756SOL    HW1 8161   4.103   3.658  10.570 -0.7060 -0.6224 -1.3442
 1756SOL    HW2 8162   4.166   3.744  10.463 -0.3059  0.1570 -0.4945
 1757SOL     OW 8163   3.502   8.122   0.381 -0.5233  0.0704 -0.4214
 1757SOL    HW1 8164   3.454   8.067   0.319 -0.7859 -0.2339  0.0501
 1757SOL    HW2 8165   3.455   8.113   0.464  0.5064 -0.4807  0.1276
 1758SOL     OW 8166   3.621   1.571   8.560 -0.1487 -0.5045 -0.2121
 1758SOL    HW1 8167   3.666   1.648   8.595  0.9480 -1.4695  0.5868
 1758SOL    HW2 8168   3.533   1.577   8.596  0.6519 -0.9249  1.9871
 1759SOL     OW 8169   9.145   1.153   6.869  0.0586 -0.3296 -0.2024
 1759SOL    HW1 8170   9.202   1.185   6.939  0.6601 -0.0595 -0.8101
 1759SOL    HW2 8171   9.202   1.144   6.793 -0.9164  1.1332 -1.1671
 1760SOL     OW 8172   8.293   6.373   8.677  0.0017  0.2248 -0.2892
 1760SOL    HW1 8173   8.237   6.363   8.600  0.7582  1.8714 -1.0963
 1760SOL    HW2 8174   8.355   6.443   8.653 -0.0076  1.0737  1.9569
 1761SOL     OW 8175   6.159  10.235   1.239 -0.5619 -0.7159  0.8194
 1761SOL    HW1 8176   6.173  10.195   1.325  1.6083 -1.1592  0.3294
 1761SOL    HW2 8177   6.236  10.290   1.225 -1.7765  0.8534 -0.0704
 1762SOL     OW 8178   5.161   2.334   8.318  0.3090 -0.6288  0.1934
 1762SOL    HW1 8179   5.229   2.268   8.319  0.5156 -0.4519  2.0748
 1762SOL    HW2 8180   5.079   2.284   8.324  0.4414 -0.7626  1.0775
 1763SOL     OW 8181   6.610   1.326   6.115  0.5947  0.1093 -0.4826
 1763SOL    HW1 8182   6.608   1.288   6.027  0.6653  0.8685 -0.8287
 1763SOL    HW2 8183   6.533   1.291   6.159 -0.4864  1.1401 -1.4787
 1764SOL     OW 8184   9.038  10.141   0.513  0.1211  0.1659 -0.3467
 1764SOL    HW1 8185   9.023  10.059   0.467 -2.3219  1.0893 -1.3760
 1764SOL    HW2 8186   8.976  10.202   0.474 -0.9791  1.4668  3.0769
 1765SOL     OW 8187   3.331   2.696   7.274  0.1065 -0.1235  0.2238
 1765SOL    HW1 8188   3.335   2.640   7.197 -1.8016 -1.2560  0.9034
 1765SOL    HW2 8189   3.241   2.729   7.276  0.3817  0.6184  1.4641
 1766SOL     OW 8190   3.588   2.102   8.468 -0.2170 -0.3062  0.3461
 1766SOL    HW1 8191   3.541   2.088   8.551 -2.6339  0.8307 -0.7211
 1766SOL    HW2 8192   3.542   2.045   8.405  1.4851 -1.0497 -0.2851
 1767SOL     OW 8193   7.868   7.089   5.602  0.4965 -0.2652  0.1559
 1767SOL    HW1 8194   7.906   7.064   5.686  0.2805 -0.3693  0.2249
 1767SOL    HW2 8195   7.787   7.038   5.597  0.5800 -0.3689 -0.1795
 1768SOL     OW 8196   0.822   6.479   5.563 -0.1093 -1.0882  0.2584
 1768SOL    HW1 8197   0.763   6.504   5.634 -1.0148 -0.0402 -0.8197
 1768SOL    HW2 8198   0.792   6.530   5.487  1.2167 -1.6952 -0.7239
 1769SOL     OW 8199   9.307   4.103   8.930  0.4635  0.2022 -0.5976
 1769SOL    HW1 8200   9.352   4.042   8.988 -1.8803 -1.1567 -0.1221
 1769SOL    HW2 8201   9.283   4.051   8.853  1.0095  1.2909 -1.5492
 1770SOL     OW 8202   1.897   1.695   6.477  0.0679 -0.6881  0.5368
 1770SOL    HW1 8203   1.816   1.743   6.498  0.5551  1.0103 -1.1512
 1770SOL    HW2 8204   1.939   1.682   6.561 -1.7382 -1.2211  1.4110
 1771SOL     OW 8205   2.960  10.222   8.677  0.2005 -0.1303 -0.0185
 1771SOL    HW1 8206   2.928  10.287   8.614  0.2596 -0.3773 -0.3096
 1771SOL    HW2 8207   3.025  10.171   8.628  2.6216  1.6589  1.1301
 1772SOL     OW 8208   5.834   9.854   4.380 -0.5146  0.1496 -0.0920
 1772SOL    HW1 8209   5.909   9.826   4.328  0.0375  0.6209  0.4297
 1772SOL    HW2 8210   5.770   9.883   4.316 -0.5761 -1.0263 -0.5757
 1773SOL     OW 8211   2.738   4.350   1.803 -0.2602  0.1587 -0.6973
 1773SOL    HW1 8212   2.718   4.286   1.871 -0.4295  0.2231 -0.6869
 1773SOL    HW2 8213   2.675   4.421   1.818  0.8727  1.0172  0.2362
 1774SOL     OW 8214   9.678   1.006   1.928 -0.1849 -0.1848 -0.3537
 1774SOL    HW1 8215   9.699   0.931   1.984 -2.5720 -1.2824 -0.8163
 1774SOL    HW2 8216   9.657   1.077   1.989  3.8373  0.8319  0.1343
 1775SOL     OW 8217   3.349   0.921   6.425  0.1771 -0.6474  0.0119
 1775SOL    HW1 8218   3.427   0.882   6.464  0.3004  0.1457  0.5900
 1775SOL    HW2 8219   3.279   0.901   6.486 -0.1339 -1.5616 -0.6234
 1776SOL     OW 8220   8.772   4.299   0.543 -0.0953  0.4778  0.0204
 1776SOL    HW1 8221   8.691   4.250   0.558  1.0365 -0.8901  2.3166
 1776SOL    HW2 8222   8.803   4.320   0.631  3.3871 -1.4289 -0.5762
 1777SOL     OW 8223   3.119   7.630   4.139 -0.2465  0.1429 -0.3018
 1777SOL    HW1 8224   3.069   7.668   4.211  1.6948  2.3072  0.0244
 1777SOL    HW2 8225   3.121   7.699   4.072  1.4975 -0.1794 -0.6383
 1778SOL     OW 8226   4.979   5.977   8.978 -0.6225 -0.3963  0.6600
 1778SOL    HW1 8227   5.008   6.039   9.045 -2.3167  0.5492  0.5601
 1778SOL    HW2 8228   5.005   5.891   9.013  0.1077  0.2032  1.6754
 1779SOL     OW 8229   8.901   2.593   1.689 -0.2838 -0.5741  0.1436
 1779SOL    HW1 8230   8.958   2.665   1.715 -0.7138 -0.9045  2.1378
 1779SOL    HW2 8231   8.946   2.552   1.615  0.4017  1.1706 -0.4503
 1780SOL     OW 8232   4.196  10.443   8.309  0.2430 -0.5018  0.0935
 1780SOL    HW1 8233   4.273  10.404   8.351  0.3932  0.4685  0.7462
 1780SOL    HW2 8234   4.122  10.413   8.360  0.2878 -0.5532  0.1283
 1781SOL     OW 8235   1.753   4.299   8.672 -0.1863 -0.3704  0.1729
 1781SOL    HW1 8236   1.732   4.382   8.713 -0.8811 -1.5226  2.2974
 1781SOL    HW2 8237   1.670   4.250   8.671 -0.0310 -0.7041 -1.9752
 1782SOL     OW 8238   2.208   3.071   9.577  0.0283  0.4321 -0.1858
 1782SOL    HW1 8239   2.233   2.995   9.524  0.0640  0.6504 -0.4846
 1782SOL    HW2 8240   2.113   3.078   9.566  0.2400  1.5900 -1.7542
 1783SOL     OW 8241   8.450   9.834   8.075  0.1714  0.3491  0.5473
 1783SOL    HW1 8242   8.483   9.750   8.043 -1.1618  0.0895 -0.2116
 1783SOL    HW2 8243   8.523   9.895   8.062  0.4848 -0.2728 -0.7646
 1784SOL     OW 8244   9.054   6.954   8.376  0.1387  0.2821 -0.1302
 1784SOL    HW1 8245   9.037   6.995   8.461 -0.0850  0.8888 -0.4597
 1784SOL    HW2 8246   9.009   7.010   8.313 -1.0704 -1.0715 -0.5103
 1785SOL     OW 8247   7.998   9.711   1.406 -0.1195  0.0730 -0.0805
 1785SOL    HW1 8248   8.023   9.728   1.497 -1.4386  0.2338  0.2672
 1785SOL    HW2 8249   7.924   9.769   1.389 -0.2554 -0.3623 -1.0822
 1786SOL     OW 8250   9.555   8.302   1.290 -0.7285 -0.1948 -0.1485
 1786SOL    HW1 8251   9.637   8.276   1.332 -1.0379  0.7011  1.0448
 1786SOL    HW2 8252   9.540   8.234   1.224  2.6030  1.3019 -2.6696
 1787SOL     OW 8253   2.311   5.661   4.247 -0.5954  0.0868  0.1218
 1787SOL    HW1 8254   2.346   5.595   4.306 -0.4363 -0.5913 -0.7041
 1787SOL    HW2 8255   2.226   5.684   4.283  0.3168  1.1477  1.6985
 1788SOL     OW 8256   6.010   1.095   5.015 -0.1297  0.4173  0.0831
 1788SOL    HW1 8257   5.964   1.108   5.098 -3.3675 -0.0482 -1.4438
 1788SOL    HW2 8258   6.074   1.026   5.033  1.3989  2.3727  2.8121
 1789SOL     OW 8259   2.189   5.053   4.323 -0.3388 -0.2545 -0.1428
 1789SOL    HW1 8260   2.110   5.062   4.270  0.1225  1.3221 -0.6184
 1789SOL    HW2 8261   2.230   4.972   4.290 -2.7981 -2.3802  1.6412
 1790SOL     OW 8262   0.804   3.836   2.200 -0.0732  0.4822  0.3043
 1790SOL    HW1 8263   0.737   3.841   2.268 -0.9269  0.4150 -0.5073
 1790SOL    HW2 8264   0.853   3.918   2.208  0.4070  0.0954  1.5523
 1791SOL     OW 8265   6.534   8.792   0.857  0.1356 -0.3139  0.3802
 1791SOL    HW1 8266   6.463   8.837   0.903 -0.3107 -2.1517  1.5797
 1791SOL    HW2 8267   6.548   8.845   0.778  0.7946  2.8577  2.4415
 1792SOL     OW 8268   8.073   4.528   7.494 -0.2352  0.2692 -0.2152
 1792SOL    HW1 8269   8.038   4.609   7.459  0.1113  0.1446 -0.8642
 1792SOL    HW2 8270   8.166   4.528   7.469 -0.4166 -0.7089 -0.9616
 1793SOL     OW 8271   1.425   3.895   4.682  0.2969  0.4795  0.2973
 1793SOL    HW1 8272   1.500   3.938   4.641 -0.0857  1.6399  0.7582
 1793SOL    HW2 8273   1.461   3.849   4.757  0.9670 -1.4617 -1.1394
 1794SOL     OW 8274   5.198   4.746   6.210  0.3300 -0.5256  0.1327
 1794SOL    HW1 8275   5.142   4.710   6.141  0.3418 -2.0459  0.8769
 1794SOL    HW2 8276   5.200   4.840   6.192  0.8492 -0.9332 -2.3216
 1795SOL     OW 8277   0.410   9.755   9.422 -0.4932  0.3794 -0.0703
 1795SOL    HW1 8278   0.444   9.753   9.512 -0.8168  0.4231  0.0530
 1795SOL    HW2 8279   0.436   9.841   9.389  0.1823  0.1177 -0.2356
 1796SOL     OW 8280   8.390  10.006   6.364  0.8868 -0.4167  0.3984
 1796SOL    HW1 8281   8.333  10.016   6.287  0.5707  1.0593  0.7920
 1796SOL    HW2 8282   8.479  10.018   6.329  0.9836 -2.5127 -0.1817
 1797SOL     OW 8283   8.383   4.488   7.162  0.6334  0.0213  0.2185
 1797SOL    HW1 8284   8.439   4.511   7.236 -0.3944  0.5900  0.8383
 1797SOL    HW2 8285   8.307   4.545   7.171 -0.7321 -1.7357  0.2151
 1798SOL     OW 8286   9.683   1.258   5.967  0.4661  0.2309  0.2379
 1798SOL    HW1 8287   9.647   1.286   5.882 -0.7751  0.6150  0.8657
 1798SOL    HW2 8288   9.739   1.184   5.945  1.4277  1.3017 -1.1062
 1799SOL     OW 8289   6.878   5.720   0.423 -0.7749 -0.4156 -0.3789
 1799SOL    HW1 8290   6.854   5.810   0.447 -1.5516 -0.5495 -0.6088
 1799SOL    HW2 8291   6.903   5.725   0.331  1.0148 -0.1163  0.0912
 1800SOL     OW 8292   8.711  10.006   1.459 -0.0450  0.0375  0.1770
 1800SOL    HW1 8293   8.687  10.082   1.406 -1.9258 -0.7185 -0.1342
 1800SOL    HW2 8294   8.790   9.972   1.418 -1.4829 -0.5727 -2.3082
 1801SOL     OW 8295   9.375   0.428   3.899 -0.9325 -0.1864 -0.3364
 1801SOL    HW1 8296   9.405   0.396   3.813 -2.0577 -0.4211 -0.6518
 1801SOL    HW2 8297   9.301   0.372   3.921 -0.5735 -0.2055  0.8589
 1802SOL     OW 8298   6.446   4.900   6.605 -0.1599  0.2345 -0.2868
 1802SOL    HW1 8299   6.420   4.861   6.689 -0.9047 -1.0339 -1.0765
 1802SOL    HW2 8300   6.418   4.991   6.612 -0.4871  0.0739  0.7360
 1803SOL     OW 8301   9.552   0.041   7.490 -0.6144 -0.1400  0.8099
 1803SOL    HW1 8302   9.611  -0.005   7.429 -1.3886 -0.8222  0.5483
 1803SOL    HW2 8303   9.577   0.133   7.483 -1.8270  0.0684 -1.8986
 1804SOL     OW 8304   6.661   0.470   7.210 -0.2429  0.3723 -0.8411
 1804SOL    HW1 8305   6.655   0.442   7.301  0.3944 -1.6693 -1.3766
 1804SOL    HW2 8306   6.739   0.526   7.207  0.2253 -0.2404 -0.2959
 1805SOL     OW 8307   6.057   6.399   2.671  0.3595 -0.2003  0.5038
 1805SOL    HW1 8308   6.017   6.333   2.728 -1.4547  1.0149  0.7094
 1805SOL    HW2 8309   5.991   6.417   2.604  0.8905  1.2530  0.3347
 1806SOL     OW 8310   0.380   4.127   2.041 -0.0726 -0.1609  0.0057
 1806SOL    HW1 8311   0.384   4.090   1.953 -2.1136 -0.6516  0.0590
 1806SOL    HW2 8312   0.287   4.145   2.055  0.1221 -0.5494  2.2418
 1807SOL     OW 8313   8.592   8.826   6.296 -0.0285 -0.1137  0.5924
 1807SOL    HW1 8314   8.676   8.781   6.287 -0.4480 -0.9211  0.6171
 1807SOL    HW2 8315   8.575   8.863   6.209 -0.1011 -0.7794  0.3139
 1808SOL     OW 8316   8.530   4.165   5.680  0.3199  0.5116 -0.2518
 1808SOL    HW1 8317   8.441   4.128   5.676  0.0306  1.2507 -1.1564
 1808SOL    HW2 8318   8.581   4.109   5.620  0.0950  0.9957 -0.9112
 1809SOL     OW 8319  10.068  10.548   9.494 -0.4471  0.4593  0.1201
 1809SOL    HW1 8320  10.083  10.530   9.587 -2.0931  0.9727  0.5121
 1809SOL    HW2 8321  10.009  10.623   9.494 -0.9603  0.0766 -1.3442
 1810SOL     OW 8322   1.398   9.811   4.666 -0.3615 -0.0572  0.1741
 1810SOL    HW1 8323   1.423   9.886   4.720 -1.3021 -0.1874  0.8131
 1810SOL    HW2 8324   1.405   9.843   4.576 -0.4551  0.7049  0.4274
 1811SOL     OW 8325   0.515   2.262   2.979 -0.1682  0.0504 -0.4337
 1811SOL    HW1 8326   0.434   2.223   3.010  0.7155 -2.5336 -1.0635
 1811SOL    HW2 8327   0.551   2.309   3.054 -2.0386  0.9403 -0.0595
 1812SOL     OW 8328   6.429   4.256   5.449 -0.8338  0.5461 -0.1196
 1812SOL    HW1 8329   6.486   4.330   5.429 -1.4299  1.1280  0.2972
 1812SOL    HW2 8330   6.362   4.292   5.506 -0.0735 -0.7221  1.6872
 1813SOL     OW 8331   8.853   0.048   2.971 -0.6929  0.0728 -0.2459
 1813SOL    HW1 8332   8.776   0.099   2.995 -0.5686  0.5746 -0.8757
 1813SOL    HW2 8333   8.907   0.048   3.050 -0.0989  2.0297 -0.5844
 1814SOL     OW 8334   9.117   4.019   9.994  0.2487  0.3183 -0.3246
 1814SOL    HW1 8335   9.079   4.022   9.906  1.3878 -1.7233 -0.9443
 1814SOL    HW2 8336   9.088   3.934  10.029  1.6618  0.1093  0.3824
 1815SOL     OW 8337   2.541   8.454  10.096 -0.3223  0.1903 -0.3314
 1815SOL    HW1 8338   2.497   8.370  10.082 -0.5119  0.3760 -0.8597
 1815SOL    HW2 8339   2.561   8.486  10.008  1.7033 -0.3165 -0.1092
 1816SOL     OW 8340   9.666   5.731   9.209 -0.4125  0.0078  0.5288
 1816SOL    HW1 8341   9.700   5.642   9.200 -2.1543 -0.5336 -1.2175
 1816SOL    HW2 8342   9.652   5.742   9.303  0.5231 -1.2787  0.8447
 1817SOL     OW 8343   3.452   3.912   1.797 -0.7541  0.5672 -0.3400
 1817SOL    HW1 8344   3.363   3.942   1.815 -0.3013  1.8338 -0.0985
 1817SOL    HW2 8345   3.495   3.910   1.883 -0.8780 -1.2235 -0.2922
 1818SOL     OW 8346   2.039   9.405   9.729  0.5242 -0.0227 -0.4948
 1818SOL    HW1 8347   2.007   9.470   9.791  0.8836 -1.4135  1.2216
 1818SOL    HW2 8348   2.132   9.425   9.718  0.4819  0.1667 -0.5013
 1819SOL     OW 8349   7.077   6.024   6.069 -0.2519 -0.1964 -0.5683
 1819SOL    HW1 8350   7.105   6.054   5.982  1.0048 -0.4412 -0.2576
 1819SOL    HW2 8351   7.023   6.096   6.102 -0.6959 -0.0766 -1.5207
 1820SOL     OW 8352   2.736   1.273   3.802 -0.4510  0.1668  0.0993
 1820SOL    HW1 8353   2.711   1.227   3.882 -0.1725  0.2481  0.2352
 1820SOL    HW2 8354   2.674   1.242   3.736 -0.5867 -0.0156  0.3115
 1821SOL     OW 8355   4.015   0.762   9.953 -0.2230 -0.4201 -0.2742
 1821SOL    HW1 8356   3.926   0.734   9.930  0.0648 -1.1798 -0.4714
 1821SOL    HW2 8357   4.002   0.821  10.027 -0.9230 -0.2099 -0.5457
 1822SOL     OW 8358   5.371   9.187   2.517 -0.1983  0.1390 -0.2310
 1822SOL    HW1 8359   5.293   9.131   2.513 -0.4468  0.4382  0.3747
 1822SOL    HW2 8360   5.352   9.258   2.456 -0.5191  0.3537  0.1122
 1823SOL     OW 8361   2.830   1.849   6.427  0.0705  0.0569 -0.0357
 1823SOL    HW1 8362   2.778   1.885   6.498  0.7302  0.0450  0.4658
 1823SOL    HW2 8363   2.848   1.759   6.454  1.5126  0.4626  0.4907
 1824SOL     OW 8364   6.457   1.088   0.618  0.2561  0.3538 -0.1704
 1824SOL    HW1 8365   6.500   1.090   0.532  0.7007 -1.5081 -0.0396
 1824SOL    HW2 8366   6.484   1.169   0.660  1.6233  0.4003 -1.0565
 1825SOL     OW 8367  10.432   6.214  10.474  0.1061  0.6369 -0.2907
 1825SOL    HW1 8368  10.517   6.177  10.451  0.6046  1.8817 -0.5043
 1825SOL    HW2 8369  10.381   6.210  10.393  0.8451  2.2456 -0.8654
 1826SOL     OW 8370   4.067   6.553   5.172 -0.0314 -0.1283  0.1622
 1826SOL    HW1 8371   4.065   6.547   5.267  1.3352 -2.4673  0.1099
 1826SOL    HW2 8372   4.156   6.528   5.148 -0.4395  0.1015 -1.7603
 1827SOL     OW 8373   4.957   1.879   9.780  0.0276 -0.7412  0.0318
 1827SOL    HW1 8374   5.051   1.891   9.795 -0.0686  0.2680 -0.1148
 1827SOL    HW2 8375   4.915   1.920   9.856 -0.3166 -0.1510 -0.4651
 1828SOL     OW 8376   4.894   6.264   0.963 -0.2952  0.0176 -0.0159
 1828SOL    HW1 8377   4.956   6.323   0.921 -1.5992  1.7424  0.3521
 1828SOL    HW2 8378   4.859   6.315   1.037 -0.9657 -1.4798  0.7429
 1829SOL     OW 8379  10.718   5.742   7.014  0.1531 -0.2175 -0.4455
 1829SOL    HW1 8380  10.656   5.790   6.960 -0.8440 -2.3791 -1.3644
 1829SOL    HW2 8381  10.761   5.682   6.953  0.8132 -0.9875  0.7388
 1830SOL     OW 8382   5.950   5.072   0.753  0.3800  0.0798 -0.2901
 1830SOL    HW1 8383   5.896   5.141   0.713 -1.5325 -0.5692  1.0057
 1830SOL    HW2 8384   5.977   5.018   0.679  0.8135  1.4602 -1.1787
 1831SOL     OW 8385   1.754   0.393   5.618  0.1992  0.1038  0.1029
 1831SOL    HW1 8386   1.698   0.318   5.597  0.4756 -0.3831  1.0613
 1831SOL    HW2 8387   1.751   0.448   5.540 -0.7779 -0.4332 -0.2488
 1832SOL     OW 8388   8.788   4.649   8.738  0.3086  0.1787 -0.0543
 1832SOL    HW1 8389   8.701   4.613   8.753  0.5654  0.1928  1.6858
 1832SOL    HW2 8390   8.820   4.604   8.660 -1.6462  0.9512 -1.3723
 1833SOL     OW 8391   9.602   2.359   9.720  0.0821  0.0591 -0.1209
 1833SOL    HW1 8392   9.642   2.424   9.778 -1.1644 -0.1686  1.0285
 1833SOL    HW2 8393   9.546   2.306   9.777  0.4913 -1.5778 -1.1554
 1834SOL     OW 8394   6.838   3.995   9.276 -0.1157  0.2574  0.5948
 1834SOL    HW1 8395   6.835   3.927   9.209 -1.5622  1.4246 -0.6050
 1834SOL    HW2 8396   6.763   3.976   9.332 -0.1485  0.4961  0.6322
 1835SOL     OW 8397   7.665   7.049   3.666  0.0712  0.0843 -0.4343
 1835SOL    HW1 8398   7.619   7.056   3.750  1.0889  0.6384  0.0851
 1835SOL    HW2 8399   7.608   7.095   3.604 -2.4382 -3.1722 -0.8571
 1836SOL     OW 8400   2.978   6.783   4.627 -0.0331  0.0500 -0.1192
 1836SOL    HW1 8401   2.943   6.806   4.541 -2.4503  0.0308  0.7645
 1836SOL    HW2 8402   3.013   6.695   4.616 -1.2771 -0.3765 -0.8674
 1837SOL     OW 8403   3.684   9.308   6.624 -0.0759 -0.3100  0.0104
 1837SOL    HW1 8404   3.771   9.272   6.607  0.0521  0.6556 -1.5739
 1837SOL    HW2 8405   3.651   9.257   6.698  1.3145 -1.5499 -0.1757
 1838SOL     OW 8406   9.490   9.861   0.476  0.4701 -0.1986 -0.0451
 1838SOL    HW1 8407   9.459   9.925   0.541  0.4814  0.3325 -0.5572
 1838SOL    HW2 8408   9.409   9.823   0.441  0.4659 -2.1606  1.8841
 1839SOL     OW 8409   3.299   5.715   2.999  0.4724 -0.2508  0.3948
 1839SOL    HW1 8410   3.324   5.731   3.090 -0.4835  2.6651  0.2561
 1839SOL    HW2 8411   3.380   5.720   2.950  0.6654  0.8582  0.8162
 1840SOL     OW 8412   4.461   6.577   5.396  0.0011 -0.1950 -0.1544
 1840SOL    HW1 8413   4.415   6.541   5.472  0.6795  0.4607  0.5920
 1840SOL    HW2 8414   4.540   6.523   5.389  0.5246  0.4804  0.3527
 1841SOL     OW 8415   2.915   6.824   5.928 -0.7174 -0.0783  0.0292
 1841SOL    HW1 8416   2.896   6.786   6.014 -1.1461 -0.0955 -0.0696
 1841SOL    HW2 8417   2.845   6.791   5.871 -0.4964  0.0197 -0.3015
 1842SOL     OW 8418   5.623   8.275   7.611 -0.4835 -0.3237 -0.1339
 1842SOL    HW1 8419   5.669   8.252   7.530  1.6780  4.4505 -0.5880
 1842SOL    HW2 8420   5.692   8.279   7.677 -0.9602  2.3228  0.2960
 1843SOL     OW 8421   8.449   6.254   9.758  0.1628 -0.1630  0.5527
 1843SOL    HW1 8422   8.508   6.274   9.685 -0.6830  2.4865  0.5117
 1843SOL    HW2 8423   8.432   6.338   9.800 -0.8006 -1.3550  2.7590
 1844SOL     OW 8424   9.162  10.375  10.629  0.5124  0.1018  0.3476
 1844SOL    HW1 8425   9.097  10.375  10.559 -0.3188 -1.1760  1.0883
 1844SOL    HW2 8426   9.120  10.424  10.700  0.0762 -1.2445  1.0470
 1845SOL     OW 8427   4.450  10.110   1.581 -0.1104  0.0836 -0.6229
 1845SOL    HW1 8428   4.368  10.153   1.602 -0.7052 -1.4872  0.4683
 1845SOL    HW2 8429   4.424  10.031   1.534  0.8118 -0.1545 -0.7591
 1846SOL     OW 8430   9.529   7.920   9.042  0.1631 -0.1496  0.3905
 1846SOL    HW1 8431   9.496   7.934   8.953  1.5276  0.0398 -0.1101
 1846SOL    HW2 8432   9.474   7.850   9.077 -1.1143  0.5157 -0.1824
 1847SOL     OW 8433   3.688   4.230   0.532 -0.5945  0.2229 -0.1267
 1847SOL    HW1 8434   3.734   4.149   0.507 -0.4882  0.5934 -1.2147
 1847SOL    HW2 8435   3.616   4.237   0.468 -1.8267 -0.0368  1.1903
 1848SOL     OW 8436   1.344   0.018   1.446  0.3429 -0.2076  0.2981
 1848SOL    HW1 8437   1.345  -0.058   1.388  0.1073 -0.3751  0.5145
 1848SOL    HW2 8438   1.261   0.011   1.494 -0.3327  0.9329 -0.6674
 1849SOL     OW 8439   3.866   8.640  10.656  0.5006  0.0916  0.4017
 1849SOL    HW1 8440   3.812   8.621  10.579  1.5409 -1.8935  0.0861
 1849SOL    HW2 8441   3.919   8.715  10.630  0.5691 -0.3149 -0.6888
 1850SOL     OW 8442   0.553   9.234   1.171 -0.1167  0.1730 -0.2086
 1850SOL    HW1 8443   0.518   9.290   1.102  0.1800  0.1235 -0.4033
 1850SOL    HW2 8444   0.476   9.200   1.215 -0.3283  2.1344  1.0683
 1851SOL     OW 8445  10.388  10.572   6.640 -0.2196 -0.0442 -0.0726
 1851SOL    HW1 8446  10.330  10.588   6.714  0.4915 -3.4463  1.4301
 1851SOL    HW2 8447  10.331  10.535   6.572 -0.7937  2.6713 -1.1944
 1852SOL     OW 8448   9.537   2.056   3.239 -0.3927 -0.4918  0.1418
 1852SOL    HW1 8449   9.492   2.036   3.321 -2.1804 -1.9482 -1.1012
 1852SOL    HW2 8450   9.477   2.113   3.192  0.9617  0.9871  0.0971
 1853SOL     OW 8451   8.741   8.209   6.772 -0.5353  0.2257  0.6844
 1853SOL    HW1 8452   8.716   8.270   6.703  1.9107  0.8224  0.2175
 1853SOL    HW2 8453   8.761   8.265   6.847 -1.0407 -0.2516  1.1845
 1854SOL     OW 8454   6.587   2.233   1.618  0.1427 -0.5345  0.1297
 1854SOL    HW1 8455   6.548   2.159   1.665  0.2044 -1.0059 -0.5439
 1854SOL    HW2 8456   6.544   2.232   1.532 -0.1506  0.4645  0.2572
 1855SOL     OW 8457   3.006   9.753   1.564 -0.1474 -0.1090 -0.1513
 1855SOL    HW1 8458   3.017   9.844   1.592  1.5570  0.5529 -2.6431
 1855SOL    HW2 8459   2.926   9.754   1.511  1.1022  0.5754 -2.1578
 1856SOL     OW 8460   4.461   0.879   9.838 -0.0615 -0.5615  0.3317
 1856SOL    HW1 8461   4.439   0.967   9.808 -0.4633 -0.6562  0.3387
 1856SOL    HW2 8462   4.400   0.863   9.910 -0.5270 -1.1453 -0.1806
 1857SOL     OW 8463   2.728   0.757   2.316  0.0274 -0.1644 -0.2226
 1857SOL    HW1 8464   2.773   0.699   2.377 -0.6965  0.8817  1.3529
 1857SOL    HW2 8465   2.788   0.830   2.303  0.0445 -0.2310 -0.5360
 1858SOL     OW 8466   1.803   0.657   4.093  0.4745 -0.0120 -0.1795
 1858SOL    HW1 8467   1.821   0.587   4.156  1.3225 -0.4209 -0.8512
 1858SOL    HW2 8468   1.848   0.629   4.013  1.5712  1.7361 -0.2091
 1859SOL     OW 8469   1.100   4.951   3.043  0.0517 -0.0004  0.5489
 1859SOL    HW1 8470   1.182   4.964   3.091  1.3423  0.5898 -1.6316
 1859SOL    HW2 8471   1.052   5.032   3.056  0.2437  0.0331  1.0770
 1860SOL     OW 8472   6.174   8.690   3.980 -0.0252  0.0985  0.1107
 1860SOL    HW1 8473   6.231   8.635   4.034 -1.1509 -0.9545  0.2775
 1860SOL    HW2 8474   6.117   8.734   4.043 -0.6679 -0.3537 -0.1368
 1861SOL     OW 8475   8.661   3.580   5.755  0.4542  0.6258 -0.0016
 1861SOL    HW1 8476   8.665   3.661   5.805  0.1982 -0.0552  1.1552
 1861SOL    HW2 8477   8.644   3.608   5.665 -1.5695  1.7951  0.6752
 1862SOL     OW 8478   1.258   9.777   1.085 -0.4099 -0.7113 -0.2099
 1862SOL    HW1 8479   1.259   9.862   1.041 -2.6574 -0.8536 -0.6794
 1862SOL    HW2 8480   1.292   9.795   1.173 -3.8244  1.5112  0.8830
 1863SOL     OW 8481   2.866  10.359  10.667 -0.1473  0.1670  0.1090
 1863SOL    HW1 8482   2.952  10.383  10.631 -0.2832  1.7005  0.7267
 1863SOL    HW2 8483   2.883  10.282  10.721  0.9524  0.7567  0.6353
 1864SOL     OW 8484   5.108  10.580   5.474  0.2811  0.6575  0.4117
 1864SOL    HW1 8485   5.049  10.648   5.504 -1.3623  0.1245 -1.4279
 1864SOL    HW2 8486   5.103  10.512   5.541  1.6931  2.1338  2.1018
 1865SOL     OW 8487   6.404   3.698   8.979 -0.2391  0.4927 -0.2592
 1865SOL    HW1 8488   6.377   3.626   9.036  0.3039  1.2373  0.9850
 1865SOL    HW2 8489   6.422   3.771   9.039 -1.6491  1.9796 -1.5318
 1866SOL     OW 8490   6.522   7.027   7.603  0.2330 -0.3095  0.7217
 1866SOL    HW1 8491   6.617   7.032   7.589 -0.1328 -0.8356 -2.6452
 1866SOL    HW2 8492   6.508   6.941   7.642  0.9855 -1.1323 -0.7560
 1867SOL     OW 8493   5.079   9.374   3.837 -0.2552  0.2186 -0.5244
 1867SOL    HW1 8494   5.099   9.354   3.929 -1.0417  2.2301  0.1354
 1867SOL    HW2 8495   5.036   9.295   3.805 -0.1682 -0.4489  0.8994
 1868SOL     OW 8496   6.482   0.238   1.846 -0.0615 -0.5245  0.2409
 1868SOL    HW1 8497   6.498   0.199   1.932 -0.1634  0.6320  0.8030
 1868SOL    HW2 8498   6.387   0.249   1.842  0.0293  0.3745  0.4190
 1869SOL     OW 8499   3.302   3.001  10.314 -0.3243  0.4250 -0.6678
 1869SOL    HW1 8500   3.251   2.941  10.369 -1.0933  2.3100  0.8234
 1869SOL    HW2 8501   3.235   3.052  10.267  0.1743  2.0239  0.2929
 1870SOL     OW 8502   8.651   0.073   4.286 -0.1022  0.5143  0.4147
 1870SOL    HW1 8503   8.679   0.160   4.257  0.3396  0.9432  2.0054
 1870SOL    HW2 8504   8.722   0.043   4.343  1.6708 -2.5609 -2.9154
 1871SOL     OW 8505   0.131   8.126   7.449  0.0813 -0.2958 -0.3257
 1871SOL    HW1 8506   0.088   8.193   7.502  1.6761  0.3282  0.2207
 1871SOL    HW2 8507   0.127   8.161   7.360  0.4056  0.2666 -0.1240
 1872SOL     OW 8508   7.804   6.750   5.120  0.0430  0.0122 -0.0728
 1872SOL    HW1 8509   7.721   6.771   5.162 -1.2604 -1.1517 -1.8690
 1872SOL    HW2 8510   7.793   6.782   5.030  0.7350 -1.8626 -0.8700
 1873SOL     OW 8511   9.085  10.796   4.268 -0.2021  0.1070 -0.1526
 1873SOL    HW1 8512   9.175  10.796   4.301 -0.8602 -1.5642  1.8470
 1873SOL    HW2 8513   9.075  10.710   4.228 -1.2776 -0.2650  0.8561
 1874SOL     OW 8514   3.524   0.483   2.433 -0.3798  0.1743  0.2227
 1874SOL    HW1 8515   3.553   0.393   2.423 -2.5167 -0.8408  2.3028
 1874SOL    HW2 8516   3.488   0.507   2.348  1.0496 -0.5710 -0.6193
 1875SOL     OW 8517   7.149   4.347   9.306  0.9083  0.2171  0.1189
 1875SOL    HW1 8518   7.195   4.294   9.371  2.4457  0.4218 -0.7455
 1875SOL    HW2 8519   7.140   4.290   9.230  0.2280  0.3589  0.0935
 1876SOL     OW 8520   7.432   5.184   7.484 -0.1854  0.0872  0.3688
 1876SOL    HW1 8521   7.384   5.199   7.403 -0.2568 -0.3259  0.3341
 1876SOL    HW2 8522   7.364   5.172   7.550 -0.1287 -0.0497  0.4022
 1877SOL     OW 8523   5.840   7.518   4.053  0.0522  0.4286  0.0207
 1877SOL    HW1 8524   5.776   7.448   4.043 -0.2306  0.7891 -0.8369
 1877SOL    HW2 8525   5.904   7.484   4.116  0.9582 -1.3837 -1.7446
 1878SOL     OW 8526   6.224   9.521   7.983 -0.3468  0.1813 -0.1193
 1878SOL    HW1 8527   6.198   9.470   8.060  0.5247 -0.0038  0.0655
 1878SOL    HW2 8528   6.304   9.566   8.011 -1.3017  1.9911 -0.1305
 1879SOL     OW 8529   4.507   2.480   1.753 -0.5875  0.1126  0.2492
 1879SOL    HW1 8530   4.593   2.446   1.727 -0.2833  1.0745 -0.0405
 1879SOL    HW2 8531   4.485   2.430   1.832 -0.6536 -1.5046 -0.7354
 1880SOL     OW 8532   6.679   5.133  10.093 -0.1139  0.0282  0.4465
 1880SOL    HW1 8533   6.733   5.136  10.172  0.0310  0.1765  0.3418
 1880SOL    HW2 8534   6.700   5.048  10.053  0.5849  0.3825  0.0308
 1881SOL     OW 8535   1.607   6.142   0.976  0.1521 -0.2965  0.3453
 1881SOL    HW1 8536   1.693   6.101   0.977  0.9508  1.2886 -0.0630
 1881SOL    HW2 8537   1.624   6.233   0.953 -1.6241  0.0945  0.4274
 1882SOL     OW 8538   0.485   6.908   2.405  0.1440  0.1444 -0.0425
 1882SOL    HW1 8539   0.460   6.999   2.393 -0.2622 -0.0128 -0.4228
 1882SOL    HW2 8540   0.542   6.889   2.330  1.0962  0.3873  0.6063
 1883SOL     OW 8541   6.728   9.506   0.351 -0.2499 -0.0190 -0.3381
 1883SOL    HW1 8542   6.798   9.554   0.309 -1.2172  1.4162 -0.3732
 1883SOL    HW2 8543   6.678   9.469   0.278 -1.1760  1.3885 -0.4571
 1884SOL     OW 8544   2.217   0.582   8.488 -0.2976 -0.6673 -0.6313
 1884SOL    HW1 8545   2.165   0.644   8.538 -0.4936 -0.9383 -0.4949
 1884SOL    HW2 8546   2.242   0.515   8.551  0.8448 -0.1634 -0.5279
 1885SOL     OW 8547   7.996   2.293   2.633  0.3176 -0.2348 -0.1007
 1885SOL    HW1 8548   7.915   2.341   2.650  2.2676  3.8451 -0.9346
 1885SOL    HW2 8549   8.023   2.261   2.719 -1.7878 -1.1448  0.2940
 1886SOL     OW 8550   0.312   8.746   1.570  0.5213  0.5655 -0.3774
 1886SOL    HW1 8551   0.231   8.701   1.546  1.5614 -2.3274  1.0313
 1886SOL    HW2 8552   0.285   8.835   1.590 -2.2088 -0.1476 -0.4995
 1887SOL     OW 8553   0.178   9.786   8.171  0.0189 -0.2979  0.2833
 1887SOL    HW1 8554   0.107   9.824   8.223  0.2093  0.1699  0.2074
 1887SOL    HW2 8555   0.186   9.696   8.203 -1.1721 -0.6248 -0.2902
 1888SOL     OW 8556   0.462   4.906   5.297 -0.1649  0.3569  0.1565
 1888SOL    HW1 8557   0.443   4.873   5.209 -1.0569  1.0045  0.0893
 1888SOL    HW2 8558   0.431   4.997   5.295 -1.5215 -0.0425  1.5739
 1889SOL     OW 8559   4.404   6.001   5.263  0.3763  0.1349 -0.3369
 1889SOL    HW1 8560   4.491   5.960   5.264 -0.5669 -2.0007 -0.0048
 1889SOL    HW2 8561   4.365   5.969   5.181 -0.4096  0.3406 -0.0420
 1890SOL     OW 8562   2.351   3.812   0.341  0.2240 -0.3129  0.1517
 1890SOL    HW1 8563   2.329   3.897   0.379  1.1921 -0.1267  0.3159
 1890SOL    HW2 8564   2.359   3.830   0.247  1.1221 -0.0723  0.2716
 1891SOL     OW 8565   9.123   2.737   1.685  0.2296  0.1800  0.2467
 1891SOL    HW1 8566   9.165   2.667   1.736 -0.3805  0.0890  0.6360
 1891SOL    HW2 8567   9.183   2.752   1.612  0.4281 -0.6727  0.2157
 1892SOL     OW 8568   6.491   2.685   7.571 -0.2622  0.1322 -0.1035
 1892SOL    HW1 8569   6.402   2.710   7.598 -0.7049 -1.0279 -0.4354
 1892SOL    HW2 8570   6.498   2.713   7.480 -1.1418 -1.8219 -0.8174
 1893SOL     OW 8571  10.396   7.133   9.460  0.3521 -0.2185  0.1432
 1893SOL    HW1 8572  10.406   7.228   9.450  1.8623 -0.1774  1.6244
 1893SOL    HW2 8573  10.437   7.113   9.544  0.7668 -2.2918 -0.4865
 1894SOL     OW 8574   0.230   2.347   4.260 -0.0163  0.1096  0.5205
 1894SOL    HW1 8575   0.259   2.311   4.344 -1.5710  0.5730  1.3124
 1894SOL    HW2 8576   0.161   2.410   4.284 -0.9786 -0.2507 -1.1318
 1895SOL     OW 8577   1.653   1.209   6.806  0.0463  0.0406  0.1347
 1895SOL    HW1 8578   1.611   1.216   6.891 -1.3028 -0.7481 -0.4361
 1895SOL    HW2 8579   1.714   1.283   6.803 -1.4616  1.3902  0.9251
 1896SOL     OW 8580   4.073   9.471  10.359  1.0332 -0.0532 -0.0883
 1896SOL    HW1 8581   4.059   9.559  10.324  0.8105  0.2355  0.7077
 1896SOL    HW2 8582   3.996   9.422  10.330 -0.8824  1.0463  2.6925
 1897SOL     OW 8583   4.770   2.661   1.476  0.0971 -0.0411 -0.1973
 1897SOL    HW1 8584   4.742   2.579   1.517  0.9483 -0.5126 -0.5201
 1897SOL    HW2 8585   4.808   2.633   1.392 -0.6955  0.8069 -0.8519
 1898SOL     OW 8586   0.706   7.853   8.538 -0.2265 -0.4424  0.0108
 1898SOL    HW1 8587   0.641   7.783   8.536  0.5086 -1.1730  0.6784
 1898SOL    HW2 8588   0.780   7.819   8.487  0.1433 -0.1704  0.3580
 1899SOL     OW 8589   7.802   3.248   3.532  0.8367 -0.2100 -0.5679
 1899SOL    HW1 8590   7.863   3.187   3.574  2.0239  1.1117 -0.2915
 1899SOL    HW2 8591   7.717   3.227   3.572  1.7055  0.1770  1.6491
 1900SOL     OW 8592   9.797   5.771   0.578 -0.0234  0.0649 -0.7778
 1900SOL    HW1 8593   9.854   5.848   0.587  0.3851 -0.0034 -2.3580
 1900SOL    HW2 8594   9.734   5.778   0.650  0.3831  1.5562 -0.5420
 1901SOL     OW 8595   7.354   6.798   9.614  0.4469 -0.4342 -0.0095
 1901SOL    HW1 8596   7.271   6.770   9.575  0.2493 -0.3862  0.3749
 1901SOL    HW2 8597   7.377   6.728   9.674  0.4558 -0.2347  0.2199
 1902SOL     OW 8598   5.672   5.753   7.621 -0.7367 -0.2309 -0.0318
 1902SOL    HW1 8599   5.690   5.768   7.714 -0.5341 -0.2555 -0.0676
 1902SOL    HW2 8600   5.730   5.814   7.575 -0.9631 -0.0929 -0.1379
 1903SOL     OW 8601   8.007   5.276   3.579  0.0807 -0.5618  0.0333
 1903SOL    HW1 8602   8.101   5.263   3.588  0.0026 -0.8406  0.5264
 1903SOL    HW2 8603   7.968   5.206   3.632 -0.4209 -1.0038 -0.8913
 1904SOL     OW 8604   4.770   9.565   4.222 -0.1916  0.2692  0.2001
 1904SOL    HW1 8605   4.747   9.621   4.296  2.1186  0.9595  0.4602
 1904SOL    HW2 8606   4.852   9.601   4.188  0.3677 -1.7927 -0.8495
 1905SOL     OW 8607   8.587   7.191   4.054  0.6185  0.8087  0.6556
 1905SOL    HW1 8608   8.504   7.196   4.007  1.2262  1.5443 -0.3701
 1905SOL    HW2 8609   8.606   7.097   4.060 -0.8232  0.5693  1.9015
 1906SOL     OW 8610   0.707   9.966   1.326  0.2057  0.0523  0.2704
 1906SOL    HW1 8611   0.681  10.056   1.308  3.6899  1.3331  0.8941
 1906SOL    HW2 8612   0.762   9.941   1.252  0.8839 -0.8231  1.0404
 1907SOL     OW 8613   5.315  10.561   4.353  0.1923  0.3585  0.1110
 1907SOL    HW1 8614   5.333  10.469   4.370  0.1625  0.0749 -1.3007
 1907SOL    HW2 8615   5.230  10.577   4.395  0.3866 -0.1479  0.7005
 1908SOL     OW 8616   4.704   7.365   7.460  0.3147 -0.1718  0.1453
 1908SOL    HW1 8617   4.751   7.426   7.404 -0.4461 -0.5558 -0.9457
 1908SOL    HW2 8618   4.642   7.419   7.508 -0.4534 -0.0724 -0.9222
 1909SOL     OW 8619   7.696   3.248   4.858 -0.0741  0.0642  0.7026
 1909SOL    HW1 8620   7.738   3.164   4.840 -1.3378 -0.2991 -0.6971
 1909SOL    HW2 8621   7.709   3.299   4.778  0.0100  0.9348  1.2543
 1910SOL     OW 8622   4.467   4.177   7.598 -0.3162 -0.0369  0.1338
 1910SOL    HW1 8623   4.398   4.201   7.660 -0.1351 -1.8994  1.1160
 1910SOL    HW2 8624   4.431   4.106   7.546 -0.0416  0.7287 -1.1378
 1911SOL     OW 8625   6.465   0.046   2.121  0.1359 -0.1120  0.6770
 1911SOL    HW1 8626   6.399   0.105   2.157 -1.8572 -0.5850 -1.8800
 1911SOL    HW2 8627   6.443  -0.039   2.158 -0.2866 -0.1441  0.3630
 1912SOL     OW 8628   2.517   4.950   8.180  0.0886 -0.2657 -0.1624
 1912SOL    HW1 8629   2.513   4.891   8.104  0.6547 -0.0370 -0.3753
 1912SOL    HW2 8630   2.431   4.942   8.221 -0.3995 -0.0092 -1.1103
 1913SOL     OW 8631   0.019   3.107   5.144 -0.2213 -0.0119 -0.1060
 1913SOL    HW1 8632   0.114   3.097   5.143 -0.0289  0.1860  3.4029
 1913SOL    HW2 8633   0.002   3.188   5.096  1.2119 -0.6783 -1.8241
 1914SOL     OW 8634   0.802   4.797   2.605  0.8525  0.2502 -0.0214
 1914SOL    HW1 8635   0.779   4.719   2.655  0.7188  0.4761  0.2687
 1914SOL    HW2 8636   0.878   4.771   2.553  1.8255  0.3996  1.2827
 1915SOL     OW 8637   6.680   4.252   4.012 -0.8634 -0.2512  0.5069
 1915SOL    HW1 8638   6.588   4.232   4.027 -1.6495 -0.4331 -3.4454
 1915SOL    HW2 8639   6.680   4.333   3.961  1.1442 -0.4579  0.0674
 1916SOL     OW 8640   7.483   3.687   2.279  0.5016  0.5946  0.2329
 1916SOL    HW1 8641   7.412   3.650   2.227  0.7578  0.0249  0.2774
 1916SOL    HW2 8642   7.547   3.617   2.285  0.3261  0.5280  1.6135
 1917SOL     OW 8643   4.706   2.155   3.137 -0.2918 -0.7061  0.1207
 1917SOL    HW1 8644   4.740   2.227   3.083 -0.4807 -1.0639 -0.4886
 1917SOL    HW2 8645   4.707   2.079   3.079 -0.6234 -1.0725  0.5861
 1918SOL     OW 8646   9.469   4.979   8.560 -0.3791  0.2131  0.6362
 1918SOL    HW1 8647   9.481   5.067   8.594  1.1828  0.3628 -0.1905
 1918SOL    HW2 8648   9.487   4.921   8.634  0.3559  0.5709  0.7403
 1919SOL     OW 8649   5.592   4.940   1.612  0.5216 -0.6331 -0.3651
 1919SOL    HW1 8650   5.607   4.845   1.610  1.2635 -0.5047 -0.9542
 1919SOL    HW2 8651   5.616   4.966   1.701  1.4862 -0.8130 -0.5649
 1920SOL     OW 8652   3.829   1.749   8.654 -0.1478  0.0033  0.0623
 1920SOL    HW1 8653   3.823   1.789   8.741 -1.0200 -0.2741  0.1359
 1920SOL    HW2 8654   3.844   1.823   8.595  1.9267  0.0681  0.5734
 1921SOL     OW 8655   5.903   1.050   5.720 -0.2582  0.1786  0.3788
 1921SOL    HW1 8656   5.974   0.998   5.683  0.4653  1.2592  0.1919
 1921SOL    HW2 8657   5.830   1.037   5.660  0.7377  1.4896 -1.2037
 1922SOL     OW 8658   0.108   8.301   8.784  0.2815 -0.3582  0.4568
 1922SOL    HW1 8659   0.070   8.322   8.870  0.9065 -0.7108  0.8244
 1922SOL    HW2 8660   0.157   8.220   8.799  2.0334  0.6285  0.2422
 1923SOL     OW 8661  10.305   4.751   9.466  0.1755 -0.2904 -0.5047
 1923SOL    HW1 8662  10.364   4.686   9.428 -0.1812 -0.4105 -0.8623
 1923SOL    HW2 8663  10.301   4.821   9.401  0.4318  0.0135 -0.1915
 1924SOL     OW 8664   4.197   1.391   9.408 -0.0780  0.1184 -0.6356
 1924SOL    HW1 8665   4.281   1.436   9.402  0.4499 -0.9677 -1.4854
 1924SOL    HW2 8666   4.217   1.299   9.397 -1.5157 -0.0603 -2.1198
 1925SOL     OW 8667   5.932   5.515   6.700 -0.1604 -0.1634  0.0422
 1925SOL    HW1 8668   6.024   5.542   6.702  0.0679 -0.8502  2.4833
 1925SOL    HW2 8669   5.936   5.419   6.694 -0.7701 -0.1404 -0.9388
 1926SOL     OW 8670   9.508   1.528  10.322 -0.5641  0.8532 -0.1119
 1926SOL    HW1 8671   9.532   1.463  10.388  0.8198  1.6906  0.2460
 1926SOL    HW2 8672   9.480   1.605  10.372 -0.3740  1.1805 -0.4975
 1927SOL     OW 8673   9.040   1.480   7.636  0.0991  0.1065 -0.4055
 1927SOL    HW1 8674   8.945   1.478   7.624 -0.0776  0.2572  0.8234
 1927SOL    HW2 8675   9.053   1.454   7.728  1.3540 -1.7114 -1.0454
 1928SOL     OW 8676   5.804   6.828   5.868 -0.0700  0.4657 -0.1287
 1928SOL    HW1 8677   5.753   6.747   5.870  0.8528 -0.1385 -0.7431
 1928SOL    HW2 8678   5.769   6.876   5.793 -0.4229  0.5192  0.0658
 1929SOL     OW 8679   4.340  10.150   6.832  0.0988  0.4624  0.1423
 1929SOL    HW1 8680   4.289  10.223   6.867 -0.2816  0.0682  0.4363
 1929SOL    HW2 8681   4.300  10.072   6.872 -0.5760 -0.0388 -1.4286
 1930SOL     OW 8682   2.983   6.720  10.497  0.2579  0.2439 -0.8153
 1930SOL    HW1 8683   2.983   6.766  10.413  1.4483  1.0793 -0.3795
 1930SOL    HW2 8684   3.045   6.648  10.485 -0.9947 -0.8251 -1.2316
 1931SOL     OW 8685   5.563  10.411   5.471 -0.5097  0.0617  0.2959
 1931SOL    HW1 8686   5.625  10.484   5.469 -1.0237  0.4890 -0.8030
 1931SOL    HW2 8687   5.502  10.429   5.400 -0.2213 -1.8008 -0.5005
 1932SOL     OW 8688   1.741   3.692   9.782 -0.1169  0.0480  0.2591
 1932SOL    HW1 8689   1.701   3.624   9.835 -0.4493  1.1119  1.4184
 1932SOL    HW2 8690   1.668   3.738   9.741 -0.1611  1.7603  2.0910
 1933SOL     OW 8691   1.652   2.323   2.392 -0.6043 -0.0490  0.6560
 1933SOL    HW1 8692   1.742   2.292   2.406 -0.3277 -0.1345 -1.0874
 1933SOL    HW2 8693   1.624   2.280   2.311 -0.7711  2.9347 -1.0443
 1934SOL     OW 8694   9.762   6.006   4.842  0.1941 -0.0961  0.3649
 1934SOL    HW1 8695   9.763   6.097   4.872  0.1972  0.2475 -0.6478
 1934SOL    HW2 8696   9.687   6.001   4.783  0.0788 -0.8068  0.5618
 1935SOL     OW 8697   6.658   7.320   4.623  0.3090  0.1685 -0.4925
 1935SOL    HW1 8698   6.632   7.273   4.543  0.5360 -1.0944  0.1599
 1935SOL    HW2 8699   6.733   7.272   4.656  1.8414  2.1718 -0.8634
 1936SOL     OW 8700   9.971   0.328   0.989  0.6252 -0.0253  0.0491
 1936SOL    HW1 8701   9.955   0.249   0.936 -1.7130 -1.6276  2.8689
 1936SOL    HW2 8702  10.027   0.297   1.060  0.4693  1.1048  0.6807
 1937SOL     OW 8703   1.907   7.956   9.152 -0.0725  0.3995 -0.2469
 1937SOL    HW1 8704   1.974   7.896   9.184  0.1342 -0.7357 -2.5686
 1937SOL    HW2 8705   1.950   8.040   9.146  0.3511  0.2648  0.7730
 1938SOL     OW 8706   0.147   9.074   3.760 -0.0723  0.4145  0.1919
 1938SOL    HW1 8707   0.078   9.012   3.736  0.1204 -0.1668  1.0661
 1938SOL    HW2 8708   0.189   9.035   3.837  1.5872  0.4871 -0.6226
 1939SOL     OW 8709   7.110  10.575   4.237  0.4330  0.2520  0.0749
 1939SOL    HW1 8710   7.114  10.652   4.294 -0.4538  0.8678 -0.6785
 1939SOL    HW2 8711   7.018  10.548   4.238  0.3979  0.2645 -1.0333
 1940SOL     OW 8712   7.097   8.541   6.902 -0.4670 -0.4737  0.1472
 1940SOL    HW1 8713   7.116   8.628   6.867  1.5663 -0.4847  1.0754
 1940SOL    HW2 8714   7.069   8.490   6.825  0.1023  0.5149 -0.7445
 1941SOL     OW 8715  10.284   6.973   5.926 -0.2056  0.2624 -0.7241
 1941SOL    HW1 8716  10.282   6.962   5.831  1.5370  1.2459 -0.9210
 1941SOL    HW2 8717  10.354   6.914   5.955  1.5401  2.3031 -0.5017
 1942SOL     OW 8718   3.343   2.635   1.397 -0.3096  0.1810  0.0616
 1942SOL    HW1 8719   3.420   2.628   1.340  0.4637 -2.9792  1.2445
 1942SOL    HW2 8720   3.370   2.696   1.465 -0.1845  1.7556 -1.3252
 1943SOL     OW 8721   9.494   6.647   2.699 -0.0973 -0.1464  0.5001
 1943SOL    HW1 8722   9.512   6.730   2.657  1.3789 -1.5404 -1.8080
 1943SOL    HW2 8723   9.453   6.671   2.783 -0.9287  2.8128 -0.6359
 1944SOL     OW 8724   8.059   9.199  10.603  0.2444 -0.0061 -0.1464
 1944SOL    HW1 8725   8.043   9.180  10.510  1.2001 -0.0741 -0.3107
 1944SOL    HW2 8726   7.982   9.248  10.631 -0.4782 -0.7726 -0.7323
 1945SOL     OW 8727   1.034   2.640   3.889  0.4020 -0.5409  0.4756
 1945SOL    HW1 8728   1.117   2.607   3.921 -0.1748 -0.6101  1.9706
 1945SOL    HW2 8729   1.015   2.588   3.811  1.1345 -1.3932  0.8610
 1946SOL     OW 8730   5.223   5.019   5.594  0.1902 -0.2412  0.1969
 1946SOL    HW1 8731   5.175   5.097   5.567 -0.4583 -0.8860 -0.5571
 1946SOL    HW2 8732   5.282   5.050   5.664 -1.1874  0.5946  1.0306
 1947SOL     OW 8733   4.119   2.791   8.417  0.0834  0.1265  0.1606
 1947SOL    HW1 8734   4.104   2.885   8.426 -0.3407 -0.0354  1.2131
 1947SOL    HW2 8735   4.142   2.761   8.505 -1.3710 -1.0212  0.1923
 1948SOL     OW 8736   3.863   8.188   1.071  0.1117 -0.1539  0.2592
 1948SOL    HW1 8737   3.951   8.195   1.107 -0.0904 -1.9367  1.2304
 1948SOL    HW2 8738   3.853   8.095   1.049 -1.7032 -0.1100  0.6943
 1949SOL     OW 8739   9.922   7.873   2.222  0.0763  0.0865 -0.3270
 1949SOL    HW1 8740   9.954   7.795   2.176  1.4746  0.9300 -0.8309
 1949SOL    HW2 8741   9.833   7.886   2.188  0.3454 -0.4764 -1.2690
 1950SOL     OW 8742   1.561   1.943   5.571 -0.1031  0.5092  0.5313
 1950SOL    HW1 8743   1.624   1.945   5.642  2.5699  2.1036 -1.6846
 1950SOL    HW2 8744   1.535   1.851   5.565  1.6711 -0.1274  1.8331
 1951SOL     OW 8745   7.283   4.881   4.628  0.3915 -0.1183 -0.8139
 1951SOL    HW1 8746   7.232   4.800   4.630  1.2879 -0.7284  1.4405
 1951SOL    HW2 8747   7.371   4.852   4.602  0.1178  0.6114 -2.6952
 1952SOL     OW 8748   4.841   6.128   5.602 -0.4079  0.7816 -0.1447
 1952SOL    HW1 8749   4.915   6.108   5.544 -0.1281  2.4082 -0.4031
 1952SOL    HW2 8750   4.777   6.059   5.584  0.4828  0.1215 -0.9112
 1953SOL     OW 8751   5.649   0.408   5.803  0.3428 -0.2572 -0.3366
 1953SOL    HW1 8752   5.600   0.415   5.721  0.5449 -1.5089 -0.5714
 1953SOL    HW2 8753   5.713   0.480   5.798 -0.4839  0.4685 -0.6912
 1954SOL     OW 8754  10.133  10.433   2.703  0.2966  0.0859  0.2083
 1954SOL    HW1 8755  10.114  10.513   2.655  2.5794 -0.0524 -1.0455
 1954SOL    HW2 8756  10.152  10.368   2.635  2.4119 -0.4352  1.2100
 1955SOL     OW 8757   0.598   4.743   7.496 -0.6195 -0.2964 -0.3294
 1955SOL    HW1 8758   0.591   4.729   7.402  0.2546 -0.1772 -0.4171
 1955SOL    HW2 8759   0.547   4.673   7.535  0.2582 -1.2514 -0.8563
 1956SOL     OW 8760   1.660   9.943   3.298  0.2674 -0.0234 -0.2297
 1956SOL    HW1 8761   1.583   9.907   3.252  1.3164 -1.5685 -0.8648
 1956SOL    HW2 8762   1.667  10.033   3.266 -0.6881 -0.1735 -0.9193
 1957SOL     OW 8763   0.699   0.212   5.323  0.6811  0.7962  0.4538
 1957SOL    HW1 8764   0.716   0.142   5.260  1.0953  1.0039  0.3321
 1957SOL    HW2 8765   0.655   0.280   5.271 -1.4182 -0.0950  0.9433
 1958SOL     OW 8766   2.366   3.639   3.540 -0.3217  0.2618 -0.2082
 1958SOL    HW1 8767   2.392   3.623   3.630  0.6730 -0.4639 -0.6197
 1958SOL    HW2 8768   2.336   3.731   3.540 -2.3017 -0.3043  1.2774
 1959SOL     OW 8769   3.808   9.307   8.237  0.0900  0.4856  0.0505
 1959SOL    HW1 8770   3.746   9.328   8.167 -0.1205 -1.0903 -0.2883
 1959SOL    HW2 8771   3.757   9.314   8.318 -0.0598  0.8820 -0.0780
 1960SOL     OW 8772   8.119   6.018   5.117  0.0274  0.1826 -0.3962
 1960SOL    HW1 8773   8.127   6.035   5.211  2.8638  1.6098 -0.7793
 1960SOL    HW2 8774   8.049   5.953   5.110  0.2859 -0.5937  2.7541
 1961SOL     OW 8775   2.929   1.403   4.623 -0.3806  0.1860  0.9278
 1961SOL    HW1 8776   2.987   1.330   4.602 -0.6129  0.2059  0.1675
 1961SOL    HW2 8777   2.902   1.437   4.537 -0.7420  0.7867  1.2741
 1962SOL     OW 8778   5.879   5.013   8.355 -0.0259 -0.0129 -0.3639
 1962SOL    HW1 8779   5.954   5.036   8.410  0.9075 -2.1744 -0.6384
 1962SOL    HW2 8780   5.810   4.987   8.416 -0.5291  1.7456 -0.1223
 1963SOL     OW 8781   0.397   1.735   1.937 -0.6893  0.1866  0.3962
 1963SOL    HW1 8782   0.336   1.703   1.871 -0.7252 -0.8381  0.9040
 1963SOL    HW2 8783   0.376   1.828   1.946 -1.6657  0.0142  0.0134
 1964SOL     OW 8784   6.832  10.545   9.004  0.2990 -0.2482 -0.4484
 1964SOL    HW1 8785   6.782  10.475   8.962 -0.5461 -0.0342  0.1658
 1964SOL    HW2 8786   6.891  10.577   8.936  1.2333 -2.0304 -0.5414
 1965SOL     OW 8787   6.258   3.473  10.620  0.2676 -0.6366 -0.3270
 1965SOL    HW1 8788   6.292   3.467  10.530 -1.9079  0.0291 -1.2478
 1965SOL    HW2 8789   6.195   3.401  10.626 -1.6475  0.9623 -0.3296
 1966SOL     OW 8790   2.307   6.577   8.855 -0.2819  0.2356 -0.1377
 1966SOL    HW1 8791   2.225   6.540   8.888 -1.0003  1.0439 -0.9626
 1966SOL    HW2 8792   2.318   6.659   8.903  1.1129 -0.8004  1.4149
 1967SOL     OW 8793   3.500   7.519   8.959 -0.0834 -0.3918 -0.3873
 1967SOL    HW1 8794   3.458   7.535   8.875  0.6710 -0.6343 -0.8198
 1967SOL    HW2 8795   3.502   7.424   8.968  2.5660 -0.5547 -1.5673
 1968SOL     OW 8796   7.251   7.707   9.495 -1.1028 -0.8977  0.1762
 1968SOL    HW1 8797   7.287   7.668   9.414  2.4540  0.8140  0.7371
 1968SOL    HW2 8798   7.250   7.635   9.557  0.3610 -1.3405 -0.2519
 1969SOL     OW 8799   6.809   5.021   7.927 -0.0310 -0.3760 -0.1557
 1969SOL    HW1 8800   6.772   4.955   7.868  0.2256 -0.2823 -0.4207
 1969SOL    HW2 8801   6.897   4.990   7.946 -0.8851 -1.7019  2.1321
 1970SOL     OW 8802   8.060   8.369   0.928 -0.2873  0.3868  0.5716
 1970SOL    HW1 8803   7.983   8.322   0.897 -0.3703  0.1340  1.1548
 1970SOL    HW2 8804   8.067   8.345   1.020  2.2757 -2.0332 -0.1375
 1971SOL     OW 8805   8.957   5.445   2.150  0.8783 -0.3281 -0.5166
 1971SOL    HW1 8806   8.888   5.507   2.127  0.6632 -0.1290  0.6351
 1971SOL    HW2 8807   9.032   5.472   2.097  0.9439  1.2197  0.3260
 1972SOL     OW 8808   6.017   5.110   1.361  0.0378  0.5543  0.0510
 1972SOL    HW1 8809   5.936   5.064   1.381  1.2595 -1.3029  1.0547
 1972SOL    HW2 8810   6.037   5.085   1.271 -0.2954  0.6902 -0.0606
 1973SOL     OW 8811   3.878   8.004   0.397  0.2146  0.7749 -0.3030
 1973SOL    HW1 8812   3.814   7.938   0.425  0.2769  0.3329 -1.1707
 1973SOL    HW2 8813   3.827   8.084   0.387  0.2448  1.0490  1.3816
 1974SOL     OW 8814   6.554   2.678   6.586  0.2396 -0.1099 -0.6688
 1974SOL    HW1 8815   6.515   2.701   6.501 -1.5394  0.6139  0.2934
 1974SOL    HW2 8816   6.615   2.607   6.565  0.7444  0.8508 -2.7171
 1975SOL     OW 8817   2.825   7.946   2.512  0.0447 -0.1901  0.2832
 1975SOL    HW1 8818   2.759   7.933   2.444  2.0382 -0.3824 -1.7342
 1975SOL    HW2 8819   2.838   8.040   2.516  1.7366 -0.2808 -1.5546
 1976SOL     OW 8820   1.599   6.353   0.274 -0.7642  0.1939  0.5441
 1976SOL    HW1 8821   1.529   6.289   0.290 -1.7789  1.3837  1.0741
 1976SOL    HW2 8822   1.569   6.432   0.320  1.6349  0.3155  2.0600
 1977SOL     OW 8823   5.958   8.836   9.143 -0.2721  0.3295 -0.3387
 1977SOL    HW1 8824   5.864   8.845   9.128 -0.6940 -3.7432 -1.1968
 1977SOL    HW2 8825   5.995   8.816   9.057  1.3699  1.4167  0.0611
 1978SOL     OW 8826   3.652   7.348   6.520  0.2812 -0.4494  0.1264
 1978SOL    HW1 8827   3.565   7.390   6.519  1.1793  1.5249  0.3301
 1978SOL    HW2 8828   3.642   7.271   6.464 -1.5863 -0.2482  0.1037
 1979SOL     OW 8829   6.332   6.136   4.317  0.1525 -0.3818 -0.1613
 1979SOL    HW1 8830   6.250   6.089   4.331  0.1303 -1.0389 -2.2140
 1979SOL    HW2 8831   6.308   6.213   4.266  0.7919 -0.5934 -0.8005
 1980SOL     OW 8832   4.262   2.599   1.480 -0.4670 -0.2785  0.5073
 1980SOL    HW1 8833   4.331   2.532   1.482 -0.4164 -0.2527 -0.2378
 1980SOL    HW2 8834   4.275   2.644   1.396 -2.3314 -1.2519 -0.3435
 1981SOL     OW 8835   9.978  10.068   0.914 -0.1041  0.0416 -0.0673
 1981SOL    HW1 8836   9.950  10.118   0.837 -1.0353 -0.9238 -0.3818
 1981SOL    HW2 8837   9.929  10.107   0.987  1.3356  1.4511  0.2072
 1982SOL     OW 8838   8.641  10.329   0.235 -0.1711  0.1857  0.1936
 1982SOL    HW1 8839   8.689  10.391   0.180  1.4897 -1.0393  0.1930
 1982SOL    HW2 8840   8.623  10.254   0.178 -1.8751  0.4885  0.2822
 1983SOL     OW 8841   4.814   9.141   8.229 -0.0103 -0.2066 -0.1588
 1983SOL    HW1 8842   4.770   9.189   8.299 -0.2105  0.0090 -0.4307
 1983SOL    HW2 8843   4.743   9.104   8.177  0.1382 -0.3066 -0.2914
 1984SOL     OW 8844   8.288   3.066   3.622  0.9056  0.5367  0.5860
 1984SOL    HW1 8845   8.246   3.085   3.538 -1.1679  0.0889  1.4411
 1984SOL    HW2 8846   8.287   3.150   3.668  0.8707  0.5100  0.6346
 1985SOL     OW 8847   6.058   8.586   2.248 -0.4669 -0.4508 -0.1137
 1985SOL    HW1 8848   6.151   8.573   2.230 -0.2121  1.6070 -0.5282
 1985SOL    HW2 8849   6.036   8.519   2.312  0.7072 -2.5079 -1.7195
 1986SOL     OW 8850   9.628   7.187  10.233 -0.6422  0.0300  0.5783
 1986SOL    HW1 8851   9.682   7.175  10.156 -0.5053 -0.1515  0.7026
 1986SOL    HW2 8852   9.612   7.099  10.266 -0.2662  0.1372  1.0538
 1987SOL     OW 8853   3.583   2.476   9.424 -1.1228  0.2121  0.4347
 1987SOL    HW1 8854   3.594   2.427   9.342  1.2451  1.0888  0.1597
 1987SOL    HW2 8855   3.492   2.458   9.450 -0.9471 -2.7853 -0.6083
 1988SOL     OW 8856   8.294  10.668   4.621  0.2948 -0.3018 -0.5390
 1988SOL    HW1 8857   8.372  10.715   4.592  0.1463  1.3657  1.5026
 1988SOL    HW2 8858   8.327  10.585   4.655  1.0943  0.0844 -0.3517
 1989SOL     OW 8859  10.582   6.548   3.668  0.2085 -0.3443  0.0096
 1989SOL    HW1 8860  10.574   6.636   3.706 -0.3896 -0.4996  0.2534
 1989SOL    HW2 8861  10.567   6.561   3.575  0.3332 -0.1555  0.0149
 1990SOL     OW 8862   5.364   5.704   1.583  0.0619 -0.2216  0.2335
 1990SOL    HW1 8863   5.404   5.787   1.556 -2.0460  0.7292 -0.1685
 1990SOL    HW2 8864   5.404   5.638   1.526  0.2649  0.8256 -0.8650
 1991SOL     OW 8865  10.051   1.477   9.383  0.3405 -0.7383 -0.3217
 1991SOL    HW1 8866  10.069   1.550   9.322 -1.1221 -2.0337 -2.4434
 1991SOL    HW2 8867  10.075   1.399   9.333 -3.1981 -2.0101 -0.2327
 1992SOL     OW 8868   5.380   8.800   2.718  0.1240  0.2379 -0.0085
 1992SOL    HW1 8869   5.336   8.864   2.774  1.3286  0.5951  0.5526
 1992SOL    HW2 8870   5.370   8.717   2.764 -0.8411  0.1116 -0.4010
 1993SOL     OW 8871   8.445   1.535   2.812 -0.7616 -0.0304  0.0067
 1993SOL    HW1 8872   8.391   1.591   2.756 -1.3387 -0.0907  0.4960
 1993SOL    HW2 8873   8.383   1.496   2.874 -0.3556 -1.1515 -0.2742
 1994SOL     OW 8874   1.574   7.063   4.539 -0.0099  0.1641 -0.1460
 1994SOL    HW1 8875   1.496   7.101   4.581 -1.3405 -2.3522 -0.1234
 1994SOL    HW2 8876   1.539   7.003   4.473  1.9586 -0.3312 -0.8069
 1995SOL     OW 8877   6.241   1.331   6.511 -0.7726  0.6170 -0.5897
 1995SOL    HW1 8878   6.168   1.349   6.452 -0.1712  1.2472 -1.1390
 1995SOL    HW2 8879   6.279   1.416   6.531 -1.1413  0.4617  0.9569
 1996SOL     OW 8880   2.308   8.563   9.612  0.3000  0.0385  0.2792
 1996SOL    HW1 8881   2.373   8.543   9.680  1.4252  2.9632  0.1882
 1996SOL    HW2 8882   2.223   8.554   9.657  0.8571 -1.0586  1.1847
 1997SOL     OW 8883   8.008   4.655   2.808 -0.3990 -0.0603 -0.1778
 1997SOL    HW1 8884   8.034   4.583   2.865 -0.2959  0.1811  0.0823
 1997SOL    HW2 8885   8.071   4.654   2.737 -0.4212 -0.2520 -0.1943
 1998SOL     OW 8886   8.614   6.090   3.222 -0.0475 -0.0512  0.1535
 1998SOL    HW1 8887   8.585   6.035   3.295  4.0157 -1.6824  0.8508
 1998SOL    HW2 8888   8.592   6.179   3.249 -2.1877 -0.9171  1.4673
 1999SOL     OW 8889   8.036   4.546   8.532 -0.0372  0.3860  0.0873
 1999SOL    HW1 8890   7.983   4.531   8.610 -1.5689  0.5672 -0.8736
 1999SOL    HW2 8891   7.980   4.600   8.476  0.4430 -0.9340 -1.7384
 2000SOL     OW 8892   2.385   0.351   0.589 -0.2518 -0.5239  0.8315
 2000SOL    HW1 8893   2.467   0.312   0.619  0.8099  1.7620  1.1219
 2000SOL    HW2 8894   2.401   0.371   0.497 -0.1432  0.6668  1.0928
 2001SOL     OW 8895   6.140   4.648   3.542 -0.0707  0.3168 -0.5187
 2001SOL    HW1 8896   6.093   4.566   3.555 -0.3594 -0.0094 -3.0673
 2001SOL    HW2 8897   6.223   4.622   3.501  0.7231  1.1868  0.4616
 2002SOL     OW 8898   4.372   2.287   7.691 -0.0510  0.2368 -0.2577
 2002SOL    HW1 8899   4.285   2.277   7.731  0.0541 -1.9318 -0.4152
 2002SOL    HW2 8900   4.419   2.346   7.750 -0.9268 -0.3768  1.1218
 2003SOL     OW 8901   6.576   7.929  10.470 -0.6946 -0.3581 -0.3497
 2003SOL    HW1 8902   6.538   7.946  10.384  0.4703  1.0485 -0.6227
 2003SOL    HW2 8903   6.514   7.868  10.512 -1.0830 -1.3805 -2.2995
 2004SOL     OW 8904   2.841   3.156   0.605 -0.3547  0.2525 -0.2398
 2004SOL    HW1 8905   2.784   3.232   0.598  0.0261  0.7100  1.2598
 2004SOL    HW2 8906   2.789   3.091   0.652 -0.2939 -0.0283 -0.5532
 2005SOL     OW 8907   9.467   2.388   6.869  0.2539  0.0623 -0.1521
 2005SOL    HW1 8908   9.520   2.466   6.854 -0.3747  0.4814 -0.1830
 2005SOL    HW2 8909   9.388   2.420   6.912 -1.2711 -0.1796 -2.6084
 2006SOL     OW 8910   3.535   7.315   8.274 -0.0063  0.4084 -0.3650
 2006SOL    HW1 8911   3.611   7.329   8.218  1.8872 -0.6229  1.7951
 2006SOL    HW2 8912   3.562   7.246   8.335 -3.2199 -1.1287 -0.4564
 2007SOL     OW 8913   8.762   4.983   2.553 -0.1422 -0.1604  0.2595
 2007SOL    HW1 8914   8.815   4.912   2.519  0.8047  0.4825  0.3439
 2007SOL    HW2 8915   8.672   4.953   2.544  0.0721 -0.3097 -2.1820
 2008SOL     OW 8916   1.538   7.376   5.882  0.3156  0.2180  0.3636
 2008SOL    HW1 8917   1.464   7.421   5.841  0.8289  0.7927  0.0698
 2008SOL    HW2 8918   1.566   7.311   5.818  0.1704  0.0972  0.4180
 2009SOL     OW 8919   5.343   0.664   7.437  0.1278 -0.2203  0.6582
 2009SOL    HW1 8920   5.372   0.743   7.483  1.4459 -1.1105  1.3997
 2009SOL    HW2 8921   5.397   0.662   7.357  0.7385 -0.8220  1.0729
 2010SOL     OW 8922   9.140   4.145   0.050 -0.7502  0.1272  0.0932
 2010SOL    HW1 8923   9.117   4.168   0.141  0.5427 -1.3007  0.8332
 2010SOL    HW2 8924   9.215   4.200   0.029  0.2060 -0.9325  0.6393
 2011SOL     OW 8925   2.569   4.163  10.436  0.6718  0.2350 -0.1942
 2011SOL    HW1 8926   2.577   4.159  10.531 -0.9910 -1.0653 -0.0784
 2011SOL    HW2 8927   2.553   4.256  10.417 -0.6977  0.2617  0.9715
 2012SOL     OW 8928   2.351   4.210   7.434 -0.0950 -0.7245 -0.1106
 2012SOL    HW1 8929   2.270   4.210   7.382 -1.9278  0.6336  2.5269
 2012SOL    HW2 8930   2.355   4.298   7.473  2.9309 -0.5974 -0.4338
 2013SOL     OW 8931   8.631   9.860   7.436  0.6720 -0.4459  0.0914
 2013SOL    HW1 8932   8.661   9.905   7.515  0.4483 -1.6418  0.8755
 2013SOL    HW2 8933   8.650   9.768   7.451 -0.7688 -0.8982 -0.5929
 2014SOL     OW 8934   3.689   5.932   7.366  0.2841 -0.2717 -0.6616
 2014SOL    HW1 8935   3.600   5.897   7.367 -0.7509  2.1416 -0.4763
 2014SOL    HW2 8936   3.721   5.920   7.456 -0.0175 -0.7250 -0.6116
 2015SOL     OW 8937  10.069   0.937   9.868 -0.4536  0.4497  0.0131
 2015SOL    HW1 8938  10.145   0.994   9.874 -0.4922  0.5611 -0.5171
 2015SOL    HW2 8939  10.061   0.916   9.775 -0.8696  0.1695  0.1066
 2016SOL     OW 8940   7.232  10.050   0.039 -0.3049 -0.2547 -0.2279
 2016SOL    HW1 8941   7.169   9.987   0.003  0.4581 -1.0770 -0.1784
 2016SOL    HW2 8942   7.303  10.052  -0.025  0.1583 -0.2382  0.2790
 2017SOL     OW 8943   3.445  10.719  10.101  0.2186  0.2390  0.3411
 2017SOL    HW1 8944   3.453  10.772  10.181 -2.4131 -1.5093  1.9313
 2017SOL    HW2 8945   3.379  10.764  10.049  0.3587  0.2209  0.1466
 2018SOL     OW 8946  10.669   6.118   2.979 -0.5689  0.2811 -0.2768
 2018SOL    HW1 8947  10.727   6.080   3.045 -1.9099  0.4991  1.0679
 2018SOL    HW2 8948  10.709   6.203   2.958  0.4134 -0.2230 -0.5403
 2019SOL     OW 8949   7.749   2.939   0.044 -0.1120  0.4027 -0.3715
 2019SOL    HW1 8950   7.830   2.976   0.079  0.6688 -0.2536 -1.4167
 2019SOL    HW2 8951   7.755   2.954  -0.050 -0.7525 -0.5110 -0.5665
 2020SOL     OW 8952   4.562   5.697   4.882 -0.6102  0.0066  0.5457
 2020SOL    HW1 8953   4.638   5.660   4.837  0.4066  0.0900  2.1266
 2020SOL    HW2 8954   4.565   5.791   4.861 -0.5384 -0.0657  0.2324
 2021SOL     OW 8955   0.660   1.322   2.541  0.2719 -0.2167 -0.5123
 2021SOL    HW1 8956   0.630   1.403   2.500  1.4277 -0.0931 -1.1496
 2021SOL    HW2 8957   0.701   1.350   2.622  0.5496 -0.1763 -0.6665
 2022SOL     OW 8958   2.591   6.973   6.440  0.2422  0.5875  0.6920
 2022SOL    HW1 8959   2.524   6.963   6.372  0.8160  0.9697  0.0541
 2022SOL    HW2 8960   2.569   6.906   6.505 -1.7258  1.7686  1.3273
 2023SOL     OW 8961   8.945   9.032  10.443  0.5173 -0.0726 -0.0514
 2023SOL    HW1 8962   8.882   8.982  10.495  1.2023 -0.6594  0.2389
 2023SOL    HW2 8963   8.910   9.029  10.354 -1.5017  2.2803  0.5520
 2024SOL     OW 8964   9.982   1.859   8.449 -0.6904  0.2914  0.1280
 2024SOL    HW1 8965  10.004   1.888   8.537 -0.4486 -2.7928  1.1816
 2024SOL    HW2 8966   9.905   1.910   8.426 -0.6604  1.2873  2.0420
 2025SOL     OW 8967   8.332   5.828   6.327 -0.0515  0.5146 -0.4387
 2025SOL    HW1 8968   8.407   5.780   6.362 -0.8917  0.2770  1.1573
 2025SOL    HW2 8969   8.360   5.919   6.324  0.7883  0.2390 -1.2950
 2026SOL     OW 8970   6.642   9.351   5.913 -0.3488  0.2346 -0.3760
 2026SOL    HW1 8971   6.587   9.391   5.846  1.3892  1.7898 -0.9396
 2026SOL    HW2 8972   6.708   9.301   5.865 -1.1866 -1.6066  0.2878
 2027SOL     OW 8973   2.893   8.099   4.306  0.0293 -0.0626 -0.2997
 2027SOL    HW1 8974   2.828   8.043   4.348  0.4132 -0.8626 -0.7426
 2027SOL    HW2 8975   2.858   8.115   4.218 -0.6638  1.4188  0.2155
 2028SOL     OW 8976   1.384   5.697   8.678  0.4798  0.4272  0.0169
 2028SOL    HW1 8977   1.399   5.602   8.677 -1.5003  0.0702 -0.1428
 2028SOL    HW2 8978   1.359   5.718   8.587  1.7223  1.2615 -0.1436
 2029SOL     OW 8979   3.427  10.036   9.316 -0.0219  0.3960 -0.0723
 2029SOL    HW1 8980   3.498   9.975   9.336  1.6277  1.8276 -1.2457
 2029SOL    HW2 8981   3.356   9.981   9.284  0.1687 -1.1622  1.9375
 2030SOL     OW 8982   6.034   5.921   7.455 -0.2201 -0.4717 -0.1804
 2030SOL    HW1 8983   6.088   5.897   7.380  1.0894  1.2221  0.1751
 2030SOL    HW2 8984   6.060   5.860   7.524 -2.0036 -2.5910 -1.2143
 2031SOL     OW 8985   2.860   9.696   1.776 -0.4401 -0.2158 -0.7493
 2031SOL    HW1 8986   2.819   9.621   1.732  1.4499 -2.5503  1.1997
 2031SOL    HW2 8987   2.931   9.721   1.718 -0.1367 -0.9759 -0.7260
 2032SOL     OW 8988   3.713   6.881   5.077  0.0058  0.3404 -0.7258
 2032SOL    HW1 8989   3.785   6.884   5.140  0.2752  1.4269 -1.0633
 2032SOL    HW2 8990   3.635   6.904   5.128  0.1625  0.8436 -0.7136
 2033SOL     OW 8991   7.045   1.401   3.957 -0.4024 -0.5151 -0.2737
 2033SOL    HW1 8992   7.139   1.422   3.962  0.0812 -2.4131 -0.5631
 2033SOL    HW2 8993   7.005   1.481   3.921  1.3378 -0.1968 -1.6877
 2034SOL     OW 8994   2.391   0.375   0.028 -0.1119  0.6604 -0.0142
 2034SOL    HW1 8995   2.438   0.352  -0.052  0.9837 -0.4096  0.8943
 2034SOL    HW2 8996   2.299   0.370   0.004  0.2006  1.0255 -1.3706
 2035SOL     OW 8997   1.373   9.247   3.166 -0.3424  0.1657 -0.6556
 2035SOL    HW1 8998   1.320   9.326   3.159 -1.5088 -0.4903  0.3990
 2035SOL    HW2 8999   1.462   9.276   3.149 -0.8060  1.6248 -0.6990
 2036SOL     OW 9000   7.081   6.639   5.983 -0.2705  0.0502 -0.3111
 2036SOL    HW1 9001   7.101   6.725   5.947 -3.3829  0.6572 -0.8866
 2036SOL    HW2 9002   7.122   6.638   6.069 -0.4929  2.2754 -0.1410
 2037SOL     OW 9003   9.826   2.307   1.308 -0.3127 -0.8186 -0.2705
 2037SOL    HW1 9004   9.809   2.397   1.334 -1.2456 -0.6320 -1.4717
 2037SOL    HW2 9005   9.851   2.312   1.216 -0.3927 -1.7911 -0.3586
 2038SOL     OW 9006   7.783   7.557   4.779 -0.7497 -0.9618  0.8119
 2038SOL    HW1 9007   7.727   7.564   4.702  0.8910  2.1505 -0.2770
 2038SOL    HW2 9008   7.740   7.610   4.846 -0.0409 -0.0558  0.5651
 2039SOL     OW 9009   3.409   9.229   5.979 -0.5232 -0.1293  0.1811
 2039SOL    HW1 9010   3.355   9.298   5.942 -0.5454 -0.5705 -0.6222
 2039SOL    HW2 9011   3.396   9.236   6.074 -1.0071  0.5610  0.0641
 2040SOL     OW 9012   7.694   3.208   6.860 -0.0917  0.0377 -0.1251
 2040SOL    HW1 9013   7.745   3.286   6.883 -0.6949  0.4014 -0.0074
 2040SOL    HW2 9014   7.742   3.135   6.900  0.2339  0.3976  0.1473
 2041SOL     OW 9015   1.582   0.046   1.784  0.2531  0.1839 -0.3430
 2041SOL    HW1 9016   1.660   0.092   1.814  1.1423 -1.0160 -0.7600
 2041SOL    HW2 9017   1.584  -0.038   1.829 -0.7561  0.0997 -0.4301
 2042SOL     OW 9018   8.957   2.013   1.054  0.1550 -0.3939  0.4148
 2042SOL    HW1 9019   8.927   2.082   0.995  0.4284 -0.6776 -0.0589
 2042SOL    HW2 9020   8.891   2.011   1.123 -1.2957 -1.4459 -0.9282
 2043SOL     OW 9021   7.156   3.785  10.536 -0.4711 -0.2187  0.2380
 2043SOL    HW1 9022   7.219   3.828  10.479 -0.3766  0.3302  0.7534
 2043SOL    HW2 9023   7.089   3.851  10.554 -0.8847 -0.6098  0.1819
 2044SOL     OW 9024   0.481   2.768   6.766  0.1923 -0.1015 -0.0522
 2044SOL    HW1 9025   0.572   2.772   6.795  0.4484 -1.0631 -0.6872
 2044SOL    HW2 9026   0.486   2.733   6.677 -0.7039  1.1273 -0.6100
 2045SOL     OW 9027   7.627   0.148   9.432  0.6425 -0.2926  0.1326
 2045SOL    HW1 9028   7.639   0.143   9.527 -0.1328  0.9365  0.3218
 2045SOL    HW2 9029   7.534   0.129   9.420 -0.2677  3.3748  0.0712
 2046SOL     OW 9030   3.963   1.838   7.155 -0.8418 -0.6442  0.1134
 2046SOL    HW1 9031   3.869   1.836   7.172 -0.7829  1.6374  1.1423
 2046SOL    HW2 9032   3.974   1.905   7.087  0.2153  1.9178  2.5815
 2047SOL     OW 9033   5.558   1.298   8.670 -0.2492  0.2427  0.0463
 2047SOL    HW1 9034   5.494   1.231   8.695 -2.6058  1.7717 -1.5016
 2047SOL    HW2 9035   5.595   1.266   8.587  0.5709 -0.3492  0.6295
 2048SOL     OW 9036   8.353   6.452   7.617 -0.8750  0.2662  0.0972
 2048SOL    HW1 9037   8.315   6.535   7.587 -0.9010  0.0257 -0.5751
 2048SOL    HW2 9038   8.278   6.392   7.621 -0.6564 -0.0847 -0.7755
 2049SOL     OW 9039   8.960   0.699   1.682 -0.0873  0.1727 -0.6175
 2049SOL    HW1 9040   9.007   0.778   1.710  0.0785 -0.0484 -0.2698
 2049SOL    HW2 9041   9.027   0.644   1.643 -0.2850  0.3990 -1.2999
 2050SOL     OW 9042  10.396   4.723   5.592 -0.5937 -0.0053 -0.6354
 2050SOL    HW1 9043  10.436   4.650   5.544  2.0851  0.0678  1.3015
 2050SOL    HW2 9044  10.330   4.681   5.648  0.4707 -0.8924 -0.0088
 2051SOL     OW 9045   7.681   9.242   8.352  0.1025  0.4032  0.0718
 2051SOL    HW1 9046   7.748   9.240   8.420  1.3802  0.3768 -1.1443
 2051SOL    HW2 9047   7.616   9.304   8.384  1.3795  1.4718  0.6967
 2052SOL     OW 9048   5.798   4.902   2.439 -0.4056 -0.0214 -0.6769
 2052SOL    HW1 9049   5.842   4.906   2.354 -2.3600  0.6591 -1.7033
 2052SOL    HW2 9050   5.829   4.980   2.486 -0.5950  0.5206 -1.4371
 2053SOL     OW 9051   4.100   1.609   6.849 -0.4588 -0.1174 -0.3963
 2053SOL    HW1 9052   4.043   1.566   6.912  0.3462  1.4851  1.5352
 2053SOL    HW2 9053   4.057   1.692   6.831  0.8113  0.7849  0.5070
 2054SOL     OW 9054   2.952   0.816   9.028 -0.1863 -0.5376  0.0032
 2054SOL    HW1 9055   3.034   0.864   9.036 -1.8934  2.3122  1.9342
 2054SOL    HW2 9056   2.953   0.754   9.101 -0.0053 -0.1208  0.3571
 2055SOL     OW 9057   5.422   1.431   0.900 -0.6070  0.2621  0.4064
 2055SOL    HW1 9058   5.329   1.454   0.896 -0.2537  1.6603 -0.6097
 2055SOL    HW2 9059   5.446   1.445   0.992 -1.4647 -0.4648  0.7534
 2056SOL     OW 9060   8.838   9.036   6.373 -0.2668  0.0670 -0.1934
 2056SOL    HW1 9061   8.929   9.009   6.381 -0.0005 -0.8536 -4.1412
 2056SOL    HW2 9062   8.792   8.958   6.342 -2.0021  1.0317 -0.1989
 2057SOL     OW 9063   8.522   8.019  10.546  0.9566 -0.4733 -0.3329
 2057SOL    HW1 9064   8.514   8.094  10.486  0.2202  2.6692  3.2839
 2057SOL    HW2 9065   8.616   8.001  10.549  1.1745  0.4017 -1.2404
 2058SOL     OW 9066   0.424   4.027   0.850  0.0054 -0.0156  0.2071
 2058SOL    HW1 9067   0.354   4.017   0.914  0.3349  0.2052  0.6038
 2058SOL    HW2 9068   0.422   3.946   0.799 -0.2281 -0.2098  0.5236
 2059SOL     OW 9069   0.554  10.277   5.594 -0.5227 -0.4084 -0.4370
 2059SOL    HW1 9070   0.477  10.242   5.638  0.7862 -0.5495  1.8993
 2059SOL    HW2 9071   0.526  10.362   5.560 -1.5516 -0.1984  0.8706
 2060SOL     OW 9072   6.923   6.800   8.109  0.0376  0.4444  0.4346
 2060SOL    HW1 9073   6.906   6.799   8.014 -0.8342 -0.4744  0.5894
 2060SOL    HW2 9074   6.903   6.711   8.138 -0.7111  0.9866  1.6468
 2061SOL     OW 9075   0.403   0.292   7.732  0.5125  0.3699  0.3804
 2061SOL    HW1 9076   0.320   0.248   7.750 -0.3567  2.0273  0.6196
 2061SOL    HW2 9077   0.385   0.350   7.659  1.5417  0.5522  0.2537
 2062SOL     OW 9078   3.671  10.785   0.356 -0.0566 -0.3623 -0.2920
 2062SOL    HW1 9079   3.649  10.731   0.280 -2.8494 -0.7119  0.6218
 2062SOL    HW2 9080   3.643  10.733   0.431  1.1974  0.6083  0.9033
 2063SOL     OW 9081   8.832   0.379   2.431 -0.0598  0.5007  0.1245
 2063SOL    HW1 9082   8.823   0.292   2.392  0.1905  0.5873 -0.1266
 2063SOL    HW2 9083   8.926   0.393   2.438 -0.0886  0.2781  1.2293
 2064SOL     OW 9084   7.331   7.549   1.001 -0.5866  0.4558 -0.0196
 2064SOL    HW1 9085   7.328   7.459   0.968 -2.8695  1.3421 -2.5252
 2064SOL    HW2 9086   7.272   7.549   1.076  0.0828 -0.2641  0.5366
 2065SOL     OW 9087   4.376   5.861   6.163 -0.3572 -0.4849 -0.3673
 2065SOL    HW1 9088   4.307   5.913   6.121  1.5165  0.6039 -2.2652
 2065SOL    HW2 9089   4.409   5.917   6.233  0.4675  0.2137 -1.2843
 2066SOL     OW 9090   5.845   7.684   0.877 -0.4719 -0.2179 -0.7411
 2066SOL    HW1 9091   5.881   7.598   0.898  0.1061 -0.0530 -1.0406
 2066SOL    HW2 9092   5.865   7.696   0.784 -1.1984 -0.0727 -0.8856
 2067SOL     OW 9093   7.362   2.269   0.743 -0.4554 -0.3516 -0.1697
 2067SOL    HW1 9094   7.453   2.282   0.773 -0.6034 -1.3303  0.7494
 2067SOL    HW2 9095   7.331   2.194   0.793 -1.4157 -0.7399 -1.3217
 2068SOL     OW 9096   8.002   5.324   3.096 -0.7055 -0.0623  0.1860
 2068SOL    HW1 9097   7.973   5.260   3.161 -0.5168  1.5469  1.9720
 2068SOL    HW2 9098   7.923   5.374   3.075 -0.5620  0.0829 -0.0122
 2069SOL     OW 9099   6.753   5.139   4.939  0.2643  0.1289 -0.5467
 2069SOL    HW1 9100   6.843   5.138   4.906  0.1553  2.1014 -0.9970
 2069SOL    HW2 9101   6.702   5.098   4.869  1.0107 -3.2102  0.6581
 2070SOL     OW 9102   7.234   3.978   0.881 -0.1418  0.0183 -0.0507
 2070SOL    HW1 9103   7.223   3.906   0.820 -1.0952 -0.3101  0.4922
 2070SOL    HW2 9104   7.159   3.972   0.940 -0.5352  1.7473 -0.2973
 2071SOL     OW 9105  10.304   5.380   3.198 -0.2421  0.3567 -0.2051
 2071SOL    HW1 9106  10.260   5.314   3.145 -0.1249 -0.4454  0.6739
 2071SOL    HW2 9107  10.303   5.345   3.287 -0.1150  1.5105  0.2734
 2072SOL     OW 9108   4.763   7.259  10.159 -0.2103  0.3914 -0.3754
 2072SOL    HW1 9109   4.791   7.325  10.096 -0.3095 -1.4329 -2.4515
 2072SOL    HW2 9110   4.715   7.194  10.107 -0.2733 -1.2482  1.5745
 2073SOL     OW 9111   1.662   3.355   7.133  0.2053 -0.4302  0.1050
 2073SOL    HW1 9112   1.697   3.322   7.215  0.0019 -1.4213 -0.1959
 2073SOL    HW2 9113   1.582   3.402   7.158  0.7522  0.2644  0.5887
 2074SOL     OW 9114   8.837   4.623   5.622  0.0746 -0.5189  0.2321
 2074SOL    HW1 9115   8.782   4.686   5.576  0.6724  0.1611  0.4234
 2074SOL    HW2 9116   8.784   4.543   5.627 -0.2549 -0.3988 -1.0276
 2075SOL     OW 9117   6.945   8.501   2.973 -0.0589  0.0479 -0.1814
 2075SOL    HW1 9118   6.986   8.482   3.058  0.5299  1.2714 -0.1702
 2075SOL    HW2 9119   7.017   8.499   2.911 -0.4158 -0.3933 -0.5836
 2076SOL     OW 9120   8.312   5.538   1.927  0.1005 -0.2784 -0.3893
 2076SOL    HW1 9121   8.268   5.620   1.949 -1.2140 -0.9610 -0.3659
 2076SOL    HW2 9122   8.400   5.564   1.901 -1.1309  1.4654 -3.2693
 2077SOL     OW 9123   8.225   4.162   5.602 -0.0593 -0.2157  0.2258
 2077SOL    HW1 9124   8.173   4.089   5.634 -0.6490 -0.3094 -0.8794
 2077SOL    HW2 9125   8.164   4.236   5.599 -0.8180 -0.8170 -3.0648
 2078SOL     OW 9126   8.987   7.713   4.163 -0.1173  0.0470  0.2973
 2078SOL    HW1 9127   9.039   7.687   4.086 -0.9534 -0.9583  0.0436
 2078SOL    HW2 9128   8.936   7.788   4.132 -0.6848 -0.5448 -0.2571
 2079SOL     OW 9129   8.375   7.207   1.975 -0.2314  0.1524  0.2928
 2079SOL    HW1 9130   8.301   7.259   2.006 -0.5664  0.4950 -1.0245
 2079SOL    HW2 9131   8.341   7.160   1.898  0.4789 -0.8863  0.5919
 2080SOL     OW 9132   0.918  10.504   1.439  0.3294 -0.0671  0.1628
 2080SOL    HW1 9133   0.960  10.462   1.364  1.4668  2.3976 -0.6842
 2080SOL    HW2 9134   0.970  10.474   1.514 -0.0015 -1.5170 -0.1475
 2081SOL     OW 9135   6.831   6.636   7.002 -0.5929  0.9071 -0.0239
 2081SOL    HW1 9136   6.855   6.708   6.944 -1.1053  1.2786  0.2127
 2081SOL    HW2 9137   6.807   6.679   7.084 -1.7569  0.5399 -0.1584
 2082SOL     OW 9138   0.890   0.263   7.275  0.0295 -0.5887  0.0668
 2082SOL    HW1 9139   0.828   0.298   7.339  1.1239  0.3516  0.6515
 2082SOL    HW2 9140   0.946   0.338   7.253  1.5188 -1.6234  0.2282
 2083SOL     OW 9141   8.840   2.156   8.625 -0.1494 -0.6899 -0.2207
 2083SOL    HW1 9142   8.883   2.226   8.578 -0.9815  2.4359  3.1652
 2083SOL    HW2 9143   8.778   2.118   8.562  1.1086  0.8448 -2.5007
 2084SOL     OW 9144   4.922   0.606   0.726 -0.2022  0.2774 -0.2032
 2084SOL    HW1 9145   4.955   0.576   0.811  1.2973  0.4834 -0.6768
 2084SOL    HW2 9146   4.994   0.589   0.665 -1.1992  0.2539 -1.4182
 2085SOL     OW 9147   3.840   0.615   0.626 -0.4726 -0.4078  0.4647
 2085SOL    HW1 9148   3.773   0.680   0.645 -0.0672 -0.1221  0.9542
 2085SOL    HW2 9149   3.855   0.571   0.710  0.1373 -0.2851  0.4247
 2086SOL     OW 9150   0.140   8.881   2.882 -0.4793  0.0170 -0.2937
 2086SOL    HW1 9151   0.046   8.891   2.893 -0.4725  0.0397 -0.2550
 2086SOL    HW2 9152   0.170   8.964   2.846 -0.4620  0.0410 -0.2253
 2087SOL     OW 9153   1.529   0.262   9.072 -0.3686 -0.0879 -0.2559
 2087SOL    HW1 9154   1.524   0.167   9.067  0.5598 -0.1977  0.5770
 2087SOL    HW2 9155   1.595   0.287   9.008 -2.2356  0.2417 -2.1733
 2088SOL     OW 9156   5.390   8.075  10.616 -0.1169 -0.8161 -0.3838
 2088SOL    HW1 9157   5.302   8.093  10.649  0.4896  2.6805 -0.1962
 2088SOL    HW2 9158   5.434   8.030  10.688 -0.9217  0.1769  0.7704
 2089SOL     OW 9159   6.237   2.757   3.291  0.1266 -0.8013 -0.1716
 2089SOL    HW1 9160   6.252   2.667   3.261  1.5510 -0.4934 -0.4613
 2089SOL    HW2 9161   6.288   2.811   3.231 -1.8920  0.3560 -0.9254
 2090SOL     OW 9162   0.389   8.956   4.343  0.1105  0.2440  0.0194
 2090SOL    HW1 9163   0.388   9.045   4.378  0.5648  0.8738 -1.4780
 2090SOL    HW2 9164   0.348   8.903   4.411 -0.3449  1.6209  0.8674
 2091SOL     OW 9165   0.436   8.612   6.105  0.0875 -0.3277 -0.4906
 2091SOL    HW1 9166   0.358   8.557   6.112  0.4036 -0.8751 -1.1558
 2091SOL    HW2 9167   0.412   8.680   6.042  0.1631 -0.5195 -0.7257
 2092SOL     OW 9168   1.830  10.027  10.318 -0.0675 -0.1051 -0.3678
 2092SOL    HW1 9169   1.759  10.077  10.357 -1.0748 -0.8804 -1.1452
 2092SOL    HW2 9170   1.891  10.093  10.285 -0.2455  0.5657  0.6128
 2093SOL     OW 9171  10.567   7.991  10.272  0.0458  0.5568  0.5951
 2093SOL    HW1 9172  10.635   8.001  10.206 -0.5160  1.8318  0.1661
 2093SOL    HW2 9173  10.561   7.897  10.287  2.4702  0.4450  1.2908
 2094SOL     OW 9174   5.197   6.960   0.234  0.1176 -0.1864  0.2039
 2094SOL    HW1 9175   5.149   6.898   0.290 -0.6398  0.4058  0.2385
 2094SOL    HW2 9176   5.264   6.908   0.192 -0.4667 -1.0229  0.2853
 2095SOL     OW 9177  10.674   5.227   1.930 -0.1251 -0.1324  0.4035
 2095SOL    HW1 9178  10.733   5.300   1.912 -1.0419  0.5616  0.1471
 2095SOL    HW2 9179  10.598   5.243   1.874 -0.4512 -1.1484  0.5317
 2096SOL     OW 9180   1.186   4.628   4.935  0.4254 -0.2987 -0.5876
 2096SOL    HW1 9181   1.225   4.614   4.849 -0.4697 -1.2510 -0.8591
 2096SOL    HW2 9182   1.206   4.719   4.956  0.9464 -0.1527 -1.6475
 2097SOL     OW 9183  10.679   0.447   0.105  0.3985 -0.0735  0.1910
 2097SOL    HW1 9184  10.749   0.430   0.042  1.8826 -1.2974  2.0412
 2097SOL    HW2 9185  10.725   0.460   0.188 -1.5389  0.0128  1.3046
 2098SOL     OW 9186   1.036   5.586   3.625 -0.4095 -0.4995  0.0350
 2098SOL    HW1 9187   1.038   5.673   3.584 -2.8848  0.8104  2.3856
 2098SOL    HW2 9188   1.123   5.550   3.608  1.0869  2.8343 -0.2034
 2099SOL     OW 9189   3.928  10.053   9.409 -0.7645 -0.3086  0.3250
 2099SOL    HW1 9190   3.864  10.049   9.480 -1.0549  1.4087  0.2046
 2099SOL    HW2 9191   3.876  10.073   9.331 -0.1992  0.0987  0.0447
 2100SOL     OW 9192   1.876   8.149   6.322 -0.0003 -0.4332 -0.0299
 2100SOL    HW1 9193   1.836   8.229   6.288  1.5985 -0.0993 -1.2618
 2100SOL    HW2 9194   1.841   8.140   6.410 -0.6541  1.3198 -0.0691
 2101SOL     OW 9195   7.909   9.103   5.615  0.1797 -0.3423  0.4810
 2101SOL    HW1 9196   7.949   9.130   5.533 -1.4481 -0.6873 -0.4795
 2101SOL    HW2 9197   7.963   9.030   5.646 -0.5875 -1.9009 -1.6198
 2102SOL     OW 9198   3.578   0.657   7.478  0.0862  0.6119  0.0321
 2102SOL    HW1 9199   3.552   0.653   7.386  1.9827 -2.5604 -0.5368
 2102SOL    HW2 9200   3.514   0.603   7.524 -0.1926  1.2274  0.3635
 2103SOL     OW 9201   7.647   3.726   4.943 -0.5309  0.4199 -0.0860
 2103SOL    HW1 9202   7.706   3.748   5.015  0.8517 -1.1209 -0.6912
 2103SOL    HW2 9203   7.586   3.663   4.980 -0.5656  0.5228  0.0323
 2104SOL     OW 9204   4.490   6.888   9.321  0.5526 -0.2494  0.0216
 2104SOL    HW1 9205   4.558   6.838   9.275 -1.1874 -2.9535  0.1316
 2104SOL    HW2 9206   4.483   6.846   9.407  0.2884  1.4658  0.8753
 2105SOL     OW 9207   4.209  10.302   5.577 -0.0624  0.3172 -0.0833
 2105SOL    HW1 9208   4.195  10.215   5.614  1.7525 -0.2113 -0.5511
 2105SOL    HW2 9209   4.277  10.289   5.511 -1.4436  1.6732 -1.8602
 2106SOL     OW 9210   6.759   7.471   7.306 -0.2157  0.1188 -0.5239
 2106SOL    HW1 9211   6.669   7.503   7.307 -0.7129 -1.2213  0.1656
 2106SOL    HW2 9212   6.793   7.488   7.394 -0.3508 -0.8119 -0.2771
 2107SOL     OW 9213   4.815   0.276   0.170  0.2973 -0.3140 -0.0620
 2107SOL    HW1 9214   4.827   0.255   0.077  1.9003 -1.2090  0.3096
 2107SOL    HW2 9215   4.904   0.291   0.203  0.0435 -2.4269  1.8540
 2108SOL     OW 9216   5.057   0.251   7.052  0.2678 -0.0886 -0.0381
 2108SOL    HW1 9217   5.004   0.184   7.095  1.5473 -1.1038  0.0308
 2108SOL    HW2 9218   5.032   0.246   6.960  0.1150 -0.4369  0.0194
 2109SOL     OW 9219   1.949   1.712   8.858  0.1271 -0.4900  0.4599
 2109SOL    HW1 9220   2.018   1.745   8.915  0.6113  0.6743 -0.7443
 2109SOL    HW2 9221   1.871   1.709   8.914  0.9889 -1.1698  1.6551
 2110SOL     OW 9222   4.671   4.482   0.592 -0.1178 -0.0573 -0.0062
 2110SOL    HW1 9223   4.711   4.539   0.658  1.7769 -2.0985  0.7636
 2110SOL    HW2 9224   4.651   4.539   0.519  3.5480  1.3501 -0.1033
 2111SOL     OW 9225   3.273   8.495   9.034 -0.1583 -0.2372 -0.3081
 2111SOL    HW1 9226   3.195   8.513   9.087 -0.1936  2.3875 -1.0955
 2111SOL    HW2 9227   3.244   8.431   8.969 -0.7668 -1.6476  1.2806
 2112SOL     OW 9228   0.730   8.583   4.724 -0.2973  0.7974  1.2894
 2112SOL    HW1 9229   0.688   8.610   4.643 -3.7313 -0.5398  2.4543
 2112SOL    HW2 9230   0.719   8.658   4.783 -0.3378  0.7365  1.3602
 2113SOL     OW 9231   6.331   6.065   9.300  0.7289 -0.3349  0.0254
 2113SOL    HW1 9232   6.388   6.123   9.351  1.1163 -0.5821 -0.1129
 2113SOL    HW2 9233   6.353   6.085   9.209  0.7399 -0.5708 -0.0242
 2114SOL     OW 9234   5.270   5.888   3.635 -0.5982 -0.1595 -0.4867
 2114SOL    HW1 9235   5.198   5.949   3.617  0.9728  2.0095  0.0695
 2114SOL    HW2 9236   5.332   5.903   3.564  0.0173 -0.7767 -0.0911
 2115SOL     OW 9237   3.793   5.973   0.682 -0.6065 -0.2170  0.4090
 2115SOL    HW1 9238   3.775   5.988   0.775  0.0963 -0.1473  0.5351
 2115SOL    HW2 9239   3.819   5.882   0.676 -2.3055 -0.7164  0.0184
 2116SOL     OW 9240   8.403   1.373   5.025  0.3580 -0.1153  0.6980
 2116SOL    HW1 9241   8.489   1.410   5.005  1.3963 -2.4229  0.5010
 2116SOL    HW2 9242   8.418   1.319   5.103  0.2274 -3.8755 -1.6089
 2117SOL     OW 9243   1.732   8.426   1.024  0.2311 -0.1757 -0.1439
 2117SOL    HW1 9244   1.646   8.401   0.991  0.7683  1.1228 -2.8362
 2117SOL    HW2 9245   1.714   8.497   1.086 -0.7114 -1.2924  0.9179
 2118SOL     OW 9246   3.390   6.396  10.258 -0.2143  0.4661  0.2221
 2118SOL    HW1 9247   3.466   6.350  10.224  1.0472  2.8820 -0.4481
 2118SOL    HW2 9248   3.398   6.389  10.353 -0.1022 -0.7105  0.1389
 2119SOL     OW 9249   6.515   3.736   0.871 -0.3624 -0.7686 -0.3975
 2119SOL    HW1 9250   6.592   3.679   0.871  1.0453  1.0179 -0.9167
 2119SOL    HW2 9251   6.508   3.767   0.780 -1.0669 -0.0978 -0.1257
 2120SOL     OW 9252   5.309   3.179   9.055 -0.7232  0.3017  0.0897
 2120SOL    HW1 9253   5.273   3.230   9.128 -1.3628  1.5724 -1.0704
 2120SOL    HW2 9254   5.235   3.170   8.995 -1.1756 -3.5256  0.9667
 2121SOL     OW 9255   4.459   1.898  10.310  0.1269 -0.5282 -0.7838
 2121SOL    HW1 9256   4.462   1.977  10.257 -1.9441  0.0920 -0.0910
 2121SOL    HW2 9257   4.507   1.920  10.390  0.4997 -0.3570 -1.0573
 2122SOL     OW 9258   8.764   3.405   8.451 -0.4354  0.1176 -0.0008
 2122SOL    HW1 9259   8.704   3.370   8.517 -1.6079 -0.2816 -1.2445
 2122SOL    HW2 9260   8.807   3.328   8.414 -0.5819  0.2469 -0.4454
 2123SOL     OW 9261   0.577   8.554  10.342 -0.6759 -0.3000 -0.1079
 2123SOL    HW1 9262   0.631   8.628  10.316 -0.0977 -1.1706 -1.5270
 2123SOL    HW2 9263   0.619   8.519  10.420  0.2311 -0.3349 -0.5969
 2124SOL     OW 9264   9.299   0.445   4.846 -0.3709 -0.1753  0.3444
 2124SOL    HW1 9265   9.234   0.463   4.915 -2.1850 -0.0950 -1.2979
 2124SOL    HW2 9266   9.268   0.364   4.806  1.0866 -0.6183  0.0767
 2125SOL     OW 9267   8.756   0.723   7.848 -0.2252  0.0810 -0.0860
 2125SOL    HW1 9268   8.768   0.813   7.819  1.0284  0.1952  0.7020
 2125SOL    HW2 9269   8.728   0.676   7.769  0.9276  0.8155 -0.9740
 2126SOL     OW 9270   2.592   0.695   3.505  0.1024 -0.1571  0.4324
 2126SOL    HW1 9271   2.546   0.702   3.422  2.0972  0.1849 -0.7017
 2126SOL    HW2 9272   2.615   0.602   3.512  1.6919  0.1345 -0.4456
 2127SOL     OW 9273   6.710   3.021   6.994  0.4267  0.0779 -0.4359
 2127SOL    HW1 9274   6.685   2.996   7.083  1.0798  0.4635 -0.1283
 2127SOL    HW2 9275   6.740   2.940   6.953  1.3355  0.1112  0.1310
 2128SOL     OW 9276   2.906   5.413   8.435  0.5378  0.2886  0.0774
 2128SOL    HW1 9277   2.904   5.329   8.389 -0.7299  0.3577 -0.0138
 2128SOL    HW2 9278   2.934   5.391   8.524  0.6376 -0.1641 -0.0624
 2129SOL     OW 9279   5.289   1.775   7.664  0.5204 -0.4630  0.0974
 2129SOL    HW1 9280   5.361   1.730   7.620  0.4588 -0.7043  0.2391
 2129SOL    HW2 9281   5.332   1.834   7.726  0.5995 -0.5527  0.1291
 2130SOL     OW 9282   0.368   0.519   5.098 -0.3265 -0.1461  0.1950
 2130SOL    HW1 9283   0.399   0.496   5.185  0.0576 -2.1154 -0.4171
 2130SOL    HW2 9284   0.275   0.499   5.098  0.0285 -1.9888 -0.3713
 2131SOL     OW 9285   3.902   2.813  10.389  0.1112  0.4526  0.4294
 2131SOL    HW1 9286   3.894   2.863  10.470 -1.1549  0.6826  0.1842
 2131SOL    HW2 9287   3.847   2.860  10.326  0.9672  0.2104 -0.5417
 2132SOL     OW 9288   4.421   8.684   4.599  0.2592  0.2273  1.0056
 2132SOL    HW1 9289   4.412   8.630   4.677  0.8742 -1.7381 -0.1973
 2132SOL    HW2 9290   4.506   8.661   4.563 -0.7340 -0.3186 -1.1988
 2133SOL     OW 9291   6.436   8.647   1.955  0.1120 -0.1216  0.2212
 2133SOL    HW1 9292   6.395   8.639   2.042  0.2910  0.5152  0.3763
 2133SOL    HW2 9293   6.364   8.633   1.893  0.0562 -0.9440  0.4664
 2134SOL     OW 9294   4.255   0.518   8.676 -0.0487 -0.1401 -0.6243
 2134SOL    HW1 9295   4.335   0.467   8.669 -0.3944 -1.1696  2.0340
 2134SOL    HW2 9296   4.193   0.472   8.620  0.1115 -1.7441  0.4488
 2135SOL     OW 9297   8.965   8.372   9.616 -0.5529 -0.3505 -0.2723
 2135SOL    HW1 9298   8.985   8.319   9.693 -0.9594 -1.2141 -0.7455
 2135SOL    HW2 9299   8.889   8.329   9.577 -1.6745  1.2823 -0.0025
 2136SOL     OW 9300   2.337   1.478   9.910 -0.0589 -0.1138  0.4099
 2136SOL    HW1 9301   2.367   1.390   9.933  0.2714 -0.6936 -2.0155
 2136SOL    HW2 9302   2.273   1.465   9.841  0.6840  1.5683 -0.6822
 2137SOL     OW 9303   0.381   4.781   8.534 -0.3395  0.4993 -0.7925
 2137SOL    HW1 9304   0.403   4.834   8.456  2.4337  0.0796 -0.4264
 2137SOL    HW2 9305   0.431   4.822   8.605 -1.3805 -0.2113  0.3900
 2138SOL     OW 9306   9.409   0.389   6.173  0.5034  0.3153 -0.1181
 2138SOL    HW1 9307   9.344   0.342   6.226 -0.6964  0.1910 -1.6318
 2138SOL    HW2 9308   9.378   0.479   6.171  0.7721  0.4063 -0.2511
 2139SOL     OW 9309   5.484   9.025   7.600 -0.3791  0.2276  0.1454
 2139SOL    HW1 9310   5.410   8.985   7.554  0.4415 -0.7253 -0.4010
 2139SOL    HW2 9311   5.500   8.967   7.674 -0.8116  0.9919  0.8460
 2140SOL     OW 9312   9.012   4.962   2.283 -0.4903  0.3681 -0.3492
 2140SOL    HW1 9313   9.090   4.918   2.250 -1.9694 -0.4021 -3.0758
 2140SOL    HW2 9314   9.039   5.052   2.298  1.1313 -0.1040 -0.3195
 2141SOL     OW 9315   0.429   3.563   6.080 -0.1370  0.1416 -0.5033
 2141SOL    HW1 9316   0.435   3.620   6.004 -1.2494 -1.9713 -2.3060
 2141SOL    HW2 9317   0.335   3.561   6.101 -0.2425 -1.5270 -0.9634
 2142SOL     OW 9318  10.258   6.047   8.981  0.2328  0.0568  0.5467
 2142SOL    HW1 9319  10.234   5.960   9.013  1.6686  0.4185  2.8307
 2142SOL    HW2 9320  10.239   6.044   8.887 -2.1207 -1.8542  0.9719
 2143SOL     OW 9321   0.640   9.738   5.463  0.4653  0.0419 -0.2396
 2143SOL    HW1 9322   0.641   9.645   5.445  0.2414  0.0226 -0.1657
 2143SOL    HW2 9323   0.685   9.778   5.389  1.3805 -0.1924  0.1729
 2144SOL     OW 9324   7.655   2.824   2.253 -0.1244  0.0041  0.2101
 2144SOL    HW1 9325   7.644   2.778   2.337  0.2317 -1.6446 -0.5992
 2144SOL    HW2 9326   7.567   2.853   2.229 -0.4265 -0.6114  0.5540
 2145SOL     OW 9327   2.411   0.539   5.849  0.0651  0.0534 -0.5137
 2145SOL    HW1 9328   2.404   0.540   5.944  1.1545 -2.7326 -0.3243
 2145SOL    HW2 9329   2.407   0.632   5.824  0.5385  0.9187  2.2823
 2146SOL     OW 9330   8.349   9.533   3.769 -0.5567  0.0793  0.0509
 2146SOL    HW1 9331   8.286   9.584   3.820 -2.1290  1.4776 -2.9887
 2146SOL    HW2 9332   8.395   9.597   3.716 -0.1733 -1.3629 -1.4671
 2147SOL     OW 9333   1.043   9.308   6.127 -0.2222 -0.0291 -0.2670
 2147SOL    HW1 9334   1.074   9.239   6.186 -0.1458 -0.2810 -0.5972
 2147SOL    HW2 9335   1.004   9.373   6.185 -0.3497 -0.3799  0.0469
 2148SOL     OW 9336   8.020   2.100   9.486  0.1417 -0.3748  0.0728
 2148SOL    HW1 9337   8.000   2.017   9.442  1.1901 -1.7347  2.0463
 2148SOL    HW2 9338   7.965   2.100   9.565  1.4896 -0.0768  1.0422
 2149SOL     OW 9339   8.443   3.745   8.695  0.0600 -0.2196  0.1269
 2149SOL    HW1 9340   8.420   3.662   8.737  0.8882 -0.6928 -0.3051
 2149SOL    HW2 9341   8.535   3.734   8.671 -0.3909 -0.0243 -1.8772
 2150SOL     OW 9342   8.718   4.246   7.555  0.1001  0.0471 -0.4136
 2150SOL    HW1 9343   8.646   4.216   7.499  0.6886 -0.0956 -1.1016
 2150SOL    HW2 9344   8.779   4.173   7.557 -1.0322 -0.9970  2.4948
 2151SOL     OW 9345   7.011  10.667   8.796  0.1226  0.2006 -0.7910
 2151SOL    HW1 9346   7.057  10.711   8.725  0.7252  0.0140 -0.5204
 2151SOL    HW2 9347   7.045  10.577   8.796 -0.7079 -0.1220 -0.9970
 2152SOL     OW 9348   8.415   8.769   7.651 -0.0972  0.3377 -0.4058
 2152SOL    HW1 9349   8.351   8.827   7.693  0.0151 -0.2816  0.6648
 2152SOL    HW2 9350   8.466   8.734   7.724 -1.6973 -2.9779 -0.7237
 2153SOL     OW 9351   1.247   1.105   4.030  0.5932  0.1695  0.4403
 2153SOL    HW1 9352   1.285   1.019   4.048 -1.2047 -0.8591 -0.3680
 2153SOL    HW2 9353   1.170   1.109   4.088 -1.9747 -0.7921 -2.5858
 2154SOL     OW 9354   1.317   9.816   3.013  0.0568  0.0726  0.7848
 2154SOL    HW1 9355   1.374   9.747   3.045 -1.2404 -1.0458  0.8007
 2154SOL    HW2 9356   1.333   9.891   3.070  1.7368 -0.0751  0.5530
 2155SOL     OW 9357   0.525   2.443   7.729  0.3042 -0.1821  0.1586
 2155SOL    HW1 9358   0.449   2.491   7.763 -0.4539 -0.4875 -1.0614
 2155SOL    HW2 9359   0.492   2.397   7.653  1.7279 -0.3205 -0.3974
 2156SOL     OW 9360   6.029   0.922   6.325  0.0329  0.5454 -0.3372
 2156SOL    HW1 9361   5.934   0.910   6.316  0.0121  0.9203 -0.6631
 2156SOL    HW2 9362   6.053   0.973   6.248  0.9477 -1.8586 -1.7425
 2157SOL     OW 9363   5.475   0.716   1.325 -0.4221  0.8617  0.4181
 2157SOL    HW1 9364   5.476   0.772   1.402 -1.8169 -0.2598  1.2836
 2157SOL    HW2 9365   5.383   0.710   1.300 -0.1020  0.3574 -0.7027
 2158SOL     OW 9366   4.514   2.443   0.444  0.2003 -0.2365 -0.1292
 2158SOL    HW1 9367   4.509   2.489   0.528 -1.8370  0.4817 -0.5943
 2158SOL    HW2 9368   4.464   2.362   0.458  0.5516 -0.5118 -0.4355
 2159SOL     OW 9369   4.451   6.397   0.321 -0.2591 -0.1459 -0.1600
 2159SOL    HW1 9370   4.535   6.355   0.341  1.0297  1.7481 -1.3169
 2159SOL    HW2 9371   4.464   6.439   0.236 -2.6395 -0.3799 -0.7113
 2160SOL     OW 9372   8.209   0.158  10.250 -0.5687  0.1215 -0.5281
 2160SOL    HW1 9373   8.297   0.138  10.282 -1.3542 -1.6263  0.7150
 2160SOL    HW2 9374   8.195   0.099  10.177 -0.3884  1.0730 -1.3534
 2161SOL     OW 9375   5.346   5.221   7.579  0.7118 -0.0381 -0.4522
 2161SOL    HW1 9376   5.421   5.281   7.581  1.5824 -1.0993 -0.0510
 2161SOL    HW2 9377   5.287   5.259   7.514  0.1411  2.4959  1.3772
 2162SOL     OW 9378   9.446   1.025   4.168  0.0329 -0.2201 -0.3923
 2162SOL    HW1 9379   9.522   1.035   4.110  0.1988  2.1317  0.1269
 2162SOL    HW2 9380   9.371   1.026   4.109  0.3120 -0.9340 -0.7764
 2163SOL     OW 9381   0.075   7.302   7.857  0.0325 -0.7229  0.1822
 2163SOL    HW1 9382   0.016   7.319   7.784 -0.1947  1.2812  0.7901
 2163SOL    HW2 9383   0.057   7.211   7.881 -0.3772 -1.2151 -1.7767
 2164SOL     OW 9384   1.989   5.162   6.237 -0.7010  0.1475  0.6745
 2164SOL    HW1 9385   1.955   5.181   6.149 -0.2843 -1.4433  0.1426
 2164SOL    HW2 9386   1.945   5.082   6.263  1.0455 -0.8120  0.8388
 2165SOL     OW 9387   0.964   3.924   9.690  0.3381  0.1390  0.4228
 2165SOL    HW1 9388   1.024   3.895   9.621  1.7781  0.5993  1.4476
 2165SOL    HW2 9389   0.948   4.017   9.670 -0.1720 -0.0163  0.0745
 2166SOL     OW 9390   8.718   8.241   2.717  0.4138  0.3818  0.1415
 2166SOL    HW1 9391   8.641   8.274   2.671 -0.1870 -0.2709  0.6468
 2166SOL    HW2 9392   8.722   8.293   2.797  1.2892  1.3203 -0.5005
 2167SOL     OW 9393   1.221   7.896   8.162  0.3509  0.1984  0.0138
 2167SOL    HW1 9394   1.242   7.817   8.212  0.1648 -0.6646 -1.2467
 2167SOL    HW2 9395   1.195   7.960   8.229  1.1512 -0.5754  1.1085
 2168SOL     OW 9396   5.085   6.416   5.479  0.1982 -0.3658 -0.0303
 2168SOL    HW1 9397   5.130   6.365   5.547 -1.2078 -1.0928  0.3858
 2168SOL    HW2 9398   5.019   6.356   5.444 -1.1493  0.9777  0.1109
 2169SOL     OW 9399   6.293  10.149   5.104 -0.1043 -0.8936  0.6108
 2169SOL    HW1 9400   6.354  10.104   5.045 -0.5058  0.2804 -0.7702
 2169SOL    HW2 9401   6.323  10.240   5.102 -2.8182  0.0680 -1.4258
 2170SOL     OW 9402   2.265  10.262   9.881  0.1702 -0.2365  0.0180
 2170SOL    HW1 9403   2.178  10.230   9.857  0.0543  0.8976 -1.1343
 2170SOL    HW2 9404   2.324  10.220   9.818  0.4167 -0.5894  0.4702
 2171SOL     OW 9405   0.036   5.080   7.699 -0.1881 -0.3281 -0.0204
 2171SOL    HW1 9406  -0.012   5.011   7.745 -0.7049 -0.3753 -0.6142
 2171SOL    HW2 9407   0.024   5.158   7.754 -1.8182 -0.0915 -0.6490
 2172SOL     OW 9408   9.613  10.558  10.098 -0.5632  0.2566 -0.1153
 2172SOL    HW1 9409   9.600  10.591  10.187  1.1805 -0.1528  0.3169
 2172SOL    HW2 9410   9.626  10.464  10.109 -0.2096  0.2220 -0.7897
 2173SOL     OW 9411   3.136   3.903   7.140  0.0716 -0.0267 -0.1615
 2173SOL    HW1 9412   3.148   3.819   7.184  0.1745  0.8209  1.5289
 2173SOL    HW2 9413   3.224   3.929   7.113 -0.1518 -1.1935 -2.2278
 2174SOL     OW 9414  10.429   8.776   9.565 -0.4771  0.1589 -0.0112
 2174SOL    HW1 9415  10.522   8.763   9.549 -0.8955 -0.8397 -1.8815
 2174SOL    HW2 9416  10.399   8.694   9.605 -1.2572 -1.1947 -3.0810
 2175SOL     OW 9417   5.050   1.752   5.046 -0.3592  0.0344 -0.2223
 2175SOL    HW1 9418   5.069   1.815   5.115 -0.6075  2.1085 -1.9695
 2175SOL    HW2 9419   4.971   1.707   5.075 -0.5608  0.9972  0.7629
 2176SOL     OW 9420   1.259   8.579   2.363  0.3147  0.5450 -0.7600
 2176SOL    HW1 9421   1.171   8.612   2.347  0.1123  0.0492 -0.6833
 2176SOL    HW2 9422   1.269   8.582   2.458 -0.2053 -0.8680 -0.6463
 2177SOL     OW 9423   7.355   5.479   8.033 -0.0631  0.2741  0.3066
 2177SOL    HW1 9424   7.280   5.538   8.038 -0.5547 -0.3952  0.9022
 2177SOL    HW2 9425   7.406   5.499   8.111  0.9035  1.3810 -0.5488
 2178SOL     OW 9426   6.882   4.385   8.109 -0.0878  0.6442  0.8224
 2178SOL    HW1 9427   6.880   4.348   8.197 -1.2766 -0.9014  0.1992
 2178SOL    HW2 9428   6.885   4.309   8.051  0.9206  1.6311 -0.4878
 2179SOL     OW 9429   9.204  10.659   7.028 -0.2760  0.0372  0.0057
 2179SOL    HW1 9430   9.294  10.658   7.061  0.4717 -0.8659 -1.9180
 2179SOL    HW2 9431   9.150  10.639   7.105  1.2562 -0.7442  0.9365
 2180SOL     OW 9432   5.215   3.338   6.666  1.0385 -0.3832 -0.7737
 2180SOL    HW1 9433   5.269   3.295   6.731  0.9144  1.0128  0.3081
 2180SOL    HW2 9434   5.152   3.390   6.716 -0.3881 -0.8413 -2.0053
 2181SOL     OW 9435   3.886   0.224   2.206  0.7206  0.1839  0.4341
 2181SOL    HW1 9436   3.824   0.249   2.137  0.6565  0.2971  0.5306
 2181SOL    HW2 9437   3.839   0.245   2.287 -0.2707 -2.3209  0.6034
 2182SOL     OW 9438   5.588   3.228   6.477  0.5649 -0.4769  0.5430
 2182SOL    HW1 9439   5.659   3.222   6.413 -0.5538 -0.4166 -0.7519
 2182SOL    HW2 9440   5.630   3.211   6.562  2.0936 -0.5118 -0.1913
 2183SOL     OW 9441   1.411   9.075   8.103  0.5204  0.2801 -0.4708
 2183SOL    HW1 9442   1.344   9.127   8.058  1.2269  1.5207 -0.1477
 2183SOL    HW2 9443   1.398   8.986   8.071 -0.7608  0.6397 -1.0206
 2184SOL     OW 9444   5.610   0.208   0.162 -0.3806  0.0203  0.0325
 2184SOL    HW1 9445   5.586   0.121   0.130  1.3145 -0.9859  1.3034
 2184SOL    HW2 9446   5.556   0.219   0.241  1.1695 -1.0104  1.2869
 2185SOL     OW 9447   1.801   5.796   9.228 -0.6276 -0.0883 -0.4849
 2185SOL    HW1 9448   1.731   5.836   9.279 -1.0540  0.1159 -1.2297
 2185SOL    HW2 9449   1.860   5.759   9.294 -0.2098  1.7560  0.2485
 2186SOL     OW 9450   0.236   2.201   0.666  0.6033  0.4712  0.1526
 2186SOL    HW1 9451   0.249   2.201   0.761 -0.7659 -0.0400  0.3560
 2186SOL    HW2 9452   0.223   2.109   0.643  1.2690  0.5488 -0.6003
 2187SOL     OW 9453   6.134   2.421   0.179  0.8927 -0.4996  0.4053
 2187SOL    HW1 9454   6.118   2.342   0.230  1.5543 -1.1846 -0.4137
 2187SOL    HW2 9455   6.207   2.464   0.223 -0.4529  0.5128  1.7709
 2188SOL     OW 9456   7.287   9.478   5.034  0.1824 -0.2425 -0.6974
 2188SOL    HW1 9457   7.217   9.500   5.096 -0.5266 -0.7300 -1.2967
 2188SOL    HW2 9458   7.367   9.513   5.073 -0.1126 -1.2562  0.8974
 2189SOL     OW 9459   0.751   0.025   7.193  0.2058  0.3815 -0.2017
 2189SOL    HW1 9460   0.742  -0.002   7.101 -3.1565  2.7043 -0.7348
 2189SOL    HW2 9461   0.813   0.098   7.191 -0.6872  1.1320 -0.8181
 2190SOL     OW 9462   2.085   8.247   0.396 -0.2755  0.3995  0.0727
 2190SOL    HW1 9463   2.094   8.161   0.436  1.0211 -0.1325 -1.2661
 2190SOL    HW2 9464   2.169   8.262   0.352 -1.3760  1.2302 -1.8479
 2191SOL     OW 9465   4.330   7.989   1.248 -0.4857 -0.3295  0.1237
 2191SOL    HW1 9466   4.360   7.921   1.187 -0.2900  0.1256 -0.2869
 2191SOL    HW2 9467   4.265   7.944   1.302  1.0569 -1.4155  1.1920
 2192SOL     OW 9468   7.059  10.697  10.296  0.3721  0.0098 -1.0087
 2192SOL    HW1 9469   6.976  10.684  10.249  0.1560  2.2294 -1.3695
 2192SOL    HW2 9470   7.033  10.743  10.376  1.2487  0.8686 -1.2031
 2193SOL     OW 9471  10.150   5.291   6.779 -0.0662 -0.0383  0.0060
 2193SOL    HW1 9472  10.115   5.210   6.816 -1.8184  0.4302 -0.5526
 2193SOL    HW2 9473  10.095   5.309   6.703  1.3929  0.7737 -0.9055
 2194SOL     OW 9474   9.957   1.982   7.336 -0.2849 -0.6665  0.1422
 2194SOL    HW1 9475  10.040   1.959   7.296 -0.6613 -1.5326 -0.1683
 2194SOL    HW2 9476   9.891   1.949   7.276 -0.8889  1.3230 -0.3728
 2195SOL     OW 9477   9.082   8.861   1.731  0.2913 -0.3061  0.6328
 2195SOL    HW1 9478   9.126   8.889   1.811  0.4872 -0.4978  0.5940
 2195SOL    HW2 9479   9.002   8.913   1.728  0.2808 -0.3007  0.9559
 2196SOL     OW 9480   8.734   3.140   0.456  0.2496 -0.0201 -0.1452
 2196SOL    HW1 9481   8.699   3.069   0.509  0.0238 -0.7750 -1.2610
 2196SOL    HW2 9482   8.698   3.219   0.496 -1.1164 -0.6571 -0.0471
 2197SOL     OW 9483   2.524   7.842   5.552 -0.5043  0.0460  0.1794
 2197SOL    HW1 9484   2.469   7.861   5.477  0.6446 -0.5540 -0.8623
 2197SOL    HW2 9485   2.536   7.747   5.550  1.3581  0.2440 -0.2477
 2198SOL     OW 9486   2.268   9.589   9.877 -0.2168  0.4929 -0.2347
 2198SOL    HW1 9487   2.355   9.613   9.911 -0.3004  1.0408 -0.4020
 2198SOL    HW2 9488   2.224   9.547   9.951  0.1933  0.2036 -0.1509
 2199SOL     OW 9489   2.043   8.866   3.776  0.6251  0.3352  0.3145
 2199SOL    HW1 9490   1.984   8.798   3.744  0.1571  0.7706  0.2322
 2199SOL    HW2 9491   2.130   8.828   3.768  0.3381 -0.4188  0.6961
 2200SOL     OW 9492   4.699   0.940   8.630  0.2092 -0.4772  0.1969
 2200SOL    HW1 9493   4.685   0.927   8.724  0.0415 -1.0822  0.0940
 2200SOL    HW2 9494   4.681   0.854   8.592 -2.7233  0.4701 -0.7430
 2201SOL     OW 9495   5.869  10.156   0.170 -0.3055 -0.7523 -0.6955
 2201SOL    HW1 9496   5.844  10.236   0.217  1.7791  0.5397 -1.6393
 2201SOL    HW2 9497   5.897  10.096   0.239 -1.0746 -0.3568 -0.0236
 2202SOL     OW 9498   2.274   1.136   4.695  0.2554 -0.1433 -0.0030
 2202SOL    HW1 9499   2.265   1.045   4.664 -1.2692 -0.7060  1.8844
 2202SOL    HW2 9500   2.352   1.135   4.749 -0.2499 -0.5896  0.7431
 2203SOL     OW 9501   9.415   5.999   0.067  0.1283 -0.1496 -0.2870
 2203SOL    HW1 9502   9.509   5.986   0.062  0.2397 -1.8056  2.9483
 2203SOL    HW2 9503   9.378   5.911   0.055 -0.9365  0.3572 -0.8112
 2204SOL     OW 9504   2.802   2.272   4.594 -0.2487 -0.1531  0.3978
 2204SOL    HW1 9505   2.753   2.268   4.512  0.1003  0.4578  0.1538
 2204SOL    HW2 9506   2.800   2.182   4.627  0.5860 -0.6839 -0.8739
 2205SOL     OW 9507   8.539   7.613   7.090  0.4729 -0.4362  0.0380
 2205SOL    HW1 9508   8.613   7.605   7.151 -0.0228  2.1087  1.0961
 2205SOL    HW2 9509   8.486   7.684   7.126 -1.8859 -1.3764 -1.3520
 2206SOL     OW 9510   7.875   0.374   8.616 -0.8702 -0.0355 -0.3265
 2206SOL    HW1 9511   7.908   0.388   8.705 -1.1227 -0.2114 -0.2034
 2206SOL    HW2 9512   7.926   0.434   8.562  2.8030 -3.1801 -0.8553
 2207SOL     OW 9513   5.061   6.443   1.161  0.4340  0.6822 -0.2270
 2207SOL    HW1 9514   4.965   6.436   1.165  0.5279 -0.5596  2.8214
 2207SOL    HW2 9515   5.080   6.532   1.193  0.2979  0.2619  1.0922
 2208SOL     OW 9516   7.741   2.606   1.860 -0.1963 -0.0864  0.0342
 2208SOL    HW1 9517   7.833   2.581   1.872  0.4287  1.4619 -1.1235
 2208SOL    HW2 9518   7.726   2.598   1.766 -1.6113 -1.3786  0.3355
 2209SOL     OW 9519   2.679   8.281   9.200  0.2451  0.2513  0.6357
 2209SOL    HW1 9520   2.641   8.304   9.115  1.5386 -0.2238 -0.1029
 2209SOL    HW2 9521   2.699   8.188   9.193  1.6614  0.5058  0.9132
 2210SOL     OW 9522  10.494   1.046   2.905 -0.2070  0.2163 -0.2980
 2210SOL    HW1 9523  10.572   1.022   2.953 -1.0271  0.3259  1.1368
 2210SOL    HW2 9524  10.508   1.010   2.817  1.2122 -0.2000  0.0724
 2211SOL     OW 9525   6.222   4.103   8.169  0.1852  0.7068 -0.0076
 2211SOL    HW1 9526   6.164   4.083   8.095  0.3370 -0.0072  0.0619
 2211SOL    HW2 9527   6.165   4.145   8.233 -0.5377 -1.0453  0.5504
 2212SOL     OW 9528   9.433   3.758   4.615 -0.0359  0.4219 -0.9710
 2212SOL    HW1 9529   9.456   3.672   4.651 -0.8584 -0.7984 -3.1774
 2212SOL    HW2 9530   9.510   3.784   4.565 -0.1780  0.4760 -1.1622
 2213SOL     OW 9531   9.526   8.584  10.332  0.0396 -0.2520  0.3430
 2213SOL    HW1 9532   9.550   8.597  10.423  1.0267 -0.9737  0.2059
 2213SOL    HW2 9533   9.521   8.489  10.321 -0.1384 -0.1734 -0.3377
 2214SOL     OW 9534   8.444   6.084   6.240 -0.7116 -0.0841  0.0727
 2214SOL    HW1 9535   8.537   6.068   6.253 -0.7180 -0.7692 -0.6453
 2214SOL    HW2 9536   8.437   6.178   6.225 -0.0457 -0.1357 -0.5808
 2215SOL     OW 9537   2.680   7.418   6.664 -0.1311  0.3705  0.1229
 2215SOL    HW1 9538   2.660   7.373   6.582 -2.0466  0.3898  0.5381
 2215SOL    HW2 9539   2.663   7.353   6.732 -0.2268  0.8689  0.5830
 2216SOL     OW 9540   7.042  10.166   2.932  0.8139 -0.8159  0.3434
 2216SOL    HW1 9541   7.132  10.149   2.902  0.5131 -1.3407 -0.2803
 2216SOL    HW2 9542   7.003  10.215   2.860  0.4415 -1.0400  0.3931
 2217SOL     OW 9543   2.097   2.028   6.447  0.0344  0.0275  0.4144
 2217SOL    HW1 9544   2.129   1.955   6.501  1.2809  0.9374  0.9824
 2217SOL    HW2 9545   2.172   2.088   6.443 -1.3469  1.8896  1.0678
 2218SOL     OW 9546   3.391   9.819   7.612 -0.0102  0.2856  0.0273
 2218SOL    HW1 9547   3.484   9.811   7.634 -0.4376 -1.4176  1.4808
 2218SOL    HW2 9548   3.347   9.831   7.696 -0.9898  3.4357 -0.7927
 2219SOL     OW 9549   2.222   4.416   7.558  0.2956  0.3233  0.0993
 2219SOL    HW1 9550   2.167   4.386   7.630  0.1224  0.2790 -0.0497
 2219SOL    HW2 9551   2.206   4.510   7.553 -1.5204 -0.0032 -1.3905
 2220SOL     OW 9552   3.819   4.018   7.220  0.0087  0.7078 -0.2770
 2220SOL    HW1 9553   3.828   3.971   7.303  0.3963 -2.0181 -1.7466
 2220SOL    HW2 9554   3.903   4.008   7.177 -1.0256 -0.4928 -2.1816
 2221SOL     OW 9555   7.087   6.129   2.416 -0.3643 -0.5201  0.1198
 2221SOL    HW1 9556   7.027   6.069   2.459 -0.2719 -1.1298 -0.5824
 2221SOL    HW2 9557   7.041   6.155   2.336  0.3201 -1.0436 -0.4532
 2222SOL     OW 9558   3.708   6.376   1.247  0.2383  0.2006 -0.1000
 2222SOL    HW1 9559   3.715   6.384   1.152  1.8417  0.5938  0.0260
 2222SOL    HW2 9560   3.614   6.376   1.264 -0.0695  0.6100 -1.6412
 2223SOL     OW 9561   9.357   0.696   6.647  0.0070  0.1509  0.5596
 2223SOL    HW1 9562   9.384   0.607   6.625  0.5409  0.1073  1.3371
 2223SOL    HW2 9563   9.431   0.750   6.621  0.1030  0.2447  1.0207
 2224SOL     OW 9564   2.810   2.782  10.669 -0.0731 -0.6610  0.5973
 2224SOL    HW1 9565   2.725   2.783  10.713 -0.2229 -2.1059  0.3908
 2224SOL    HW2 9566   2.825   2.690  10.648  1.5418 -0.4344  0.6205
 2225SOL     OW 9567   7.906   0.261   8.163 -0.0414 -0.1008 -0.6371
 2225SOL    HW1 9568   7.836   0.216   8.115  0.4260 -0.8852 -0.6004
 2225SOL    HW2 9569   7.968   0.192   8.185  1.0189  0.6606 -1.1268
 2226SOL     OW 9570   8.571   9.257   0.054  0.1920  0.0867  0.0488
 2226SOL    HW1 9571   8.476   9.268   0.059  0.1315 -0.6437  0.7208
 2226SOL    HW2 9572   8.605   9.345   0.038 -0.7208  0.0704 -2.4603
 2227SOL     OW 9573  10.021   0.894   7.037  0.7267 -0.3041 -0.3544
 2227SOL    HW1 9574  10.019   0.799   7.032 -1.0324 -0.2944 -0.2944
 2227SOL    HW2 9575  10.069   0.913   7.117 -1.2275 -1.2348  1.1206
 2228SOL     OW 9576   1.450   1.469  10.527 -0.4541  0.0064  0.0010
 2228SOL    HW1 9577   1.396   1.524  10.584 -0.4940 -0.2154  0.1804
 2228SOL    HW2 9578   1.485   1.529  10.462  2.0237  0.8588  1.9819
 2229SOL     OW 9579   3.113   2.767   7.705 -0.3932 -0.4818  0.2337
 2229SOL    HW1 9580   3.152   2.847   7.670 -1.5885 -0.6486 -1.5996
 2229SOL    HW2 9581   3.072   2.795   7.787  0.5282  0.4288  0.4094
 2230SOL     OW 9582   7.167   6.833   0.425  0.7053  1.2129 -0.1001
 2230SOL    HW1 9583   7.076   6.813   0.403  1.1232 -1.0007 -0.0058
 2230SOL    HW2 9584   7.169   6.833   0.521  0.8204  1.1664 -0.1018
 2231SOL     OW 9585   6.176   7.885   9.503  0.1618  0.2746  0.0327
 2231SOL    HW1 9586   6.265   7.861   9.479  0.4054  0.5328  0.6727
 2231SOL    HW2 9587   6.152   7.955   9.442  0.1861 -0.1705 -0.5014
 2232SOL     OW 9588   2.624   9.809   3.448 -0.5721  0.2588  0.3122
 2232SOL    HW1 9589   2.643   9.796   3.541  1.8501  2.1336  0.1788
 2232SOL    HW2 9590   2.696   9.765   3.403 -0.5800  1.1282 -0.5753
 2233SOL     OW 9591  10.723  10.480  10.087 -0.1641  0.5633 -0.5087
 2233SOL    HW1 9592  10.687  10.565  10.112 -2.9345 -0.9287  1.1286
 2233SOL    HW2 9593  10.648  10.432  10.051  0.6966 -1.9787  0.8402
 2234SOL     OW 9594   0.996   8.618   5.384  0.2883 -0.5954 -0.3190
 2234SOL    HW1 9595   0.981   8.616   5.290 -0.1083 -0.6271 -0.2570
 2234SOL    HW2 9596   1.060   8.688   5.397  0.8080 -0.9988 -0.6740
 2235SOL     OW 9597   7.231   0.040   6.488  0.7551  0.5647  0.6534
 2235SOL    HW1 9598   7.257   0.026   6.579  2.5417  0.0994  0.1065
 2235SOL    HW2 9599   7.308   0.076   6.445 -0.2157  1.2739 -0.5877
 2236SOL     OW 9600   4.063   3.964   3.482 -0.1728 -0.4847  0.0672
 2236SOL    HW1 9601   4.143   3.999   3.522  0.0726 -1.4559  0.4622
 2236SOL    HW2 9602   4.094   3.903   3.415 -0.5899  0.3151 -0.8842
 2237SOL     OW 9603   3.324   0.902   7.802  0.2313 -0.7617 -0.3932
 2237SOL    HW1 9604   3.320   0.941   7.889 -0.1527 -1.8247  0.0867
 2237SOL    HW2 9605   3.301   0.973   7.743  2.8660  0.6491  0.1187
 2238SOL     OW 9606   2.064   9.735   6.757  0.1795  0.0371  0.6772
 2238SOL    HW1 9607   2.102   9.803   6.813 -0.6428 -0.3608  1.7382
 2238SOL    HW2 9608   1.971   9.756   6.754  0.2217  0.1583 -0.7277
 2239SOL     OW 9609   9.399   0.419   0.443 -0.2210 -0.0728  0.0548
 2239SOL    HW1 9610   9.324   0.464   0.403 -0.1548 -0.6377 -0.7208
 2239SOL    HW2 9611   9.413   0.342   0.388  0.2925 -0.5158  0.7918
 2240SOL     OW 9612   9.441   5.441   9.919 -0.3625  0.0677 -0.3769
 2240SOL    HW1 9613   9.442   5.515   9.979  0.9415  0.9467 -1.4332
 2240SOL    HW2 9614   9.373   5.383   9.954 -0.2192  0.9334  1.4459
 2241SOL     OW 9615   7.616   2.285   2.059 -1.0150 -0.2010 -0.3689
 2241SOL    HW1 9616   7.635   2.195   2.085  1.4908 -0.1257 -1.6449
 2241SOL    HW2 9617   7.680   2.338   2.107 -1.6027  0.7666 -0.6243
 2242SOL     OW 9618   0.089   2.532   3.881 -0.5052 -0.2367  0.0724
 2242SOL    HW1 9619   0.170   2.577   3.903 -0.7904  0.8131 -0.9062
 2242SOL    HW2 9620   0.022   2.576   3.933 -0.8162  0.6478 -1.0331
 2243SOL     OW 9621   5.747   9.188   3.738  0.7080  0.4352 -0.8552
 2243SOL    HW1 9622   5.764   9.148   3.823 -0.7443 -0.2845 -0.8686
 2243SOL    HW2 9623   5.727   9.114   3.680 -3.4167  1.0649 -0.5687
 2244SOL     OW 9624   2.396   2.506   2.000 -0.3348  0.3625  0.1894
 2244SOL    HW1 9625   2.471   2.554   1.963  0.0655 -0.1401  0.3318
 2244SOL    HW2 9626   2.384   2.544   2.086 -0.2769  0.4839  0.1442
 2245SOL     OW 9627   8.296   3.746   3.648  0.3093  0.8526 -0.1349
 2245SOL    HW1 9628   8.280   3.796   3.567  1.8975  1.8853  0.1565
 2245SOL    HW2 9629   8.235   3.783   3.711 -1.8543 -0.7996 -1.1067
 2246SOL     OW 9630   3.019   2.098   6.767  0.1531 -0.4931 -0.0278
 2246SOL    HW1 9631   2.935   2.055   6.783 -0.2672 -0.2381 -1.4072
 2246SOL    HW2 9632   3.064   2.095   6.851 -0.0601 -3.1789  0.0890
 2247SOL     OW 9633   4.591   2.011  10.521 -0.1659  0.3955 -0.0656
 2247SOL    HW1 9634   4.592   2.105  10.502 -0.0702  0.2229 -0.9695
 2247SOL    HW2 9635   4.682   1.984  10.511 -0.4365 -0.0876 -1.4455
 2248SOL     OW 9636   1.732   0.460   9.150  0.1308  0.4900  0.4006
 2248SOL    HW1 9637   1.735   0.415   9.065  2.0195  1.3427 -0.0529
 2248SOL    HW2 9638   1.639   0.476   9.165 -0.3794 -1.0555 -0.7468
 2249SOL     OW 9639   7.931   6.984   8.982  0.3510  0.5152 -0.2251
 2249SOL    HW1 9640   7.991   6.938   9.041 -0.5294 -1.8556 -1.0658
 2249SOL    HW2 9641   7.987   7.044   8.933  1.7300 -0.3318  0.2451
 2250SOL     OW 9642   5.980  10.734  10.749  1.0310 -0.4607 -0.0302
 2250SOL    HW1 9643   5.946  10.812  10.795  0.4389  0.1604 -1.4691
 2250SOL    HW2 9644   5.914  10.667  10.766 -0.2687  0.3417 -1.6131
 2251SOL     OW 9645   4.129   8.563   4.146  0.5920  0.3888  0.3835
 2251SOL    HW1 9646   4.064   8.618   4.102  0.6186  0.6347  0.6490
 2251SOL    HW2 9647   4.153   8.498   4.080  0.7591  0.8575 -0.0266
 2252SOL     OW 9648   9.766  10.601   8.168  0.5240  0.3469  0.0746
 2252SOL    HW1 9649   9.851  10.626   8.204 -0.4331  1.8571  1.4257
 2252SOL    HW2 9650   9.733  10.534   8.227  1.4332 -1.5157 -1.4043
 2253SOL     OW 9651  10.008   1.435   5.827  0.0281 -0.2436 -0.0732
 2253SOL    HW1 9652   9.974   1.510   5.876  0.0297 -1.3575  1.7059
 2253SOL    HW2 9653   9.979   1.451   5.737 -2.3968  0.5141  0.7435
 2254SOL     OW 9654   4.412   2.541   9.226 -0.0236 -0.3677  0.2795
 2254SOL    HW1 9655   4.343   2.593   9.267  0.2037  0.2971 -0.1605
 2254SOL    HW2 9656   4.370   2.498   9.152 -0.5103 -1.8165  1.3589
 2255SOL     OW 9657   2.142   6.544   5.503  0.1150  0.1154  0.1202
 2255SOL    HW1 9658   2.172   6.625   5.462  0.1680 -0.7613 -1.6690
 2255SOL    HW2 9659   2.210   6.522   5.567  2.1394 -0.5395 -2.1380
 2256SOL     OW 9660   3.546   3.670   5.255 -0.6507  0.1233  0.2424
 2256SOL    HW1 9661   3.522   3.757   5.286  0.3152 -0.2743  2.2874
 2256SOL    HW2 9662   3.599   3.633   5.326  2.7440 -0.4709 -2.3576
 2257SOL     OW 9663   1.036   9.032  10.239 -0.6657 -0.3275 -0.4432
 2257SOL    HW1 9664   1.101   9.010  10.172  0.0599  0.8738 -0.1623
 2257SOL    HW2 9665   1.087   9.043  10.319 -0.9088  2.4657 -0.5789
 2258SOL     OW 9666   5.433   4.630   3.434 -0.6059  0.0629 -0.3238
 2258SOL    HW1 9667   5.527   4.644   3.451 -0.6268 -1.1251  0.9796
 2258SOL    HW2 9668   5.417   4.540   3.463 -2.7138  1.0830  2.0797
 2259SOL     OW 9669   9.191  10.144   0.142 -0.1081 -0.4077 -0.3630
 2259SOL    HW1 9670   9.262  10.199   0.176  0.0600  0.2280 -1.7105
 2259SOL    HW2 9671   9.129  10.206   0.104 -2.4929 -0.7425  2.5962
 2260SOL     OW 9672   4.339   8.722   3.603 -0.2906  0.1769  0.1495
 2260SOL    HW1 9673   4.300   8.806   3.578 -0.9610  0.1892  1.1973
 2260SOL    HW2 9674   4.423   8.719   3.556  0.0623  1.7487  0.6313
 2261SOL     OW 9675   4.498   7.684   7.083  0.5511  0.1019  0.0433
 2261SOL    HW1 9676   4.424   7.673   7.143  0.7330  0.7324  0.3945
 2261SOL    HW2 9677   4.459   7.720   7.003 -0.0342 -2.7556 -1.0822
 2262SOL     OW 9678   7.457   0.887   9.340 -0.0055 -0.4902 -0.1650
 2262SOL    HW1 9679   7.378   0.894   9.286  0.4870  1.2287 -0.7431
 2262SOL    HW2 9680   7.445   0.954   9.408  1.5625  0.8614 -1.1361
 2263SOL     OW 9681   5.537   2.264   7.309 -0.5186 -0.6847 -0.4252
 2263SOL    HW1 9682   5.473   2.318   7.264  2.5146  2.0175 -1.8946
 2263SOL    HW2 9683   5.569   2.204   7.241  1.1420  0.6134 -0.8566
 2264SOL     OW 9684   7.229   5.853   1.833  0.1414 -0.2194 -0.2417
 2264SOL    HW1 9685   7.323   5.855   1.820  0.2425 -0.0971  0.4714
 2264SOL    HW2 9686   7.200   5.943   1.815  0.1167 -0.3340 -0.7724
 2265SOL     OW 9687   3.031   8.670   3.066  0.6279 -0.1544  0.0770
 2265SOL    HW1 9688   3.018   8.583   3.104  0.9072 -0.3369 -0.2519
 2265SOL    HW2 9689   2.942   8.699   3.042  0.5177 -0.2810  0.3315
 2266SOL     OW 9690   8.520   5.896   0.712  0.1834  1.1845  0.3625
 2266SOL    HW1 9691   8.453   5.930   0.652  0.6975  0.3443 -0.7158
 2266SOL    HW2 9692   8.470   5.863   0.787 -0.9775 -2.1131 -1.6508
 2267SOL     OW 9693   0.763   3.576   7.659  0.1533  0.1739  0.4350
 2267SOL    HW1 9694   0.787   3.565   7.751  1.7404  2.6366  0.3971
 2267SOL    HW2 9695   0.843   3.604   7.616 -1.3228  2.7028 -0.9418
 2268SOL     OW 9696   9.275  10.255   4.726  0.4931  0.1351  0.2589
 2268SOL    HW1 9697   9.241  10.296   4.647  0.2482 -0.9875 -0.2435
 2268SOL    HW2 9698   9.305  10.168   4.697  2.2366  0.4461  1.0125
 2269SOL     OW 9699   9.708   3.883   0.712 -0.2213 -0.1892  0.4311
 2269SOL    HW1 9700   9.732   3.829   0.788  0.5400 -0.6342 -0.1161
 2269SOL    HW2 9701   9.698   3.971   0.748  1.6785 -0.0754  0.8175
 2270SOL     OW 9702   9.854   1.101   5.140  0.3502 -0.1897  0.5088
 2270SOL    HW1 9703   9.813   1.101   5.226  0.0573  0.1399  0.3707
 2270SOL    HW2 9704   9.836   1.188   5.105 -0.5942 -0.7210 -0.3876
 2271SOL     OW 9705   6.613   6.373   0.163  0.3640  0.4488 -0.0070
 2271SOL    HW1 9706   6.647   6.455   0.126 -0.2693  0.7316  0.0146
 2271SOL    HW2 9707   6.690   6.329   0.198  0.8150  0.7047 -0.6486
 2272SOL     OW 9708   7.990   8.678   1.628  0.3022  0.1660 -0.0206
 2272SOL    HW1 9709   7.970   8.721   1.545  0.1565 -0.0588 -0.1027
 2272SOL    HW2 9710   8.066   8.726   1.662  0.6736 -0.0565 -0.5228
 2273SOL     OW 9711   2.168   3.606   4.560  0.0045  0.1317 -0.6426
 2273SOL    HW1 9712   2.247   3.590   4.508  1.7994  0.4666  1.7929
 2273SOL    HW2 9713   2.168   3.700   4.575 -0.4226  0.0248  0.0436
 2274SOL     OW 9714   0.309   5.845   3.424  0.2233 -0.0078 -0.0193
 2274SOL    HW1 9715   0.257   5.809   3.352 -0.6637 -1.7010  1.3818
 2274SOL    HW2 9716   0.247   5.898   3.474  0.6971  0.7195 -0.1945
 2275SOL     OW 9717   3.898   7.906   1.006  0.0315  0.3100  0.0371
 2275SOL    HW1 9718   3.865   7.920   1.094 -2.7038 -0.1874 -0.8154
 2275SOL    HW2 9719   3.993   7.899   1.016 -0.3134 -1.5914  3.1890
 2276SOL     OW 9720   3.329  10.144   5.418  0.3705  0.7289 -0.1480
 2276SOL    HW1 9721   3.412  10.173   5.455 -0.1971  2.2549  0.0051
 2276SOL    HW2 9722   3.352  10.114   5.330  0.9822  2.0244 -0.4625
 2277SOL     OW 9723   1.988   5.013   7.466  0.9360 -0.7721  0.0340
 2277SOL    HW1 9724   1.984   5.084   7.530 -0.8962 -1.2727  0.5278
 2277SOL    HW2 9725   1.992   5.058   7.381 -0.5567 -0.0102  0.3183
 2278SOL     OW 9726   2.516   3.655   5.016 -0.2287 -0.3262 -0.5628
 2278SOL    HW1 9727   2.542   3.615   5.099  1.9380 -0.0325 -1.0519
 2278SOL    HW2 9728   2.474   3.737   5.042  2.7689  1.0910  0.2975
 2279SOL     OW 9729   2.820   2.914   0.917  0.3552 -0.0246 -0.0955
 2279SOL    HW1 9730   2.749   2.930   0.855 -0.0993  1.5347  0.7841
 2279SOL    HW2 9731   2.881   2.858   0.869 -2.6013 -3.7308 -0.0772
 2280SOL     OW 9732   7.107   2.350   5.113  0.3470 -0.2157 -0.6157
 2280SOL    HW1 9733   7.183   2.395   5.077 -0.6665  1.3313 -0.9460
 2280SOL    HW2 9734   7.032   2.398   5.078 -0.7925 -1.5701 -0.1569
 2281SOL     OW 9735   8.134   3.625   4.806  0.1913  0.1128 -0.1907
 2281SOL    HW1 9736   8.156   3.716   4.826 -1.3715  0.5734 -0.4513
 2281SOL    HW2 9737   8.039   3.623   4.806  0.2040 -1.4554 -0.5516
 2282SOL     OW 9738   8.575   5.234   8.184 -0.5116  0.5710 -0.1852
 2282SOL    HW1 9739   8.644   5.288   8.147  0.8200 -0.8545  0.1038
 2282SOL    HW2 9740   8.504   5.295   8.205  1.0588  2.2308  0.4703
 2283SOL     OW 9741   8.225   6.114   3.285  0.0954  0.1389 -0.5335
 2283SOL    HW1 9742   8.152   6.112   3.224 -1.2825  2.2676  0.8878
 2283SOL    HW2 9743   8.298   6.149   3.235 -0.4493  0.0093 -1.4357
 2284SOL     OW 9744   3.650   8.233   7.535 -0.6147 -0.7996  0.3144
 2284SOL    HW1 9745   3.634   8.322   7.566 -1.4920 -1.0152  0.4947
 2284SOL    HW2 9746   3.732   8.239   7.486 -1.6368  0.5026 -1.3067
 2285SOL     OW 9747   8.469   2.937   9.325 -0.0400 -0.6543  0.1858
 2285SOL    HW1 9748   8.463   2.935   9.229  0.6738 -2.0989  0.1442
 2285SOL    HW2 9749   8.386   2.976   9.353 -0.7652 -1.2896 -0.9812
 2286SOL     OW 9750   1.477   7.138   6.490  0.3592 -0.0321 -0.2424
 2286SOL    HW1 9751   1.387   7.107   6.480 -0.3336  1.4181  0.9793
 2286SOL    HW2 9752   1.490   7.143   6.585  2.2948 -1.6899 -0.3758
 2287SOL     OW 9753   1.481   7.178   2.996  0.1088 -0.6006 -0.5358
 2287SOL    HW1 9754   1.541   7.224   3.055 -1.0404  0.4459 -0.1295
 2287SOL    HW2 9755   1.523   7.182   2.910 -0.5659  2.5542 -0.8336
 2288SOL     OW 9756   5.131   5.024   9.924 -0.3553 -0.1899  0.0227
 2288SOL    HW1 9757   5.139   5.036   9.830 -2.2612  1.3341 -0.0046
 2288SOL    HW2 9758   5.132   5.113   9.960  2.7128 -0.7925  1.7450
 2289SOL     OW 9759   8.671   9.143   1.838  0.3821  0.1286 -0.7287
 2289SOL    HW1 9760   8.579   9.119   1.848  0.1785  0.7966 -0.9895
 2289SOL    HW2 9761   8.669   9.229   1.797  1.1151  0.4827 -0.0343
 2290SOL     OW 9762   1.355   9.313   6.505 -0.5391 -0.0376 -0.2574
 2290SOL    HW1 9763   1.371   9.327   6.412 -1.0781  0.1196 -0.3304
 2290SOL    HW2 9764   1.420   9.367   6.549 -0.0215 -0.4213 -0.5373
 2291SOL     OW 9765   9.646   1.333   5.700 -0.3846  0.2588  0.1032
 2291SOL    HW1 9766   9.565   1.306   5.658  0.0525 -1.1544  0.1355
 2291SOL    HW2 9767   9.715   1.306   5.639  0.0688  2.0222 -0.2356
 2292SOL     OW 9768   0.851   1.264   5.244  0.4073  0.0108  0.1511
 2292SOL    HW1 9769   0.943   1.260   5.220  0.7841 -2.2012  1.6361
 2292SOL    HW2 9770   0.838   1.353   5.277  2.4121 -0.0703  1.2962
 2293SOL     OW 9771   0.281   3.609   6.552  0.3835 -0.1932 -0.3780
 2293SOL    HW1 9772   0.196   3.574   6.579  0.2951  0.1870 -0.1667
 2293SOL    HW2 9773   0.260   3.677   6.488  0.5307 -0.0737 -0.2996
 2294SOL     OW 9774   2.720   6.369   4.571 -0.0477  0.1148  0.1775
 2294SOL    HW1 9775   2.650   6.430   4.597 -0.7262 -0.9206  0.8850
 2294SOL    HW2 9776   2.704   6.351   4.479 -2.5334 -2.3029  0.9466
 2295SOL     OW 9777   0.321   1.839   7.950 -0.3302 -0.4151  0.0062
 2295SOL    HW1 9778   0.237   1.827   7.907  0.7234  1.3985 -2.8197
 2295SOL    HW2 9779   0.299   1.876   8.036 -2.4114 -0.1754 -0.5839
 2296SOL     OW 9780   5.224   9.640   9.502  0.0232  0.1308  0.1219
 2296SOL    HW1 9781   5.278   9.573   9.544  0.5338  1.1443  1.1472
 2296SOL    HW2 9782   5.134   9.609   9.514  0.2743 -0.6618  0.0402
 2297SOL     OW 9783   6.125   6.255   8.670 -0.0105  0.1128  0.0956
 2297SOL    HW1 9784   6.106   6.266   8.763 -0.8605 -4.2620  0.6066
 2297SOL    HW2 9785   6.204   6.200   8.668 -2.0300 -2.9967 -1.5417
 2298SOL     OW 9786   5.105   5.822   5.844 -0.4551 -0.3527 -0.8072
 2298SOL    HW1 9787   5.184   5.855   5.887 -1.0486 -0.1620  0.1958
 2298SOL    HW2 9788   5.112   5.727   5.850 -0.3171 -0.3347 -0.6669
 2299SOL     OW 9789   9.552   2.009   6.564 -0.2245 -0.2367  0.0140
 2299SOL    HW1 9790   9.465   2.042   6.587 -0.5361 -0.3405 -0.9494
 2299SOL    HW2 9791   9.573   1.946   6.633  0.1663  1.5546  1.6091
 2300SOL     OW 9792   3.738   0.603   5.099 -0.1325 -0.5665 -0.2908
 2300SOL    HW1 9793   3.731   0.520   5.052 -0.5318 -0.9818  0.4768
 2300SOL    HW2 9794   3.765   0.667   5.032  1.4659 -1.5466 -0.6395
 2301SOL     OW 9795   1.475   3.837   1.697  0.7423  0.1095 -0.3114
 2301SOL    HW1 9796   1.411   3.859   1.630 -0.5750  0.5329  1.0261
 2301SOL    HW2 9797   1.498   3.921   1.737  2.1286 -0.0369 -0.7293
 2302SOL     OW 9798   2.246   4.190  10.122  0.5634 -0.6249  0.0887
 2302SOL    HW1 9799   2.294   4.146  10.192 -0.1073  0.7571  1.4702
 2302SOL    HW2 9800   2.163   4.215  10.162  0.0784  0.0495 -1.2641
 2303SOL     OW 9801  10.132   1.942   1.858 -0.5799 -0.4303  0.3254
 2303SOL    HW1 9802  10.139   2.024   1.810  1.1151 -1.1858 -0.8033
 2303SOL    HW2 9803  10.122   1.969   1.950 -2.0206  1.0144 -0.2153
 2304SOL     OW 9804   3.940   7.099   6.162  0.0283  0.4546  0.2483
 2304SOL    HW1 9805   3.984   7.041   6.223  1.6635  1.4541  0.0680
 2304SOL    HW2 9806   3.979   7.080   6.077 -1.3156 -0.0259 -0.2920
 2305SOL     OW 9807   6.796   6.119   5.050 -0.9846 -0.2264  0.4373
 2305SOL    HW1 9808   6.856   6.172   4.998 -1.5512  1.1696  1.1522
 2305SOL    HW2 9809   6.846   6.041   5.073 -0.3563 -0.3616 -1.2268
 2306SOL     OW 9810   8.469   2.549   0.742  0.2052  0.5062  0.0976
 2306SOL    HW1 9811   8.525   2.621   0.771 -0.3886  1.8347 -1.8289
 2306SOL    HW2 9812   8.381   2.587   0.739 -0.1781 -0.4026 -0.6271
 2307SOL     OW 9813   5.717   9.102   6.025  0.5618  0.0414  0.2875
 2307SOL    HW1 9814   5.810   9.085   6.039  0.8850  2.1563  1.1431
 2307SOL    HW2 9815   5.685   9.130   6.111 -0.3245  1.4892 -0.4721
 2308SOL     OW 9816   9.765   9.050   0.947 -0.0857 -0.1645  0.1440
 2308SOL    HW1 9817   9.763   9.057   0.851  0.0060  2.9774  0.2531
 2308SOL    HW2 9818   9.838   8.991   0.965 -0.5409 -1.3873 -1.6947
 2309SOL     OW 9819   8.740   1.006   8.148  0.0877  0.0629 -0.2833
 2309SOL    HW1 9820   8.676   1.055   8.200 -0.3817  1.7630 -2.2938
 2309SOL    HW2 9821   8.722   0.914   8.167 -0.7001  0.5836  1.7344
 2310SOL     OW 9822   4.963   6.048   5.358 -0.1571  0.2504 -0.6449
 2310SOL    HW1 9823   5.037   6.081   5.307  1.1708 -0.3781  0.7818
 2310SOL    HW2 9824   4.971   5.953   5.353 -0.6485  0.1793 -0.1919
 2311SOL     OW 9825   0.658   1.723   5.511  0.0542 -0.3637  0.2412
 2311SOL    HW1 9826   0.693   1.651   5.458  1.5614  0.1539  0.4903
 2311SOL    HW2 9827   0.708   1.799   5.484 -1.8443  0.7502 -0.3607
 2312SOL     OW 9828   0.709   9.412   8.666 -0.3556 -0.0260 -0.0275
 2312SOL    HW1 9829   0.712   9.317   8.680  4.4743  0.0642  1.2955
 2312SOL    HW2 9830   0.679   9.421   8.575 -2.4248 -2.6085  0.2601
 2313SOL     OW 9831   9.138   6.196   4.319 -0.0445  0.3774  0.4923
 2313SOL    HW1 9832   9.099   6.275   4.282  1.1678  1.0973  0.7128
 2313SOL    HW2 9833   9.227   6.195   4.285 -0.0775 -0.9677  0.4065
 2314SOL     OW 9834   1.106   9.559   8.892 -0.1816 -0.3828  0.3616
 2314SOL    HW1 9835   1.151   9.644   8.896  0.2372 -0.6529  2.4109
 2314SOL    HW2 9836   1.155   9.509   8.828  0.4316  0.4547  0.1631
 2315SOL     OW 9837   2.936   3.518   9.387  0.0186  0.0042  0.8674
 2315SOL    HW1 9838   2.952   3.610   9.366  0.3456 -0.1229  0.5316
 2315SOL    HW2 9839   3.017   3.474   9.360 -0.1349 -0.3791  1.0320
 2316SOL     OW 9840   3.815   2.517   4.559 -0.3258  0.3431 -0.2001
 2316SOL    HW1 9841   3.859   2.577   4.620  0.4366  0.6166 -0.9997
 2316SOL    HW2 9842   3.816   2.433   4.604  2.4282 -0.0397 -0.7724
 2317SOL     OW 9843  10.350   5.428   4.018  0.0662 -0.2942 -0.2690
 2317SOL    HW1 9844  10.390   5.498   4.070 -0.9233 -0.8409  1.2886
 2317SOL    HW2 9845  10.268   5.466   3.985 -0.5552 -0.7270  0.7169
 2318SOL     OW 9846  10.778   0.656  10.340  0.3356  0.0335 -0.4573
 2318SOL    HW1 9847  10.817   0.742  10.358  2.9950 -1.2693  0.5672
 2318SOL    HW2 9848  10.687   0.675  10.318  0.6678  3.0437  0.3255
 2319SOL     OW 9849   1.804   9.548   6.010 -0.1479  0.1291 -0.0341
 2319SOL    HW1 9850   1.836   9.459   6.022 -0.7216  0.1558  2.1852
 2319SOL    HW2 9851   1.860   9.601   6.067 -1.5934  0.7340  0.8944
 2320SOL     OW 9852   2.992   0.632   3.961 -0.0993 -0.6895  0.1433
 2320SOL    HW1 9853   2.942   0.636   3.880  1.4701 -2.4346 -0.9949
 2320SOL    HW2 9854   2.932   0.664   4.028 -0.8010  2.7280 -1.9248
 2321SOL     OW 9855   5.442   0.036   1.426  0.1815  0.0032 -0.3752
 2321SOL    HW1 9856   5.358   0.009   1.389  0.5915 -0.5946 -0.8907
 2321SOL    HW2 9857   5.452   0.127   1.399 -1.4299  0.8967  1.7535
 2322SOL     OW 9858   4.284   4.254  10.200 -0.0968  0.2503 -0.5156
 2322SOL    HW1 9859   4.205   4.245  10.146 -0.6206  1.6921 -0.0324
 2322SOL    HW2 9860   4.300   4.348  10.203  0.5517  0.1142  0.9403
 2323SOL     OW 9861   6.446   4.085   3.638 -0.0534 -0.3712 -0.7022
 2323SOL    HW1 9862   6.358   4.052   3.655 -0.1547 -0.2332 -0.9587
 2323SOL    HW2 9863   6.502   4.008   3.645  0.1757 -0.0663  2.1409
 2324SOL     OW 9864   1.166   0.873   2.244 -0.8234 -0.2900 -0.3325
 2324SOL    HW1 9865   1.099   0.811   2.216  1.5507 -3.7848  1.0046
 2324SOL    HW2 9866   1.216   0.892   2.165 -0.7557 -1.2132 -0.5215
 2325SOL     OW 9867   0.709   1.742   0.667  0.2650 -0.1194 -0.3986
 2325SOL    HW1 9868   0.791   1.693   0.676 -1.1110 -2.8491 -1.3530
 2325SOL    HW2 9869   0.677   1.751   0.757  1.9445  1.7802  0.0819
 2326SOL     OW 9870  10.295   8.388   3.815 -0.5519  0.5858 -0.3142
 2326SOL    HW1 9871  10.240   8.366   3.740 -0.2084 -1.6189 -0.0041
 2326SOL    HW2 9872  10.383   8.361   3.789  0.2871  3.1958 -0.4455
 2327SOL     OW 9873   2.182   4.715   1.452  0.2545 -0.1824 -0.4935
 2327SOL    HW1 9874   2.193   4.666   1.534 -1.2002  0.8594  0.3677
 2327SOL    HW2 9875   2.095   4.752   1.458 -0.2234 -0.7409 -2.9197
 2328SOL     OW 9876   7.097   4.110   8.709  0.2440  0.6188 -0.0316
 2328SOL    HW1 9877   7.033   4.152   8.765 -0.4995  0.2986 -0.6095
 2328SOL    HW2 9878   7.174   4.095   8.765 -1.1820 -1.5648  1.5281
 2329SOL     OW 9879   7.993   6.936   5.275 -0.2176 -0.4248 -0.5035
 2329SOL    HW1 9880   7.933   6.871   5.239  1.5250 -1.1994 -2.2219
 2329SOL    HW2 9881   7.976   7.015   5.224 -0.3049 -0.4177 -0.4627
 2330SOL     OW 9882   2.789   7.748   0.972 -0.1854  0.2576  0.1190
 2330SOL    HW1 9883   2.694   7.762   0.979 -0.5715 -1.8755 -0.1546
 2330SOL    HW2 9884   2.818   7.733   1.062 -0.2182  0.2514  0.1285
 2331SOL     OW 9885   9.550   5.729   2.170 -0.5052  0.2929 -0.3826
 2331SOL    HW1 9886   9.597   5.696   2.246 -0.5907 -1.0086 -0.8784
 2331SOL    HW2 9887   9.577   5.821   2.164  3.4749 -0.7472 -1.6966
 2332SOL     OW 9888   0.841  10.579   9.603 -0.1124 -0.6054  0.1763
 2332SOL    HW1 9889   0.874  10.609   9.687 -1.0727 -1.2407  0.8088
 2332SOL    HW2 9890   0.745  10.581   9.613 -0.2876  0.6332 -1.3826
 2333SOL     OW 9891   0.334   6.778   1.255  0.5823  0.2550  0.2084
 2333SOL    HW1 9892   0.360   6.777   1.163 -0.7450 -0.0435 -0.1809
 2333SOL    HW2 9893   0.343   6.869   1.282 -0.0760  0.5412 -0.5268
 2334SOL     OW 9894   8.252   1.238   3.344  0.7903  0.0666 -0.4155
 2334SOL    HW1 9895   8.318   1.300   3.313  0.9281  0.5774  0.7964
 2334SOL    HW2 9896   8.169   1.284   3.333  0.8991  0.5343  0.5506
 2335SOL     OW 9897   9.909   3.088   6.049 -0.2540  0.1327  0.0302
 2335SOL    HW1 9898   9.933   3.099   6.141 -0.6574 -0.3039  0.1900
 2335SOL    HW2 9899   9.815   3.071   6.051 -0.7425  2.3849 -0.6195
 2336SOL     OW 9900   0.100   4.673   5.673 -0.4213 -0.2697  0.0860
 2336SOL    HW1 9901   0.038   4.744   5.684 -0.3173 -0.5686  3.7239
 2336SOL    HW2 9902   0.186   4.715   5.675 -0.3696 -0.3911  1.9491
 2337SOL     OW 9903   6.001   0.499   3.478 -0.3336  0.0155 -0.3747
 2337SOL    HW1 9904   5.951   0.489   3.559 -0.8304 -2.2662 -0.8962
 2337SOL    HW2 9905   5.949   0.454   3.412  0.8160  0.4816 -1.6480
 2338SOL     OW 9906   4.478   4.328   0.493  0.3059 -0.0870  0.3007
 2338SOL    HW1 9907   4.545   4.395   0.508  1.1322 -0.6908 -0.6019
 2338SOL    HW2 9908   4.395   4.375   0.502  0.8390  0.7220  1.2376
 2339SOL     OW 9909   0.306   0.050   0.233 -0.2951  0.1725  0.4593
 2339SOL    HW1 9910   0.293   0.098   0.315 -0.3669  0.8399  0.0578
 2339SOL    HW2 9911   0.237   0.081   0.175 -1.5229 -1.7822  0.7831
 2340SOL     OW 9912   4.038   1.652   1.179  0.9382  0.0711  0.2924
 2340SOL    HW1 9913   3.949   1.685   1.168  0.7561 -0.2108  0.8579
 2340SOL    HW2 9914   4.057   1.608   1.096  0.4754 -0.0299  0.2333
 2341SOL     OW 9915   4.320   8.285   4.955  0.0284  0.3261 -0.2923
 2341SOL    HW1 9916   4.246   8.344   4.966  0.4435  0.9411 -0.7629
 2341SOL    HW2 9917   4.393   8.329   4.998  0.3210  0.1087 -0.5617
 2342SOL     OW 9918   6.128  10.615  10.131 -0.0957 -0.2690  0.2452
 2342SOL    HW1 9919   6.180  10.553  10.080  0.0791 -0.9197  1.1941
 2342SOL    HW2 9920   6.174  10.698  10.122  0.5207 -0.6086  0.2142
 2343SOL     OW 9921  10.345   3.205   5.077 -0.1871 -0.2871  0.2505
 2343SOL    HW1 9922  10.381   3.241   4.996 -1.6162 -0.1390 -0.3456
 2343SOL    HW2 9923  10.402   3.130   5.097 -0.3107 -0.8482 -1.3624
 2344SOL     OW 9924   1.571   0.173   8.273  0.1101  0.0514  0.1097
 2344SOL    HW1 9925   1.619   0.135   8.347 -0.2256  0.7095  0.6682
 2344SOL    HW2 9926   1.572   0.267   8.289 -0.6690  0.1350 -0.3030
 2345SOL     OW 9927   4.215   0.740   8.517  0.2993  0.3161  0.5198
 2345SOL    HW1 9928   4.207   0.679   8.591 -2.2493  1.7433  1.5638
 2345SOL    HW2 9929   4.125   0.755   8.490  0.7705  3.7654  0.4925
 2346SOL     OW 9930  10.370   8.552   6.233 -0.4579 -0.1135 -0.1616
 2346SOL    HW1 9931  10.463   8.539   6.218  0.2967  3.9050 -0.0192
 2346SOL    HW2 9932  10.337   8.585   6.149 -1.5089 -0.4027  0.1252
 2347SOL     OW 9933   0.380   2.475   1.463 -0.0887 -0.1181 -0.1076
 2347SOL    HW1 9934   0.453   2.413   1.453 -0.9649 -0.9591 -1.6229
 2347SOL    HW2 9935   0.306   2.432   1.420 -1.2666  1.1000  0.6241
 2348SOL     OW 9936   8.609   7.951   1.277  0.5328  0.0084  0.1058
 2348SOL    HW1 9937   8.560   7.993   1.348 -0.1299 -2.2251  1.0455
 2348SOL    HW2 9938   8.621   7.861   1.306  0.4058 -0.9473 -2.5471
 2349SOL     OW 9939   0.383  10.786   9.431 -0.2455  0.1167 -0.9674
 2349SOL    HW1 9940   0.449  10.741   9.379 -0.0538 -0.4695 -0.2439
 2349SOL    HW2 9941   0.314  10.721   9.444  0.7098 -0.5410  1.3465
 2350SOL     OW 9942   2.723   3.972   0.098  0.1157 -0.3641  0.1353
 2350SOL    HW1 9943   2.639   3.933   0.075 -0.6236  1.5327 -0.5454
 2350SOL    HW2 9944   2.746   4.027   0.022  1.4842 -0.0667  0.7287
 2351SOL     OW 9945   4.763   3.787   1.248 -0.1271 -0.1690  0.7537
 2351SOL    HW1 9946   4.777   3.709   1.194  0.5277  0.3520  0.1595
 2351SOL    HW2 9947   4.716   3.847   1.191  2.4298  1.2229 -0.0274
 2352SOL     OW 9948   2.342   5.951   6.106  0.6547 -0.1099 -0.4836
 2352SOL    HW1 9949   2.334   5.915   6.195 -1.3884 -1.3953 -1.1362
 2352SOL    HW2 9950   2.436   5.966   6.096  1.0536 -0.8332  1.5465
 2353SOL     OW 9951   9.033   1.642   3.968 -0.0398 -0.2517  0.2098
 2353SOL    HW1 9952   9.034   1.560   4.017  0.3922 -1.6960 -2.0917
 2353SOL    HW2 9953   8.954   1.687   3.999  0.2252 -1.0452  2.2077
 2354SOL     OW 9954   9.809   1.508   2.439  0.3366  0.7822  0.2826
 2354SOL    HW1 9955   9.878   1.521   2.374 -1.5795  0.2531 -2.0246
 2354SOL    HW2 9956   9.774   1.596   2.456 -0.5763  0.7257 -1.1502
 2355SOL     OW 9957   0.928   8.688   0.550 -0.4439 -0.6419 -0.3237
 2355SOL    HW1 9958   0.951   8.667   0.640 -1.0750 -2.8595 -0.6218
 2355SOL    HW2 9959   0.907   8.781   0.552  2.1845  0.0225  1.2320
 2356SOL     OW 9960   3.925   1.150   2.058 -0.4125  0.3601  0.0143
 2356SOL    HW1 9961   4.008   1.173   2.100  0.2430 -2.8431  0.7300
 2356SOL    HW2 9962   3.950   1.124   1.969 -0.6543 -0.3878  0.1570
 2357SOL     OW 9963   1.699   5.045  10.007 -0.0627 -0.4965  0.1316
 2357SOL    HW1 9964   1.736   5.015   9.923 -0.9248  0.8540 -0.7735
 2357SOL    HW2 9965   1.776   5.066  10.060  0.5290  0.4360 -1.0256
 2358SOL     OW 9966   6.839   2.965   4.753  0.5968 -0.3279 -0.1528
 2358SOL    HW1 9967   6.865   2.926   4.669 -0.1128 -0.3861 -0.3463
 2358SOL    HW2 9968   6.815   3.055   4.731 -0.2935 -0.5527 -0.1406
 2359SOL     OW 9969   5.663   9.676   8.607 -0.3931  0.4588 -0.2149
 2359SOL    HW1 9970   5.700   9.696   8.694  0.7863 -0.9194 -0.3675
 2359SOL    HW2 9971   5.577   9.718   8.608 -1.1587 -0.9552  2.2949
 2360SOL     OW 9972  10.493   6.954   7.959 -0.6585  0.5728 -0.1305
 2360SOL    HW1 9973  10.422   7.010   7.992 -0.1273  1.7235 -0.8408
 2360SOL    HW2 9974  10.471   6.941   7.866 -0.7376 -0.3769  0.0119
 2361SOL     OW 9975   7.228   0.220   9.814  0.3304 -0.2127  0.1590
 2361SOL    HW1 9976   7.199   0.252   9.729 -0.2910 -2.1799 -0.4157
 2361SOL    HW2 9977   7.156   0.241   9.873 -0.1616 -0.7487 -0.2495
 2362SOL     OW 9978   5.719   5.861   0.912  0.0454  0.6179 -0.4906
 2362SOL    HW1 9979   5.731   5.915   0.834  0.3949  0.9301 -0.2291
 2362SOL    HW2 9980   5.674   5.918   0.974 -0.0381  0.4413 -0.3880
 2363SOL     OW 9981   0.702   0.574   5.208  0.7238  0.9769 -0.1787
 2363SOL    HW1 9982   0.762   0.638   5.169  3.2280 -0.3295  1.2706
 2363SOL    HW2 9983   0.701   0.596   5.301  0.5132 -0.2260  0.1154
 2364SOL     OW 9984   2.172   6.167   6.134  0.1774 -0.2414 -0.4152
 2364SOL    HW1 9985   2.228   6.089   6.134  0.8807  0.2378 -1.2618
 2364SOL    HW2 9986   2.192   6.210   6.051 -1.6786 -0.1965 -0.8999
 2365SOL     OW 9987   9.348   0.807   1.845  0.2505 -0.2592 -0.2084
 2365SOL    HW1 9988   9.372   0.746   1.914 -1.1347 -0.8379 -0.2278
 2365SOL    HW2 9989   9.317   0.885   1.892  0.9780  0.0273 -0.1887
 2366SOL     OW 9990  10.366   0.030   8.296  0.1904  0.4112  0.8164
 2366SOL    HW1 9991  10.385   0.123   8.306 -0.5817  0.8364 -1.0607
 2366SOL    HW2 9992  10.349  -0.002   8.385  3.6388  1.2616  1.9157
 2367SOL     OW 9993   4.868   0.861   3.822 -0.6976  0.5974 -0.3330
 2367SOL    HW1 9994   4.835   0.940   3.778  0.9908  2.3204  1.2887
 2367SOL    HW2 9995   4.789   0.822   3.860 -1.5394  1.7576 -0.7842
 2368SOL     OW 9996   5.684   4.526   8.009 -0.2819 -0.6221 -1.2632
 2368SOL    HW1 9997   5.679   4.598   7.946 -0.9200  1.1286  0.6609
 2368SOL    HW2 9998   5.763   4.543   8.059 -2.2796  1.0166  1.6481
 2369SOL     OW 9999   2.041   3.917   8.493  0.0807 -0.7719 -0.5278
 2369SOL    HW110000   2.009   3.879   8.575 -0.1912  0.8833  0.1840
 2369SOL    HW210001   1.974   3.982   8.470 -0.0034 -1.4160 -2.2514
 2370SOL     OW10002   8.545   2.392  10.284 -0.9941 -0.3434  0.1228
 2370SOL    HW110003   8.545   2.475  10.236 -0.5815 -1.4862 -2.0186
 2370SOL    HW210004   8.633   2.387  10.321 -0.8413 -0.0507 -0.1841
 2371SOL     OW10005   2.285   0.173   9.528  0.6072  0.6173  1.1276
 2371SOL    HW110006   2.257   0.146   9.615  0.0507 -0.6235  0.5855
 2371SOL    HW210007   2.377   0.148   9.522  0.2861 -0.5418  0.8887
 2372SOL     OW10008   3.512   2.921   6.099  0.5209  0.0724  0.3449
 2372SOL    HW110009   3.596   2.961   6.118  0.8639 -0.3696 -0.2125
 2372SOL    HW210010   3.450   2.966   6.156  1.1531  0.3118  0.8466
 2373SOL     OW10011   8.425   2.349   6.088  0.4559  0.1711 -0.1146
 2373SOL    HW110012   8.507   2.391   6.061  1.7846 -1.4880  1.1271
 2373SOL    HW210013   8.445   2.256   6.091 -1.1299 -0.1791  1.3625
 2374SOL     OW10014   7.307   1.634  10.424  0.0990  0.1063  0.1474
 2374SOL    HW110015   7.251   1.584  10.364 -0.5892  0.6442  0.3177
 2374SOL    HW210016   7.377   1.574  10.448 -0.4514 -0.6168 -0.0239
 2375SOL     OW10017   9.474   5.254   4.284  0.2350 -0.1033 -0.5374
 2375SOL    HW110018   9.378   5.252   4.295  0.3639 -0.7578  0.5785
 2375SOL    HW210019   9.488   5.223   4.194 -0.6251  0.5330 -0.9048
 2376SOL     OW10020   8.565   9.492  10.109  0.4132  0.2538  0.0629
 2376SOL    HW110021   8.643   9.436  10.111 -0.4267 -0.9586  0.7790
 2376SOL    HW210022   8.492   9.431  10.123 -0.7237  1.2606 -1.1839
 2377SOL     OW10023   9.323   4.032   4.051 -0.2822  0.5506  0.2674
 2377SOL    HW110024   9.228   4.023   4.055 -0.1683 -1.0346  0.1343
 2377SOL    HW210025   9.337   4.124   4.030 -1.7562  0.9807  1.0134
 2378SOL     OW10026   8.026   8.502   1.411  0.4505 -0.3889 -0.3577
 2378SOL    HW110027   8.064   8.554   1.340 -2.6892 -1.5286 -3.1241
 2378SOL    HW210028   8.013   8.565   1.482  1.1064  1.5194 -1.8271
 2379SOL     OW10029   7.012   5.387   4.903 -0.2216  0.0141 -0.6521
 2379SOL    HW110030   6.983   5.305   4.864 -0.4577 -0.0912 -0.2671
 2379SOL    HW210031   7.010   5.450   4.831 -4.1373  0.6991 -0.1477
 2380SOL     OW10032   1.509   4.346   8.321 -0.1775 -0.0636  0.6023
 2380SOL    HW110033   1.565   4.408   8.369  1.2820 -0.5416 -0.3912
 2380SOL    HW210034   1.436   4.399   8.290  1.5083  1.4370 -1.0330
 2381SOL     OW10035   1.704   6.039   4.719  0.0179  0.2573  0.0179
 2381SOL    HW110036   1.706   6.124   4.762 -1.0918  0.4156 -0.2107
 2381SOL    HW210037   1.796   6.014   4.710  0.3101  0.4399  1.9985
 2382SOL     OW10038   7.775   5.746   8.257  0.3048 -0.2998  0.4051
 2382SOL    HW110039   7.861   5.725   8.221  0.4149  0.6919  0.0567
 2382SOL    HW210040   7.753   5.671   8.312  0.4902 -1.4801 -1.0831
 2383SOL     OW10041   2.388   5.069   6.647  0.6184  0.1336  0.0799
 2383SOL    HW110042   2.334   5.030   6.578 -0.1344  0.9235  0.2047
 2383SOL    HW210043   2.352   5.032   6.728 -0.4281  1.4339  0.2344
 2384SOL     OW10044   4.988   2.862   3.549  0.1661  0.1557  0.1495
 2384SOL    HW110045   4.934   2.862   3.628 -1.2985  2.1788 -0.7721
 2384SOL    HW210046   5.004   2.955   3.530  0.8488 -0.2825 -1.6911
 2385SOL     OW10047   2.703   5.316   2.413  0.3059 -0.3665  0.0970
 2385SOL    HW110048   2.710   5.341   2.505 -2.0971 -3.4498  1.3282
 2385SOL    HW210049   2.641   5.378   2.376  1.0813  0.7354  0.5935
 2386SOL     OW10050   2.480   1.918  10.246 -0.5365  0.9983  0.0067
 2386SOL    HW110051   2.403   1.913  10.189 -0.3086  0.4894 -0.2645
 2386SOL    HW210052   2.447   1.895  10.333 -0.4802 -0.4464 -0.3196
 2387SOL     OW10053   3.281   9.090   7.424  0.3069 -0.5886 -0.0191
 2387SOL    HW110054   3.253   9.050   7.342 -0.2727 -0.4163  0.0916
 2387SOL    HW210055   3.318   9.174   7.399 -1.6631  0.3385  0.0607
 2388SOL     OW10056   2.396   7.332   9.622 -0.3118 -0.4771  0.2112
 2388SOL    HW110057   2.377   7.418   9.586 -1.0780 -0.8736 -0.3684
 2388SOL    HW210058   2.438   7.285   9.550 -1.3840 -1.1059 -0.0317
 2389SOL     OW10059   7.952   3.235  10.549  0.1970  0.4250 -0.0561
 2389SOL    HW110060   7.981   3.302  10.612  1.4311 -0.4055  0.3059
 2389SOL    HW210061   7.983   3.267  10.465  2.5509 -0.5669  0.3568
 2390SOL     OW10062   7.130   7.666   6.312  0.1109 -0.4010 -0.2325
 2390SOL    HW110063   7.155   7.681   6.403 -0.2433  0.0527 -0.2076
 2390SOL    HW210064   7.144   7.572   6.299  0.0991 -0.4828  0.3128
 2391SOL     OW10065   9.773   0.299   3.581 -0.3920 -0.0438  0.2364
 2391SOL    HW110066   9.714   0.229   3.554 -0.5794  0.9782 -2.3412
 2391SOL    HW210067   9.846   0.253   3.624 -0.5452 -1.8563 -1.2739
 2392SOL     OW10068   4.329   0.883   2.138  0.3422  0.2154  0.3870
 2392SOL    HW110069   4.367   0.796   2.147 -0.5737 -0.2226  0.1855
 2392SOL    HW210070   4.293   0.885   2.049  0.2557  0.7589  0.4284
 2393SOL     OW10071   6.979   0.917   0.919  0.0698  0.2780 -0.1496
 2393SOL    HW110072   7.050   0.855   0.900 -1.2217 -0.7775 -1.7872
 2393SOL    HW210073   6.924   0.915   0.841 -2.2194  0.4261  1.3780
 2394SOL     OW10074   4.337  10.463   4.021  0.2431 -0.3417 -0.2359
 2394SOL    HW110075   4.304  10.551   4.040 -0.3300  0.1585 -3.1136
 2394SOL    HW210076   4.317  10.412   4.100 -0.8146  1.7076  0.8926
 2395SOL     OW10077  10.386   9.762   4.345  0.5600 -0.3168  0.1259
 2395SOL    HW110078  10.390   9.804   4.259  2.0000 -1.0742 -0.2107
 2395SOL    HW210079  10.438   9.818   4.402 -3.1589  2.1459  1.5050
 2396SOL     OW10080   8.250   2.171   7.080  0.2898 -0.0613  0.3018
 2396SOL    HW110081   8.189   2.126   7.139  1.2506  2.8940  3.9705
 2396SOL    HW210082   8.335   2.132   7.101  0.4528  0.0138 -0.2237
 2397SOL     OW10083   5.926   5.547   7.693  0.6016 -0.7193 -0.0996
 2397SOL    HW110084   5.939   5.521   7.785  2.0623 -0.3464 -0.1858
 2397SOL    HW210085   6.004   5.597   7.671  0.0313 -0.3748 -1.4121
 2398SOL     OW10086   9.357   3.847   0.744 -0.3168 -0.0301  0.3501
 2398SOL    HW110087   9.370   3.765   0.696 -1.6134 -0.5808  0.8854
 2398SOL    HW210088   9.406   3.912   0.694  1.4344 -1.2640  0.3501
 2399SOL     OW10089   2.523   4.498   5.925 -0.0442 -0.0332 -0.3190
 2399SOL    HW110090   2.448   4.534   5.880  0.4412  0.1090 -1.0222
 2399SOL    HW210091   2.486   4.432   5.984 -0.8645  1.1251  0.4950
 2400SOL     OW10092   4.382   8.316   9.943 -0.1626  0.0831  0.0731
 2400SOL    HW110093   4.395   8.257  10.016 -0.6768  1.6928  1.5298
 2400SOL    HW210094   4.468   8.357   9.930  0.6076 -1.9285 -1.9073
 2401SOL     OW10095   0.442   2.742   5.236 -0.0933 -0.1379  0.4500
 2401SOL    HW110096   0.370   2.728   5.175  0.1205 -0.4597  0.2655
 2401SOL    HW210097   0.399   2.756   5.321 -0.3548 -1.5433  0.5734
 2402SOL     OW10098   6.668  10.308   3.690 -0.3563 -0.4062 -0.1615
 2402SOL    HW110099   6.733  10.240   3.673  0.2625 -0.2448  1.3690
 2402SOL    HW210100   6.718  10.390   3.685 -0.4077 -0.2857  1.0823
 2403SOL     OW10101   7.758   6.653  10.167 -0.1608  0.0756  0.2001
 2403SOL    HW110102   7.699   6.712  10.214  1.0574  0.3072  1.5179
 2403SOL    HW210103   7.773   6.696  10.083  0.3858  1.4596  0.9803
 2404SOL     OW10104  10.074   7.977   4.153  0.9950 -0.3717  0.5616
 2404SOL    HW110105  10.094   8.057   4.201  1.2845 -0.9452  1.4047
 2404SOL    HW210106   9.990   7.995   4.112  2.4056  1.5199 -1.8141
 2405SOL     OW10107   3.136   6.539   1.525 -0.2344  0.2841  0.1939
 2405SOL    HW110108   3.206   6.555   1.461  0.1780  0.2324  0.6265
 2405SOL    HW210109   3.178   6.488   1.595 -0.0983  2.1818  1.5754
 2406SOL     OW10110   2.221   5.040   8.842  0.1428  0.3947 -0.0256
 2406SOL    HW110111   2.167   5.118   8.828 -1.5558 -0.7464 -0.0427
 2406SOL    HW210112   2.186   4.975   8.782  0.8494 -0.7130  0.7335
 2407SOL     OW10113   1.447   0.378   6.649  1.2350 -0.0028  0.2143
 2407SOL    HW110114   1.391   0.369   6.572  0.5696 -0.1595  0.7102
 2407SOL    HW210115   1.396   0.432   6.709  0.3226 -2.5723  1.8797
 2408SOL     OW10116   3.026   0.162   2.992  0.4270  0.1187 -0.4500
 2408SOL    HW110117   3.029   0.155   3.087  0.2830  1.2398 -0.3522
 2408SOL    HW210118   3.022   0.071   2.962  1.1149 -0.2767  0.5796
 2409SOL     OW10119   0.435   1.909   5.791  0.7251 -0.5873 -0.3210
 2409SOL    HW110120   0.370   1.930   5.724  1.1849  0.8622 -0.3415
 2409SOL    HW210121   0.384   1.902   5.872  0.1801 -2.2806 -0.7557
 2410SOL     OW10122  10.720   5.021  10.630  0.6465 -0.4041  0.0663
 2410SOL    HW110123  10.635   4.987  10.659  1.1755 -1.6773  0.2010
 2410SOL    HW210124  10.744   4.966  10.555  2.5658 -1.9256  1.6745
 2411SOL     OW10125   4.133   6.365   1.131 -0.1498  0.1710 -0.1279
 2411SOL    HW110126   4.166   6.382   1.219  1.1705 -0.2963 -0.4977
 2411SOL    HW210127   4.211   6.368   1.076 -0.7410 -0.9000 -1.0721
 2412SOL     OW10128   9.815   6.870   7.488  0.1941  0.0658  0.5600
 2412SOL    HW110129   9.727   6.874   7.450 -0.0696  0.4089  1.1878
 2412SOL    HW210130   9.859   6.799   7.440  0.4431  1.5445 -1.5576
 2413SOL     OW10131   2.233   1.858  10.136 -0.6573  0.1449  0.7047
 2413SOL    HW110132   2.239   1.764  10.150 -1.8214  0.0639  0.7231
 2413SOL    HW210133   2.147   1.872  10.096 -0.1263  1.1010 -0.1868
 2414SOL     OW10134   4.177   6.698   1.123  0.1714 -0.8909  0.0744
 2414SOL    HW110135   4.099   6.743   1.155  1.0620  1.6148 -0.9482
 2414SOL    HW210136   4.249   6.738   1.173  0.8375 -3.4447  1.3013
 2415SOL     OW10137   4.998   3.337   7.174  0.2575 -0.2117 -0.0558
 2415SOL    HW110138   5.054   3.282   7.119  0.8304 -1.4897  1.7086
 2415SOL    HW210139   5.038   3.332   7.261 -1.6004  0.3074  0.8713
 2416SOL     OW10140   8.835   6.529   9.028  0.3181  0.5187  0.6177
 2416SOL    HW110141   8.744   6.507   9.007  0.2213  0.8828  0.6403
 2416SOL    HW210142   8.849   6.613   8.983  0.3850  0.8725  1.2858
 2417SOL     OW10143   1.650  10.391   7.983  0.5145 -0.1517  0.0183
 2417SOL    HW110144   1.741  10.381   8.010  0.3323  0.9125  1.0976
 2417SOL    HW210145   1.651  10.467   7.924  0.3667 -0.3035 -0.1786
 2418SOL     OW10146   9.896   8.211   4.561 -0.4368 -0.1866 -0.1459
 2418SOL    HW110147   9.937   8.212   4.474 -0.0858  0.5223  0.0177
 2418SOL    HW210148   9.807   8.243   4.546 -0.4960 -0.4201 -0.2990
 2419SOL     OW10149   6.906   6.285   1.979 -0.7684 -0.5235  0.6546
 2419SOL    HW110150   6.838   6.339   1.940 -0.5945 -0.2871  0.6751
 2419SOL    HW210151   6.968   6.347   2.017  0.7979 -0.5850 -1.5459
 2420SOL     OW10152   4.383   3.105   2.514 -0.6149  0.2091 -0.3349
 2420SOL    HW110153   4.405   3.047   2.586  0.2129  0.6209 -0.2434
 2420SOL    HW210154   4.369   3.047   2.439 -0.5193 -0.1551 -0.0685
 2421SOL     OW10155   5.205   0.423   7.422  0.4512  0.1284  0.1173
 2421SOL    HW110156   5.110   0.429   7.410  0.1959 -0.8540  1.4693
 2421SOL    HW210157   5.236   0.514   7.417 -0.7863  0.6387  1.3837
 2422SOL     OW10158   8.406   0.537   5.709  0.5278  0.4746  0.5357
 2422SOL    HW110159   8.360   0.593   5.772  1.2660 -0.6847  2.1719
 2422SOL    HW210160   8.479   0.590   5.677 -0.8333  1.6876 -0.7276
 2423SOL     OW10161   2.378   9.780   3.610  0.0185 -0.2476 -0.2330
 2423SOL    HW110162   2.372   9.870   3.642 -0.7484 -0.2048 -0.4875
 2423SOL    HW210163   2.452   9.780   3.550  0.7870 -0.0714  0.6892
 2424SOL     OW10164   8.314   9.216   6.240  0.3471  0.1629 -0.0874
 2424SOL    HW110165   8.365   9.173   6.308  2.6357 -0.4155 -2.0555
 2424SOL    HW210166   8.356   9.301   6.228 -0.3169  0.4494 -0.4689
 2425SOL     OW10167   8.037   6.129   1.093 -0.0547 -0.1670  0.1489
 2425SOL    HW110168   8.002   6.140   1.004  0.4215 -1.0209 -0.1542
 2425SOL    HW210169   8.038   6.035   1.107 -0.4444 -0.0335  1.2075
 2426SOL     OW10170   0.226   8.350   3.212  0.4270  0.0322 -0.0615
 2426SOL    HW110171   0.150   8.300   3.181  0.7763 -1.0460  0.7501
 2426SOL    HW210172   0.288   8.348   3.138  1.6644 -3.3641  0.8659
 2427SOL     OW10173   0.413   1.367   5.507  0.0763  0.0712  0.6191
 2427SOL    HW110174   0.378   1.313   5.578  0.0525  0.0676  0.6048
 2427SOL    HW210175   0.335   1.407   5.468  0.2275  2.0833  2.1900
 2428SOL     OW10176  10.719   8.848   7.102 -0.8454 -0.1258 -0.7905
 2428SOL    HW110177  10.684   8.776   7.048 -0.9264 -0.1789 -0.6667
 2428SOL    HW210178  10.733   8.809   7.188  1.1154 -0.5590 -1.2595
 2429SOL     OW10179   0.409  10.035   7.448 -0.0617  0.0143  0.3141
 2429SOL    HW110180   0.373  10.003   7.531 -1.5940 -1.0667 -0.7118
 2429SOL    HW210181   0.473   9.969   7.423  1.9505  1.3745  1.5839
 2430SOL     OW10182   1.862   3.759   8.309  0.0091  0.0159 -0.5473
 2430SOL    HW110183   1.807   3.715   8.374 -0.5313 -0.5289 -1.3592
 2430SOL    HW210184   1.937   3.792   8.360 -0.9086  0.5327  0.5351
 2431SOL     OW10185   9.444   0.649  10.616  0.7346 -0.5512  0.2836
 2431SOL    HW110186   9.404   0.582  10.671  1.1975 -0.1379  1.1669
 2431SOL    HW210187   9.456   0.724  10.676  0.9840  0.0157 -0.4633
 2432SOL     OW10188   9.209   5.084   4.686 -0.4431  0.1592 -0.0127
 2432SOL    HW110189   9.228   5.002   4.733  1.1846  0.1617 -0.6219
 2432SOL    HW210190   9.139   5.060   4.625  0.6772 -1.0875 -0.8878
 2433SOL     OW10191  10.613   6.784   8.983 -0.0960 -0.1609 -0.3588
 2433SOL    HW110192  10.652   6.788   9.070  0.5259 -1.1563 -0.5742
 2433SOL    HW210193  10.542   6.721   8.991 -0.1471 -0.1251 -0.5317
 2434SOL     OW10194   9.976  10.592   5.599 -0.0689  0.1963 -0.6026
 2434SOL    HW110195   9.966  10.621   5.689 -1.2703  0.3538 -0.7712
 2434SOL    HW210196   9.993  10.498   5.605  0.6629  0.3453 -0.1938
 2435SOL     OW10197   8.337   8.020   9.761  0.1244 -0.1060  0.2652
 2435SOL    HW110198   8.299   8.109   9.761  1.3779  0.4503 -0.4407
 2435SOL    HW210199   8.361   8.004   9.670 -0.1267 -1.2037  0.3808
 2436SOL     OW10200  10.603   1.469   6.461 -0.0587  0.5252  0.0877
 2436SOL    HW110201  10.683   1.421   6.483 -0.6323  0.2776  1.7846
 2436SOL    HW210202  10.622   1.509   6.376  1.4412 -0.4521 -0.0780
 2437SOL     OW10203   6.519   5.636   3.146 -0.8543 -0.2561  0.1621
 2437SOL    HW110204   6.587   5.590   3.194 -1.0588 -2.6444 -1.6385
 2437SOL    HW210205   6.463   5.675   3.213  2.0976  1.6809  1.6918
 2438SOL     OW10206   7.948   8.584   0.091 -0.2004 -0.4962 -0.2490
 2438SOL    HW110207   8.041   8.592   0.070 -0.0167 -1.7325  0.0164
 2438SOL    HW210208   7.919   8.507   0.042 -0.5164 -1.5423  1.5312
 2439SOL     OW10209   7.438   0.364   7.571  0.4806 -0.3072 -0.1214
 2439SOL    HW110210   7.417   0.451   7.535 -3.0318 -1.2296 -0.6904
 2439SOL    HW210211   7.407   0.368   7.661 -1.9208 -1.5245 -0.7888
 2440SOL     OW10212   3.860   5.458   5.322 -0.2813  0.5514  0.1902
 2440SOL    HW110213   3.781   5.489   5.366  0.2266 -0.1103  1.6465
 2440SOL    HW210214   3.926   5.524   5.342 -0.3075  0.7858 -0.4888
 2441SOL     OW10215  10.690   7.279   9.540 -0.1249  0.2058 -0.1949
 2441SOL    HW110216  10.622   7.245   9.598  0.6729 -1.0752  0.0394
 2441SOL    HW210217  10.648   7.351   9.492 -1.8086 -0.9114 -0.4717
 2442SOL     OW10218  10.329   7.356   3.142 -0.3510  0.2781  0.0399
 2442SOL    HW110219  10.346   7.450   3.151  0.9852 -0.1265  2.3239
 2442SOL    HW210220  10.414   7.319   3.118 -0.8836 -0.3699 -0.9026
 2443SOL     OW10221   2.947   6.324   7.042 -0.4526 -0.0483  0.1235
 2443SOL    HW110222   2.864   6.325   7.090 -1.2137 -2.3477 -1.0038
 2443SOL    HW210223   3.003   6.265   7.093 -1.0176 -1.9229 -1.3497
 2444SOL     OW10224   2.100  10.745   1.595  0.6468  0.5638 -0.0127
 2444SOL    HW110225   2.087  10.696   1.514  2.7306  1.7749 -1.1736
 2444SOL    HW210226   2.081  10.836   1.572  0.8968  0.8726  0.9647
 2445SOL     OW10227   3.538   0.542   3.133  0.1722  0.1045  0.1291
 2445SOL    HW110228   3.468   0.594   3.171 -1.0581 -2.0392  0.9417
 2445SOL    HW210229   3.540   0.568   3.040 -2.7381 -0.8035 -0.2663
 2446SOL     OW10230   6.357   8.601   8.413  0.0350  0.4710  0.2040
 2446SOL    HW110231   6.363   8.550   8.332 -0.5648  1.7924 -0.7169
 2446SOL    HW210232   6.447   8.629   8.430  0.2551 -0.2953  0.3285
 2447SOL     OW10233   6.798   7.465   0.342 -0.2509  0.3733 -0.1035
 2447SOL    HW110234   6.743   7.527   0.294 -1.5844 -2.1841 -2.1425
 2447SOL    HW210235   6.782   7.486   0.434 -2.3886  1.6113 -0.6847
 2448SOL     OW10236   8.306   2.538   2.931 -0.0189 -0.3210  0.1768
 2448SOL    HW110237   8.322   2.491   3.013  1.6472 -2.3633 -1.2033
 2448SOL    HW210238   8.386   2.589   2.917 -0.4774  0.3697  0.0243
 2449SOL     OW10239   7.014   5.173   7.724  0.3166 -0.4487 -0.4742
 2449SOL    HW110240   6.959   5.246   7.696  1.7609  1.3941  1.1501
 2449SOL    HW210241   6.971   5.141   7.804 -0.7557 -2.0110 -1.6055
 2450SOL     OW10242   0.093   5.335   0.191  0.3404 -0.3473  0.0924
 2450SOL    HW110243   0.005   5.302   0.212  0.1956 -0.0032  0.0255
 2450SOL    HW210244   0.109   5.303   0.102  1.3102 -2.5558  0.9741
 2451SOL     OW10245   0.978   3.559  10.715  0.0376  0.3760 -0.5349
 2451SOL    HW110246   1.064   3.592  10.742 -0.4583  0.4462  1.0962
 2451SOL    HW210247   0.938   3.527  10.796 -1.3861  0.1343 -1.2922
 2452SOL     OW10248   2.394   2.784   2.771 -1.0489 -0.3640 -0.1946
 2452SOL    HW110249   2.332   2.853   2.747 -0.8128  0.0704  0.4251
 2452SOL    HW210250   2.438   2.763   2.689 -1.0325  0.3157 -0.3677
 2453SOL     OW10251   7.112  10.267   3.483  0.7809 -0.8507 -0.2285
 2453SOL    HW110252   7.157  10.274   3.399 -0.3464 -0.9703 -0.8583
 2453SOL    HW210253   7.044  10.335   3.480 -0.0766 -1.6718  0.0634
 2454SOL     OW10254   5.587   9.286   7.501 -0.4912 -0.4272  0.0333
 2454SOL    HW110255   5.536   9.214   7.538 -1.5536 -0.0384 -0.6384
 2454SOL    HW210256   5.534   9.318   7.428 -0.4143  1.5426  0.7759
 2455SOL     OW10257   2.227   9.356   0.459  0.2361  0.0211  0.0409
 2455SOL    HW110258   2.282   9.394   0.528 -1.0720  0.8261  0.6764
 2455SOL    HW210259   2.191   9.431   0.412  0.9214 -0.5159 -1.4084
 2456SOL     OW10260   9.306   8.121   5.010  0.6745 -0.1892 -0.4852
 2456SOL    HW110261   9.226   8.153   5.052 -0.9240 -2.0694 -1.9114
 2456SOL    HW210262   9.294   8.142   4.917  2.1654  0.0772 -0.6395
 2457SOL     OW10263   2.643   1.391   6.716 -0.1812  0.6688 -0.0535
 2457SOL    HW110264   2.709   1.324   6.735  0.1463  0.5443 -1.4590
 2457SOL    HW210265   2.598   1.406   6.799  0.0520 -0.9521  0.3914
 2458SOL     OW10266   5.272   5.416   6.743 -0.2290 -0.5083  0.1585
 2458SOL    HW110267   5.315   5.472   6.807  0.3643 -1.0280  0.2238
 2458SOL    HW210268   5.214   5.360   6.794  1.2198 -1.8439  0.4375
 2459SOL     OW10269   9.997   0.970   0.970 -0.4920 -0.1990 -0.0391
 2459SOL    HW110270   9.975   1.062   0.984 -0.9301 -0.2148 -0.6038
 2459SOL    HW210271  10.074   0.955   1.025 -0.2766  0.5681 -0.1263
 2460SOL     OW10272   7.918   9.782   3.033 -0.2543 -0.5713  0.0750
 2460SOL    HW110273   7.935   9.694   3.000  0.1942 -0.7257  0.7015
 2460SOL    HW210274   7.940   9.778   3.126 -0.4013  0.1552  0.1503
 2461SOL     OW10275   9.273   2.536   5.196 -0.1121  0.2946  0.0150
 2461SOL    HW110276   9.310   2.520   5.109  0.0632 -1.4250  0.3590
 2461SOL    HW210277   9.332   2.601   5.235  1.5793 -1.0854 -0.1078
 2462SOL     OW10278  10.326   6.501   7.600 -0.0251  0.1396 -0.8225
 2462SOL    HW110279  10.296   6.591   7.612  0.5443  0.1986  0.2661
 2462SOL    HW210280  10.277   6.469   7.525 -0.6602  1.1728 -0.8592
 2463SOL     OW10281   4.205   9.862   9.759  0.0214  0.6563 -0.1223
 2463SOL    HW110282   4.296   9.838   9.742 -0.7469 -2.5405 -0.2350
 2463SOL    HW210283   4.177   9.906   9.679  0.7917 -0.5642 -1.1060
 2464SOL     OW10284   0.196   3.162   6.168  0.8247 -0.0461  0.3948
 2464SOL    HW110285   0.134   3.089   6.166  0.5494  0.1682  0.8887
 2464SOL    HW210286   0.252   3.148   6.092 -0.0606 -0.0364 -0.2794
 2465SOL     OW10287   8.063   6.634   6.052  0.2798  0.2290  0.0742
 2465SOL    HW110288   8.079   6.607   5.961  0.1232 -1.2490  0.4557
 2465SOL    HW210289   7.970   6.655   6.055 -0.5584 -3.0186  0.6024
 2466SOL     OW10290   8.356   4.351   2.675  0.4118  0.5531 -0.2363
 2466SOL    HW110291   8.432   4.304   2.641 -0.2871 -0.2008 -0.8046
 2466SOL    HW210292   8.342   4.422   2.612  0.1502  0.1897 -0.5942
 2467SOL     OW10293   5.779  10.553   2.294  0.0979  0.3222 -0.0220
 2467SOL    HW110294   5.763  10.466   2.256  2.1597 -0.7630  1.3964
 2467SOL    HW210295   5.720  10.557   2.370  1.2695 -0.6495  0.9804
 2468SOL     OW10296   2.203   8.583   5.211  0.1273  0.1761  0.3740
 2468SOL    HW110297   2.255   8.527   5.153  0.0526  1.4592 -0.9981
 2468SOL    HW210298   2.194   8.665   5.162 -2.3064  0.3562  1.0274
 2469SOL     OW10299   5.850  10.143   0.853 -0.0811 -0.2319 -0.6358
 2469SOL    HW110300   5.875  10.051   0.860  1.2392  0.2367  2.8193
 2469SOL    HW210301   5.793  10.147   0.776  1.1799 -3.5790 -1.9155
 2470SOL     OW10302   5.190   7.865  10.143  0.3750 -0.5056 -0.2429
 2470SOL    HW110303   5.194   7.932  10.074  1.2908 -1.4007 -1.0788
 2470SOL    HW210304   5.255   7.894  10.208  0.3216 -0.2639 -0.2945
 2471SOL     OW10305   2.813   4.805   9.455 -0.6741 -0.4219  0.2702
 2471SOL    HW110306   2.874   4.744   9.414 -0.0099  0.7159 -0.4863
 2471SOL    HW210307   2.727   4.777   9.424 -0.1840  0.5331 -2.1569
 2472SOL     OW10308   2.323   7.602   7.786 -0.5887  0.2283 -0.0312
 2472SOL    HW110309   2.366   7.582   7.870  0.5220  0.6159 -0.4880
 2472SOL    HW210310   2.395   7.627   7.728 -1.4164  0.5893 -0.9223
 2473SOL     OW10311   4.609   9.690   1.988  0.0729 -0.4857 -0.4621
 2473SOL    HW110312   4.520   9.668   1.960  0.2318 -1.1360 -0.4641
 2473SOL    HW210313   4.666   9.634   1.934  0.4231 -1.1569  0.5870
 2474SOL     OW10314  10.542   1.937   5.334  0.2484 -0.2359  0.8136
 2474SOL    HW110315  10.466   1.932   5.276  0.1291 -0.6582  0.9996
 2474SOL    HW210316  10.505   1.956   5.420  0.2119 -1.8171  1.1754
 2475SOL     OW10317   4.073   2.741   1.312 -0.1665  0.1907 -0.0206
 2475SOL    HW110318   4.060   2.649   1.334 -1.6530  0.9352  2.7027
 2475SOL    HW210319   4.166   2.747   1.289  0.0843 -1.8950  0.2399
 2476SOL     OW10320   7.506   1.148   1.731  0.7163 -0.1623  0.8460
 2476SOL    HW110321   7.456   1.125   1.810 -1.1496 -0.5325 -0.3572
 2476SOL    HW210322   7.553   1.068   1.708  0.3859 -0.3953  0.9727
 2477SOL     OW10323   6.655   2.921   8.522 -0.2100 -0.1419  0.1448
 2477SOL    HW110324   6.632   2.853   8.459  1.8315  0.4428 -1.3519
 2477SOL    HW210325   6.645   3.003   8.474 -1.5035  0.5590  1.5609
 2478SOL     OW10326   0.681   1.184   9.353 -0.4646  0.5437 -0.2589
 2478SOL    HW110327   0.693   1.168   9.447 -3.2534 -1.5083 -0.1177
 2478SOL    HW210328   0.666   1.278   9.347 -0.9224  0.6226  1.4505
 2479SOL     OW10329   9.068   6.343   1.868  0.4779 -0.1728  0.5123
 2479SOL    HW110330   8.994   6.404   1.866  1.0374  0.5308  0.8102
 2479SOL    HW210331   9.098   6.344   1.959  0.6230 -0.7364  0.4729
 2480SOL     OW10332   1.318   5.228   7.924 -0.2304  0.4739 -0.2460
 2480SOL    HW110333   1.233   5.225   7.880 -0.0939 -1.0467 -0.4675
 2480SOL    HW210334   1.337   5.136   7.944  0.8688  0.8979  0.7605
 2481SOL     OW10335   7.328   4.897   9.785  0.2802 -0.1099 -0.1565
 2481SOL    HW110336   7.287   4.834   9.845 -1.0424 -0.0361 -0.9443
 2481SOL    HW210337   7.288   4.879   9.700  0.2933  1.4065 -0.5173
 2482SOL     OW10338   1.412   1.503   4.504 -0.3548  0.2660  0.1845
 2482SOL    HW110339   1.444   1.509   4.594 -1.1114  1.2019  0.4151
 2482SOL    HW210340   1.466   1.566   4.456  1.0647 -1.2940 -0.3668
 2483SOL     OW10341   3.896   3.315  10.072  0.1914  0.5004  0.1199
 2483SOL    HW110342   3.974   3.317  10.017  1.0575  3.1566  1.2446
 2483SOL    HW210343   3.824   3.335  10.012  0.5301 -0.6041 -0.6882
 2484SOL     OW10344   1.442   7.707   1.915  0.5611  0.6894 -0.1449
 2484SOL    HW110345   1.475   7.630   1.870 -1.2192  0.8946 -1.9647
 2484SOL    HW210346   1.366   7.735   1.862 -0.0962  2.4585  1.6066
 2485SOL     OW10347   0.089   4.268  10.778  0.0384 -0.1717  0.2312
 2485SOL    HW110348   0.075   4.174  10.772 -1.6917 -0.0141  1.2550
 2485SOL    HW210349   0.063   4.302  10.692  0.3084 -0.5773 -0.0132
 2486SOL     OW10350   5.847   7.195   9.612 -0.4848 -0.1029  0.5411
 2486SOL    HW110351   5.765   7.154   9.585  0.1708 -1.0475 -0.1032
 2486SOL    HW210352   5.837   7.287   9.589 -2.0601  0.1853  2.1609
 2487SOL     OW10353   1.684   8.591   0.377  0.1672 -0.1928  0.0295
 2487SOL    HW110354   1.778   8.610   0.379 -0.0103  0.8318 -0.4150
 2487SOL    HW210355   1.676   8.515   0.319  0.7644 -0.6110  0.4793
 2488SOL     OW10356   2.040  10.653   1.324 -0.0587  0.4804 -0.2687
 2488SOL    HW110357   2.030  10.729   1.268  0.9525  0.7536 -0.1020
 2488SOL    HW210358   1.955  10.642   1.366 -0.2516  1.4299 -0.4062
 2489SOL     OW10359   3.471   4.167   8.351 -0.1271 -0.2338  0.8878
 2489SOL    HW110360   3.387   4.198   8.386 -2.0489 -1.8337 -1.8651
 2489SOL    HW210361   3.510   4.245   8.311 -0.3076  0.5184  2.1236
 2490SOL     OW10362   3.382   3.748   5.514 -0.1386  0.5732  0.1703
 2490SOL    HW110363   3.372   3.808   5.440  0.6929  1.8602  1.0544
 2490SOL    HW210364   3.340   3.794   5.587 -0.3665 -0.3820  0.6540
 2491SOL     OW10365  10.013   5.830   1.256 -0.1826 -0.2046  0.3774
 2491SOL    HW110366  10.047   5.875   1.180 -1.2593 -0.4249 -0.2533
 2491SOL    HW210367  10.071   5.856   1.328  0.7363  0.1356 -0.4737
 2492SOL     OW10368   6.863   9.750   3.295 -0.0083  0.5341 -0.1879
 2492SOL    HW110369   6.779   9.774   3.334  0.0582  1.0163 -0.3367
 2492SOL    HW210370   6.888   9.670   3.341 -1.1847 -0.3748 -1.0725
 2493SOL     OW10371   3.808   4.107   6.341 -0.4672 -0.2294 -0.4655
 2493SOL    HW110372   3.805   4.014   6.317  0.4588 -0.6128  0.7685
 2493SOL    HW210373   3.896   4.135   6.314 -1.4023  0.8454 -2.6157
 2494SOL     OW10374   6.849   9.809   8.596  0.2177 -0.6163 -0.1889
 2494SOL    HW110375   6.910   9.844   8.531 -0.6853  1.5994  0.0614
 2494SOL    HW210376   6.784   9.760   8.544 -0.0952  0.5304 -0.9179
 2495SOL     OW10377   8.674   5.737  10.186 -0.1473  0.2186 -0.0051
 2495SOL    HW110378   8.743   5.802  10.197  1.3417 -1.3580  0.4595
 2495SOL    HW210379   8.643   5.718  10.275  0.9081 -1.1750  0.1033
 2496SOL     OW10380   4.250   8.342   4.455  0.0359  0.5890 -0.0741
 2496SOL    HW110381   4.289   8.316   4.372 -0.5130  1.1240 -0.5130
 2496SOL    HW210382   4.174   8.285   4.465  0.7167 -0.2173  0.6073
 2497SOL     OW10383   9.265   2.274   9.194 -0.5474 -0.0023 -0.3402
 2497SOL    HW110384   9.234   2.268   9.285  1.7165 -2.3596  0.3860
 2497SOL    HW210385   9.244   2.188   9.156  0.6089  0.1324 -1.3273
 2498SOL     OW10386   8.520   8.386   2.596 -0.4856  0.4640 -0.3148
 2498SOL    HW110387   8.451   8.443   2.561 -1.3043 -0.3277 -0.0177
 2498SOL    HW210388   8.473   8.313   2.636  0.4923  0.4244  0.8185
 2499SOL     OW10389   3.079   5.884   6.272  0.0651 -0.0862  0.2173
 2499SOL    HW110390   3.105   5.794   6.289  2.2192 -0.1500 -2.7645
 2499SOL    HW210391   3.000   5.876   6.219 -0.0271 -0.1800  0.3663
 2500SOL     OW10392   8.818   3.935   2.780  0.3846 -0.1316 -0.1881
 2500SOL    HW110393   8.901   3.897   2.753  0.5058 -0.8739  1.1198
 2500SOL    HW210394   8.843   4.004   2.842  0.0346 -0.2343  0.0684
 2501SOL     OW10395   9.048  10.786  10.640  0.0795 -0.0149  0.0350
 2501SOL    HW110396   9.126  10.757  10.592  0.6698 -1.4093  1.7578
 2501SOL    HW210397   8.984  10.716  10.628  0.2831 -0.4539  1.3410
 2502SOL     OW10398   1.328   8.390   1.596 -0.1151  0.5897 -0.3737
 2502SOL    HW110399   1.380   8.316   1.628 -2.0695 -0.9747 -0.6656
 2502SOL    HW210400   1.300   8.435   1.675 -0.6013 -0.2014 -0.0851
 2503SOL     OW10401   0.234   3.289   6.425  0.0597  0.3103  0.6125
 2503SOL    HW110402   0.206   3.377   6.401 -1.6447 -0.1186  0.8801
 2503SOL    HW210403   0.206   3.234   6.352 -0.1605 -0.2004  1.0725
 2504SOL     OW10404   9.418   3.339   9.391 -0.1140 -0.3001  0.0706
 2504SOL    HW110405   9.384   3.250   9.388 -0.8367 -0.0592  0.7672
 2504SOL    HW210406   9.368   3.381   9.461  0.2787  0.6277 -0.1955
 2505SOL     OW10407   4.520  10.718   2.638 -0.0202  0.9980  0.1464
 2505SOL    HW110408   4.597  10.662   2.650 -0.9988 -0.0947  1.7208
 2505SOL    HW210409   4.456  10.662   2.594 -0.3033  1.5511 -0.1627
 2506SOL     OW10410   1.812   2.736   9.617 -0.4730  0.2569 -0.0576
 2506SOL    HW110411   1.831   2.652   9.575  1.0271  0.4498  0.1784
 2506SOL    HW210412   1.758   2.783   9.554  2.5488  0.9574 -2.3667
 2507SOL     OW10413  10.422   3.811   3.451 -0.2629  0.2637  0.6157
 2507SOL    HW110414  10.427   3.868   3.527 -0.2287  0.6771  0.3043
 2507SOL    HW210415  10.491   3.842   3.392  1.3708 -1.5724  1.4377
 2508SOL     OW10416   2.661   0.807   0.458  0.6729  0.4609  0.0253
 2508SOL    HW110417   2.614   0.787   0.539 -1.0928 -1.6721 -1.4110
 2508SOL    HW210418   2.606   0.871   0.413  1.2897  1.0968  0.1520
 2509SOL     OW10419  10.518  10.550   8.528 -0.4595 -0.0316  0.6034
 2509SOL    HW110420  10.528  10.571   8.434 -0.1695  1.7060  0.9769
 2509SOL    HW210421  10.596  10.499   8.549  1.3082  2.4287  0.5785
 2510SOL     OW10422   6.399   4.390   6.995  0.6414  0.2543  0.7726
 2510SOL    HW110423   6.403   4.328   6.922  0.1190  1.0459  0.0387
 2510SOL    HW210424   6.411   4.337   7.073 -0.7167 -0.9366  0.2299
 2511SOL     OW10425   2.425   2.246   2.481  0.2430  0.0445 -0.7966
 2511SOL    HW110426   2.363   2.186   2.524  1.1049 -1.0705 -1.0694
 2511SOL    HW210427   2.428   2.217   2.390  0.7977  0.3961 -0.8946
 2512SOL     OW10428   6.649   4.478   0.286  0.5936 -0.2258  0.1619
 2512SOL    HW110429   6.566   4.510   0.251  0.7655 -1.5235 -1.5943
 2512SOL    HW210430   6.632   4.464   0.379 -1.1543 -0.4351 -0.1495
 2513SOL     OW10431   7.468   1.760   4.058 -0.0401 -0.0014 -0.1538
 2513SOL    HW110432   7.446   1.676   4.100  0.2570  1.1236  2.4126
 2513SOL    HW210433   7.453   1.826   4.125 -0.3109  2.0750 -2.1164
 2514SOL     OW10434   6.509   3.229   7.018  0.8598 -0.2882  0.5334
 2514SOL    HW110435   6.417   3.201   7.025  0.9371 -1.0979 -1.2859
 2514SOL    HW210436   6.557   3.148   7.002  1.1660  0.6003 -4.3515
 2515SOL     OW10437   2.858   4.167   2.989  0.3021  0.3436  0.0706
 2515SOL    HW110438   2.791   4.219   2.945  1.4315  1.8417  0.0127
 2515SOL    HW210439   2.821   4.148   3.075  0.0252  1.7181  0.2906
 2516SOL     OW10440   6.788   9.957   2.337  0.0450 -0.2099  0.7076
 2516SOL    HW110441   6.705   9.989   2.373 -0.4110 -0.5638  0.0037
 2516SOL    HW210442   6.853   9.976   2.404 -0.7411 -0.6135  1.6027
 2517SOL     OW10443   8.676   7.815   0.134  0.1003 -0.0489 -0.1106
 2517SOL    HW110444   8.731   7.797   0.058 -1.2976 -0.7154 -0.9998
 2517SOL    HW210445   8.682   7.735   0.187  1.7781  0.7448  0.9730
 2518SOL     OW10446   3.355   9.180   1.637  0.4844  0.0302 -0.3569
 2518SOL    HW110447   3.313   9.113   1.583  1.0838  0.4945 -1.4269
 2518SOL    HW210448   3.448   9.174   1.614  0.3246  2.5394 -2.0004
 2519SOL     OW10449   4.078   3.119   5.537  0.3349 -0.2512 -0.0317
 2519SOL    HW110450   4.042   3.190   5.484 -1.2875 -1.0138 -0.0034
 2519SOL    HW210451   4.105   3.161   5.619  0.6993  0.5489 -0.5508
 2520SOL     OW10452   7.393   6.440   1.455 -0.3449  0.0383  0.1693
 2520SOL    HW110453   7.341   6.445   1.375 -0.1593 -2.3137 -0.1669
 2520SOL    HW210454   7.452   6.366   1.440  0.3226  0.1249  2.1275
 2521SOL     OW10455   1.823   8.905  10.150  0.1712  0.8355  0.2732
 2521SOL    HW110456   1.756   8.972  10.156 -0.7091  0.0665 -0.6122
 2521SOL    HW210457   1.885   8.939  10.085  1.0387  1.8429  1.5660
 2522SOL     OW10458  10.296   7.713   7.369 -0.0106  0.3816 -0.3032
 2522SOL    HW110459  10.275   7.664   7.448  0.0256 -1.0139 -1.1213
 2522SOL    HW210460  10.365   7.773   7.395  1.5609 -1.5605  0.2777
 2523SOL     OW10461   1.076   3.583   0.724 -0.6858  0.3467  0.4407
 2523SOL    HW110462   1.042   3.514   0.780  0.3128  0.5908  1.3643
 2523SOL    HW210463   1.044   3.664   0.763 -0.0870  0.5125  0.5930
 2524SOL     OW10464   3.447   0.652   2.615 -0.5838 -0.8336  0.3981
 2524SOL    HW110465   3.497   0.596   2.556  0.2315  1.1459 -0.8948
 2524SOL    HW210466   3.468   0.741   2.588 -0.6275  0.1988  3.3253
 2525SOL     OW10467   2.471   9.811   1.848 -0.5598 -0.5212 -0.0474
 2525SOL    HW110468   2.541   9.849   1.900 -1.1884 -0.8196  1.0585
 2525SOL    HW210469   2.408   9.882   1.838  0.1407 -0.0810 -1.5390
 2526SOL     OW10470   7.110   7.283   8.288 -0.4220  0.3864 -0.4114
 2526SOL    HW110471   7.049   7.329   8.229  1.5016  1.0113 -2.0298
 2526SOL    HW210472   7.149   7.353   8.340  0.3824  0.2509 -0.8258
 2527SOL     OW10473   0.804   9.060   5.233 -0.2722 -0.3093  0.7593
 2527SOL    HW110474   0.886   9.034   5.275 -0.2723  0.7493  1.4570
 2527SOL    HW210475   0.744   8.988   5.250  0.5025 -1.1121  0.2168
 2528SOL     OW10476   4.026   4.196   3.884  0.0739 -0.5150  0.6131
 2528SOL    HW110477   4.008   4.102   3.875  0.5839 -0.4709 -0.9916
 2528SOL    HW210478   4.112   4.208   3.846 -0.4644  0.7844 -0.2431
 2529SOL     OW10479   7.821   6.191  10.667  0.2276 -0.4711 -0.3009
 2529SOL    HW110480   7.890   6.158  10.724  0.1170 -0.7110 -0.3039
 2529SOL    HW210481   7.787   6.268  10.713  0.6724 -0.1957 -0.4252
 2530SOL     OW10482   3.204   4.857   7.246 -0.2474  0.1347 -0.1374
 2530SOL    HW110483   3.216   4.952   7.254 -0.2264  0.0840  0.4705
 2530SOL    HW210484   3.292   4.822   7.231 -0.1322  0.1317  0.5105
 2531SOL     OW10485   9.216   5.327   5.110 -0.5840  0.3450  0.0128
 2531SOL    HW110486   9.282   5.362   5.169 -1.4204  0.7615  0.7257
 2531SOL    HW210487   9.233   5.234   5.106 -0.4114  0.3388  0.7893
 2532SOL     OW10488  10.503   9.235   4.074 -0.2485  0.1093 -0.3711
 2532SOL    HW110489  10.493   9.328   4.052 -0.2998  0.3527  0.6022
 2532SOL    HW210490  10.586   9.231   4.122 -0.2559 -0.3449 -0.3954
 2533SOL     OW10491   2.577   5.439   5.112 -0.5141  0.0205 -0.1161
 2533SOL    HW110492   2.653   5.400   5.068 -0.0686 -0.3003  0.9147
 2533SOL    HW210493   2.511   5.369   5.113  0.3117 -0.8228  1.8046
 2534SOL     OW10494   5.696  10.784   6.981  0.2094 -0.4021 -0.2591
 2534SOL    HW110495   5.726  10.873   6.999  0.8032 -0.9141  1.4863
 2534SOL    HW210496   5.674  10.785   6.888  3.3566  0.6710 -1.1297
 2535SOL     OW10497   6.859   4.253   6.599  0.1203  0.5351  0.4291
 2535SOL    HW110498   6.880   4.210   6.516 -1.9321  1.1928 -0.4933
 2535SOL    HW210499   6.861   4.182   6.663 -0.4367 -0.4278 -0.5742
 2536SOL     OW10500  10.011   9.709   0.986 -0.0350 -0.0306 -0.1209
 2536SOL    HW110501  10.038   9.713   0.894 -0.2156  0.2182 -0.1637
 2536SOL    HW210502   9.971   9.622   0.996 -0.2530  0.0425 -0.3429
 2537SOL     OW10503   5.694   4.382   8.534 -0.6220 -0.9418 -0.3303
 2537SOL    HW110504   5.740   4.454   8.577  3.0196 -1.1534 -3.3708
 2537SOL    HW210505   5.666   4.325   8.605  2.0553  0.3329  1.9068
 2538SOL     OW10506   2.143   0.858   6.007 -0.1658 -0.0516  0.1464
 2538SOL    HW110507   2.122   0.938   5.960  0.5946 -0.9025 -1.7588
 2538SOL    HW210508   2.238   0.862   6.019 -0.1288 -0.6251  0.0790
 2539SOL     OW10509   4.575  10.168   7.741  0.1096 -0.1224  0.2275
 2539SOL    HW110510   4.626  10.223   7.802  2.0267 -3.2360  1.6909
 2539SOL    HW210511   4.496  10.146   7.790 -0.0071  0.1906  0.1836
 2540SOL     OW10512   2.913   1.026   0.699 -0.1797 -0.4353 -0.6081
 2540SOL    HW110513   2.987   1.004   0.642 -0.2412 -1.3789 -0.3338
 2540SOL    HW210514   2.883   1.112   0.667  1.5562  0.3726 -0.1752
 2541SOL     OW10515   5.499   0.544   9.207  0.0728  0.1575 -0.1992
 2541SOL    HW110516   5.426   0.489   9.232 -1.7280  2.3828 -0.2444
 2541SOL    HW210517   5.459   0.621   9.167  2.4065  1.6580  0.1281
 2542SOL     OW10518   8.032   1.826   2.545  0.2901 -0.3349  0.1781
 2542SOL    HW110519   8.004   1.803   2.457  0.6716  0.9014 -0.3029
 2542SOL    HW210520   7.951   1.837   2.595 -0.0159  0.6407 -0.4954
 2543SOL     OW10521   9.788   6.091   0.776 -0.5985  0.3299  0.3569
 2543SOL    HW110522   9.837   6.074   0.856 -0.2621 -0.8535 -0.0824
 2543SOL    HW210523   9.849   6.143   0.723 -0.7484  0.9495  0.7841
 2544SOL     OW10524   1.206   2.985   3.650  0.6554  0.5792  0.5457
 2544SOL    HW110525   1.152   2.959   3.575  1.1327  1.1088  0.0034
 2544SOL    HW210526   1.259   3.058   3.617 -0.2922  1.9256  1.8856
 2545SOL     OW10527  10.731   7.394   6.888  0.1179  1.1375 -0.2248
 2545SOL    HW110528  10.774   7.479   6.881  1.5493  0.3067 -2.3901
 2545SOL    HW210529  10.802   7.331   6.882 -0.8774 -0.2764  1.7493
 2546SOL     OW10530   3.360  10.218   0.499 -0.6115  0.3563  0.3953
 2546SOL    HW110531   3.290  10.200   0.561 -2.1533 -0.4508 -1.4805
 2546SOL    HW210532   3.325  10.190   0.414  1.8840  0.1879 -0.6632
 2547SOL     OW10533   8.174   0.789   2.216 -0.2631  0.1209 -0.0842
 2547SOL    HW110534   8.201   0.876   2.245  0.2052  0.8628 -2.4800
 2547SOL    HW210535   8.094   0.804   2.165  0.5483 -0.6140 -1.6504
 2548SOL     OW10536   6.974   8.613   1.834  0.1828  0.3657 -0.4511
 2548SOL    HW110537   6.983   8.644   1.744 -1.1999 -1.6685 -1.3793
 2548SOL    HW210538   7.013   8.526   1.834  1.6027  0.9395  1.3759
 2549SOL     OW10539   3.011   1.924   9.241  0.1822 -0.0351  0.3723
 2549SOL    HW110540   2.932   1.974   9.260 -0.7016 -1.5218  0.8156
 2549SOL    HW210541   3.073   1.949   9.309 -0.6154 -0.3064  1.2264
 2550SOL     OW10542   9.919   4.682   3.422  0.2847 -0.0707  0.2356
 2550SOL    HW110543   9.903   4.727   3.505 -3.0755 -3.2515  1.6065
 2550SOL    HW210544  10.006   4.642   3.434  0.2600  0.2689  1.8922
 2551SOL     OW10545   4.781   7.017   7.364  0.2287  0.1736  0.3815
 2551SOL    HW110546   4.727   6.985   7.436 -0.8705  0.9680 -0.0625
 2551SOL    HW210547   4.807   6.938   7.316 -0.6756 -0.2193  0.5197
 2552SOL     OW10548   3.142   9.083   8.522  0.0812 -0.3328  0.0006
 2552SOL    HW110549   3.170   9.017   8.458  0.3014 -1.8092  1.5290
 2552SOL    HW210550   3.047   9.074   8.526 -0.0758  0.7045 -1.0677
 2553SOL     OW10551   8.516   4.893   1.530  0.0830  0.2431  0.0532
 2553SOL    HW110552   8.493   4.929   1.616  1.5278  0.2464  0.4562
 2553SOL    HW210553   8.455   4.820   1.518 -1.0702  1.1050  0.4365
 2554SOL     OW10554   0.389  10.031   4.966  0.0691 -0.1485  0.1460
 2554SOL    HW110555   0.360  10.066   4.882 -0.6714  0.4265  0.6282
 2554SOL    HW210556   0.484  10.033   4.962  0.0514 -0.8241 -0.9579
 2555SOL     OW10557   4.258   7.452   5.212 -0.3718 -0.3378  0.2479
 2555SOL    HW110558   4.275   7.455   5.306 -1.8188 -0.1900  0.5292
 2555SOL    HW210559   4.169   7.486   5.203  0.5460  1.8104 -1.4261
 2556SOL     OW10560   2.252   6.944   8.677 -0.4558  0.0209  0.1451
 2556SOL    HW110561   2.171   6.976   8.717  0.0295 -0.5009  1.6140
 2556SOL    HW210562   2.223   6.876   8.616 -1.1096 -0.5446  1.0544
 2557SOL     OW10563   2.567   4.207   3.913 -0.3909  0.0908  0.4144
 2557SOL    HW110564   2.613   4.128   3.942  0.0495  1.2314  3.0026
 2557SOL    HW210565   2.495   4.174   3.860 -0.0510 -2.0281  1.1865
 2558SOL     OW10566   1.208   2.482   4.455 -0.1765 -0.1662  0.7100
 2558SOL    HW110567   1.287   2.533   4.474 -0.5185  1.3558 -1.5693
 2558SOL    HW210568   1.137   2.531   4.495 -0.1571 -0.7889  1.5439
 2559SOL     OW10569   8.735   9.876   3.664  0.2065 -0.6907  0.4042
 2559SOL    HW110570   8.797   9.822   3.713  0.2257 -1.9521 -0.9623
 2559SOL    HW210571   8.790   9.931   3.609  0.2517  1.7133  2.6352
 2560SOL     OW10572   1.750   5.846  10.267  0.1618  0.3491  0.5809
 2560SOL    HW110573   1.778   5.894  10.189 -0.9878  0.3220  0.1252
 2560SOL    HW210574   1.816   5.865  10.333  0.7119  1.0441 -0.1573
 2561SOL     OW10575   0.844   3.113   1.769  0.2123  0.2120 -0.3584
 2561SOL    HW110576   0.872   3.194   1.812 -4.1020  1.1845  1.0732
 2561SOL    HW210577   0.817   3.140   1.682  2.7052 -0.6182 -1.5034
 2562SOL     OW10578   1.932   3.931   8.736 -0.0808 -0.2710  0.1923
 2562SOL    HW110579   1.987   3.882   8.798  1.5344  0.2797 -0.7364
 2562SOL    HW210580   1.946   4.023   8.759 -0.2677 -0.1042 -0.3415
 2563SOL     OW10581   1.646   3.541   9.121 -0.3179 -0.0020 -0.4394
 2563SOL    HW110582   1.608   3.616   9.167  2.4130 -0.2294  2.5396
 2563SOL    HW210583   1.725   3.574   9.080  1.2755 -1.2531  1.4475
 2564SOL     OW10584   2.820   1.446   7.161  0.6186 -0.1386 -0.0241
 2564SOL    HW110585   2.797   1.518   7.220  2.6540 -0.0216  0.6998
 2564SOL    HW210586   2.885   1.483   7.102  0.0558 -0.8044 -1.0795
 2565SOL     OW10587   3.702   7.543   9.267 -0.1202  0.2478 -0.1763
 2565SOL    HW110588   3.791   7.561   9.235 -0.3233  0.6227 -0.5355
 2565SOL    HW210589   3.657   7.627   9.262  0.2211  0.6726  2.3833
 2566SOL     OW10590   1.404   9.603   0.663 -0.7018 -0.0670  0.2073
 2566SOL    HW110591   1.358   9.673   0.710 -0.8220 -0.4252  0.6265
 2566SOL    HW210592   1.469   9.570   0.726 -0.3405 -0.0363 -0.1408
 2567SOL     OW10593   1.273   2.680   5.210  0.1195 -0.6025  0.2240
 2567SOL    HW110594   1.215   2.682   5.134  1.8533  2.3888 -1.1830
 2567SOL    HW210595   1.221   2.716   5.282 -0.4254  0.0112 -0.4752
 2568SOL     OW10596   8.007   1.737   6.456  0.0355  0.7097 -0.4493
 2568SOL    HW110597   8.075   1.696   6.403 -0.7781 -0.6486 -0.4709
 2568SOL    HW210598   7.997   1.825   6.419  1.7035  0.9101 -0.4976
 2569SOL     OW10599   9.622   9.200   1.343 -0.0561 -0.0044 -0.7724
 2569SOL    HW110600   9.550   9.141   1.366  0.3345 -0.4605 -0.7204
 2569SOL    HW210601   9.579   9.273   1.297 -0.7029  0.3289  0.3270
 2570SOL     OW10602   7.489   3.452   9.778  0.3856 -0.1622  0.2772
 2570SOL    HW110603   7.489   3.547   9.784 -0.2386 -0.2216  1.5171
 2570SOL    HW210604   7.406   3.431   9.733  0.2382 -0.1483  0.5436
 2571SOL     OW10605   7.680   9.058   0.677 -0.1320  0.5810  0.5307
 2571SOL    HW110606   7.641   9.145   0.673  0.3625  0.7900  0.1501
 2571SOL    HW210607   7.617   9.006   0.727 -0.4502  1.1445  0.7292
 2572SOL     OW10608   8.268   3.983   0.740  0.5132 -0.1321 -0.5177
 2572SOL    HW110609   8.314   4.067   0.740 -0.3747  0.3704 -1.0549
 2572SOL    HW210610   8.335   3.919   0.714  1.3036  0.3268  0.2931
 2573SOL     OW10611   7.941   8.321  10.715 -0.4459 -0.1954 -0.3638
 2573SOL    HW110612   7.877   8.278  10.658 -1.1278  2.7845 -2.0588
 2573SOL    HW210613   7.962   8.403  10.670  1.7920  0.6383  1.9685
 2574SOL     OW10614   5.198   6.942  10.305 -0.8688  0.7142  0.6444
 2574SOL    HW110615   5.276   6.918  10.255 -2.8715  0.4800 -2.6754
 2574SOL    HW210616   5.198   7.038  10.304 -0.9244  0.7112  0.1270
 2575SOL     OW10617   3.022  10.096   6.142  0.6184  0.2011  0.3879
 2575SOL    HW110618   2.940  10.047   6.149 -0.1896  1.5027  0.4987
 2575SOL    HW210619   3.008  10.155   6.068  2.5271 -1.4338 -1.3927
 2576SOL     OW10620   5.684   2.751   3.689 -0.3219  0.1624 -0.1870
 2576SOL    HW110621   5.729   2.696   3.625 -0.7791  0.1642 -0.5195
 2576SOL    HW210622   5.668   2.833   3.643 -0.4927  0.2284 -0.0112
 2577SOL     OW10623   8.987   5.133   8.079 -0.5786 -0.8497 -0.3490
 2577SOL    HW110624   9.026   5.065   8.023 -0.3200  0.0107 -1.2330
 2577SOL    HW210625   8.904   5.154   8.037 -0.7801 -0.7977  0.0714
 2578SOL     OW10626   7.706   6.651   4.598 -0.1408  0.2258  0.3807
 2578SOL    HW110627   7.617   6.658   4.563  0.3010  0.3926 -0.7387
 2578SOL    HW210628   7.694   6.627   4.690 -1.3620  1.1776  0.4863
 2579SOL     OW10629   8.258   5.924   9.558 -0.8327  0.6610  0.1789
 2579SOL    HW110630   8.250   5.829   9.556 -0.9366  0.6767 -1.2603
 2579SOL    HW210631   8.312   5.942   9.635 -0.9698 -0.5415  0.5816
 2580SOL     OW10632   0.183   5.533   2.119  0.2405  0.3363  0.1632
 2580SOL    HW110633   0.190   5.585   2.200 -1.7833  1.2645 -0.1972
 2580SOL    HW210634   0.271   5.499   2.106  0.5701 -0.2142  2.9989
 2581SOL     OW10635   7.972   2.417   3.305  0.4162  0.2642 -0.8049
 2581SOL    HW110636   8.013   2.498   3.275  1.8989 -0.4997 -0.9375
 2581SOL    HW210637   7.927   2.442   3.386 -0.5296  1.5509 -1.6833
 2582SOL     OW10638   8.105   2.996   9.592 -0.5510  0.4413  0.0707
 2582SOL    HW110639   8.182   2.948   9.621  0.1918  0.6612 -1.4540
 2582SOL    HW210640   8.051   2.931   9.548  1.0058  1.1131 -3.0509
 2583SOL     OW10641   2.885   0.685   7.386  0.0018 -0.6015 -0.1742
 2583SOL    HW110642   2.827   0.612   7.365 -0.9130 -0.2022  0.8759
 2583SOL    HW210643   2.900   0.678   7.480  0.4073  0.2035 -0.1702
 2584SOL     OW10644   2.566   1.180   3.983 -0.0362  0.0695 -0.0744
 2584SOL    HW110645   2.504   1.248   3.956  0.5615  0.2453 -1.0973
 2584SOL    HW210646   2.598   1.209   4.068 -1.4153 -0.0759  0.5165
 2585SOL     OW10647   8.808   5.708   9.220  0.2200 -1.0219  0.1399
 2585SOL    HW110648   8.763   5.766   9.158  0.0814 -2.1804 -0.8906
 2585SOL    HW210649   8.877   5.762   9.258 -0.3443  0.0127 -0.2637
 2586SOL     OW10650  10.412   8.024   3.728 -0.2987  0.7593 -0.0901
 2586SOL    HW110651  10.377   8.008   3.640  0.2670 -1.4823  0.0319
 2586SOL    HW210652  10.446   8.113   3.725 -0.2008  0.6967 -2.1837
 2587SOL     OW10653   0.085   2.240   5.612 -0.4969  0.0805 -0.1413
 2587SOL    HW110654  -0.009   2.251   5.630 -0.8938 -2.3447 -0.2866
 2587SOL    HW210655   0.127   2.313   5.656 -2.4653  1.3016 -0.1686
 2588SOL     OW10656   2.923   5.354   8.705 -0.6493 -0.0825  0.7023
 2588SOL    HW110657   2.976   5.420   8.750  0.3269 -0.3371 -0.0615
 2588SOL    HW210658   2.938   5.274   8.755 -2.2131  0.3316  1.9267
 2589SOL     OW10659   6.586   7.116  10.030  0.0083 -0.0729 -0.0751
 2589SOL    HW110660   6.535   7.166  10.094  0.3093 -1.1161  1.0168
 2589SOL    HW210661   6.548   7.028  10.033 -2.2346  0.5508 -3.8365
 2590SOL     OW10662   4.463   1.114   5.416  0.2938 -0.6373  1.2196
 2590SOL    HW110663   4.390   1.106   5.355 -0.2574 -1.2311  1.9466
 2590SOL    HW210664   4.505   1.028   5.415 -0.0776 -0.8353  2.1125
 2591SOL     OW10665  10.600   9.128   5.536  0.3095 -0.1631 -0.1909
 2591SOL    HW110666  10.592   9.113   5.442 -2.6453  3.0600 -0.6351
 2591SOL    HW210667  10.545   9.060   5.575  1.7599 -1.6836 -0.6671
 2592SOL     OW10668   1.576   6.279   9.234  0.3101 -0.2232  0.0001
 2592SOL    HW110669   1.577   6.353   9.172 -0.3355  0.4472  0.7613
 2592SOL    HW210670   1.520   6.214   9.192  0.7002 -0.1959 -0.5771
 2593SOL     OW10671   5.722   1.570   3.292  0.1823  0.1350 -0.3733
 2593SOL    HW110672   5.668   1.493   3.306  1.1005 -0.7262 -1.4080
 2593SOL    HW210673   5.701   1.628   3.365 -2.2516 -0.0737 -0.8157
 2594SOL     OW10674   3.667   2.736   1.821 -0.3921  0.1159 -0.1981
 2594SOL    HW110675   3.761   2.738   1.805 -0.6442  0.5243 -1.8564
 2594SOL    HW210676   3.655   2.672   1.890  1.1375  0.3435  0.3127
 2595SOL     OW10677  10.526   1.166   9.379  0.5776 -0.5516  1.0296
 2595SOL    HW110678  10.460   1.114   9.332 -0.4484  2.2616 -0.9488
 2595SOL    HW210679  10.608   1.145   9.335  0.2016 -0.6023  0.3301
 2596SOL     OW10680  10.320   8.930   4.272  0.0446 -0.2151  0.1052
 2596SOL    HW110681  10.293   8.839   4.280  3.4369 -1.3330  0.3849
 2596SOL    HW210682  10.322   8.946   4.178 -1.9598  0.1165  0.0771
 2597SOL     OW10683  10.200   1.952   7.191  0.2647 -0.0134 -0.2928
 2597SOL    HW110684  10.191   1.955   7.096  2.5972 -0.5330 -0.5794
 2597SOL    HW210685  10.270   1.890   7.207 -2.0239 -2.2523  1.9731
 2598SOL     OW10686   2.506  10.558   8.176 -0.3449  0.1973  0.1558
 2598SOL    HW110687   2.441  10.591   8.114 -1.0153 -0.6947  0.3603
 2598SOL    HW210688   2.460  10.489   8.224  1.1546 -1.4769 -0.6836
 2599SOL     OW10689  10.267   8.027   0.558 -0.7822 -0.3670 -0.7402
 2599SOL    HW110690  10.295   7.958   0.618 -2.5987 -0.5663 -0.0585
 2599SOL    HW210691  10.183   7.995   0.523 -0.8163  0.7395 -1.7187
 2600SOL     OW10692   9.242   3.710   6.933  0.2738  0.0844  0.6061
 2600SOL    HW110693   9.266   3.803   6.939  0.6882 -0.1001  2.0136
 2600SOL    HW210694   9.172   3.699   6.998 -0.1944 -0.4719  0.0235
 2601SOL     OW10695   6.520   9.225   7.972 -0.3189 -0.4361 -0.3123
 2601SOL    HW110696   6.508   9.182   8.057  2.0993  0.1367  0.4158
 2601SOL    HW210697   6.578   9.165   7.923  0.8960  0.6835 -0.2984
 2602SOL     OW10698   3.017   2.294   0.331  0.4852  0.2322 -0.2609
 2602SOL    HW110699   3.039   2.202   0.347  0.2882 -0.1960 -2.2174
 2602SOL    HW210700   3.069   2.319   0.254  1.6059  2.2134  1.0458
 2603SOL     OW10701   7.388   7.829   6.436 -0.1491  0.0157  0.1897
 2603SOL    HW110702   7.460   7.830   6.373 -0.2064 -0.1721  0.1224
 2603SOL    HW210703   7.348   7.915   6.427 -0.1922 -0.0308 -0.0688
 2604SOL     OW10704   6.575   5.326   8.305  0.1127 -0.4576  0.5895
 2604SOL    HW110705   6.530   5.340   8.388 -2.5881  0.9042 -0.9377
 2604SOL    HW210706   6.549   5.238   8.279  0.7679 -0.7953  1.0689
 2605SOL     OW10707   4.532   4.579   3.712 -0.0311  0.0480 -0.2245
 2605SOL    HW110708   4.440   4.601   3.702  0.0985  1.0619  0.7000
 2605SOL    HW210709   4.571   4.655   3.753  1.1427 -0.5453 -0.1924
 2606SOL     OW10710   3.224   2.782   3.388 -0.4474  0.3745 -0.0483
 2606SOL    HW110711   3.194   2.871   3.367  0.8948  0.8398 -0.1419
 2606SOL    HW210712   3.265   2.791   3.474  1.6082  0.3728 -0.9535
 2607SOL     OW10713   2.604   5.841   4.615 -0.2846 -0.2423  0.0970
 2607SOL    HW110714   2.591   5.905   4.685 -2.4873 -0.5379  0.0110
 2607SOL    HW210715   2.540   5.864   4.548  1.7312  0.0160 -1.8874
 2608SOL     OW10716   9.030   1.100   2.478  0.3202 -0.2085  0.7465
 2608SOL    HW110717   8.959   1.049   2.438  0.7792  0.2738 -0.7255
 2608SOL    HW210718   9.032   1.069   2.569 -0.4280 -1.7084  0.2981
 2609SOL     OW10719   6.829   5.544   1.957  0.1165 -0.1919  0.2999
 2609SOL    HW110720   6.856   5.626   1.998 -1.2210  0.2193  0.4025
 2609SOL    HW210721   6.835   5.561   1.863  0.3633 -0.1621  0.3199
 2610SOL     OW10722   1.194   1.271   2.807  1.1187  0.1029 -0.2773
 2610SOL    HW110723   1.227   1.347   2.761  1.1063  1.9235  2.4657
 2610SOL    HW210724   1.269   1.237   2.856  0.3270  0.8280  1.5666
 2611SOL     OW10725   8.507   1.481   9.604 -0.0325  0.0655 -0.1642
 2611SOL    HW110726   8.523   1.401   9.555  0.2302  0.2960 -0.4628
 2611SOL    HW210727   8.427   1.464   9.654 -0.1834 -0.2469 -0.5119
 2612SOL     OW10728   9.009   4.945   1.259 -0.1125 -0.1329  0.0318
 2612SOL    HW110729   8.924   4.908   1.235  0.3387  0.0002 -2.0277
 2612SOL    HW210730   9.049   4.881   1.317 -0.0544 -2.1415 -2.0592
 2613SOL     OW10731   6.182   1.459   6.777  0.8246 -0.6989 -0.2395
 2613SOL    HW110732   6.224   1.373   6.777  3.1103  0.3251  0.1954
 2613SOL    HW210733   6.229   1.508   6.709 -0.1334  0.3521 -0.1699
 2614SOL     OW10734   6.122   8.673   1.330 -0.5025 -0.3107  0.1822
 2614SOL    HW110735   6.209   8.682   1.369  1.1634 -3.0116 -2.4830
 2614SOL    HW210736   6.095   8.584   1.352 -1.6815 -0.1947 -0.7033
 2615SOL     OW10737   7.753   4.137   7.418  0.7858  0.3617 -1.1070
 2615SOL    HW110738   7.730   4.091   7.499 -0.7425 -0.0597 -1.7364
 2615SOL    HW210739   7.848   4.130   7.412  0.9116  0.3438  0.6114
 2616SOL     OW10740   6.897   1.169   0.988  0.2986  0.2045 -0.6470
 2616SOL    HW110741   6.946   1.089   1.006  0.4422  0.3578 -0.3493
 2616SOL    HW210742   6.904   1.182   0.894 -0.0224 -0.3282 -0.7503
 2617SOL     OW10743   0.882   9.729   3.124  0.2270  0.9057  0.4071
 2617SOL    HW110744   0.849   9.719   3.034  0.4245 -0.6739  0.4822
 2617SOL    HW210745   0.815   9.780   3.168  0.7123  2.8241 -0.9351
 2618SOL     OW10746   5.022   5.526   0.000 -0.2212 -0.4625 -0.4014
 2618SOL    HW110747   5.053   5.582  -0.071  0.9705  0.6287  0.9253
 2618SOL    HW210748   4.937   5.493  -0.030 -0.9991  2.1006 -1.2349
 2619SOL     OW10749   3.445   0.096   2.297  0.4592  0.4796 -0.1410
 2619SOL    HW110750   3.358   0.118   2.332  1.1863 -0.3540  2.3842
 2619SOL    HW210751   3.454   0.002   2.314  2.1677  0.7150  0.3662
 2620SOL     OW10752   1.459   6.885   6.127  0.4215  0.2355  0.0683
 2620SOL    HW110753   1.546   6.918   6.152  1.1504 -1.3261 -0.2801
 2620SOL    HW210754   1.444   6.924   6.040  1.4870 -0.6813 -0.5592
 2621SOL     OW10755   1.195   1.895   7.267  0.1498  0.1953 -0.1945
 2621SOL    HW110756   1.157   1.900   7.355 -0.8926  0.1055 -0.6335
 2621SOL    HW210757   1.289   1.903   7.282  0.0229 -0.2699  0.9764
 2622SOL     OW10758   4.278   2.275   2.553 -0.2196 -0.7111 -0.1061
 2622SOL    HW110759   4.372   2.284   2.538 -0.2355 -0.2657  0.0378
 2622SOL    HW210760   4.242   2.260   2.465  0.0451 -1.5140 -0.0889
 2623SOL     OW10761   9.822   9.312  10.070 -0.6788 -0.9660  0.1886
 2623SOL    HW110762   9.863   9.319  10.156 -1.0918  0.0883  0.3181
 2623SOL    HW210763   9.769   9.391  10.063 -0.6563 -1.0452 -1.0328
 2624SOL     OW10764   4.267   4.893   9.502  0.4649  0.2470 -0.3151
 2624SOL    HW110765   4.213   4.969   9.521 -1.5487 -1.3999  1.0291
 2624SOL    HW210766   4.279   4.851   9.588 -0.2980 -2.0443 -1.2509
 2625SOL     OW10767   8.906   1.888   7.271  0.3569  0.4144  0.1040
 2625SOL    HW110768   8.934   1.819   7.331 -0.0060 -1.2411 -1.5296
 2625SOL    HW210769   8.815   1.865   7.250  0.9325  0.0977 -2.1892
 2626SOL     OW10770   0.413   5.045   7.873 -0.2293  0.0027 -0.8161
 2626SOL    HW110771   0.469   5.068   7.799  1.3986 -1.2281 -0.0208
 2626SOL    HW210772   0.356   4.976   7.839 -1.0317  0.9765 -1.5119
 2627SOL     OW10773   0.328   3.392   3.376  0.3236  0.4770 -0.0498
 2627SOL    HW110774   0.242   3.373   3.413  0.0108  1.6446 -0.1270
 2627SOL    HW210775   0.323   3.359   3.286  0.0983  0.1696  0.0742
 2628SOL     OW10776   4.440   9.185   8.212 -0.0249 -0.3463  0.0182
 2628SOL    HW110777   4.401   9.231   8.286 -1.3442 -0.9153 -0.2914
 2628SOL    HW210778   4.472   9.103   8.250  0.1963 -0.2014  0.1429
 2629SOL     OW10779   3.248   3.698   6.891  0.2407  0.8180  0.1537
 2629SOL    HW110780   3.267   3.771   6.950  0.2038  0.1815  0.9723
 2629SOL    HW210781   3.320   3.636   6.906 -0.9867 -0.4115  1.3004
 2630SOL     OW10782  10.207   9.379   7.625  0.1163  0.1092 -0.1245
 2630SOL    HW110783  10.117   9.408   7.641  0.0747  1.1493 -2.0300
 2630SOL    HW210784  10.258   9.459   7.623  1.1262 -0.4761  0.9540
 2631SOL     OW10785   7.018   4.378   2.791  0.8113 -0.2343  0.1197
 2631SOL    HW110786   6.965   4.366   2.870  2.3239 -2.5271  0.8612
 2631SOL    HW210787   7.087   4.312   2.797  1.5879  0.1917 -2.6459
 2632SOL     OW10788   3.431   9.325   1.012  0.0779 -0.2434  0.1641
 2632SOL    HW110789   3.483   9.326   1.093 -0.3438  0.1139  0.4399
 2632SOL    HW210790   3.342   9.344   1.041 -0.2446 -1.0662 -0.2826
 2633SOL     OW10791   4.762   4.462   5.668  0.5656  0.3982  0.5314
 2633SOL    HW110792   4.707   4.530   5.706  1.8087  0.6637  1.9293
 2633SOL    HW210793   4.742   4.465   5.574 -2.7117 -0.3983  1.0899
 2634SOL     OW10794  10.089   0.529   9.505  0.3918  0.1647  0.2825
 2634SOL    HW110795  10.029   0.575   9.564 -0.4202  0.0728 -0.4525
 2634SOL    HW210796  10.072   0.436   9.521  2.5774  0.0345  2.3269
 2635SOL     OW10797  10.298   7.583   9.208  0.2530 -0.2983 -0.1911
 2635SOL    HW110798  10.214   7.544   9.233  0.3973 -0.9555 -0.7087
 2635SOL    HW210799  10.312   7.652   9.272  0.9553 -2.3647  2.0348
 2636SOL     OW10800   0.346   5.877   1.072  0.3148  0.6028  0.0980
 2636SOL    HW110801   0.390   5.956   1.042 -0.2385  0.6067 -0.7589
 2636SOL    HW210802   0.318   5.833   0.991  1.2703 -0.8637  0.5103
 2637SOL     OW10803   4.093   0.478   3.806  0.4223  0.2229 -0.0620
 2637SOL    HW110804   4.089   0.387   3.775 -0.0960  0.5627 -1.0630
 2637SOL    HW210805   4.137   0.525   3.735 -0.3336  0.9482 -0.0619
 2638SOL     OW10806   3.568   3.829   5.780 -0.4409 -0.6766  0.1915
 2638SOL    HW110807   3.473   3.832   5.790 -0.8788 -0.7082 -2.9192
 2638SOL    HW210808   3.592   3.919   5.757 -0.1384 -1.1526 -1.5063
 2639SOL     OW10809   2.233   1.699   7.781  0.2095 -0.3523 -0.4707
 2639SOL    HW110810   2.176   1.776   7.776  0.6739 -0.0670 -1.8257
 2639SOL    HW210811   2.299   1.722   7.846 -0.5667 -0.2465  0.2960
 2640SOL     OW10812   0.875   7.768   1.495  0.0808  0.3012  0.0550
 2640SOL    HW110813   0.941   7.735   1.434  0.4512  0.0683  0.5667
 2640SOL    HW210814   0.926   7.800   1.570 -0.3994 -0.1524  0.5840
 2641SOL     OW10815   2.418   7.553  10.687  0.3892  0.0119 -0.2054
 2641SOL    HW110816   2.481   7.588  10.624 -0.7922  0.5742 -1.1095
 2641SOL    HW210817   2.335   7.595  10.664 -0.7498 -2.1628 -0.2831
 2642SOL     OW10818   2.222  10.240   8.036 -0.2339 -0.3921  0.6424
 2642SOL    HW110819   2.279  10.259   7.961 -1.6344  0.3409 -0.3040
 2642SOL    HW210820   2.235  10.147   8.054  1.2940 -0.2186  0.5173
 2643SOL     OW10821   3.563   9.748   1.172  0.0632  0.0756  0.3878
 2643SOL    HW110822   3.553   9.693   1.250  0.8503  1.1487  1.2700
 2643SOL    HW210823   3.626   9.815   1.197  0.1719  0.5787 -1.1146
 2644SOL     OW10824   5.985   9.452   2.593  0.6018  0.3759  0.5643
 2644SOL    HW110825   6.020   9.515   2.656 -1.3510  0.4627  1.6562
 2644SOL    HW210826   6.021   9.480   2.509  1.8507  1.3469  1.3712
 2645SOL     OW10827   0.598   7.343   7.049 -1.0563 -0.1457 -0.1072
 2645SOL    HW110828   0.649   7.274   7.091  0.7622 -0.8825 -3.2130
 2645SOL    HW210829   0.635   7.424   7.084 -0.6401 -0.7104  0.7975
 2646SOL     OW10830   5.517   5.762   0.224  0.8018  0.0034 -0.4050
 2646SOL    HW110831   5.602   5.753   0.181  1.1772  1.1229  0.0865
 2646SOL    HW210832   5.534   5.744   0.316  0.0623 -2.0118 -0.6095
 2647SOL     OW10833  10.043   7.030   4.471  0.7167  0.2979  0.2064
 2647SOL    HW110834  10.128   6.988   4.487  1.8522  1.0180 -3.1752
 2647SOL    HW210835   9.989   6.960   4.432  1.6685  1.0833 -2.7487
 2648SOL     OW10836   7.218   0.460   3.442  0.4322  0.3761  0.3426
 2648SOL    HW110837   7.221   0.426   3.531  1.2877  1.8908  0.9459
 2648SOL    HW210838   7.281   0.533   3.443  0.3008  0.5541 -1.4422
 2649SOL     OW10839   7.205   6.893   8.067  0.2883  0.2535 -0.0012
 2649SOL    HW110840   7.209   6.800   8.088 -0.8148  0.2064  0.0539
 2649SOL    HW210841   7.140   6.899   7.997  0.7229  0.9320 -0.3626
 2650SOL     OW10842   1.403   6.932   4.958  0.4905 -0.2863  0.1296
 2650SOL    HW110843   1.395   7.010   4.904  0.4756  0.5361  1.2790
 2650SOL    HW210844   1.313   6.908   4.980  0.5359  0.2391  0.9468
 2651SOL     OW10845   7.893   9.557   9.837 -0.4019  0.2517  0.2435
 2651SOL    HW110846   7.941   9.633   9.804 -0.1982  0.1203  0.2358
 2651SOL    HW210847   7.872   9.580   9.927  1.6361 -0.5947  0.9957
 2652SOL     OW10848   8.600   2.306   2.236 -0.1679 -0.3064 -0.4949
 2652SOL    HW110849   8.669   2.320   2.171  1.4393  0.7306  1.3272
 2652SOL    HW210850   8.643   2.258   2.307 -1.4166  0.0230  0.5290
 2653SOL     OW10851   8.854   3.421   5.599 -0.0438 -0.1232 -0.6446
 2653SOL    HW110852   8.807   3.347   5.560 -0.9888 -0.2993  0.7804
 2653SOL    HW210853   8.788   3.467   5.651  0.9549  0.6721 -0.0548
 2654SOL     OW10854   8.435   5.707   9.359  0.0363 -0.3053  0.4191
 2654SOL    HW110855   8.347   5.732   9.331  0.8974  3.9235  0.7118
 2654SOL    HW210856   8.423   5.673   9.447 -1.3564 -0.2585  0.2743
 2655SOL     OW10857   6.199   5.510   9.818 -0.6507 -0.1589  0.0580
 2655SOL    HW110858   6.168   5.423   9.845  0.7886 -0.6560  0.1979
 2655SOL    HW210859   6.154   5.570   9.878 -1.1519 -0.8551  0.4046
 2656SOL     OW10860   0.069   4.467   4.019  0.1760  0.2703 -0.1086
 2656SOL    HW110861   0.008   4.487   3.948  0.6032  1.4803 -0.1634
 2656SOL    HW210862   0.069   4.372   4.024  1.9969 -0.0918 -3.4666
 2657SOL     OW10863   3.376  10.576   7.536 -0.2735  0.0951  0.3674
 2657SOL    HW110864   3.393  10.670   7.537 -0.7454  0.2763 -1.8994
 2657SOL    HW210865   3.450  10.538   7.583  1.5806  1.4255 -1.2974
 2658SOL     OW10866   5.851   1.262   1.621  0.3765 -0.5644 -0.1072
 2658SOL    HW110867   5.868   1.356   1.626  0.8050 -0.5352 -1.6146
 2658SOL    HW210868   5.914   1.230   1.556 -0.6461 -1.6565 -0.5932
 2659SOL     OW10869   4.251   3.179   3.609 -0.4019 -0.2257  0.4128
 2659SOL    HW110870   4.230   3.264   3.571 -1.6666 -1.0750 -0.9120
 2659SOL    HW210871   4.178   3.159   3.667 -0.1733 -0.4519  0.6239
 2660SOL     OW10872   2.770   3.967   7.664 -0.4114  0.1419  0.0452
 2660SOL    HW110873   2.710   4.037   7.637 -0.4628  0.1034  0.0606
 2660SOL    HW210874   2.790   3.986   7.755  1.1412  1.2778 -0.4898
 2661SOL     OW10875   2.151   8.832   7.022 -0.4064 -0.0314  0.1058
 2661SOL    HW110876   2.063   8.812   6.992 -0.4818 -0.0401  0.3332
 2661SOL    HW210877   2.141   8.852   7.115 -0.3328  1.0545 -0.1135
 2662SOL     OW10878  10.113   2.956   7.734 -0.1192  0.4339  0.3616
 2662SOL    HW110879  10.082   2.959   7.824  0.8625 -0.7896  0.7560
 2662SOL    HW210880  10.190   2.899   7.736  0.2257  0.7965 -1.1580
 2663SOL     OW10881  10.623   8.405  10.346 -0.0464  0.2734 -0.0472
 2663SOL    HW110882  10.567   8.419  10.422  1.0015  1.3186  0.5681
 2663SOL    HW210883  10.700   8.360  10.380  0.1635  0.2008 -0.6026
 2664SOL     OW10884   8.264   5.945   7.191 -0.1101  0.3567 -0.4985
 2664SOL    HW110885   8.186   5.892   7.174 -1.3739  2.4647 -1.8199
 2664SOL    HW210886   8.286   5.982   7.105  1.3193  1.1441  0.1852
 2665SOL     OW10887   6.281   6.455   2.519 -0.1789  0.3620  0.1226
 2665SOL    HW110888   6.299   6.519   2.587 -0.1124 -0.3436  0.7772
 2665SOL    HW210889   6.203   6.409   2.548 -0.1050 -0.0009 -0.2287
 2666SOL     OW10890   6.979   0.530   4.049 -0.0372 -0.0015 -0.2080
 2666SOL    HW110891   7.047   0.538   3.982 -1.2962 -0.0057 -1.5203
 2666SOL    HW210892   6.912   0.474   4.010 -1.1500  0.5915  0.7656
 2667SOL     OW10893   7.058   4.220   1.386  0.3836 -0.1813  0.3325
 2667SOL    HW110894   6.994   4.190   1.451 -0.2480 -1.8783 -0.9947
 2667SOL    HW210895   7.074   4.143   1.332  3.1819  0.3490  0.2748
 2668SOL     OW10896   4.544   5.135  10.335  0.2480  0.2608  0.3298
 2668SOL    HW110897   4.506   5.220  10.359 -0.6214 -0.1427  0.4203
 2668SOL    HW210898   4.489   5.071  10.380  1.4998 -0.3161  1.0566
 2669SOL     OW10899   6.666   0.995   0.064  0.4532 -0.3994  0.9732
 2669SOL    HW110900   6.759   0.998   0.044  0.6292 -3.6833  0.7333
 2669SOL    HW210901   6.659   0.938   0.141 -1.2210  1.9378  2.7198
 2670SOL     OW10902   3.030   1.095  10.087  0.6127  0.4881  0.0858
 2670SOL    HW110903   3.123   1.117  10.097  0.9618 -0.5017 -0.8154
 2670SOL    HW210904   3.002   1.068  10.175  1.9720 -2.0454 -0.1687
 2671SOL     OW10905   7.268   0.064   6.917  0.8184 -0.1211  0.0964
 2671SOL    HW110906   7.318   0.067   6.835  1.7116 -2.2599  0.4842
 2671SOL    HW210907   7.302  -0.014   6.962 -1.6310 -0.6185  1.2062
 2672SOL     OW10908   9.118   7.563   1.841  0.4262  0.0468 -0.4686
 2672SOL    HW110909   9.135   7.483   1.790  1.2653  0.1253 -0.3381
 2672SOL    HW210910   9.085   7.531   1.925  1.9454 -0.2666  0.0604
 2673SOL     OW10911  10.062   0.013   7.400 -0.4342 -0.1791 -0.0508
 2673SOL    HW110912   9.998   0.030   7.330 -0.6131 -0.3176  0.0773
 2673SOL    HW210913  10.146   0.039   7.363 -0.8300  2.2550  0.5926
 2674SOL     OW10914  10.478   6.357   7.788  0.2122  0.6502  0.0897
 2674SOL    HW110915  10.446   6.428   7.733  1.7480  0.8049 -0.6644
 2674SOL    HW210916  10.517   6.295   7.726 -0.9642 -0.8050  0.7423
 2675SOL     OW10917   0.224   6.788   6.519  0.1874  0.9944  0.0163
 2675SOL    HW110918   0.161   6.858   6.535 -0.1336  0.6258  0.3941
 2675SOL    HW210919   0.236   6.746   6.604 -1.5723 -1.0318 -0.6607
 2676SOL     OW10920   4.529   4.742   4.005 -0.4187 -0.2380 -0.3075
 2676SOL    HW110921   4.462   4.790   4.053 -0.6715  0.4736 -1.3264
 2676SOL    HW210922   4.542   4.793   3.925 -0.5155 -1.7495 -1.3216
 2677SOL     OW10923   4.643   9.886   3.858  0.0936  0.3011  0.1545
 2677SOL    HW110924   4.627   9.887   3.953  2.0671  0.1170  0.5232
 2677SOL    HW210925   4.738   9.891   3.850 -0.0573  0.5280 -1.8403
 2678SOL     OW10926   1.344   4.294   7.813 -0.0410 -0.2388 -0.5369
 2678SOL    HW110927   1.323   4.256   7.728  1.1443  0.3085 -1.1146
 2678SOL    HW210928   1.417   4.354   7.794 -0.3046  0.5162  0.7280
 2679SOL     OW10929   6.364   0.933   8.393  0.2765  0.1516  0.1607
 2679SOL    HW110930   6.289   0.934   8.453  0.5350  1.0265  0.4966
 2679SOL    HW210931   6.440   0.925   8.451  0.4253 -1.5554 -0.2295
 2680SOL     OW10932   1.217   3.856   0.427 -0.2058  0.0463  0.4941
 2680SOL    HW110933   1.232   3.946   0.455 -2.2625 -0.0861  2.3224
 2680SOL    HW210934   1.136   3.858   0.377  0.8721 -0.5143 -1.3744
 2681SOL     OW10935   4.600   4.298   8.660 -0.2038  0.1326  0.5798
 2681SOL    HW110936   4.611   4.206   8.686 -0.9339 -0.9816 -2.5578
 2681SOL    HW210937   4.549   4.337   8.730 -2.2008 -2.5923  0.7899
 2682SOL     OW10938   8.581   5.399   8.670  0.3008 -0.7283 -0.8335
 2682SOL    HW110939   8.590   5.490   8.642  0.4675 -0.6273 -0.4673
 2682SOL    HW210940   8.523   5.404   8.747 -1.0818 -1.1240 -1.8158
 2683SOL     OW10941   1.878   0.400   0.971  0.2712 -0.0693 -0.6050
 2683SOL    HW110942   1.936   0.461   0.926  2.0028 -0.0458  1.4696
 2683SOL    HW210943   1.914   0.314   0.953  0.7382 -0.0871  0.3189
 2684SOL     OW10944  10.247   3.871   8.422  0.1309 -0.0321  0.0724
 2684SOL    HW110945  10.235   3.962   8.449  0.4767  0.2652 -0.7443
 2684SOL    HW210946  10.217   3.869   8.331 -0.4896 -0.8860  0.2800
 2685SOL     OW10947   0.023   2.330   1.907  0.2492 -0.0363  0.4965
 2685SOL    HW110948  -0.048   2.270   1.930  1.1140 -0.7431  1.3718
 2685SOL    HW210949   0.040   2.380   1.987  0.7021  0.1789  0.2724
 2686SOL     OW10950   8.632   5.309   1.923 -0.1964 -0.1241 -0.0709
 2686SOL    HW110951   8.568   5.257   1.970 -0.8193 -0.0888 -0.8468
 2686SOL    HW210952   8.599   5.399   1.929  0.3984  0.0659  0.5007
 2687SOL     OW10953   3.670   9.958   1.497 -0.3323  0.3254 -0.2865
 2687SOL    HW110954   3.580   9.947   1.465 -0.2306  0.9000 -0.7978
 2687SOL    HW210955   3.665   9.938   1.590 -0.8952 -0.1288 -0.4033
 2688SOL     OW10956   0.730   6.415   6.739  0.5219  0.3731 -0.0930
 2688SOL    HW110957   0.736   6.372   6.653  0.5628 -0.4497  0.3190
 2688SOL    HW210958   0.816   6.404   6.778  0.3611  0.3366  0.2523
 2689SOL     OW10959   1.512   3.092   5.412  0.2850  0.1417  0.0832
 2689SOL    HW110960   1.573   3.058   5.346 -0.8955 -0.1597 -0.8704
 2689SOL    HW210961   1.559   3.079   5.495  1.3962 -0.3668 -0.5910
 2690SOL     OW10962   4.044   5.299   4.538 -0.4303  0.1162  0.3172
 2690SOL    HW110963   4.082   5.255   4.462 -0.9678  0.0829  0.0617
 2690SOL    HW210964   3.950   5.305   4.518 -0.6099 -0.0796  1.0746
 2691SOL     OW10965   1.348   0.347   5.538 -0.0474 -0.0702  0.4184
 2691SOL    HW110966   1.421   0.289   5.559  0.8429  0.3307 -1.3948
 2691SOL    HW210967   1.270   0.298   5.566  0.7779 -1.4220  0.4400
 2692SOL     OW10968   4.567   7.261   1.994 -0.4377 -0.1432 -0.4293
 2692SOL    HW110969   4.477   7.294   1.994 -1.4665 -2.5866  1.3561
 2692SOL    HW210970   4.589   7.254   2.087  2.3266  1.9766 -0.7979
 2693SOL     OW10971   4.710   9.027   1.775 -0.3884  0.6818 -0.0398
 2693SOL    HW110972   4.719   8.948   1.828  2.8072  0.7083 -0.3470
 2693SOL    HW210973   4.628   9.068   1.805 -1.3801 -1.9556  1.1228
 2694SOL     OW10974   0.987   3.950   6.328 -0.0443  0.0070  0.2685
 2694SOL    HW110975   1.038   3.872   6.351  1.8179  1.0707 -0.0695
 2694SOL    HW210976   0.897   3.928   6.354  0.7843 -1.4193  2.1953
 2695SOL     OW10977   1.911   9.637   4.857 -0.4123  0.0801  0.1475
 2695SOL    HW110978   1.900   9.666   4.947  1.4325 -0.8347  0.7119
 2695SOL    HW210979   1.873   9.549   4.856  1.1055 -0.6195  0.5328
 2696SOL     OW10980   1.513  10.694   3.507 -0.1083 -0.1056 -0.0205
 2696SOL    HW110981   1.479  10.623   3.562 -1.1482  0.1707 -0.2678
 2696SOL    HW210982   1.464  10.771   3.535 -1.0301 -0.0535 -1.6198
 2697SOL     OW10983   7.227   7.250   7.718  0.1434  0.2072  0.1639
 2697SOL    HW110984   7.312   7.293   7.711 -0.1824  0.7242 -0.9291
 2697SOL    HW210985   7.208   7.220   7.629 -0.4569 -0.6207  0.5571
 2698SOL     OW10986  10.511   6.958   4.221 -0.5695  0.2256 -0.4594
 2698SOL    HW110987  10.526   7.022   4.291 -1.2562  0.5080 -0.5512
 2698SOL    HW210988  10.509   6.874   4.266  2.3074  0.0173 -0.5949
 2699SOL     OW10989   6.314   4.880   7.456  0.1992 -0.0540  0.7712
 2699SOL    HW110990   6.309   4.972   7.481 -3.0873 -0.0812  0.6397
 2699SOL    HW210991   6.337   4.834   7.537  1.7786  0.8168  0.8546
 2700SOL     OW10992   0.208   1.900   2.651 -0.3555  0.1349 -0.3473
 2700SOL    HW110993   0.113   1.899   2.654 -0.4575  1.9245 -1.4812
 2700SOL    HW210994   0.230   1.972   2.591  1.6952 -0.6054 -0.5865
 2701SOL     OW10995   5.497   5.009   6.255  0.4268  0.6533  0.2060
 2701SOL    HW110996   5.530   5.099   6.251 -0.3667  0.9398 -0.2709
 2701SOL    HW210997   5.559   4.958   6.203  1.2411  0.7994  1.0088
 2702SOL     OW10998   0.206   6.402   1.758  0.6115 -0.4238  0.8015
 2702SOL    HW110999   0.244   6.489   1.769  0.9762 -0.6482  1.3434
 2702SOL    HW211000   0.217   6.360   1.843 -0.9545 -0.4677  1.0152
 2703SOL     OW11001   1.034   6.114   1.288 -0.0895 -0.2445  0.0415
 2703SOL    HW111002   1.008   6.049   1.223  1.4041 -0.8056 -0.0308
 2703SOL    HW211003   1.020   6.198   1.244 -1.1266 -0.5372 -0.2095
 2704SOL     OW11004   7.025   7.038   4.234 -0.0710  0.1283 -0.6221
 2704SOL    HW111005   6.994   7.023   4.145 -1.0206 -0.1147 -0.2667
 2704SOL    HW211006   7.006   7.130   4.251 -0.8921 -0.0960 -0.2988
 2705SOL     OW11007   7.160   6.622   8.179 -0.1828  0.0632 -0.3364
 2705SOL    HW111008   7.109   6.560   8.232 -0.0562 -0.3060 -0.6479
 2705SOL    HW211009   7.251   6.603   8.202 -0.0820 -0.6837 -1.3312
 2706SOL     OW11010   4.214   6.798   0.335 -0.5284  0.2928  0.0617
 2706SOL    HW111011   4.192   6.817   0.244 -0.4071  0.9662  0.1691
 2706SOL    HW211012   4.152   6.851   0.386 -0.5755 -0.0545  0.3771
 2707SOL     OW11013   3.214   0.692   0.844  0.1469  0.2576  0.1269
 2707SOL    HW111014   3.159   0.646   0.781  0.3678 -1.4911  1.1331
 2707SOL    HW211015   3.176   0.670   0.929  0.9931  0.9826  0.7168
 2708SOL     OW11016   6.820   5.316   8.002 -0.5684  0.1417  0.0503
 2708SOL    HW111017   6.840   5.224   7.985 -0.3056 -0.0671  1.3786
 2708SOL    HW211018   6.725   5.322   7.996 -0.6963 -0.4977  1.1923
 2709SOL     OW11019   3.372   0.451  10.481  0.2824  0.0541 -0.4944
 2709SOL    HW111020   3.435   0.522  10.494 -0.8563  1.0010  0.0514
 2709SOL    HW211021   3.383   0.394  10.557 -1.4409  1.7535  1.1252
 2710SOL     OW11022   8.337   8.548   4.660 -0.1236  0.2640  0.6284
 2710SOL    HW111023   8.386   8.465   4.658 -2.4930 -1.2211 -2.1359
 2710SOL    HW211024   8.348   8.585   4.573 -0.9789  1.7362  1.1078
 2711SOL     OW11025   5.157   3.647  10.224 -0.7301  0.1252  0.5512
 2711SOL    HW111026   5.178   3.729  10.269  1.8931 -0.0342 -0.2509
 2711SOL    HW211027   5.095   3.672  10.156 -0.5572  1.3068  0.8158
 2712SOL     OW11028   9.902   1.285   7.995  0.2412  0.0140  0.0923
 2712SOL    HW111029   9.937   1.270   8.083  0.8578 -0.8651 -0.2796
 2712SOL    HW211030   9.921   1.203   7.948 -2.0450 -0.3876 -0.2392
 2713SOL     OW11031   4.919   8.158   7.376 -0.3569 -0.4545  0.8077
 2713SOL    HW111032   4.946   8.100   7.305 -1.2163 -0.3803  0.4075
 2713SOL    HW211033   4.948   8.114   7.455  1.0024 -0.3286  0.4012
 2714SOL     OW11034   9.857   5.077   1.199 -0.5585 -0.1183 -0.1906
 2714SOL    HW111035   9.809   5.109   1.276 -1.1086  1.4308 -1.1093
 2714SOL    HW211036   9.946   5.062   1.230 -1.1561 -1.0931  1.1032
 2715SOL     OW11037   4.192  10.433   9.266  0.0442  0.0709 -0.1592
 2715SOL    HW111038   4.220  10.343   9.287  0.8410  0.2682 -0.3261
 2715SOL    HW211039   4.205  10.482   9.347 -0.6299 -0.0158  0.0030
 2716SOL     OW11040   2.262   6.387   9.550  0.3768  0.4273  0.1538
 2716SOL    HW111041   2.345   6.341   9.535  0.1448 -0.5597  1.6216
 2716SOL    HW211042   2.282   6.450   9.619 -0.6439 -1.7968  2.6716
 2717SOL     OW11043   7.604   8.277   6.600 -0.7384  0.3312 -0.6093
 2717SOL    HW111044   7.557   8.201   6.633  0.3874 -0.2518 -0.2819
 2717SOL    HW211045   7.608   8.264   6.505  1.0303 -1.0048 -0.4026
 2718SOL     OW11046   9.324   6.510   3.406 -0.4896 -0.3354 -0.2396
 2718SOL    HW111047   9.272   6.547   3.477 -0.7754 -0.3228 -0.4520
 2718SOL    HW211048   9.385   6.451   3.449 -1.1602 -0.8998 -0.0478
 2719SOL     OW11049   2.801   4.059   3.252 -0.5944 -0.1801 -0.3623
 2719SOL    HW111050   2.852   3.978   3.257  0.9123  0.7314 -0.4430
 2719SOL    HW211051   2.711   4.032   3.272  0.2640 -1.4930  2.1216
 2720SOL     OW11052  10.433   5.385   9.000  0.4442  0.0318 -0.2492
 2720SOL    HW111053  10.468   5.307   9.043  1.4524 -0.2257 -1.4534
 2720SOL    HW211054  10.440   5.366   8.906  0.1985  1.3469 -0.5613
 2721SOL     OW11055   1.301  10.107   3.522  0.1941  0.0818 -0.9001
 2721SOL    HW111056   1.347  10.024   3.513 -1.3094 -0.7336 -1.3550
 2721SOL    HW211057   1.258  10.120   3.438 -0.1704  0.9543 -0.5931
 2722SOL     OW11058   4.444   7.098   4.412  0.4746 -0.0881  0.3371
 2722SOL    HW111059   4.534   7.077   4.386 -0.4607 -3.9154 -0.4410
 2722SOL    HW211060   4.431   7.050   4.494 -0.7410  0.7360  0.6444
 2723SOL     OW11061   0.581   9.522   6.484 -0.3905  0.2689 -0.2446
 2723SOL    HW111062   0.567   9.581   6.410  0.8841  0.2355 -0.5334
 2723SOL    HW211063   0.633   9.574   6.546 -1.9182  0.4866  0.8892
 2724SOL     OW11064   8.606   9.361   2.080  0.0075  0.3509 -0.2629
 2724SOL    HW111065   8.608   9.373   1.985  2.0074 -0.5054 -0.3870
 2724SOL    HW211066   8.630   9.447   2.115 -1.9807  1.0223 -0.4344
 2725SOL     OW11067   9.927   9.695   9.329  0.2283 -0.4723 -0.9773
 2725SOL    HW111068  10.022   9.704   9.330  0.2239 -0.3679  0.7688
 2725SOL    HW211069   9.895   9.781   9.357 -0.4193 -0.3358 -2.0747
 2726SOL     OW11070   9.838   7.914   5.993  0.5365 -0.0409  0.4404
 2726SOL    HW111071   9.928   7.904   6.023  0.7308  1.5744  0.4923
 2726SOL    HW211072   9.808   7.825   5.976  2.1094 -0.6102  0.5046
 2727SOL     OW11073   8.767   5.392   6.931  0.2867 -0.1689  0.0788
 2727SOL    HW111074   8.768   5.298   6.948  3.0223  0.1035  2.1510
 2727SOL    HW211075   8.825   5.403   6.855 -0.9261 -0.2042 -0.8789
 2728SOL     OW11076   1.136   9.206   2.005  0.3135  0.6887 -0.3187
 2728SOL    HW111077   1.095   9.212   2.091 -0.3673 -2.1027 -0.3833
 2728SOL    HW211078   1.073   9.247   1.946 -0.0994  0.8751  0.2359
 2729SOL     OW11079   4.493   5.700   5.323  0.9462 -0.5615 -0.0133
 2729SOL    HW111080   4.427   5.635   5.347 -0.0287  0.5552  0.4396
 2729SOL    HW211081   4.543   5.658   5.253  0.1794 -1.6932  0.0771
 2730SOL     OW11082  10.074   3.097  10.547 -0.0408  0.0267 -0.3088
 2730SOL    HW111083  10.135   3.122  10.478  2.2716 -1.9197  0.8994
 2730SOL    HW211084  10.009   3.168  10.548  1.9693  2.0436 -1.8948
 2731SOL     OW11085   9.273   8.961  10.216 -0.3334  0.1627  0.2203
 2731SOL    HW111086   9.223   8.972  10.135 -0.4648  0.0101  0.2793
 2731SOL    HW211087   9.324   9.042  10.224 -0.7803  0.4444  0.2982
 2732SOL     OW11088   6.821   9.247   1.195 -0.0150  0.0638 -0.1447
 2732SOL    HW111089   6.826   9.292   1.111  1.2833  1.5059  0.6503
 2732SOL    HW211090   6.905   9.201   1.202  0.1190  0.4164  0.6029
 2733SOL     OW11091   9.546   9.773   1.569  0.4236 -0.0420 -0.3439
 2733SOL    HW111092   9.473   9.714   1.586  0.8354 -0.3625  0.3587
 2733SOL    HW211093   9.624   9.718   1.575  0.8832  0.7295  1.3106
 2734SOL     OW11094   0.654   6.394   8.280 -0.5845  0.5071 -0.6624
 2734SOL    HW111095   0.633   6.429   8.367  3.3550 -0.7332  1.0254
 2734SOL    HW211096   0.621   6.305   8.281 -1.3346  0.7728 -0.8411
 2735SOL     OW11097   2.867   2.947   9.748 -0.5798  0.8852 -0.0891
 2735SOL    HW111098   2.946   2.970   9.698 -1.0811  0.4547 -1.0927
 2735SOL    HW211099   2.872   3.002   9.826  0.9489  0.5474  0.0932
 2736SOL     OW11100   2.242   3.395   7.900 -0.0438  0.1576  1.1175
 2736SOL    HW111101   2.185   3.467   7.927  1.4916  2.3128 -0.9249
 2736SOL    HW211102   2.298   3.380   7.976 -1.0909  0.3407  1.9564
 2737SOL     OW11103   8.277   6.947   5.220  0.5001 -0.0669 -0.2174
 2737SOL    HW111104   8.293   7.034   5.257 -0.3781 -0.1531  0.3704
 2737SOL    HW211105   8.186   6.927   5.242  0.7844 -1.2754 -0.0705
 2738SOL     OW11106   2.475   3.496   1.338 -0.4511  0.6765  0.7872
 2738SOL    HW111107   2.471   3.560   1.267 -1.1873 -0.7313 -0.4844
 2738SOL    HW211108   2.566   3.497   1.367 -0.3083  1.7873  0.3244
 2739SOL     OW11109   2.333   4.848   0.299 -0.2571 -0.3651  0.5803
 2739SOL    HW111110   2.347   4.840   0.394 -1.8641  0.0125  0.8836
 2739SOL    HW211111   2.287   4.931   0.288  0.4544 -0.1037 -0.6206
 2740SOL     OW11112   8.104   5.995  10.548  0.5622  0.1607  0.5162
 2740SOL    HW111113   8.081   6.069  10.492  0.7057  1.1538  1.7251
 2740SOL    HW211114   8.055   6.010  10.629 -0.2833 -1.6746  0.4003
 2741SOL     OW11115   1.267   7.314   2.253  0.0748 -0.0569  0.0382
 2741SOL    HW111116   1.345   7.368   2.245 -1.0353  2.1756  2.4168
 2741SOL    HW211117   1.204   7.353   2.192  0.4680 -1.1974 -1.1189
 2742SOL     OW11118   2.846   0.722   4.178 -0.1000  0.2272  0.2518
 2742SOL    HW111119   2.756   0.688   4.183  0.2387 -0.8974 -0.6308
 2742SOL    HW211120   2.899   0.655   4.223  0.2121  1.3108  1.5444
 2743SOL     OW11121   8.925   6.468   6.570 -0.3948 -0.6150  0.2676
 2743SOL    HW111122   8.870   6.545   6.560 -0.8376 -1.0814 -1.0664
 2743SOL    HW211123   8.880   6.414   6.635  0.4491  0.6722  2.0028
 2744SOL     OW11124   1.797   9.989   9.304 -0.2416  0.4300  0.2498
 2744SOL    HW111125   1.798   9.971   9.210 -1.8520  3.4219 -0.4524
 2744SOL    HW211126   1.712   9.958   9.333 -0.2640  0.6783  0.4515
 2745SOL     OW11127   8.915   3.866   5.966  0.1672  0.1542  0.0164
 2745SOL    HW111128   8.843   3.867   6.028  0.3105 -0.4820  0.2050
 2745SOL    HW211129   8.990   3.833   6.016  0.0671 -1.2515 -0.6907
 2746SOL     OW11130   5.298   0.050   2.139  0.4992 -0.0284 -0.0912
 2746SOL    HW111131   5.394   0.045   2.141  0.4101 -2.0878  1.3338
 2746SOL    HW211132   5.268  -0.030   2.182 -1.8562  1.7658  1.8969
 2747SOL     OW11133  10.778   0.092   5.607 -0.5415 -0.3385  0.0779
 2747SOL    HW111134  10.779   0.002   5.640  3.1553 -0.7187 -0.7059
 2747SOL    HW211135  10.718   0.089   5.532 -0.8838 -2.0096  0.3745
 2748SOL     OW11136   8.974   9.068   0.649 -0.1681  0.1367 -0.3828
 2748SOL    HW111137   9.053   9.092   0.601 -0.8101 -1.0165 -2.1183
 2748SOL    HW211138   8.930   9.152   0.666 -0.1576  0.5736 -2.2906
 2749SOL     OW11139   3.531   7.586   0.844 -0.4676  0.1460  0.8595
 2749SOL    HW111140   3.506   7.634   0.765 -0.7868 -0.8371  0.3412
 2749SOL    HW211141   3.447   7.556   0.881 -0.2559 -0.4500  0.8753
 2750SOL     OW11142   5.116   9.755   0.706  0.0313 -0.1572 -0.7096
 2750SOL    HW111143   5.160   9.694   0.765 -0.3404 -0.9094 -1.2014
 2750SOL    HW211144   5.187   9.799   0.659  0.4496  1.7980  1.5474
 2751SOL     OW11145   3.487   6.056   7.569  0.0373 -0.2043 -0.0982
 2751SOL    HW111146   3.500   6.005   7.489  0.2566 -1.4619  0.7084
 2751SOL    HW211147   3.572   6.095   7.587 -0.3918  1.4079 -1.3130
 2752SOL     OW11148   8.482   4.806   8.938 -0.1442 -0.0380  0.0355
 2752SOL    HW111149   8.441   4.737   8.990  1.2474 -1.2897 -0.4316
 2752SOL    HW211150   8.410   4.863   8.912 -0.9428  0.5091  3.0560
 2753SOL     OW11151  10.361   0.741   2.403 -0.0024 -1.0605  0.0437
 2753SOL    HW111152  10.442   0.718   2.358 -0.2578 -0.6788 -0.6292
 2753SOL    HW211153  10.292   0.705   2.347 -0.2961 -1.2558  0.5348
 2754SOL     OW11154   7.505   7.957   0.984 -0.3897 -0.5178 -0.1566
 2754SOL    HW111155   7.508   7.948   1.079  1.4397 -0.0403 -0.1274
 2754SOL    HW211156   7.597   7.958   0.957 -0.8102 -3.2525 -2.2130
 2755SOL     OW11157   9.396   1.333   7.637 -0.0546  0.0112  0.2507
 2755SOL    HW111158   9.425   1.251   7.675  3.2300  0.6227 -0.6646
 2755SOL    HW211159   9.401   1.319   7.542 -1.3953  0.6687  0.0555
 2756SOL     OW11160  10.533   4.386   1.859 -0.3166 -0.0824 -0.2846
 2756SOL    HW111161  10.564   4.361   1.772 -3.5887 -1.2565 -1.2507
 2756SOL    HW211162  10.528   4.303   1.908 -0.4424  0.2897  0.3502
 2757SOL     OW11163   1.617  10.781   5.381  0.6221  0.5316 -0.1457
 2757SOL    HW111164   1.532  10.738   5.373  0.4868  0.2110  2.2692
 2757SOL    HW211165   1.676  10.712   5.413  1.4247  1.1093 -0.3479
 2758SOL     OW11166   2.786   1.804   2.409 -0.4784 -0.0156 -0.4240
 2758SOL    HW111167   2.819   1.810   2.319  2.4176 -0.8529  0.4481
 2758SOL    HW211168   2.768   1.894   2.434 -2.2300  0.1530 -2.0915
 2759SOL     OW11169   8.553   2.179   0.442 -0.4793  0.6466 -0.4475
 2759SOL    HW111170   8.554   2.239   0.368 -2.1405  0.7377 -0.4300
 2759SOL    HW211171   8.502   2.104   0.411  1.5754 -0.8269 -0.4906
 2760SOL     OW11172   4.128   1.183   1.493 -0.0642 -0.6399  0.3677
 2760SOL    HW111173   4.157   1.097   1.462 -1.1060 -1.2446  1.0006
 2760SOL    HW211174   4.054   1.204   1.436 -0.5299 -0.6966  0.9487
 2761SOL     OW11175   6.560   6.497   5.576  0.0063  0.1385  0.1893
 2761SOL    HW111176   6.551   6.465   5.666 -0.4458 -0.5317 -0.0873
 2761SOL    HW211177   6.532   6.424   5.522  0.6672  0.4044 -0.5165
 2762SOL     OW11178   3.770   1.191   9.126  0.5701 -0.7528  0.0671
 2762SOL    HW111179   3.684   1.211   9.091  0.7897  1.8977  0.8593
 2762SOL    HW211180   3.832   1.235   9.068  1.4229 -2.2527 -0.2406
 2763SOL     OW11181   7.902   9.006   7.682 -0.8146  0.3048  0.1595
 2763SOL    HW111182   7.942   9.077   7.732 -1.3097  0.4124  0.4095
 2763SOL    HW211183   7.829   9.048   7.635  0.5719  0.5433 -1.9011
 2764SOL     OW11184   2.977   9.393   1.810 -0.1853 -0.1379 -0.5585
 2764SOL    HW111185   3.055   9.357   1.851 -2.3038 -0.9969  3.2554
 2764SOL    HW211186   2.958   9.334   1.738  1.7091 -0.8822 -0.5049
 2765SOL     OW11187   7.285   2.161   5.398 -0.2084  0.2313 -0.1146
 2765SOL    HW111188   7.328   2.085   5.359  0.5588  0.9135 -0.6341
 2765SOL    HW211189   7.219   2.187   5.333  0.1478  0.5446 -0.3610
 2766SOL     OW11190   6.874   0.745   3.334 -0.1496  0.0325  0.2614
 2766SOL    HW111191   6.804   0.802   3.364 -0.2010 -0.4600  1.1208
 2766SOL    HW211192   6.912   0.790   3.259  0.4426  1.6604  1.4935
 2767SOL     OW11193   6.220   0.362   9.276  0.8563  0.2373  0.6848
 2767SOL    HW111194   6.194   0.377   9.185  0.0382 -1.4234  0.6001
 2767SOL    HW211195   6.275   0.437   9.298  1.0351  0.7014 -1.1612
 2768SOL     OW11196   2.132   6.987   3.216 -0.1529 -0.8368  0.3388
 2768SOL    HW111197   2.053   6.974   3.267  0.1713  0.8012  1.3326
 2768SOL    HW211198   2.152   6.900   3.180 -1.0034 -1.8130  2.0897
 2769SOL     OW11199   1.120   1.364   0.591  0.7069 -0.1348 -0.1112
 2769SOL    HW111200   1.162   1.323   0.666  0.7757  2.5613  1.4467
 2769SOL    HW211201   1.179   1.435   0.566  0.4526 -0.6520 -2.4845
 2770SOL     OW11202   5.051   8.508   3.111  0.7875 -0.1998 -0.3251
 2770SOL    HW111203   4.986   8.527   3.179  0.1334 -2.4319 -0.2596
 2770SOL    HW211204   5.135   8.514   3.156  0.3950 -1.0106  0.5552
 2771SOL     OW11205   9.317   3.331   2.247  0.2668 -0.2956 -0.2092
 2771SOL    HW111206   9.293   3.252   2.296  1.1850 -0.9356 -0.7369
 2771SOL    HW211207   9.324   3.300   2.156  0.7107  0.3823 -0.4078
 2772SOL     OW11208  10.514   7.066   9.729 -0.3196 -0.2986 -0.1893
 2772SOL    HW111209  10.450   6.999   9.753 -0.6680  0.1974  0.3091
 2772SOL    HW211210  10.583   7.058   9.796 -0.0312 -0.5986 -0.5196
 2773SOL     OW11211   2.790   1.660   4.119  1.1127  0.4291 -0.1821
 2773SOL    HW111212   2.834   1.610   4.188 -0.5666  0.8171  1.2465
 2773SOL    HW211213   2.815   1.750   4.135 -0.7161  0.7664  1.1637
 2774SOL     OW11214   6.526  10.689   0.331  0.2593 -0.3510  0.0201
 2774SOL    HW111215   6.459  10.748   0.365  1.5659  0.1340  1.8773
 2774SOL    HW211216   6.500  10.672   0.241 -0.0874  3.1805 -0.6580
 2775SOL     OW11217   0.029   2.999   7.720  0.3437 -0.0535 -0.4246
 2775SOL    HW111218  -0.011   3.065   7.777  4.0073  1.2412  1.0203
 2775SOL    HW211219   0.002   2.915   7.758  0.7365  0.7592  1.8311
 2776SOL     OW11220   4.083   6.963   7.784 -1.0512  0.0504 -0.2012
 2776SOL    HW111221   4.165   6.926   7.817 -1.6844 -0.2584  1.1012
 2776SOL    HW211222   4.069   6.919   7.700  0.8285  1.1589 -1.1618
 2777SOL     OW11223  10.540   8.106   3.159  0.8168 -0.1570 -0.0748
 2777SOL    HW111224  10.615   8.116   3.101 -0.0293 -1.3638 -1.4432
 2777SOL    HW211225  10.473   8.065   3.105  0.2873 -2.2408  1.9901
 2778SOL     OW11226   0.198  10.072   1.364 -0.1288  0.1934  0.2156
 2778SOL    HW111227   0.231  10.094   1.451  0.4926 -1.1057  0.3328
 2778SOL    HW211228   0.103  10.082   1.372 -0.1604 -0.7302  1.3117
 2779SOL     OW11229   6.330   2.407   8.562  0.5713 -0.4513  0.7406
 2779SOL    HW111230   6.351   2.318   8.533  0.5483  0.0658 -0.9709
 2779SOL    HW211231   6.238   2.418   8.541  0.5513 -0.0535  1.0301
 2780SOL     OW11232   5.649   1.102   5.615  0.0300  0.1815 -0.1340
 2780SOL    HW111233   5.616   1.042   5.682  0.6970  0.3829  0.3830
 2780SOL    HW211234   5.571   1.146   5.582 -0.4333 -0.7088 -0.2715
 2781SOL     OW11235   6.546   7.982   7.121  0.6635  0.3920 -0.3222
 2781SOL    HW111236   6.641   7.971   7.117  0.5796 -0.9936  0.4850
 2781SOL    HW211237   6.525   7.977   7.215 -0.4083 -1.9202 -0.6022
 2782SOL     OW11238   9.650   3.285   0.840 -0.4367 -0.1134  0.0434
 2782SOL    HW111239   9.644   3.189   0.838 -2.4317 -0.0563  0.5842
 2782SOL    HW211240   9.588   3.311   0.908 -0.1616  1.5821 -0.3154
 2783SOL     OW11241   1.083   5.739   3.006 -0.3227 -0.3584  0.1085
 2783SOL    HW111242   1.132   5.705   2.931 -0.2818  1.4010 -0.6953
 2783SOL    HW211243   0.991   5.735   2.978 -0.2077  1.9405 -0.8033
 2784SOL     OW11244   0.158   9.019   0.148 -0.3672  0.7344  0.4404
 2784SOL    HW111245   0.253   9.005   0.140 -0.6309 -0.9662 -0.0063
 2784SOL    HW211246   0.146   9.049   0.239  0.6062  1.1394  0.4480
 2785SOL     OW11247   4.792   7.815   7.799 -0.2672 -0.1937 -0.1533
 2785SOL    HW111248   4.727   7.860   7.745  0.6438  2.2344  0.6395
 2785SOL    HW211249   4.805   7.731   7.756 -0.0603  1.3345 -3.3991
 2786SOL     OW11250  10.752   7.599   2.605  0.1277 -0.1937  0.1631
 2786SOL    HW111251  10.703   7.570   2.682 -0.0586 -1.7980 -0.5101
 2786SOL    HW211252  10.832   7.546   2.607  0.8328  0.8399  0.0588
 2787SOL     OW11253   0.060   5.070  10.112  0.1168  0.1133  0.7191
 2787SOL    HW111254   0.065   5.037  10.022 -0.3676 -1.4969  1.2416
 2787SOL    HW211255   0.009   5.151  10.105 -0.7972 -0.5207 -0.3462
 2788SOL     OW11256  10.782   4.853  10.412 -0.8136  0.0874  0.5233
 2788SOL    HW111257  10.760   4.783  10.350 -1.3557 -0.5429  1.4063
 2788SOL    HW211258  10.868   4.883  10.384  0.1336 -1.9670  1.0155
 2789SOL     OW11259  10.285   1.992   9.125  0.6375  0.3089 -0.1528
 2789SOL    HW111260  10.210   2.052   9.133  0.9844  1.0633 -2.0141
 2789SOL    HW211261  10.341   2.015   9.199  0.6964  2.2317 -0.7385
 2790SOL     OW11262   2.045   0.077   7.286 -0.0160  0.3653 -0.2069
 2790SOL    HW111263   2.092   0.125   7.355 -2.4290  1.2474  0.9177
 2790SOL    HW211264   2.015  -0.003   7.329 -0.5905  0.3960 -0.5523
 2791SOL     OW11265   3.420   4.398   0.412 -0.0917  0.3502 -0.4336
 2791SOL    HW111266   3.412   4.453   0.490 -1.7140  1.6172 -1.4504
 2791SOL    HW211267   3.338   4.348   0.409  0.6228 -0.8778 -0.5042
 2792SOL     OW11268   1.160   0.091   1.039 -0.7232  0.7000 -0.1343
 2792SOL    HW111269   1.086   0.070   1.096 -1.3669 -0.0604 -1.2292
 2792SOL    HW211270   1.136   0.055   0.954  1.2162 -0.1830 -0.3491
 2793SOL     OW11271   1.308   4.132   7.595 -0.2478  0.1076 -0.4898
 2793SOL    HW111272   1.232   4.103   7.545 -0.2798  1.4607 -1.3059
 2793SOL    HW211273   1.383   4.091   7.552 -0.4388 -0.3624 -0.3684
 2794SOL     OW11274   1.478   9.339   1.262  0.9201  0.2529 -0.0315
 2794SOL    HW111275   1.391   9.304   1.245  0.9997 -0.0077  0.1009
 2794SOL    HW211276   1.463   9.420   1.311  0.7383  0.4035 -0.3316
 2795SOL     OW11277   3.804   6.406   7.883  0.1979  0.5913  0.4632
 2795SOL    HW111278   3.796   6.496   7.853  0.9761  0.8621  1.0160
 2795SOL    HW211279   3.715   6.373   7.885 -0.0249  1.1120 -0.4425
 2796SOL     OW11280   0.739   7.563   3.946 -0.3722  0.5302  0.3313
 2796SOL    HW111281   0.648   7.557   3.976 -0.4712 -1.3543 -0.1953
 2796SOL    HW211282   0.790   7.568   4.026 -0.7358 -2.6120  0.8676
 2797SOL     OW11283   7.762   8.979   6.450  0.1988 -0.0273  0.1541
 2797SOL    HW111284   7.743   8.935   6.367  0.5853  0.7737 -0.3664
 2797SOL    HW211285   7.753   9.072   6.430  2.9203  0.3443  0.2876
 2798SOL     OW11286   9.089   4.015   2.063 -0.4755 -0.0988  0.3159
 2798SOL    HW111287   9.143   3.939   2.086 -0.0806  0.7203  2.3114
 2798SOL    HW211288   9.149   4.089   2.065 -1.0537  0.4203 -0.6313
 2799SOL     OW11289   4.757   8.181   7.631  0.0754 -0.5934  0.3019
 2799SOL    HW111290   4.786   8.257   7.580 -0.8074  0.9703  2.0077
 2799SOL    HW211291   4.774   8.106   7.574  0.4616  0.9191 -1.6920
 2800SOL     OW11292   8.613   8.579   4.889  0.2533  0.5483 -0.2620
 2800SOL    HW111293   8.703   8.582   4.922  1.6133 -0.0307 -3.5689
 2800SOL    HW211294   8.582   8.669   4.894  1.0647  0.8002  0.6605
 2801SOL     OW11295   5.744   0.369  10.769 -0.3542 -0.2787  0.4118
 2801SOL    HW111296   5.703   0.318  10.839 -0.3121 -1.1878 -0.2055
 2801SOL    HW211297   5.768   0.452  10.811 -0.7326 -0.6273  1.3567
 2802SOL     OW11298   5.732   4.583   4.593 -1.1521 -0.0816  0.3068
 2802SOL    HW111299   5.745   4.635   4.673  0.7915  1.3068 -0.8377
 2802SOL    HW211300   5.657   4.622   4.551 -1.7544 -0.3729  1.0743
 2803SOL     OW11301   1.657  10.234   3.281 -0.2592  0.4666  0.1039
 2803SOL    HW111302   1.711  10.289   3.224  0.3606 -0.0117  0.2139
 2803SOL    HW211303   1.569  10.243   3.246 -0.3372  2.1852  0.6173
 2804SOL     OW11304   1.714   5.289   3.668  0.0049  0.0283  0.3350
 2804SOL    HW111305   1.764   5.369   3.653 -0.9920  0.5847 -0.1543
 2804SOL    HW211306   1.724   5.273   3.762  1.0004  0.1765  0.2692
 2805SOL     OW11307   6.320   1.174   9.072 -0.4542 -0.2593  0.0368
 2805SOL    HW111308   6.285   1.217   9.150 -1.7948 -0.9306 -0.1603
 2805SOL    HW211309   6.304   1.080   9.088 -0.0796 -0.4580 -0.7209
 2806SOL     OW11310   5.756   0.200   7.560  0.4811  0.5189  0.3009
 2806SOL    HW111311   5.848   0.178   7.575 -0.3657 -2.3977  2.1763
 2806SOL    HW211312   5.727   0.236   7.644 -0.8262 -1.9133  0.9879
 2807SOL     OW11313   3.231   5.127   8.180  0.2099 -0.3485 -0.0970
 2807SOL    HW111314   3.237   5.210   8.227  0.7421  0.1760 -1.0584
 2807SOL    HW211315   3.262   5.147   8.092  1.1417 -1.7510 -0.1161
 2808SOL     OW11316   9.351   2.464   4.490 -0.5190 -0.7806 -0.2274
 2808SOL    HW111317   9.312   2.518   4.421  0.0543  0.1444  0.1520
 2808SOL    HW211318   9.412   2.523   4.535  0.4834 -1.8745 -0.1053
 2809SOL     OW11319   1.891   4.619   9.605  0.4238 -0.5050  0.4630
 2809SOL    HW111320   1.809   4.585   9.571  0.0909 -0.1632  0.9047
 2809SOL    HW211321   1.915   4.559   9.676 -0.6488  0.6609  1.8678
 2810SOL     OW11322   8.536   8.654  10.770  0.0989 -0.1386 -0.2554
 2810SOL    HW111323   8.624   8.641  10.735 -0.5505 -1.2844 -1.5640
 2810SOL    HW211324   8.502   8.565  10.782 -0.8199  0.2822  0.4137
 2811SOL     OW11325   8.061   9.159   2.671  0.3750  0.6390 -0.4593
 2811SOL    HW111326   8.153   9.185   2.677 -0.0753  2.4734 -0.7082
 2811SOL    HW211327   8.037   9.132   2.759  0.6889  1.9769  0.0668
 2812SOL     OW11328   4.779   9.976   3.579  0.4239 -0.4449  0.0508
 2812SOL    HW111329   4.768   9.998   3.487 -0.1015 -1.7056 -0.2131
 2812SOL    HW211330   4.691   9.948   3.607  1.1172 -2.7301  0.1652
 2813SOL     OW11331   5.127  10.081   7.004 -0.0154  0.0132  0.2081
 2813SOL    HW111332   5.140   9.986   7.008 -1.0720 -0.1184  0.8340
 2813SOL    HW211333   5.133  10.102   6.911  0.4778 -0.6319  0.0907
 2814SOL     OW11334   9.719   0.988  10.523  0.2205 -0.2663 -0.4894
 2814SOL    HW111335   9.783   0.976  10.594 -0.0582  0.1546 -0.1665
 2814SOL    HW211336   9.742   1.071  10.483  0.3226 -0.4624 -0.8426
 2815SOL     OW11337   1.522   8.248   4.766  0.2944 -0.0304  0.4021
 2815SOL    HW111338   1.617   8.254   4.779  0.6038 -0.6499 -1.2569
 2815SOL    HW211339   1.495   8.336   4.741  1.1386 -0.5164 -2.7590
 2816SOL     OW11340   8.430   1.389   3.233 -0.2140  0.1120  0.2535
 2816SOL    HW111341   8.474   1.433   3.305  1.2869  0.2875 -0.7297
 2816SOL    HW211342   8.490   1.319   3.207  1.1105  2.2605 -3.1357
 2817SOL     OW11343   7.310   4.212   5.175  0.3672 -0.1168 -0.2361
 2817SOL    HW111344   7.247   4.217   5.104  0.7908  1.8975 -0.5137
 2817SOL    HW211345   7.257   4.196   5.254 -0.5305  1.5561 -0.4549
 2818SOL     OW11346   6.333   2.736   2.525 -0.8229 -0.2362 -0.3583
 2818SOL    HW111347   6.278   2.709   2.452 -3.0081  2.4209  0.1502
 2818SOL    HW211348   6.280   2.718   2.603 -0.8408  1.9136  0.1782
 2819SOL     OW11349   7.698   7.794   2.766  0.4839 -0.2283 -0.1502
 2819SOL    HW111350   7.753   7.866   2.735 -0.4669  1.4936  1.9114
 2819SOL    HW211351   7.760   7.724   2.788  1.6109  0.6512 -0.4449
 2820SOL     OW11352   6.079   1.904   5.918  0.9996 -0.3105 -0.2654
 2820SOL    HW111353   6.034   1.822   5.895  0.5912 -0.6495  1.5813
 2820SOL    HW211354   6.050   1.967   5.852 -0.1072 -1.2022 -0.6610
 2821SOL     OW11355   3.108   4.246   3.118  0.1292 -0.4085 -0.4451
 2821SOL    HW111356   3.039   4.199   3.071  0.8698  0.1488 -2.2021
 2821SOL    HW211357   3.126   4.192   3.195 -0.9732 -1.5156 -0.9198
 2822SOL     OW11358   5.621   1.117   1.963  0.3900 -0.1556  0.0362
 2822SOL    HW111359   5.638   1.073   2.046  0.3048 -1.8044 -0.7621
 2822SOL    HW211360   5.697   1.174   1.950  0.8033 -0.5028  0.8619
 2823SOL     OW11361   0.224   2.233   3.055 -0.1337  0.0866  0.6450
 2823SOL    HW111362   0.211   2.324   3.027 -1.3711 -0.7798 -1.9001
 2823SOL    HW211363   0.217   2.236   3.150 -1.4442  2.4907  0.5570
 2824SOL     OW11364   6.807   7.921   6.071  0.1429 -0.1249 -0.1527
 2824SOL    HW111365   6.815   8.010   6.036  2.5437  0.2586  1.1825
 2824SOL    HW211366   6.836   7.864   6.000  0.0458  0.2646 -0.5074
 2825SOL     OW11367   6.316   6.337   8.945  0.0304  0.2647  0.0865
 2825SOL    HW111368   6.355   6.419   8.917  1.1606  0.1599  1.2547
 2825SOL    HW211369   6.222   6.351   8.937  0.2014  1.7109  0.3782
 2826SOL     OW11370  10.652   0.630   4.094 -0.6520 -0.2164  0.5046
 2826SOL    HW111371  10.708   0.622   4.017  0.1139  2.1550  0.7242
 2826SOL    HW211372  10.570   0.665   4.060 -0.9490 -0.8793  0.5427
 2827SOL     OW11373   5.888   7.930   7.390 -0.2907  0.0012  0.3994
 2827SOL    HW111374   5.794   7.950   7.384 -0.8435 -2.5182 -0.3223
 2827SOL    HW211375   5.905   7.925   7.484 -0.7301  0.9706  0.5483
 2828SOL     OW11376   1.478   7.401   1.452  0.4393  0.3697  0.5949
 2828SOL    HW111377   1.495   7.341   1.524  1.4957  1.7586  1.5566
 2828SOL    HW211378   1.565   7.423   1.418 -0.0385 -0.5503 -1.4009
 2829SOL     OW11379   7.704  10.726  10.298 -0.2174 -0.2478  0.5063
 2829SOL    HW111380   7.663  10.790  10.356 -0.6223 -0.7720  0.8196
 2829SOL    HW211381   7.718  10.772  10.216  0.4574  0.5404  1.0500
 2830SOL     OW11382   4.976   2.724   7.850 -0.1105 -0.3682  0.3209
 2830SOL    HW111383   4.956   2.652   7.791 -1.9995 -0.6136  1.2069
 2830SOL    HW211384   5.072   2.732   7.846  0.1314 -2.7653  0.0324
 2831SOL     OW11385   0.077   7.462   5.713  0.4821  0.0114  0.3345
 2831SOL    HW111386   0.128   7.440   5.791 -1.0900  0.7545  1.6216
 2831SOL    HW211387   0.035   7.380   5.688  0.5720 -0.1126  0.5867
 2832SOL     OW11388   4.651   1.187   1.806 -0.4902 -0.4359  0.1923
 2832SOL    HW111389   4.650   1.101   1.848 -1.9884  0.2557  1.6484
 2832SOL    HW211390   4.566   1.194   1.762  0.3539 -0.4239 -1.5498
 2833SOL     OW11391   7.135   0.418  10.179 -0.3870 -0.1020  0.4175
 2833SOL    HW111392   7.092   0.354  10.123  2.8110 -2.0859 -0.0319
 2833SOL    HW211393   7.128   0.382  10.268 -0.0981 -0.1695  0.4135
 2834SOL     OW11394   7.416   1.997   1.878 -0.6105 -0.4431 -0.5133
 2834SOL    HW111395   7.336   1.966   1.836 -1.3959  0.3368  0.3600
 2834SOL    HW211396   7.401   1.984   1.971 -0.8592  2.1878 -0.1166
 2835SOL     OW11397   4.996   5.499   6.834  0.0082 -0.1257  0.1563
 2835SOL    HW111398   5.017   5.512   6.926 -0.1793  0.4324  0.1198
 2835SOL    HW211399   5.045   5.567   6.788  1.6713 -1.5755 -0.3621
 2836SOL     OW11400   6.953   6.172   6.710  0.2181 -0.0909 -0.7075
 2836SOL    HW111401   6.864   6.207   6.715  1.1827  2.4129  1.9316
 2836SOL    HW211402   6.961   6.115   6.786  0.7559 -0.6262 -1.1557
 2837SOL     OW11403   8.654   4.533   9.028 -0.6640  0.1624  0.8889
 2837SOL    HW111404   8.732   4.587   9.040  0.3881 -1.0530 -0.2180
 2837SOL    HW211405   8.687   4.450   8.994 -2.5193 -0.0941 -0.4514
 2838SOL     OW11406   5.474   4.158  10.608 -0.3183 -0.0409  0.4219
 2838SOL    HW111407   5.565   4.186  10.595 -0.2162 -0.6263 -0.1581
 2838SOL    HW211408   5.452   4.189  10.696  0.7406 -0.6964  0.9277
 2839SOL     OW11409   0.012  10.766   3.661 -0.0304  0.7608 -0.0784
 2839SOL    HW111410  -0.027  10.844   3.620 -0.8009 -0.0847 -1.0074
 2839SOL    HW211411  -0.030  10.761   3.747  0.2810  1.5512  0.1340
 2840SOL     OW11412   9.583   1.163   4.600 -0.2158 -0.1721  0.2409
 2840SOL    HW111413   9.524   1.152   4.525 -2.5419  0.0662  1.9477
 2840SOL    HW211414   9.560   1.249   4.635  3.2784  1.3319 -0.7240
 2841SOL     OW11415   1.013   0.467   1.253 -0.3768 -0.0727 -0.4488
 2841SOL    HW111416   0.936   0.426   1.293  0.2910  1.7033  3.1307
 2841SOL    HW211417   1.087   0.422   1.292  0.3944  0.1318 -1.6400
 2842SOL     OW11418   2.706   7.522   2.448 -0.0383 -0.0548 -0.2927
 2842SOL    HW111419   2.650   7.559   2.515 -1.7374  0.6233 -1.9937
 2842SOL    HW211420   2.700   7.427   2.460  0.4007  0.0707  1.0251
 2843SOL     OW11421   1.292   3.677   5.015 -0.4409  0.0182  0.1442
 2843SOL    HW111422   1.262   3.599   5.063  0.2716 -0.9828 -0.9803
 2843SOL    HW211423   1.218   3.737   5.017 -0.7730 -0.3945  1.6144
 2844SOL     OW11424   1.945   9.846  10.680  0.2990 -0.0526 -0.1514
 2844SOL    HW111425   1.859   9.811  10.705  0.6990 -0.1564  1.1772
 2844SOL    HW211426   1.926   9.926  10.633 -0.5441 -0.4012 -0.4205
 2845SOL     OW11427   4.308   7.711   5.888 -0.3428  0.4884  0.4897
 2845SOL    HW111428   4.309   7.705   5.984 -0.3838 -2.1267  0.4004
 2845SOL    HW211429   4.401   7.704   5.864 -0.4964 -1.0091  0.2878
 2846SOL     OW11430   2.414   8.814   4.524  0.2726  0.5330  0.4846
 2846SOL    HW111431   2.323   8.835   4.505  0.4664  0.6451 -0.3880
 2846SOL    HW211432   2.462   8.893   4.498  0.4599  1.2266  2.7254
 2847SOL     OW11433   6.359   9.394   4.375 -0.0188  0.6268 -0.6175
 2847SOL    HW111434   6.443   9.440   4.379  0.2200  0.2003 -0.6064
 2847SOL    HW211435   6.374   9.314   4.425 -0.3817  0.4664 -0.7625
 2848SOL     OW11436   8.664   0.329   4.208 -0.1127  0.3537  0.4612
 2848SOL    HW111437   8.605   0.382   4.156 -1.7470 -1.8422 -0.0898
 2848SOL    HW211438   8.745   0.327   4.158 -0.4147  1.3284 -0.0938
 2849SOL     OW11439   0.797   3.615   7.923 -0.0386 -0.0673  0.2302
 2849SOL    HW111440   0.821   3.705   7.900  2.8528 -0.5273  1.1294
 2849SOL    HW211441   0.751   3.623   8.007  2.3034  0.4730  1.5427
 2850SOL     OW11442   6.598   5.377   8.741 -0.0423  0.4731  0.4597
 2850SOL    HW111443   6.662   5.363   8.671 -3.0410 -0.1721 -2.4717
 2850SOL    HW211444   6.605   5.470   8.762 -0.1755  1.1579 -2.1247
 2851SOL     OW11445  10.741   2.200   9.880  0.1065 -0.0075 -0.0395
 2851SOL    HW111446  10.701   2.119   9.912 -1.3014  0.7866  0.2732
 2851SOL    HW211447  10.815   2.215   9.938 -1.5434  0.6359  2.0135
 2852SOL     OW11448   2.011   7.928   9.739 -0.0422 -0.0706  0.0622
 2852SOL    HW111449   2.081   7.972   9.787 -0.9975  1.1199  0.4250
 2852SOL    HW211450   1.960   7.883   9.807  0.4188 -1.0151 -0.2101
 2853SOL     OW11451   1.425   0.122   3.237  0.1855 -0.3544  0.1598
 2853SOL    HW111452   1.519   0.116   3.255  0.0213 -1.6368  0.7595
 2853SOL    HW211453   1.389   0.164   3.315  0.0287 -1.8237  0.9249
 2854SOL     OW11454   9.851   4.803   5.154  0.2309 -0.3992  0.1533
 2854SOL    HW111455   9.800   4.857   5.215 -0.3266  0.4193 -1.0141
 2854SOL    HW211456   9.885   4.864   5.090  0.4387 -1.3051 -0.6270
 2855SOL     OW11457   4.739   1.534  10.032 -0.1148  0.3184 -0.0478
 2855SOL    HW111458   4.667   1.571   9.981 -0.5598 -0.4004  0.0458
 2855SOL    HW211459   4.746   1.444  10.001  1.9816  0.8521 -1.4091
 2856SOL     OW11460   0.732   3.116   7.573 -0.0848 -0.3808 -0.2692
 2856SOL    HW111461   0.721   3.191   7.515  1.6700  0.4539  0.4302
 2856SOL    HW211462   0.733   3.040   7.515 -0.0327  0.2939 -1.1605
 2857SOL     OW11463  10.430   0.354   2.051 -0.3182  0.4736  0.1470
 2857SOL    HW111464  10.465   0.315   2.131  0.4161  1.1733  0.1785
 2857SOL    HW211465  10.497   0.416   2.023 -0.9471  0.8649 -0.5353
 2858SOL     OW11466   5.974   1.894  10.187  0.2926 -0.3340 -0.6311
 2858SOL    HW111467   6.033   1.912  10.261  0.0523  1.3426 -0.8018
 2858SOL    HW211468   5.887   1.919  10.219  0.0829 -0.2825 -1.2309
 2859SOL     OW11469   4.715   6.596  10.401  0.8211 -0.4462  0.3487
 2859SOL    HW111470   4.792   6.542  10.416 -0.2245 -1.6473  1.8222
 2859SOL    HW211471   4.697   6.589  10.308  0.7968 -2.6245  0.4619
 2860SOL     OW11472   9.086   8.708   6.626  0.3188 -0.5968  0.5151
 2860SOL    HW111473   9.018   8.766   6.660  0.7282  0.4412 -0.3697
 2860SOL    HW211474   9.039   8.628   6.604 -0.6811  0.1686 -0.2602
 2861SOL     OW11475  10.587   3.789   5.450  0.2270  0.0331 -0.4600
 2861SOL    HW111476  10.509   3.738   5.428  0.1261 -0.0139 -0.0134
 2861SOL    HW211477  10.554   3.876   5.471  0.2265 -0.1363  0.2741
 2862SOL     OW11478   5.918   9.444   9.739  0.2297  0.4679  0.2350
 2862SOL    HW111479   6.007   9.422   9.766  0.2068  0.9089  0.6812
 2862SOL    HW211480   5.914   9.539   9.744 -0.4210  0.4215  0.7087
 2863SOL     OW11481   4.899   6.763   0.119 -0.2460 -0.4295  0.3666
 2863SOL    HW111482   4.888   6.676   0.080 -0.6042 -0.9485  1.5728
 2863SOL    HW211483   4.897   6.823   0.044  0.0262 -1.4501 -0.4909
 2864SOL     OW11484   6.102   3.452   6.310 -0.0231  0.2879  0.1531
 2864SOL    HW111485   6.083   3.459   6.217  0.0100  0.5869  0.1664
 2864SOL    HW211486   6.020   3.421   6.349  0.2118 -0.6386 -0.0750
 2865SOL     OW11487   1.413   9.922   4.395  0.4852  0.5284 -0.1968
 2865SOL    HW111488   1.506   9.915   4.372  1.0065 -0.1367  1.9480
 2865SOL    HW211489   1.395  10.016   4.391  0.4551  0.5171 -3.2622
 2866SOL     OW11490   4.453   0.341   9.950  0.2075 -0.3135 -0.2510
 2866SOL    HW111491   4.521   0.278   9.972 -0.0653 -0.3052  0.6531
 2866SOL    HW211492   4.389   0.333  10.021 -0.4336  0.1119 -0.7659
 2867SOL     OW11493   6.268   4.083   2.391  0.8182  0.2125 -0.1427
 2867SOL    HW111494   6.226   4.006   2.431  0.6884  1.0651  1.4225
 2867SOL    HW211495   6.361   4.059   2.386  0.6528 -0.3892 -0.5363
 2868SOL     OW11496   6.172   5.067   6.319  0.7691 -0.4304  0.1407
 2868SOL    HW111497   6.162   5.155   6.284  0.2723  0.6389  2.8187
 2868SOL    HW211498   6.104   5.016   6.274  1.5553  0.2979 -1.9993
 2869SOL     OW11499   8.882   8.576   9.907 -0.4231  0.3587 -0.1014
 2869SOL    HW111500   8.931   8.657   9.915 -0.0639  0.2299 -0.9047
 2869SOL    HW211501   8.812   8.596   9.845 -0.7721  0.2535  0.2517
 2870SOL     OW11502  10.627   5.261   0.231 -0.4094 -0.1139  0.3691
 2870SOL    HW111503  10.552   5.225   0.185 -0.8165  0.5137  0.5251
 2870SOL    HW211504  10.634   5.210   0.312  0.6003 -1.5452 -0.5689
 2871SOL     OW11505   3.898   9.508   0.478 -0.2762 -0.2711  0.6022
 2871SOL    HW111506   3.929   9.484   0.565  2.3975  1.9330  0.3976
 2871SOL    HW211507   3.889   9.603   0.480  0.5071 -0.0791 -1.6874
 2872SOL     OW11508   0.761   4.340   0.327 -0.6296 -0.1126  0.0088
 2872SOL    HW111509   0.705   4.340   0.405 -0.0586  0.2702  0.4250
 2872SOL    HW211510   0.700   4.355   0.255 -1.2184 -0.8315  0.3347
 2873SOL     OW11511   7.946   5.590   3.254  0.0993  0.4303  0.2412
 2873SOL    HW111512   8.036   5.566   3.232 -0.6678 -0.5669 -2.0261
 2873SOL    HW211513   7.893   5.515   3.226 -1.6775  1.9247 -0.6011
 2874SOL     OW11514  10.207   9.444   9.953 -0.4511 -0.2340  0.7259
 2874SOL    HW111515  10.273   9.514   9.945  0.0057 -0.8210 -1.5480
 2874SOL    HW211516  10.187   9.440  10.046 -0.1341  2.5913  1.0206
 2875SOL     OW11517   0.900   5.466   2.857  0.3467  0.2106  0.6271
 2875SOL    HW111518   0.971   5.421   2.904  0.3264 -1.1540 -0.5794
 2875SOL    HW211519   0.824   5.409   2.866 -0.1113  0.7637  0.3656
 2876SOL     OW11520   1.406   3.730   1.272  0.4391 -0.5816 -0.7192
 2876SOL    HW111521   1.363   3.671   1.210 -1.8446 -1.2130  1.3062
 2876SOL    HW211522   1.351   3.809   1.272  0.8859 -0.2640 -0.0720
 2877SOL     OW11523   6.884   2.704   5.409  0.2597 -0.1504  0.2638
 2877SOL    HW111524   6.886   2.759   5.331 -0.6972 -0.8073 -0.2479
 2877SOL    HW211525   6.850   2.620   5.378  0.3452 -0.5816  1.2986
 2878SOL     OW11526   2.959   3.535   6.147 -0.2258  0.3187  0.3092
 2878SOL    HW111527   2.935   3.465   6.086 -1.1021  0.8904 -0.0331
 2878SOL    HW211528   2.877   3.582   6.163  0.6385  2.4578 -1.0139
 2879SOL     OW11529   4.190   3.691  10.100  0.3069  0.1418  0.3686
 2879SOL    HW111530   4.172   3.600  10.124  1.2647 -0.2499 -0.3068
 2879SOL    HW211531   4.286   3.697  10.100  0.3767  0.3835 -2.1929
 2880SOL     OW11532   0.799   4.166   3.552 -0.4597 -0.4269 -0.7754
 2880SOL    HW111533   0.842   4.201   3.630  0.6179 -0.2114 -1.4498
 2880SOL    HW211534   0.705   4.172   3.572 -0.2009 -0.8640  0.6987
 2881SOL     OW11535  10.192   0.186   9.645 -0.5228  0.5171 -0.0621
 2881SOL    HW111536  10.135   0.125   9.598 -0.6975 -0.4493  1.3330
 2881SOL    HW211537  10.184   0.160   9.737  1.8701  0.5941  0.2347
 2882SOL     OW11538   7.761   2.029   2.210  0.4232  0.0416 -0.0563
 2882SOL    HW111539   7.678   2.011   2.254 -0.5814  0.6052 -1.6612
 2882SOL    HW211540   7.812   2.078   2.274 -0.7204  0.2340  0.7231
 2883SOL     OW11541  10.791   4.801   2.205 -0.1254  0.3306 -0.1869
 2883SOL    HW111542  10.837   4.752   2.273 -1.6572 -0.2533  0.4585
 2883SOL    HW211543  10.823   4.763   2.123  0.9547  0.3357  0.2138
 2884SOL     OW11544   0.426   5.766   8.842  0.1534  0.9046 -0.1199
 2884SOL    HW111545   0.357   5.729   8.898 -2.1259 -0.3609 -3.4909
 2884SOL    HW211546   0.427   5.859   8.864  0.7587  0.2668  3.2493
 2885SOL     OW11547   6.277   2.256   9.744 -0.2333 -0.1929  0.1931
 2885SOL    HW111548   6.333   2.334   9.749 -0.2671 -0.1802  0.3563
 2885SOL    HW211549   6.295   2.219   9.657 -0.6040  0.2872 -0.0923
 2886SOL     OW11550   6.850   6.846   2.321 -0.1935 -0.5150 -0.0274
 2886SOL    HW111551   6.799   6.835   2.402  2.1727  1.0517  1.7916
 2886SOL    HW211552   6.900   6.765   2.314 -0.8936 -0.9313 -0.3174
 2887SOL     OW11553  10.076   9.796   4.241  0.1524 -0.2955  0.0306
 2887SOL    HW111554  10.087   9.821   4.333 -0.9415  0.1512  0.0649
 2887SOL    HW211555  10.086   9.878   4.193 -2.9371  0.2679  0.0987
 2888SOL     OW11556   4.865   1.221   9.318 -0.3665  0.0963  0.7519
 2888SOL    HW111557   4.783   1.263   9.293  0.8049  1.8205 -0.3892
 2888SOL    HW211558   4.885   1.257   9.405  0.4369  1.6813 -0.0590
 2889SOL     OW11559   5.191   1.914   2.787 -0.8377 -0.0199  0.4493
 2889SOL    HW111560   5.253   1.984   2.809  0.1808 -0.9936  0.7667
 2889SOL    HW211561   5.224   1.878   2.705 -1.4370 -0.0455  0.2154
 2890SOL     OW11562   0.949   3.884   4.867  0.1097 -0.0288 -0.1547
 2890SOL    HW111563   0.987   3.943   4.802  0.0460  0.7160  0.4624
 2890SOL    HW211564   0.879   3.935   4.907  0.6963 -0.1585  1.0841
 2891SOL     OW11565   4.183   5.460   3.944 -0.1586  0.9961 -0.6596
 2891SOL    HW111566   4.214   5.396   4.008  0.5884  1.3936 -0.6151
 2891SOL    HW211567   4.243   5.451   3.869  0.8097  2.5647 -0.1136
 2892SOL     OW11568   0.161   9.550   9.368  0.1834 -0.0742 -0.4873
 2892SOL    HW111569   0.229   9.610   9.338 -0.0425 -0.2803 -1.4492
 2892SOL    HW211570   0.179   9.539   9.461  1.9399 -0.7015 -0.8489
 2893SOL     OW11571   6.277   9.745   9.318  0.4567 -0.1522 -0.0099
 2893SOL    HW111572   6.251   9.678   9.381  1.0374  0.3764  0.8135
 2893SOL    HW211573   6.361   9.777   9.351 -0.1399  1.4872  0.0333
 2894SOL     OW11574   2.675  10.513  10.283  0.3258 -0.5466 -0.6242
 2894SOL    HW111575   2.721  10.550  10.358  0.0119  0.4017 -0.8803
 2894SOL    HW211576   2.670  10.585  10.220 -0.1304 -1.0889 -1.2245
 2895SOL     OW11577   1.676   7.538   6.818 -0.3357  0.4606 -0.0114
 2895SOL    HW111578   1.712   7.509   6.734 -1.0201  2.2581 -0.9934
 2895SOL    HW211579   1.581   7.532   6.806 -0.5262  2.7859 -0.2394
 2896SOL     OW11580   8.653   4.018   0.725 -0.5275 -0.8561 -0.1670
 2896SOL    HW111581   8.661   4.037   0.632 -0.6749 -2.5346 -0.5642
 2896SOL    HW211582   8.705   3.938   0.737 -0.7301 -0.8090  1.1421
 2897SOL     OW11583   3.192   3.415   7.820  0.3756  0.8289  0.1849
 2897SOL    HW111584   3.098   3.429   7.818  0.2930  0.2348 -0.1267
 2897SOL    HW211585   3.229   3.503   7.830 -0.2121  1.0495  0.4566
 2898SOL     OW11586   8.073   1.944   5.286 -0.1336 -0.0682  0.3040
 2898SOL    HW111587   8.145   1.981   5.337 -0.5475  0.7365  0.3275
 2898SOL    HW211588   8.081   1.849   5.299 -0.4204  0.1146  2.1295
 2899SOL     OW11589   5.197   0.792  10.330 -0.4665 -0.1712 -0.4504
 2899SOL    HW111590   5.159   0.732  10.265 -0.8348 -2.4978  1.7645
 2899SOL    HW211591   5.291   0.789  10.313 -0.6537  0.3794 -1.7282
 2900SOL     OW11592   8.562   9.229   6.661  0.1375  0.1051 -0.1269
 2900SOL    HW111593   8.607   9.273   6.733  3.0642  1.7599 -2.7586
 2900SOL    HW211594   8.522   9.299   6.610  0.8843 -0.6715 -1.8633
 2901SOL     OW11595   4.022   1.967   8.976  0.0078  0.2933 -0.5723
 2901SOL    HW111596   4.091   2.019   9.017 -0.8617  0.0915  1.2728
 2901SOL    HW211597   4.005   1.897   9.039 -2.3728  0.7680 -0.5879
 2902SOL     OW11598   4.986   5.716   8.435  0.1366  0.1720 -0.6208
 2902SOL    HW111599   5.081   5.731   8.437  0.3770 -1.3038 -0.1766
 2902SOL    HW211600   4.976   5.623   8.416 -1.2482  0.4393 -1.3253
 2903SOL     OW11601   9.156   7.823   3.926  0.3637  0.3817  0.0411
 2903SOL    HW111602   9.116   7.883   3.863  1.5791  2.8172  1.4601
 2903SOL    HW211603   9.173   7.877   4.004 -2.0817 -2.6642  3.0005
 2904SOL     OW11604  10.582   5.049   7.082 -0.4107 -0.5607  0.4900
 2904SOL    HW111605  10.595   5.035   6.989 -0.1593  0.8539  0.2910
 2904SOL    HW211606  10.661   5.014   7.123  0.7275  1.2114 -0.0787
 2905SOL     OW11607  10.695   6.472   1.800 -0.5466 -0.4258 -0.1076
 2905SOL    HW111608  10.659   6.446   1.885  0.6621  0.8726  0.8555
 2905SOL    HW211609  10.788   6.452   1.806 -0.0315  1.6454 -0.2448
 2906SOL     OW11610   4.240   9.522   0.043 -0.5666 -0.2304 -0.4759
 2906SOL    HW111611   4.206   9.450  -0.010 -1.8705 -1.1470  1.4892
 2906SOL    HW211612   4.309   9.482   0.097  0.1855  0.5031 -0.8669
 2907SOL     OW11613   1.024   3.088   9.309  0.2366  0.4051 -0.5550
 2907SOL    HW111614   1.011   3.172   9.353 -0.4766  1.1248 -2.0381
 2907SOL    HW211615   1.102   3.102   9.255 -0.0960  0.2554 -1.0839
 2908SOL     OW11616   8.132  10.713   5.128 -0.0015  0.4726  0.1194
 2908SOL    HW111617   8.226  10.704   5.110 -0.0021 -0.9458  0.6624
 2908SOL    HW211618   8.128  10.751   5.216  0.1408 -1.4829  1.0369
 2909SOL     OW11619   0.235   5.300   2.913 -0.3962 -0.1807  0.3325
 2909SOL    HW111620   0.255   5.207   2.923 -1.3971 -0.7634 -2.3320
 2909SOL    HW211621   0.147   5.309   2.949 -1.3396 -0.8818 -1.6318
 2910SOL     OW11622   4.140   4.622   8.138  0.5787 -0.1376 -0.2633
 2910SOL    HW111623   4.185   4.635   8.055 -1.5278 -0.5049 -1.5363
 2910SOL    HW211624   4.190   4.552   8.182  2.6469  1.1431 -0.4342
 2911SOL     OW11625   5.785   6.825   9.472  0.0364  0.2353 -0.3958
 2911SOL    HW111626   5.846   6.871   9.530  1.0230  0.2516 -1.3994
 2911SOL    HW211627   5.801   6.732   9.489  1.0264  0.2199 -1.2967
 2912SOL     OW11628   2.411   9.980   7.134  0.2036 -0.2455 -0.9261
 2912SOL    HW111629   2.427   9.952   7.044  1.7360  1.8704 -1.3820
 2912SOL    HW211630   2.446  10.069   7.139  1.1357 -0.6335  2.0327
 2913SOL     OW11631   6.196   6.106   0.272  0.0753  0.3334  0.3102
 2913SOL    HW111632   6.164   6.117   0.361 -0.8818  0.0589  0.0216
 2913SOL    HW211633   6.217   6.013   0.265 -0.6019  0.1949  0.0251
 2914SOL     OW11634   9.721   4.735   0.368  0.4195  0.2752  0.3289
 2914SOL    HW111635   9.776   4.695   0.301 -0.0203 -0.3856  0.3479
 2914SOL    HW211636   9.634   4.740   0.327  0.3141  0.5643  0.5806
 2915SOL     OW11637   9.057   7.837   5.711  0.3358  0.0492 -0.3676
 2915SOL    HW111638   9.008   7.764   5.674  0.5548 -1.1491  1.5402
 2915SOL    HW211639   9.076   7.810   5.801  2.7141  1.3415 -0.3892
 2916SOL     OW11640   1.913  10.333   8.078 -0.1136  0.0067  0.5886
 2916SOL    HW111641   1.982  10.318   8.143  2.2264 -0.6801 -1.9087
 2916SOL    HW211642   1.907  10.251   8.029 -1.6897  0.5660 -0.2352
 2917SOL     OW11643   4.853   3.546  10.087 -0.2491 -0.3587 -0.0367
 2917SOL    HW111644   4.915   3.587  10.026 -1.8506  1.9561 -0.2470
 2917SOL    HW211645   4.902   3.474  10.127  2.4678  1.1924 -0.3620
 2918SOL     OW11646   1.901   3.940   3.116  0.5691  0.2228 -0.2389
 2918SOL    HW111647   1.841   3.973   3.183  1.7052  1.4369  0.2270
 2918SOL    HW211648   1.924   4.018   3.065  0.6123 -0.4903 -1.3374
 2919SOL     OW11649   0.596   5.364   6.298  0.0602  0.2964 -0.0500
 2919SOL    HW111650   0.668   5.302   6.284  0.0486 -0.0673  1.3535
 2919SOL    HW211651   0.608   5.431   6.231 -0.4746 -1.7032 -2.2688
 2920SOL     OW11652   7.555  10.360   7.604 -0.7536  0.4947 -0.5025
 2920SOL    HW111653   7.529  10.310   7.682  0.0380  0.3452 -0.3238
 2920SOL    HW211654   7.650  10.351   7.600 -0.0845  4.4429  1.2818
 2921SOL     OW11655   4.961   6.965  10.397  0.0026 -0.2733  0.0959
 2921SOL    HW111656   4.969   6.910  10.475  1.0771 -1.3644 -0.7560
 2921SOL    HW211657   5.042   6.950  10.348 -0.9318 -0.1268 -1.5646
 2922SOL     OW11658   8.004   0.721   4.380  0.2311 -0.0177  0.1818
 2922SOL    HW111659   7.911   0.740   4.393 -0.0798  0.3161 -2.1823
 2922SOL    HW211660   8.026   0.663   4.453 -2.3555 -1.7659 -0.2924
 2923SOL     OW11661   2.779  10.721   5.584 -0.0925 -0.1827  0.5933
 2923SOL    HW111662   2.857  10.777   5.582  0.7284 -1.2689  1.4083
 2923SOL    HW211663   2.720  10.761   5.520 -0.0015  2.2777  1.9052
 2924SOL     OW11664   9.179   0.581   0.362  0.4283  0.1870  0.1901
 2924SOL    HW111665   9.132   0.664   0.352  0.7403  0.7572  2.8387
 2924SOL    HW211666   9.113   0.513   0.348 -0.6743  0.9482  1.5047
 2925SOL     OW11667   1.782   0.358   4.908  0.4285  0.3350 -0.0141
 2925SOL    HW111668   1.855   0.331   4.852  0.3475 -1.1141  0.5417
 2925SOL    HW211669   1.814   0.436   4.953  1.9494 -0.6765  0.7556
 2926SOL     OW11670   5.171   7.109   4.564 -0.2595  0.7941 -0.2379
 2926SOL    HW111671   5.164   7.015   4.579  0.2190  0.7993  0.0514
 2926SOL    HW211672   5.168   7.119   4.469 -1.0302  0.5551 -0.2464
 2927SOL     OW11673   4.760   5.688   1.424  0.0661  0.0391  0.2984
 2927SOL    HW111674   4.849   5.711   1.450  0.5914 -0.9434 -0.5547
 2927SOL    HW211675   4.767   5.662   1.332 -0.9590 -0.7499  0.4205
 2928SOL     OW11676   7.446  10.054   3.433 -0.2590 -0.1229 -1.1043
 2928SOL    HW111677   7.440  10.121   3.501  0.3188 -0.9561 -0.2081
 2928SOL    HW211678   7.516  10.086   3.375  1.0370 -0.6125  0.1218
 2929SOL     OW11679   0.895   3.383   4.760  0.1592 -0.2383 -0.0683
 2929SOL    HW111680   0.931   3.412   4.677 -1.0659  1.2185 -0.1147
 2929SOL    HW211681   0.950   3.427   4.826 -0.8965  1.2596 -0.1399
 2930SOL     OW11682   8.581   0.622   2.054  0.0965 -0.1835 -0.2695
 2930SOL    HW111683   8.521   0.665   2.115  0.2419 -0.2092 -0.1092
 2930SOL    HW211684   8.648   0.583   2.110  0.7962  0.6536 -0.4955
 2931SOL     OW11685   3.447   2.286   9.744  0.1063 -0.3327 -0.4530
 2931SOL    HW111686   3.478   2.361   9.794  0.5531  0.1462 -1.4228
 2931SOL    HW211687   3.526   2.236   9.723 -0.1927 -1.1112  0.2308
 2932SOL     OW11688   8.363   0.103   9.468  0.4984  0.2371 -0.3988
 2932SOL    HW111689   8.387   0.019   9.506 -0.2293 -0.3501 -1.2037
 2932SOL    HW211690   8.393   0.098   9.378 -0.3786  0.4735 -0.7119
 2933SOL     OW11691   8.663   2.016   6.422 -0.5610  0.5911 -0.0163
 2933SOL    HW111692   8.593   2.046   6.480 -0.2477 -0.4866  0.9576
 2933SOL    HW211693   8.740   2.064   6.451 -0.7796  1.4649 -0.8152
 2934SOL     OW11694   5.992   3.853   3.537  0.0445 -0.3562 -0.0047
 2934SOL    HW111695   5.936   3.786   3.499  0.3139 -0.0347 -1.0096
 2934SOL    HW211696   5.998   3.830   3.629 -1.4139 -0.6198  0.0487
 2935SOL     OW11697   9.324   6.120   3.846  0.7839 -0.2843  0.4755
 2935SOL    HW111698   9.404   6.086   3.806  2.0945 -0.6551  3.1985
 2935SOL    HW211699   9.340   6.214   3.856 -1.2472  0.6812 -3.4358
 2936SOL     OW11700   4.787   8.967   0.699  0.3234 -0.7166  0.2298
 2936SOL    HW111701   4.746   9.053   0.691  1.1736 -0.2925  0.3047
 2936SOL    HW211702   4.730   8.908   0.650  0.6302  0.1857 -1.2481
 2937SOL     OW11703   7.692   6.297   7.522 -0.1405 -0.5085  0.6132
 2937SOL    HW111704   7.667   6.218   7.474  0.1573 -1.4811  2.0066
 2937SOL    HW211705   7.609   6.330   7.558  0.0459 -1.9744  2.6059
 2938SOL     OW11706   1.889   3.920   9.181 -0.0798  0.3502 -0.4016
 2938SOL    HW111707   1.928   3.844   9.224  1.6159  0.4904 -1.5656
 2938SOL    HW211708   1.916   3.994   9.235  0.7305  0.3740 -0.8144
 2939SOL     OW11709  10.054   2.911   9.682  0.1672  0.2554  0.1213
 2939SOL    HW111710  10.071   2.910   9.776  0.2876  0.4280  0.1019
 2939SOL    HW211711  10.054   3.003   9.658 -0.5549  0.2517  0.0737
 2940SOL     OW11712  10.592   0.300   9.009  0.2216  0.7885  0.2111
 2940SOL    HW111713  10.540   0.227   8.977  0.9673  0.3515 -0.0347
 2940SOL    HW211714  10.536   0.344   9.073  0.3681 -1.0224  1.6618
 2941SOL     OW11715   3.892   5.685   2.646 -0.2378 -0.5135 -0.1245
 2941SOL    HW111716   3.864   5.696   2.737  0.1038 -0.3735 -0.0346
 2941SOL    HW211717   3.984   5.711   2.646 -0.1056 -0.9707 -0.4133
 2942SOL     OW11718   5.042   2.508   7.623 -0.5208  0.8365  0.0649
 2942SOL    HW111719   5.127   2.546   7.602 -0.0639  0.2625  0.8433
 2942SOL    HW211720   4.986   2.534   7.550  0.5845  0.3401 -1.0100
 2943SOL     OW11721   3.302  10.648   1.356 -0.1487 -0.4382 -0.6694
 2943SOL    HW111722   3.297  10.565   1.309  2.0930 -0.1928 -1.4394
 2943SOL    HW211723   3.382  10.689   1.324 -1.8543  2.7046 -1.4122
 2944SOL     OW11724   8.111   8.841   0.302 -0.0767 -0.3219  0.0992
 2944SOL    HW111725   8.054   8.891   0.244  1.3383  0.5050 -0.6496
 2944SOL    HW211726   8.173   8.797   0.243  0.9075 -0.0844  0.9235
 2945SOL     OW11727   6.740   9.986   7.209  0.0812 -0.7187 -0.2525
 2945SOL    HW111728   6.720   9.901   7.169 -1.7831 -0.0200 -0.9128
 2945SOL    HW211729   6.701  10.050   7.150  0.6076  0.5667  0.7382
 2946SOL     OW11730   5.137  10.441   9.438  0.0687  0.0484  0.4990
 2946SOL    HW111731   5.229  10.423   9.417 -0.2274  0.6254 -1.3986
 2946SOL    HW211732   5.130  10.537   9.436 -0.7869 -0.0161 -0.4278
 2947SOL     OW11733   5.995   7.395   7.271  0.1410  0.3900  0.0110
 2947SOL    HW111734   6.032   7.312   7.244 -0.6034 -0.4416  1.3942
 2947SOL    HW211735   6.025   7.458   7.206  0.6049 -0.9793 -1.1457
 2948SOL     OW11736   8.162   3.937   5.168 -0.4116 -0.0392 -0.3109
 2948SOL    HW111737   8.175   3.883   5.089  1.5683  0.7730 -0.5842
 2948SOL    HW211738   8.085   3.990   5.147 -0.3574 -0.3502 -1.4101
 2949SOL     OW11739  10.286   7.495   8.750  0.1158  0.1205  0.1129
 2949SOL    HW111740  10.332   7.430   8.803  0.0918 -0.8020 -0.9632
 2949SOL    HW211741  10.231   7.543   8.812  1.6222  0.4603  1.2347
 2950SOL     OW11742   0.859   0.748   4.001  0.1373 -0.0663  0.5681
 2950SOL    HW111743   0.950   0.754   3.972 -0.0188  1.0659  0.2608
 2950SOL    HW211744   0.835   0.656   3.986  0.6825  0.0202 -1.0673
 2951SOL     OW11745   8.194   3.998   4.360 -0.7770 -0.3886 -0.0660
 2951SOL    HW111746   8.155   3.987   4.446 -3.6395 -1.9614 -1.4229
 2951SOL    HW211747   8.125   4.038   4.307  1.6338  2.6624 -1.1953
 2952SOL     OW11748   3.017   7.971   4.801 -0.5856 -0.1978 -0.0065
 2952SOL    HW111749   2.950   7.998   4.864  0.7309  0.8719  0.9892
 2952SOL    HW211750   3.066   8.051   4.781  1.8026 -1.2944  1.0277
 2953SOL     OW11751   8.750   3.428   6.631  0.3887 -0.4912 -0.2881
 2953SOL    HW111752   8.665   3.432   6.588  1.1850  0.0621 -1.8657
 2953SOL    HW211753   8.741   3.486   6.707 -0.9296 -1.2325  0.1697
 2954SOL     OW11754   4.061   4.564   9.511 -0.0095  0.9795 -0.7769
 2954SOL    HW111755   4.035   4.650   9.478 -0.6559  0.4597 -1.6718
 2954SOL    HW211756   3.990   4.537   9.568 -0.6016  0.3546 -1.7756
 2955SOL     OW11757   5.196   6.746   9.863 -0.7401 -0.1898  0.7255
 2955SOL    HW111758   5.266   6.718   9.923 -1.1751  0.0392  1.3487
 2955SOL    HW211759   5.196   6.842   9.871 -0.8581 -0.1664  0.4232
 2956SOL     OW11760   5.490   9.435   8.927  0.3601  0.7171 -0.3066
 2956SOL    HW111761   5.454   9.411   9.012  0.3678  0.6731 -0.3156
 2956SOL    HW211762   5.415   9.467   8.877  0.0110 -0.9124 -0.8836
 2957SOL     OW11763   8.006  10.056   8.204 -0.3595 -0.6765  0.4111
 2957SOL    HW111764   8.067  10.113   8.250  0.2091 -1.2621  0.4101
 2957SOL    HW211765   8.062   9.988   8.165 -0.8813 -0.5264 -0.6411
 2958SOL     OW11766   8.950   5.734   7.937 -0.3109  0.4925 -0.0766
 2958SOL    HW111767   8.924   5.791   8.009 -0.5613 -0.0015  0.2351
 2958SOL    HW211768   9.040   5.708   7.957 -0.9736 -1.1288  1.0738
 2959SOL     OW11769   7.180   6.665   6.252 -0.3584  0.4171  0.4694
 2959SOL    HW111770   7.205   6.756   6.243  1.1627  0.0965  1.2666
 2959SOL    HW211771   7.237   6.630   6.320 -0.4999 -1.2755 -0.2271
 2960SOL     OW11772   8.287   5.325   3.332 -0.3137  0.4128 -0.1202
 2960SOL    HW111773   8.261   5.290   3.417  0.0205 -0.6539 -0.4355
 2960SOL    HW211774   8.369   5.280   3.312 -0.5639  0.3905 -1.1477
 2961SOL     OW11775   6.226   1.078   1.859  0.0860 -0.4540 -0.0602
 2961SOL    HW111776   6.201   1.162   1.900  1.8309 -0.4248  1.0726
 2961SOL    HW211777   6.321   1.085   1.849  0.0649 -1.7550 -1.2663
 2962SOL     OW11778   6.325   7.145   6.185 -0.2242  0.1290  0.4112
 2962SOL    HW111779   6.251   7.188   6.143  0.1999 -0.8774 -1.4656
 2962SOL    HW211780   6.349   7.204   6.257 -2.6342  0.6195  0.9040
 2963SOL     OW11781   0.195  10.576   1.995  0.0178  0.3753 -0.3137
 2963SOL    HW111782   0.133  10.563   2.067  0.7511 -0.7445  0.1349
 2963SOL    HW211783   0.276  10.605   2.039 -0.0232  1.3431 -0.8477
 2964SOL     OW11784   8.149  10.451   8.298 -0.0291  0.3916  0.0055
 2964SOL    HW111785   8.104  10.449   8.214  0.8665 -0.8812 -0.4904
 2964SOL    HW211786   8.127  10.367   8.339  1.7051 -0.2004 -0.1903
 2965SOL     OW11787   2.610   1.717   8.309  0.1745 -0.1829  0.6010
 2965SOL    HW111788   2.611   1.644   8.247  3.0306  1.2076 -1.1698
 2965SOL    HW211789   2.518   1.742   8.315 -0.3369 -1.0799 -2.2644
 2966SOL     OW11790   9.077   5.307   7.018 -0.3200  0.0515 -0.4643
 2966SOL    HW111791   9.119   5.276   6.938  0.8772 -2.0397  0.8591
 2966SOL    HW211792   9.126   5.385   7.043  0.0639  0.0272 -1.1261
 2967SOL     OW11793   4.295   8.134   9.107  0.3262 -0.4823 -0.3158
 2967SOL    HW111794   4.239   8.192   9.057  0.4967 -0.4308 -0.4467
 2967SOL    HW211795   4.351   8.091   9.042  1.7074  0.8281 -0.0473
 2968SOL     OW11796   6.590   1.231   4.519  0.0770  0.2190 -0.0108
 2968SOL    HW111797   6.654   1.181   4.569 -1.4513  0.1500  1.9891
 2968SOL    HW211798   6.545   1.166   4.466  1.3760  0.2268 -1.1936
 2969SOL     OW11799   5.054   2.222   3.561 -0.2407  0.1403  0.8684
 2969SOL    HW111800   5.067   2.128   3.544  0.1639  0.4492 -0.7433
 2969SOL    HW211801   4.964   2.239   3.531  0.8531  0.9230 -2.4578
 2970SOL     OW11802   7.950   4.477   2.219  0.1641  0.8100 -0.3036
 2970SOL    HW111803   7.958   4.552   2.279 -0.8251 -0.1390  1.0810
 2970SOL    HW211804   7.913   4.408   2.273  1.5930 -0.8820 -1.4082
 2971SOL     OW11805   2.025   6.752   7.181  0.0050  0.2311 -0.2190
 2971SOL    HW111806   2.024   6.837   7.226 -0.6910 -0.0668  0.3540
 2971SOL    HW211807   1.967   6.697   7.233  0.3431 -0.5643 -0.6646
 2972SOL     OW11808   0.609   7.072   3.696 -0.2784  0.0904 -0.4133
 2972SOL    HW111809   0.529   7.035   3.735 -0.8874 -0.3147 -1.9717
 2972SOL    HW211810   0.630   7.147   3.751  0.6084 -2.0869  2.4876
 2973SOL     OW11811   6.512   7.089   5.066 -1.1208  0.3368  0.1404
 2973SOL    HW111812   6.530   7.161   5.005 -0.5814 -1.1967 -1.6009
 2973SOL    HW211813   6.594   7.077   5.113 -1.0900  0.6059  0.1591
 2974SOL     OW11814   8.506   4.932   5.043 -0.9286  0.2128 -0.2637
 2974SOL    HW111815   8.423   4.886   5.051 -1.6963  1.7370  1.0999
 2974SOL    HW211816   8.500   4.978   4.959 -1.1421 -0.2737 -0.5188
 2975SOL     OW11817   2.923   0.399   4.840 -0.0660 -0.6829  0.0235
 2975SOL    HW111818   2.981   0.332   4.874  2.6461  0.0698 -2.6710
 2975SOL    HW211819   2.971   0.481   4.853 -2.1589  0.4766  0.9041
 2976SOL     OW11820   2.983   3.976   7.931  0.3109  0.1850 -0.3464
 2976SOL    HW111821   3.069   4.018   7.925  0.1116  0.4239 -2.8369
 2976SOL    HW211822   2.995   3.890   7.890 -0.4039 -0.2408  0.2955
 2977SOL     OW11823   3.281   9.235   2.759  0.0718 -0.1562  0.4338
 2977SOL    HW111824   3.195   9.206   2.730  0.9224 -0.7371 -1.6548
 2977SOL    HW211825   3.308   9.171   2.825 -0.6852 -0.5104  0.3994
 2978SOL     OW11826   8.894   0.928   4.837 -0.2268  0.0176 -1.0034
 2978SOL    HW111827   8.958   0.984   4.879 -0.7433  0.0411 -0.2363
 2978SOL    HW211828   8.829   0.988   4.800 -1.7904 -0.0502  1.4085
 2979SOL     OW11829   9.439   8.710   2.093 -0.4748 -0.2313 -0.4466
 2979SOL    HW111830   9.393   8.715   2.177 -1.4664 -0.1628 -0.9716
 2979SOL    HW211831   9.433   8.618   2.068 -0.3159 -0.2236 -0.5157
 2980SOL     OW11832   9.131   8.815   9.792  0.0934 -0.4749 -0.1495
 2980SOL    HW111833   9.181   8.736   9.773  1.3346  0.2327  0.0352
 2980SOL    HW211834   9.170   8.882   9.735  0.7648  0.5725  1.4752
 2981SOL     OW11835   1.134   9.620   5.277  0.3906  0.4869 -0.1087
 2981SOL    HW111836   1.117   9.700   5.327 -0.6903 -0.9467  1.9762
 2981SOL    HW211837   1.047   9.584   5.258  0.8581 -0.2196 -1.0186
 2982SOL     OW11838   8.724   9.145   3.910 -0.6060 -0.0737  0.2344
 2982SOL    HW111839   8.645   9.140   3.856 -0.3980 -0.7490 -0.0241
 2982SOL    HW211840   8.777   9.213   3.869 -0.8809  0.1053  0.1738
 2983SOL     OW11841   2.583   8.457   8.954  0.0647  0.0618  0.1810
 2983SOL    HW111842   2.536   8.532   8.919 -1.3743 -0.6859  0.4240
 2983SOL    HW211843   2.654   8.442   8.891 -0.4454  0.7889 -0.5963
 2984SOL     OW11844   1.274   6.019   3.349 -0.0322 -0.2183 -0.4316
 2984SOL    HW111845   1.263   6.050   3.259  0.6515  1.3677  0.0104
 2984SOL    HW211846   1.364   6.042   3.371  0.8177 -3.2234 -0.3085
 2985SOL     OW11847   0.428   0.648   9.084  0.5086 -0.3643  0.4168
 2985SOL    HW111848   0.341   0.610   9.071  0.4573 -0.2275  0.3518
 2985SOL    HW211849   0.480   0.615   9.010  0.3748 -0.0496  0.1777
 2986SOL     OW11850   8.056   7.279   4.917 -0.3781 -0.3202 -0.1785
 2986SOL    HW111851   8.056   7.344   4.847 -2.0218  0.7570  0.7380
 2986SOL    HW211852   8.024   7.199   4.875  1.3226 -0.4858 -1.2408
 2987SOL     OW11853   9.897   3.390   5.292 -0.1456  0.2528  0.8557
 2987SOL    HW111854   9.852   3.348   5.219 -1.2703  1.0372  1.0723
 2987SOL    HW211855   9.874   3.482   5.285  1.6001  0.7211  0.8797
 2988SOL     OW11856   3.339   5.361   8.597  0.3918  0.4735  0.4117
 2988SOL    HW111857   3.275   5.290   8.591 -1.1817  1.8009  0.8005
 2988SOL    HW211858   3.326   5.399   8.684  3.2951 -0.6035  1.4323
 2989SOL     OW11859   3.988   6.256   6.793 -0.1992 -0.4727 -0.1542
 2989SOL    HW111860   3.989   6.160   6.796 -1.9264 -0.5165  1.3501
 2989SOL    HW211861   4.023   6.283   6.878 -0.1687  0.2252 -0.3801
 2990SOL     OW11862   7.177   6.026  10.740 -0.5121  0.1105 -0.2864
 2990SOL    HW111863   7.093   6.050  10.702 -0.2695 -0.2915 -1.0936
 2990SOL    HW211864   7.234   6.100  10.721 -0.4651  0.0298 -0.4578
 2991SOL     OW11865   7.041   9.524   7.883 -0.4995 -0.6486 -0.4108
 2991SOL    HW111866   7.115   9.523   7.822 -1.1903 -0.8151 -1.2815
 2991SOL    HW211867   7.056   9.599   7.939 -0.3331  0.1027 -1.4316
 2992SOL     OW11868   0.573   4.697   7.931 -0.1152 -0.1226 -0.2904
 2992SOL    HW111869   0.488   4.688   7.887 -0.9187 -1.0595  1.3742
 2992SOL    HW211870   0.623   4.620   7.902 -1.2210 -1.6238  1.5745
 2993SOL     OW11871   3.729   8.612   7.221  0.0201 -0.2004 -0.3867
 2993SOL    HW111872   3.691   8.547   7.279  1.0753  0.2535  0.8632
 2993SOL    HW211873   3.701   8.586   7.134  2.0136 -3.5238 -0.1957
 2994SOL     OW11874   0.189   4.610   4.402  0.5536 -0.1279  0.0266
 2994SOL    HW111875   0.237   4.588   4.323 -0.1580 -1.8194  0.0142
 2994SOL    HW211876   0.195   4.531   4.456  1.2084  1.0617  1.7790
 2995SOL     OW11877   0.248   8.815   1.894 -0.7334  0.0679 -0.2910
 2995SOL    HW111878   0.251   8.875   1.819 -0.1846 -0.4573 -0.7006
 2995SOL    HW211879   0.156   8.813   1.919 -0.8307  0.7278 -0.5537
 2996SOL     OW11880   4.778   3.953   7.327  0.3276 -0.1949 -0.3084
 2996SOL    HW111881   4.866   3.962   7.291  0.7257 -0.6273  0.5072
 2996SOL    HW211882   4.763   4.034   7.376  0.4594 -0.3145 -0.0683
 2997SOL     OW11883   2.394   3.011   5.465 -0.0844 -0.2224 -0.8158
 2997SOL    HW111884   2.422   3.102   5.460  2.6212 -0.8714  0.6014
 2997SOL    HW211885   2.358   3.003   5.553  1.7731 -0.9561 -0.0654
 2998SOL     OW11886   5.890   4.995   3.837  0.7220 -0.4146 -0.0795
 2998SOL    HW111887   5.824   4.940   3.880  1.3363 -0.6083  0.6374
 2998SOL    HW211888   5.921   4.941   3.764 -2.1592  0.8904 -2.4824
 2999SOL     OW11889   6.570   0.294   6.820  0.0785 -0.0896 -0.2816
 2999SOL    HW111890   6.565   0.266   6.911 -0.5620 -1.1700 -0.6362
 2999SOL    HW211891   6.628   0.371   6.822  0.6081 -0.4954  0.9311
 3000SOL     OW11892   4.656   0.905   9.622 -0.2138  0.2391 -0.3334
 3000SOL    HW111893   4.624   0.893   9.711  0.3718 -1.1009 -0.2701
 3000SOL    HW211894   4.589   0.865   9.567 -0.3364  0.6186 -0.4627
 3001SOL     OW11895   8.765   1.514   8.387  0.4196 -0.1661  0.1110
 3001SOL    HW111896   8.753   1.514   8.292  0.4228  1.6688  0.0881
 3001SOL    HW211897   8.826   1.586   8.404  1.5354 -1.3556  1.3965
 3002SOL     OW11898   7.444   8.196   4.353 -0.4725  0.2286  0.1210
 3002SOL    HW111899   7.482   8.240   4.277 -0.8263 -1.1407 -0.8958
 3002SOL    HW211900   7.351   8.188   4.332 -1.3244  2.9324  2.2744
 3003SOL     OW11901   5.308   0.523   0.362  0.1219  0.2073  0.0040
 3003SOL    HW111902   5.371   0.509   0.292 -0.2772  4.4497 -1.5279
 3003SOL    HW211903   5.224   0.500   0.324  0.1537  0.3029 -0.1274
 3004SOL     OW11904   8.613   6.739   3.916  0.7346 -0.2061  0.2623
 3004SOL    HW111905   8.588   6.678   3.985 -0.2440 -0.3890 -0.2329
 3004SOL    HW211906   8.644   6.817   3.963  0.7957 -0.6119  0.8993
 3005SOL     OW11907   6.687  10.248   9.771 -0.4453  0.0308  0.2838
 3005SOL    HW111908   6.636  10.242   9.690 -0.5308 -0.2704  0.3598
 3005SOL    HW211909   6.756  10.183   9.761 -0.3210  0.1505  0.3578
 3006SOL     OW11910   1.465   7.458  10.758  0.1501  0.1440  0.9476
 3006SOL    HW111911   1.386   7.423  10.800 -0.1580 -2.0273 -1.2127
 3006SOL    HW211912   1.529   7.387  10.765  1.5558  1.4164  1.5881
 3007SOL     OW11913   4.529   4.883   0.166  0.1123  0.2572 -0.6977
 3007SOL    HW111914   4.622   4.874   0.187 -0.0693  0.2667  0.1281
 3007SOL    HW211915   4.527   4.888   0.070  1.0493  1.1964 -0.6937
 3008SOL     OW11916   1.166   9.716   6.229  0.0435 -0.0430  0.0538
 3008SOL    HW111917   1.111   9.735   6.153  0.0864 -0.6068 -0.1267
 3008SOL    HW211918   1.247   9.765   6.213 -0.0623  0.0731 -0.1220
 3009SOL     OW11919   4.134   5.577   9.423  0.3404 -0.0586 -0.0057
 3009SOL    HW111920   4.166   5.598   9.335  1.2532 -1.2105  0.0237
 3009SOL    HW211921   4.187   5.633   9.481  1.9917 -1.5109 -0.0047
 3010SOL     OW11922   2.679   7.180   0.972 -0.3855  0.0139  0.3555
 3010SOL    HW111923   2.664   7.240   0.899 -1.0484 -0.4734  0.0786
 3010SOL    HW211924   2.773   7.187   0.990 -0.3813  0.8035  0.0459
 3011SOL     OW11925   6.140   6.176   4.658 -0.1843  0.7384  0.1097
 3011SOL    HW111926   6.120   6.100   4.603  2.0248 -0.5193  0.9191
 3011SOL    HW211927   6.090   6.160   4.738 -0.0110  0.3273  0.1379
 3012SOL     OW11928   7.607   3.442   7.065  0.2701 -0.4013  0.1462
 3012SOL    HW111929   7.570   3.355   7.076  0.5643 -0.6106 -0.4810
 3012SOL    HW211930   7.606   3.480   7.153  1.5369 -1.5929  0.7228
 3013SOL     OW11931  10.657   7.143   2.088  0.4573  0.0878  0.2643
 3013SOL    HW111932  10.658   7.123   2.181  0.1548 -0.5169  0.1456
 3013SOL    HW211933  10.724   7.210   2.076  0.6812 -0.0301  0.8719
 3014SOL     OW11934   0.416   8.888   9.204 -0.1205  0.2669 -0.6282
 3014SOL    HW111935   0.401   8.936   9.123  0.4003  1.1628 -0.2080
 3014SOL    HW211936   0.504   8.915   9.232 -0.4482  0.2661  0.4359
 3015SOL     OW11937   5.625   9.503   6.256  0.2182 -0.0970 -0.1564
 3015SOL    HW111938   5.657   9.508   6.166 -2.2250 -1.9788 -1.2631
 3015SOL    HW211939   5.704   9.491   6.310  1.7387  1.1371 -1.9960
 3016SOL     OW11940   5.869   5.656  10.404 -0.0933  0.3676 -0.1718
 3016SOL    HW111941   5.945   5.634  10.458  1.2823  1.8482 -1.4197
 3016SOL    HW211942   5.824   5.572  10.391  2.2348 -0.8641 -0.7640
 3017SOL     OW11943   0.675   8.655   9.018  0.2052 -0.4127 -0.3400
 3017SOL    HW111944   0.734   8.710   8.967  1.7975 -2.0419 -0.3769
 3017SOL    HW211945   0.587   8.682   8.991  0.9658  0.4742 -2.0812
 3018SOL     OW11946   9.656   0.597   8.454 -0.2387  0.4587 -0.4777
 3018SOL    HW111947   9.649   0.692   8.461 -0.2131  0.4108  0.3539
 3018SOL    HW211948   9.682   0.569   8.542 -1.5657 -0.4365 -0.3457
 3019SOL     OW11949   6.568   8.571   8.705 -0.6764  0.1638 -0.4360
 3019SOL    HW111950   6.654   8.542   8.674 -0.5800  1.6195 -1.6517
 3019SOL    HW211951   6.585   8.611   8.790 -0.2227  0.0442 -0.4691
 3020SOL     OW11952   2.907   9.858   7.926  0.6734 -0.3590 -0.5059
 3020SOL    HW111953   2.934   9.830   7.838  1.4170 -0.9915 -0.0884
 3020SOL    HW211954   2.982   9.907   7.959  0.7341 -0.8622  0.1077
 3021SOL     OW11955   2.873   7.700   2.365  0.6679  0.3862 -0.2465
 3021SOL    HW111956   2.826   7.618   2.383  0.7312  0.1115 -1.2684
 3021SOL    HW211957   2.870   7.748   2.448  0.1795 -0.4248  0.2209
 3022SOL     OW11958   6.845   1.304   5.863 -0.8604  0.1764  0.4464
 3022SOL    HW111959   6.901   1.228   5.872  2.7894  2.5386 -0.2953
 3022SOL    HW211960   6.756   1.270   5.876  0.5501 -4.0350  0.5366
 3023SOL     OW11961   1.293   4.300   4.658 -0.0862 -0.2253  0.3499
 3023SOL    HW111962   1.378   4.312   4.616 -0.3602 -0.8125 -0.3773
 3023SOL    HW211963   1.310   4.239   4.730  0.0933 -0.3981  0.1611
 3024SOL     OW11964   4.147   4.171   1.407  0.6176  0.3799 -0.1909
 3024SOL    HW111965   4.184   4.259   1.409  0.4482  0.4476  0.5780
 3024SOL    HW211966   4.208   4.120   1.355  2.8200  0.0477  2.4830
 3025SOL     OW11967   1.217   3.345   1.959 -0.1298 -0.1336 -0.2683
 3025SOL    HW111968   1.223   3.348   1.864 -2.7315  0.8289 -0.4964
 3025SOL    HW211969   1.230   3.253   1.981 -1.1895 -0.6870 -1.7568
 3026SOL     OW11970   4.254   0.018   8.950  0.6188 -0.0078  0.0576
 3026SOL    HW111971   4.168   0.014   8.909 -0.0145 -4.2900  1.2923
 3026SOL    HW211972   4.247   0.088   9.015 -1.6155  0.3693 -0.5097
 3027SOL     OW11973   7.920   5.865   2.777 -0.6916  0.1776 -0.3164
 3027SOL    HW111974   7.901   5.924   2.850  0.9901 -0.6391  0.8309
 3027SOL    HW211975   7.986   5.911   2.725  0.2112 -0.4384  0.2706
 3028SOL     OW11976   5.531   9.020   6.985  0.5068  0.2924  0.1355
 3028SOL    HW111977   5.491   9.000   7.070 -0.9585 -0.6933 -0.7368
 3028SOL    HW211978   5.473   9.087   6.947  0.4984 -0.0905 -0.5402
 3029SOL     OW11979   1.828   4.574   0.124 -0.2465  0.2166  0.3765
 3029SOL    HW111980   1.760   4.514   0.093 -1.5108  1.6194  0.3158
 3029SOL    HW211981   1.901   4.561   0.063 -0.7635 -0.7032 -0.0722
 3030SOL     OW11982   2.676   4.571   7.016 -0.0480  0.2924 -0.3505
 3030SOL    HW111983   2.753   4.569   6.959 -0.1975 -0.3641 -0.5474
 3030SOL    HW211984   2.685   4.650   7.068  1.3180 -0.3175  0.3882
 3031SOL     OW11985  10.150   9.455   2.448 -0.9175  0.3831  0.2298
 3031SOL    HW111986  10.185   9.380   2.496 -1.5871  0.3824  0.7397
 3031SOL    HW211987  10.078   9.418   2.397 -2.2913  0.9114  1.6819
 3032SOL     OW11988   9.003   0.552   3.540 -0.1098  0.2974  0.1742
 3032SOL    HW111989   8.974   0.461   3.538  0.1755  0.2159 -0.6247
 3032SOL    HW211990   8.927   0.601   3.571 -0.2482 -0.2150  0.6543
 3033SOL     OW11991   7.402   9.076   3.641 -0.0157  0.1882 -0.3995
 3033SOL    HW111992   7.395   8.981   3.635 -1.9936  0.1311  1.7117
 3033SOL    HW211993   7.466   9.099   3.573  1.6575 -2.7498  0.0100
 3034SOL     OW11994   7.077   7.505   5.789 -0.7782 -0.5818 -0.5629
 3034SOL    HW111995   7.156   7.510   5.735  0.3299 -2.0233  0.8056
 3034SOL    HW211996   7.082   7.581   5.846 -1.8944  0.8853 -2.3178
 3035SOL     OW11997   4.974   4.809   5.576  0.1464  0.0889 -0.3262
 3035SOL    HW111998   4.897   4.813   5.632  0.0271  2.1348 -0.5678
 3035SOL    HW211999   5.012   4.897   5.580  0.6271  0.0727 -2.7385
 3036SOL     OW12000   4.411   2.136   6.579 -0.4463 -0.5039  0.5439
 3036SOL    HW112001   4.428   2.225   6.549  1.3835 -0.2712  2.0472
 3036SOL    HW212002   4.316   2.126   6.572 -0.4566  0.6791 -1.9094
 3037SOL     OW12003  10.018  10.385   1.984  0.3104 -0.1248  0.0840
 3037SOL    HW112004  10.077  10.373   1.910  0.2050 -0.4211  0.0453
 3037SOL    HW212005   9.934  10.409   1.945  0.9572  2.7368  0.2186
 3038SOL     OW12006   3.310   1.528   5.097  0.7666 -0.1358 -0.4308
 3038SOL    HW112007   3.323   1.533   5.002  0.7054  0.7024 -0.3987
 3038SOL    HW212008   3.395   1.502   5.132  0.6332 -1.0552 -0.7595
 3039SOL     OW12009  10.634   1.468   4.258  0.7192 -0.1488 -0.0261
 3039SOL    HW112010  10.549   1.500   4.227  0.3789 -0.3660  0.6797
 3039SOL    HW212011  10.614   1.385   4.300  1.2244  0.0157  0.5386
 3040SOL     OW12012   2.530   2.362   3.724  0.1313  0.5322 -0.3464
 3040SOL    HW112013   2.473   2.438   3.735 -0.5381  0.0950 -0.7072
 3040SOL    HW212014   2.578   2.380   3.643  1.8258  1.7089  0.8474
 3041SOL     OW12015   5.115   1.206   8.860 -0.4473 -0.3381 -0.1446
 3041SOL    HW112016   5.100   1.142   8.790  1.8929 -0.6445 -0.4523
 3041SOL    HW212017   5.152   1.282   8.815 -2.1573  0.8610  0.3718
 3042SOL     OW12018   4.244   8.520   6.588  0.3833 -0.0537  0.2849
 3042SOL    HW112019   4.270   8.478   6.670 -0.6239 -0.0573  0.6213
 3042SOL    HW212020   4.235   8.448   6.526  1.2501 -0.0398  0.1309
 3043SOL     OW12021   4.588   3.920   9.447 -0.1978 -0.7159 -0.2762
 3043SOL    HW112022   4.513   3.906   9.505  0.4710 -0.1474  0.7594
 3043SOL    HW212023   4.578   4.010   9.417  0.6761 -0.2317  0.8119
 3044SOL     OW12024   8.425   3.216   3.244 -0.4113 -0.8298  0.1273
 3044SOL    HW112025   8.509   3.203   3.288 -1.1598  0.7340  2.1732
 3044SOL    HW212026   8.361   3.223   3.315 -1.7841  1.2772 -1.1979
 3045SOL     OW12027   5.866   5.174   6.020 -0.4063 -0.3761 -0.4507
 3045SOL    HW112028   5.831   5.093   6.055 -1.1101  0.2254  0.2838
 3045SOL    HW212029   5.830   5.242   6.077  0.6757  0.4009 -0.6702
 3046SOL     OW12030   0.574   3.601  10.522 -0.5442  0.4167 -0.0264
 3046SOL    HW112031   0.554   3.537  10.454 -2.6113 -0.6663  1.4903
 3046SOL    HW212032   0.591   3.549  10.600 -0.8340  1.6640  0.9022
 3047SOL     OW12033   7.868   8.584   0.771  0.6065  0.1197 -0.1269
 3047SOL    HW112034   7.863   8.508   0.713 -0.9284 -0.9762  1.3184
 3047SOL    HW212035   7.780   8.621   0.770  0.9929  1.0900  0.2135
 3048SOL     OW12036   5.223   3.657   8.918 -0.2177 -0.1679 -0.4242
 3048SOL    HW112037   5.205   3.564   8.911 -0.8704  0.0556 -2.0938
 3048SOL    HW212038   5.264   3.680   8.834  1.4502  0.7401  0.5754
 3049SOL     OW12039   4.521   5.216   0.055 -0.4854 -0.3573 -0.0501
 3049SOL    HW112040   4.585   5.153   0.022 -0.1826 -0.4555  0.7160
 3049SOL    HW212041   4.564   5.257   0.130 -1.1289 -0.0615  0.1615
 3050SOL     OW12042   6.392   9.126   4.470 -0.3659 -0.0887 -0.4506
 3050SOL    HW112043   6.382   9.092   4.558 -0.7735  1.2793  0.0468
 3050SOL    HW212044   6.341   9.066   4.415  1.7034 -2.3064 -0.1477
 3051SOL     OW12045   1.818   7.682   5.010  0.6092 -0.0817  0.6710
 3051SOL    HW112046   1.886   7.711   4.950 -0.2105  1.2672  0.3574
 3051SOL    HW212047   1.762   7.625   4.957  0.9008 -0.3654  0.6610
 3052SOL     OW12048   3.770   8.850   3.927 -0.0457  0.2277  0.0639
 3052SOL    HW112049   3.687   8.810   3.902 -0.2388  1.5535 -1.6241
 3052SOL    HW212050   3.745   8.932   3.969  0.3983 -0.1510  1.1000
 3053SOL     OW12051   0.094   9.860   7.920  0.4036 -0.3798 -0.5752
 3053SOL    HW112052   0.056   9.784   7.877 -0.1177  0.0716 -0.9223
 3053SOL    HW212053   0.160   9.824   7.979  0.6539 -1.0482 -1.2596
 3054SOL     OW12054   5.124  10.435   9.818 -0.8921  0.1839  0.5576
 3054SOL    HW112055   5.053  10.448   9.756 -2.6054 -0.1973  2.3494
 3054SOL    HW212056   5.193  10.391   9.767 -2.4001 -0.5396 -0.9495
 3055SOL     OW12057   8.115   1.055   2.838  0.1628 -0.0439  0.5276
 3055SOL    HW112058   8.057   1.125   2.867 -0.1767 -0.8024  1.7529
 3055SOL    HW212059   8.069   1.013   2.766  0.7754  1.5322 -0.8509
 3056SOL     OW12060   6.742   7.874   1.243 -0.7537 -0.2886 -0.7126
 3056SOL    HW112061   6.723   7.957   1.287  1.5275 -1.3149  2.5980
 3056SOL    HW212062   6.828   7.888   1.203 -0.9644 -0.6711 -1.3081
 3057SOL     OW12063   9.641   1.349   2.592  0.5480  0.0965 -0.0811
 3057SOL    HW112064   9.555   1.391   2.595  0.0595 -0.8770  0.1166
 3057SOL    HW212065   9.701   1.418   2.563 -0.7051  0.1677 -2.7909
 3058SOL     OW12066   5.573   5.360   4.445  0.3190 -0.1745  0.2373
 3058SOL    HW112067   5.563   5.359   4.350 -1.3744  0.5538  0.3840
 3058SOL    HW212068   5.572   5.267   4.470  0.2407 -0.3479 -0.3841
 3059SOL     OW12069   0.608  10.735   4.697 -0.2728 -0.3564 -0.3839
 3059SOL    HW112070   0.557  10.782   4.632  0.1680  0.4653 -0.1541
 3059SOL    HW212071   0.693  10.778   4.697 -0.4999  0.1913  1.2797
 3060SOL     OW12072   4.183   8.359   3.126  0.2903 -0.5009 -0.1532
 3060SOL    HW112073   4.250   8.390   3.187 -0.0789  1.8031 -0.8392
 3060SOL    HW212074   4.228   8.356   3.042 -0.0362 -0.5169 -0.3276
 3061SOL     OW12075   1.808  10.649   1.447 -0.1337  0.2985  0.3770
 3061SOL    HW112076   1.775  10.612   1.529 -0.8982 -0.0266 -0.0654
 3061SOL    HW212077   1.757  10.605   1.379  0.1059  0.9674 -0.2448
 3062SOL     OW12078   1.735   3.585   6.347  0.2303  0.0204 -0.0911
 3062SOL    HW112079   1.760   3.668   6.306  0.9261  0.1852  0.6323
 3062SOL    HW212080   1.663   3.552   6.293 -0.4298  1.3580 -0.0744
 3063SOL     OW12081   4.486   1.857   3.268 -0.1248 -0.0361 -0.3727
 3063SOL    HW112082   4.569   1.853   3.220 -0.9451 -0.3454 -1.8183
 3063SOL    HW212083   4.450   1.943   3.247  0.7273  0.9591  1.8957
 3064SOL     OW12084   3.042   4.649   9.997 -0.3783 -0.1606  0.3478
 3064SOL    HW112085   2.955   4.611  10.009 -0.9923  1.3176  0.8661
 3064SOL    HW212086   3.094   4.579   9.957 -1.4456 -1.4819  1.1985
 3065SOL     OW12087   7.927   2.954   3.366  0.5694 -0.5865  0.0501
 3065SOL    HW112088   7.864   2.885   3.387 -0.9504  0.8770  0.5037
 3065SOL    HW212089   7.999   2.940   3.427 -0.0482 -1.3334  0.6241
 3066SOL     OW12090  10.572   9.140   8.235  0.0001 -0.1697  0.2308
 3066SOL    HW112091  10.587   9.076   8.305  1.0420 -2.2366 -1.7687
 3066SOL    HW212092  10.502   9.102   8.182 -2.0653  2.2309  1.0269
 3067SOL     OW12093   9.598   9.891   7.954 -0.0939  0.3050 -0.1180
 3067SOL    HW112094   9.664   9.950   7.990 -0.9339  0.6855  0.8570
 3067SOL    HW212095   9.552   9.858   8.031  0.1869 -1.4316 -0.6705
 3068SOL     OW12096  10.679  10.275   8.225 -0.8385 -0.3487 -0.1521
 3068SOL    HW112097  10.691  10.189   8.184 -1.3048 -0.8771  0.7788
 3068SOL    HW212098  10.686  10.258   8.319  1.5693  1.0357  0.0126
 3069SOL     OW12099   6.664  10.201   4.505  0.2990  0.1798  0.0825
 3069SOL    HW112100   6.569  10.208   4.496  0.4444 -0.6007 -2.9866
 3069SOL    HW212101   6.699  10.269   4.447  1.6339 -0.2583  0.3441
 3070SOL     OW12102   3.469   3.188   9.670  0.2696  0.1898  0.0250
 3070SOL    HW112103   3.517   3.228   9.597  0.0393 -0.1650 -0.3250
 3070SOL    HW212104   3.464   3.096   9.647  0.6920 -0.0229  0.7722
 3071SOL     OW12105   7.174   7.505   5.239 -0.3555  0.5690  0.4450
 3071SOL    HW112106   7.106   7.441   5.219 -0.3211  0.1487  1.5891
 3071SOL    HW212107   7.241   7.491   5.172 -0.3305 -0.6298  0.7060
 3072SOL     OW12108   2.228   7.687   4.983  0.1575  0.2759  0.0769
 3072SOL    HW112109   2.269   7.682   5.070  0.2452 -0.7239 -0.0124
 3072SOL    HW212110   2.204   7.779   4.974 -2.2864 -0.0309  2.2742
 3073SOL     OW12111   3.799   7.187   3.496 -0.5837  0.3357  0.2139
 3073SOL    HW112112   3.724   7.210   3.440 -1.3363  1.2279  1.5264
 3073SOL    HW212113   3.875   7.199   3.440 -1.1427  3.3322 -0.0607
 3074SOL     OW12114   1.110   1.285   5.820  0.1294 -1.2336 -0.1283
 3074SOL    HW112115   1.146   1.243   5.899  2.3421 -2.2731 -1.6008
 3074SOL    HW212116   1.079   1.212   5.767  0.2239 -0.6796 -0.9499
 3075SOL     OW12117   7.913   3.966  10.065  0.1087 -0.0653  0.3331
 3075SOL    HW112118   7.922   3.870  10.062 -0.1669 -0.0834  0.1527
 3075SOL    HW212119   7.993   3.999  10.023 -0.5771 -0.2317 -1.1477
 3076SOL     OW12120   7.120   1.607   5.443  0.5866 -0.0337  0.0554
 3076SOL    HW112121   7.144   1.534   5.386  1.3682  0.7212 -0.6217
 3076SOL    HW212122   7.053   1.655   5.395  2.6922  1.7866 -1.2694
 3077SOL     OW12123   4.544   6.700   7.710 -0.1796 -0.3478  0.3999
 3077SOL    HW112124   4.574   6.622   7.756  0.1908 -0.9826 -0.8889
 3077SOL    HW212125   4.464   6.673   7.665  0.1617 -0.1050 -0.3721
 3078SOL     OW12126   3.455   0.398   5.554 -0.4528  0.3307  0.1345
 3078SOL    HW112127   3.531   0.376   5.607 -0.1066  0.8103 -0.1519
 3078SOL    HW212128   3.438   0.320   5.502 -0.4827  0.0373  0.5792
 3079SOL     OW12129   1.810   2.473   6.529 -0.0017 -0.0033 -0.1677
 3079SOL    HW112130   1.776   2.550   6.575 -1.5635 -0.9019  0.2799
 3079SOL    HW212131   1.875   2.507   6.468  0.2875  1.5049  0.9430
 3080SOL     OW12132   3.790   0.063   9.878 -0.0709  0.2559 -0.4002
 3080SOL    HW112133   3.836   0.128   9.823 -0.0196 -0.5391 -1.3273
 3080SOL    HW212134   3.860   0.023   9.930 -0.2434  1.7182  1.0536
 3081SOL     OW12135   4.863   0.460   6.083 -0.1788  0.2311  0.1446
 3081SOL    HW112136   4.903   0.520   6.020 -2.4717  0.4406 -1.2221
 3081SOL    HW212137   4.770   0.481   6.081 -0.8861 -2.4611  0.6253
 3082SOL     OW12138  10.364   7.944  10.035 -0.1729  0.2711  0.3891
 3082SOL    HW112139  10.335   7.865   9.989 -0.2470  0.6764 -0.2825
 3082SOL    HW212140  10.455   7.955  10.008 -0.8412  1.7664 -1.5334
 3083SOL     OW12141   1.964   2.651   6.368 -0.3895 -0.0760 -0.5628
 3083SOL    HW112142   2.015   2.593   6.312  1.2370  0.6103  0.1393
 3083SOL    HW212143   1.991   2.739   6.341  0.5120  0.2674  1.3170
 3084SOL     OW12144   5.618   8.775   0.125 -0.2424  0.0915  0.1771
 3084SOL    HW112145   5.608   8.718   0.201  2.7838  0.8127  1.2669
 3084SOL    HW212146   5.676   8.726   0.066 -0.5104  0.5952 -0.5228
 3085SOL     OW12147   2.327   9.762   7.318 -0.6430 -0.0325  0.1475
 3085SOL    HW112148   2.238   9.789   7.340 -0.7655 -0.3073 -0.0112
 3085SOL    HW212149   2.369   9.843   7.289 -1.0032  0.0027 -0.3027
 3086SOL     OW12150   1.150   6.420   5.854 -0.9733  0.3987  0.1799
 3086SOL    HW112151   1.089   6.459   5.915 -0.2086  0.1249  1.1574
 3086SOL    HW212152   1.232   6.411   5.904 -0.5782 -0.6434 -0.6045
 3087SOL     OW12153   9.173   5.064   4.318 -0.1993 -0.0827 -0.2396
 3087SOL    HW112154   9.092   5.057   4.267 -0.0246  0.6301 -0.6243
 3087SOL    HW212155   9.142   5.075   4.408 -0.5345  0.2325 -0.3883
 3088SOL     OW12156   9.216   7.637   6.883 -0.3968 -0.0388 -0.0163
 3088SOL    HW112157   9.189   7.728   6.872 -0.2216 -0.0176 -0.2650
 3088SOL    HW212158   9.135   7.590   6.904 -0.3710  0.2974  0.8822
 3089SOL     OW12159  10.697  10.554   6.975 -0.1206 -0.5315  0.2826
 3089SOL    HW112160  10.775  10.509   6.943  0.5633  1.2232 -0.6785
 3089SOL    HW212161  10.624  10.507   6.937  0.5947 -0.3288 -1.4354
 3090SOL     OW12162   2.996   5.129   8.851  0.0863 -0.2189  0.0234
 3090SOL    HW112163   2.999   5.170   8.937  1.4589 -0.0763 -0.0786
 3090SOL    HW212164   2.978   5.036   8.869 -0.6472 -0.0153  0.3858
 3091SOL     OW12165   6.656   8.100   7.596 -0.4322 -1.0763 -0.1826
 3091SOL    HW112166   6.706   8.176   7.628 -0.7128 -0.9730  0.0124
 3091SOL    HW212167   6.693   8.083   7.509  0.3172 -1.3417  0.1801
 3092SOL     OW12168   8.422  10.589   2.676 -0.5384  0.7504  0.8932
 3092SOL    HW112169   8.431  10.681   2.649 -0.7412  1.2789  2.5553
 3092SOL    HW212170   8.363  10.591   2.751  0.7837 -0.5420  2.0187
 3093SOL     OW12171   9.376   1.633   4.833 -0.8559  0.0031 -0.2670
 3093SOL    HW112172   9.443   1.660   4.771  1.9769 -0.7941  2.2092
 3093SOL    HW212173   9.341   1.552   4.797  1.3993 -0.9663 -0.4581
 3094SOL     OW12174   4.961   8.467   6.126  0.0061 -0.1290 -0.1236
 3094SOL    HW112175   4.949   8.394   6.186  0.1534  0.3828  0.5372
 3094SOL    HW212176   4.876   8.511   6.124 -0.2319 -0.5937 -0.9089
 3095SOL     OW12177  10.002   7.032   5.420 -0.1143  0.0620 -0.4544
 3095SOL    HW112178   9.914   7.068   5.410 -0.2649 -0.4081 -0.8475
 3095SOL    HW212179   9.996   6.975   5.497  0.2684  1.2806  0.5278
 3096SOL     OW12180   6.791   5.178   9.428  0.0425 -0.7340 -0.0393
 3096SOL    HW112181   6.846   5.256   9.425  0.4901 -1.0057  0.8502
 3096SOL    HW212182   6.711   5.206   9.472  0.5433 -0.9627  1.0483
 3097SOL     OW12183   6.423  10.509   3.246 -0.2314  0.3648  0.2571
 3097SOL    HW112184   6.364  10.436   3.261  0.9930 -0.4099  1.5048
 3097SOL    HW212185   6.510  10.470   3.244  0.2553  1.2638 -2.8750
 3098SOL     OW12186   3.185   0.988   9.009  0.0315 -0.5071  0.0538
 3098SOL    HW112187   3.252   1.023   9.068 -0.8427  2.7056 -0.6651
 3098SOL    HW212188   3.219   1.005   8.921 -1.1031 -0.0599 -0.3188
 3099SOL     OW12189   4.312   7.746   4.043 -0.1597  0.7113 -0.0461
 3099SOL    HW112190   4.254   7.814   4.076 -1.9207  0.0540 -1.5754
 3099SOL    HW212191   4.336   7.775   3.955 -0.9914 -0.6042 -0.7441
 3100SOL     OW12192   4.493   2.298   8.080 -0.1295  0.3191  0.3791
 3100SOL    HW112193   4.481   2.218   8.130 -0.0655 -0.0373 -0.1692
 3100SOL    HW212194   4.463   2.368   8.138 -1.5719 -0.2290  0.3231
 3101SOL     OW12195   9.488   0.334   9.680  0.3684  0.0386  0.0031
 3101SOL    HW112196   9.554   0.402   9.695  1.0672 -0.4439 -0.8292
 3101SOL    HW212197   9.483   0.287   9.764  0.3680  0.6822  0.3720
 3102SOL     OW12198   9.851   7.138   7.522  0.6242 -0.1352  0.2260
 3102SOL    HW112199   9.842   7.043   7.516  0.6371 -0.2003  1.2087
 3102SOL    HW212200   9.818   7.170   7.438  1.0605 -1.0306 -0.3098
 3103SOL     OW12201   2.833   8.485   3.214 -0.2507  0.7118 -0.7828
 3103SOL    HW112202   2.780   8.564   3.223  0.8488  1.7001 -2.4320
 3103SOL    HW212203   2.861   8.465   3.303 -2.3043  0.8804 -0.0342
 3104SOL     OW12204   7.179   3.903   5.551 -0.4806 -0.6873  0.4727
 3104SOL    HW112205   7.106   3.841   5.558 -1.4677  0.2906 -0.6837
 3104SOL    HW212206   7.177   3.951   5.634 -2.7205  0.9300 -0.4225
 3105SOL     OW12207   8.082   7.556   2.948 -0.0066 -0.3166  0.1385
 3105SOL    HW112208   8.145   7.545   2.877  0.8097  2.1850  0.3722
 3105SOL    HW212209   7.997   7.547   2.906  0.4297  1.8724 -1.3863
 3106SOL     OW12210   8.808   0.749   3.944 -0.2468 -0.2279 -0.4341
 3106SOL    HW112211   8.728   0.700   3.962  0.8093 -2.0446 -0.4985
 3106SOL    HW212212   8.797   0.831   3.992 -1.0247 -1.5293  1.7443
 3107SOL     OW12213   8.024   0.192   4.989 -0.1360 -0.3776  0.4930
 3107SOL    HW112214   7.938   0.176   4.951 -0.1500  0.2434  0.2390
 3107SOL    HW212215   8.076   0.115   4.965 -0.8895 -1.2200  1.5093
 3108SOL     OW12216   9.981   2.059   3.940  0.0917  0.5599 -0.6253
 3108SOL    HW112217  10.040   2.103   3.879 -0.1445  0.2625 -1.0679
 3108SOL    HW212218   9.953   2.128   4.001  1.7309  0.4997  0.2573
 3109SOL     OW12219   2.217  10.110   5.186  0.0815  0.1023  0.0862
 3109SOL    HW112220   2.192  10.200   5.209 -0.5011  0.5268 -1.9970
 3109SOL    HW212221   2.258  10.076   5.265 -1.2272  1.6123  1.4955
 3110SOL     OW12222   2.899   5.911   5.974 -0.0794  0.5487  0.3432
 3110SOL    HW112223   2.891   5.989   5.920 -1.3691  1.3787  1.6461
 3110SOL    HW212224   2.828   5.853   5.945 -1.0506  1.1783  1.3711
 3111SOL     OW12225   7.348   5.818   2.943  0.4031 -0.4375 -0.1355
 3111SOL    HW112226   7.276   5.760   2.967 -2.5767  1.4117 -3.5335
 3111SOL    HW212227   7.365   5.869   3.022 -1.7899 -1.2316  0.9415
 3112SOL     OW12228   5.799   9.304   0.147  0.1919  0.0625 -0.2051
 3112SOL    HW112229   5.832   9.362   0.080  1.5432  1.8202  1.8442
 3112SOL    HW212230   5.794   9.218   0.105  2.5373  0.7397 -2.0641
 3113SOL     OW12231   0.455   8.085   5.064 -0.1430  0.0455 -0.7684
 3113SOL    HW112232   0.437   8.179   5.072  0.9427  0.1799  0.2273
 3113SOL    HW212233   0.548   8.076   5.086 -0.1559 -1.2254 -1.1749
 3114SOL     OW12234   1.731   0.944   1.470 -0.5777  0.2450  0.1611
 3114SOL    HW112235   1.638   0.929   1.488 -0.9291  0.1623 -1.5173
 3114SOL    HW212236   1.745   1.037   1.487 -0.6930  0.0401  1.4498
 3115SOL     OW12237   8.361   1.874   0.642  0.4359 -0.1640  0.0932
 3115SOL    HW112238   8.419   1.930   0.591 -0.1550 -0.8213 -1.3403
 3115SOL    HW212239   8.276   1.918   0.639 -0.1571 -1.3100 -1.4547
 3116SOL     OW12240   9.697   1.660   6.095 -0.0871  0.1896 -0.0382
 3116SOL    HW112241   9.763   1.597   6.124  0.3493  0.5957 -0.1299
 3116SOL    HW212242   9.613   1.622   6.123  0.2537  0.0936  0.8709
 3117SOL     OW12243   1.498   8.298   7.238  0.1781 -0.0844 -0.2160
 3117SOL    HW112244   1.582   8.330   7.206  0.3258  0.3441  0.5952
 3117SOL    HW212245   1.520   8.226   7.297  0.0295  0.5682  0.6498
 3118SOL     OW12246   2.176   5.326   8.587 -0.0946  0.4115  0.0473
 3118SOL    HW112247   2.241   5.396   8.577  1.5463 -0.8007  1.5383
 3118SOL    HW212248   2.220   5.248   8.554 -2.0771  0.0790 -2.0808
 3119SOL     OW12249  10.609   5.361  10.610 -0.1382  0.0876  0.0410
 3119SOL    HW112250  10.588   5.287  10.666 -1.0549  0.1442 -0.2064
 3119SOL    HW212251  10.571   5.437  10.655  0.4348  0.3593  0.0860
 3120SOL     OW12252   2.579   0.700   5.568 -0.4483 -0.8429  0.4256
 3120SOL    HW112253   2.555   0.791   5.553 -0.1761 -0.8536 -0.0799
 3120SOL    HW212254   2.516   0.669   5.633 -0.9840 -0.4947  0.0755
 3121SOL     OW12255   5.570   6.913   8.444  0.2988  0.0598  0.1832
 3121SOL    HW112256   5.660   6.884   8.430  0.0249 -0.5704 -0.2929
 3121SOL    HW212257   5.528   6.841   8.490  0.5016  1.0801  2.0889
 3122SOL     OW12258   8.902   2.435   4.898 -0.6322  0.2756 -0.2916
 3122SOL    HW112259   8.897   2.405   4.989 -0.7957 -1.3289 -0.7901
 3122SOL    HW212260   8.942   2.522   4.903 -1.0641  0.4060  1.3415
 3123SOL     OW12261   7.404   3.148   6.263 -0.0661 -0.4829  0.5025
 3123SOL    HW112262   7.372   3.060   6.246 -0.4179 -0.3679  0.5614
 3123SOL    HW212263   7.456   3.140   6.343 -0.5076 -0.5436  0.7855
 3124SOL     OW12264   3.026   0.875  10.526  0.3762 -0.2364 -0.5636
 3124SOL    HW112265   2.933   0.900  10.531 -0.2273 -2.1010 -1.5428
 3124SOL    HW212266   3.071   0.956  10.503 -1.0411  0.6785 -0.2340
 3125SOL     OW12267   1.576   4.499   0.514  0.6669  0.2336 -0.3872
 3125SOL    HW112268   1.569   4.407   0.488  0.4255  0.2300 -0.3056
 3125SOL    HW212269   1.661   4.527   0.479  0.8262 -0.0724 -0.2494
 3126SOL     OW12270   2.144   1.979   0.166  0.0731 -0.3005  0.3402
 3126SOL    HW112271   2.159   1.886   0.184  1.9480 -0.2480 -0.6951
 3126SOL    HW212272   2.087   2.008   0.237 -1.2873 -2.4256  0.1814
 3127SOL     OW12273   0.768   2.985   5.216  0.1394 -0.3709  0.1727
 3127SOL    HW112274   0.776   3.079   5.197 -1.9427 -0.0748  0.5447
 3127SOL    HW212275   0.795   2.977   5.308  0.0730 -0.0952  0.2175
 3128SOL     OW12276   3.159   0.141   1.583 -0.0378 -0.3509 -0.0531
 3128SOL    HW112277   3.088   0.200   1.610  0.3996  0.4067 -0.5233
 3128SOL    HW212278   3.229   0.157   1.647 -0.3145 -1.1699  0.4701
 3129SOL     OW12279   9.121   9.682   4.683 -0.3037  0.0340  0.0443
 3129SOL    HW112280   9.045   9.739   4.695 -0.9034 -0.8151  0.3178
 3129SOL    HW212281   9.115   9.654   4.592 -1.3983 -1.5315  0.5616
 3130SOL     OW12282   7.300   6.925   6.507 -0.6070 -0.2635  0.3429
 3130SOL    HW112283   7.313   6.929   6.413  0.4294  1.0170  0.5033
 3130SOL    HW212284   7.389   6.917   6.543 -0.9913 -0.8093  1.2091
 3131SOL     OW12285   6.419   3.996   5.366  0.2229 -1.1630 -0.1705
 3131SOL    HW112286   6.448   4.083   5.394  0.8841 -0.9801 -1.3462
 3131SOL    HW212287   6.420   3.943   5.446  0.3254 -0.2228  0.4620
 3132SOL     OW12288   1.336   9.322   3.779  0.3205  0.3664 -0.4493
 3132SOL    HW112289   1.332   9.280   3.865 -0.2168  1.1141 -0.0927
 3132SOL    HW212290   1.272   9.275   3.726  0.0381  0.4470 -0.1818
 3133SOL     OW12291   4.607   8.867   9.443 -0.3921  0.2763 -0.4824
 3133SOL    HW112292   4.577   8.790   9.492  3.5095 -0.3819  1.2279
 3133SOL    HW212293   4.616   8.835   9.353  1.5365 -1.5365  0.2622
 3134SOL     OW12294   4.626   2.166   3.743 -0.4184 -0.4897 -0.0779
 3134SOL    HW112295   4.715   2.167   3.777 -0.3925 -0.7909 -0.1315
 3134SOL    HW212296   4.633   2.120   3.659 -0.6721 -0.7646  0.0514
 3135SOL     OW12297   6.922   6.507   7.269  0.2320  0.0710  0.0820
 3135SOL    HW112298   6.877   6.592   7.273 -0.1925 -0.1634  0.3766
 3135SOL    HW212299   6.862   6.446   7.311  0.0475 -0.5984 -1.1032
 3136SOL     OW12300   1.524   4.250   4.552 -0.4942 -0.0459 -0.2982
 3136SOL    HW112301   1.609   4.217   4.582 -1.8430 -2.3696  1.3550
 3136SOL    HW212302   1.472   4.171   4.537 -2.4429  1.2943 -1.0306
 3137SOL     OW12303   6.522   8.950   8.366 -0.0470 -0.4575  0.1498
 3137SOL    HW112304   6.531   8.889   8.292  3.2339  1.9337 -1.6989
 3137SOL    HW212305   6.446   9.003   8.343  0.1178 -0.6168 -0.8435
 3138SOL     OW12306   0.516   7.134   1.148 -0.0776  0.7760 -0.0719
 3138SOL    HW112307   0.444   7.179   1.191 -0.0660  0.8893 -0.1734
 3138SOL    HW212308   0.477   7.092   1.071 -0.3216 -0.3260  0.6270
 3139SOL     OW12309   9.274   5.935   9.859  0.9346 -0.2647 -0.6608
 3139SOL    HW112310   9.258   5.969   9.771 -0.2367 -0.8558 -0.6985
 3139SOL    HW212311   9.206   5.869   9.872 -1.1487  2.1133  1.9323
 3140SOL     OW12312   9.781   4.397   4.846  0.2287  0.7412 -0.7345
 3140SOL    HW112313   9.804   4.490   4.853 -0.8096  1.0886 -1.6111
 3140SOL    HW212314   9.723   4.393   4.770  0.0049 -0.5788 -0.5099
 3141SOL     OW12315   2.193  10.430   6.237 -0.4044  0.0715  0.0493
 3141SOL    HW112316   2.179  10.524   6.234  0.6580  0.2431  0.1716
 3141SOL    HW212317   2.160  10.398   6.153 -0.0176  0.6603 -0.3315
 3142SOL     OW12318  10.262   6.212   8.119  0.4233 -0.5181  0.3745
 3142SOL    HW112319  10.197   6.223   8.050  0.2584 -1.0220  0.4411
 3142SOL    HW212320  10.314   6.292   8.116  2.0766 -1.5755 -2.0567
 3143SOL     OW12321   4.755   2.602   9.151  0.4994 -0.7212  0.1649
 3143SOL    HW112322   4.718   2.646   9.228 -1.5588 -3.0814  0.6430
 3143SOL    HW212323   4.821   2.543   9.187  1.4960  0.1285 -0.2204
 3144SOL     OW12324   2.649   5.944   6.081  0.1804 -0.2466 -0.1312
 3144SOL    HW112325   2.628   5.868   6.026  0.5060 -0.0112 -0.5871
 3144SOL    HW212326   2.745   5.948   6.079  0.2192 -0.4716  0.7793
 3145SOL     OW12327   6.085   9.443   3.410  0.3666 -0.0926 -0.1143
 3145SOL    HW112328   6.141   9.416   3.484 -2.7941  0.6763  2.8403
 3145SOL    HW212329   6.098   9.538   3.404 -2.2749  0.5751  2.3983
 3146SOL     OW12330   0.772   0.699   5.951 -0.2031 -0.0550  0.2248
 3146SOL    HW112331   0.684   0.683   5.918  0.2816 -0.7224 -0.7744
 3146SOL    HW212332   0.826   0.629   5.913  0.7532  0.3218  0.8388
 3147SOL     OW12333   7.767   5.299   0.786 -0.6422 -0.4792  0.6475
 3147SOL    HW112334   7.743   5.245   0.710  1.3751 -0.4640 -0.0765
 3147SOL    HW212335   7.697   5.363   0.793 -0.8239 -0.3977 -1.3221
 3148SOL     OW12336   5.712   2.682   2.131 -0.1208 -0.2044  0.1848
 3148SOL    HW112337   5.730   2.704   2.222  0.3954 -3.2280  0.9338
 3148SOL    HW212338   5.771   2.739   2.080  0.6858  0.4701  1.8095
 3149SOL     OW12339   0.160   8.989   5.498  0.0709  0.2454 -0.0365
 3149SOL    HW112340   0.122   9.071   5.467 -1.8447 -0.8590 -0.7146
 3149SOL    HW212341   0.166   8.934   5.420 -2.2824 -1.6131  0.9851
 3150SOL     OW12342   4.439   3.451   6.551 -0.3443 -0.1337  0.2912
 3150SOL    HW112343   4.508   3.509   6.520 -0.7571 -0.0037 -0.4235
 3150SOL    HW212344   4.404   3.411   6.471 -0.2224 -1.1868  0.7514
 3151SOL     OW12345   0.866   8.961   6.210  0.2099 -0.3406  0.0554
 3151SOL    HW112346   0.946   8.981   6.258  0.2420 -1.2831  0.4111
 3151SOL    HW212347   0.823   8.893   6.261 -0.7790  0.0856 -0.1837
 3152SOL     OW12348   6.122   0.684   8.189 -0.2241  0.0013  0.3482
 3152SOL    HW112349   6.211   0.715   8.201  0.7242 -1.7557 -1.5462
 3152SOL    HW212350   6.068   0.763   8.190  1.5540  1.2761 -0.2650
 3153SOL     OW12351   5.461   2.547   6.339  0.0409 -0.7190  0.2802
 3153SOL    HW112352   5.402   2.622   6.349 -0.1146 -0.8780  0.5767
 3153SOL    HW212353   5.471   2.536   6.245  0.1009 -0.2957  0.2356
 3154SOL     OW12354   4.184  10.599   4.866 -0.1519 -0.3664 -0.0480
 3154SOL    HW112355   4.187  10.673   4.927 -2.8274  0.8806 -1.2362
 3154SOL    HW212356   4.157  10.525   4.920  1.1997 -0.1999  0.9071
 3155SOL     OW12357   2.391   7.109   0.168  0.2121 -0.0683  0.0516
 3155SOL    HW112358   2.320   7.052   0.197  0.1839 -0.3594 -0.5917
 3155SOL    HW212359   2.354   7.161   0.097  0.1565  0.9484  0.8043
 3156SOL     OW12360   5.686   5.590   1.167  0.2995 -0.0440 -0.0121
 3156SOL    HW112361   5.767   5.610   1.121 -1.3480  2.9758 -1.8992
 3156SOL    HW212362   5.639   5.530   1.109  0.8304 -1.2092  0.7365
 3157SOL     OW12363   9.019   6.402   0.303  0.1790  0.4583  0.2039
 3157SOL    HW112364   9.009   6.399   0.208 -0.8958 -0.9717  0.3139
 3157SOL    HW212365   8.945   6.350   0.336  1.4509 -0.4918  1.7278
 3158SOL     OW12366   6.790   1.940   1.184  0.3315  0.2752 -0.0643
 3158SOL    HW112367   6.741   1.917   1.105  0.4942  0.0741 -0.1061
 3158SOL    HW212368   6.870   1.888   1.179  0.1339 -0.0869  0.4652
 3159SOL     OW12369   1.757   5.558  10.658  0.4101 -0.0797 -0.2496
 3159SOL    HW112370   1.807   5.491  10.704  0.7888 -0.5785 -1.3382
 3159SOL    HW212371   1.778   5.544  10.566 -2.8314 -1.2554 -0.9627
 3160SOL     OW12372   1.032   8.141   7.991 -0.3099  0.0711  0.5774
 3160SOL    HW112373   1.030   8.236   8.006 -1.4336  0.4549 -1.5912
 3160SOL    HW212374   0.945   8.121   7.955 -0.7534 -2.1226  2.5732
 3161SOL     OW12375   0.426   9.049   8.990  0.2858  0.0593  0.0942
 3161SOL    HW112376   0.389   9.055   8.902 -1.3578  0.9002  0.7987
 3161SOL    HW212377   0.386   9.122   9.038  2.0179  0.3311  1.2495
 3162SOL     OW12378   0.536   6.143   8.212  0.4620  0.5032 -0.3184
 3162SOL    HW112379   0.622   6.117   8.180  0.9916 -0.1842  1.5180
 3162SOL    HW212380   0.492   6.182   8.136  2.4934  1.1604 -1.2030
 3163SOL     OW12381   3.256   1.287   3.730  0.0755 -0.0540 -0.0343
 3163SOL    HW112382   3.301   1.223   3.786 -0.2279  0.8331  1.2571
 3163SOL    HW212383   3.163   1.275   3.751 -0.1013 -0.1408 -0.8318
 3164SOL     OW12384   8.004   0.122  10.770  0.0679 -0.2202 -0.0467
 3164SOL    HW112385   7.915   0.095  10.743 -0.2803  1.5253 -0.7736
 3164SOL    HW212386   7.990   0.174  10.849  0.5503 -0.7148  0.3658
 3165SOL     OW12387   2.471   1.033   1.972  0.0622 -0.1969 -0.2131
 3165SOL    HW112388   2.497   1.124   1.984 -1.5108  0.1392  1.0052
 3165SOL    HW212389   2.464   0.998   2.061  0.8651 -1.6008 -0.6640
 3166SOL     OW12390   2.255   8.127   3.065 -0.2836 -0.3910 -0.0176
 3166SOL    HW112391   2.283   8.036   3.070 -0.4928 -0.5085 -0.8834
 3166SOL    HW212392   2.296   8.169   3.141  0.6968 -0.9640 -0.2258
 3167SOL     OW12393   3.868   4.081   9.767 -0.6062 -0.2719  0.3148
 3167SOL    HW112394   3.923   4.138   9.822  0.4849  0.7329 -1.6845
 3167SOL    HW212395   3.911   4.083   9.682 -1.1869 -3.2593 -0.1368
 3168SOL     OW12396   4.996   0.664   9.817  0.1866  0.0140  0.0000
 3168SOL    HW112397   4.950   0.591   9.861  0.8576 -0.4749 -0.0966
 3168SOL    HW212398   4.934   0.695   9.751 -0.0339 -0.6087 -0.0932
 3169SOL     OW12399   8.117   7.008   7.817  0.4918 -0.4253 -0.5149
 3169SOL    HW112400   8.040   6.957   7.788 -0.1082 -0.7688  1.5034
 3169SOL    HW212401   8.154   6.955   7.887  1.3971  0.7234 -0.1156
 3170SOL     OW12402   7.713   0.708   5.751  0.2395  0.1241  0.0185
 3170SOL    HW112403   7.707   0.667   5.665 -0.9240  0.0117  0.1371
 3170SOL    HW212404   7.775   0.654   5.800 -0.0292 -0.5250 -0.3518
 3171SOL     OW12405   5.056   5.517   4.011 -0.1968  0.1332  0.1587
 3171SOL    HW112406   5.116   5.586   3.984  0.1226 -0.1733  0.0894
 3171SOL    HW212407   5.001   5.501   3.934 -0.6897  0.7448  0.3695
 3172SOL     OW12408  10.662   7.520   0.846  0.3220  0.3393 -0.2552
 3172SOL    HW112409  10.702   7.537   0.761 -2.4005 -1.3383 -2.0549
 3172SOL    HW212410  10.646   7.606   0.884  1.4842  1.1273 -1.5028
 3173SOL     OW12411   0.467   4.606   0.551 -0.2389  1.1137 -0.8583
 3173SOL    HW112412   0.473   4.700   0.539 -0.7273  1.3442  0.4765
 3173SOL    HW212413   0.424   4.595   0.636 -0.1047 -0.3093 -0.9379
 3174SOL     OW12414   0.973   9.438   8.257  0.1481  0.1986 -1.0279
 3174SOL    HW112415   1.037   9.503   8.229  0.9479 -0.8887 -1.7952
 3174SOL    HW212416   0.906   9.439   8.189  1.0486 -0.9866 -1.9689
 3175SOL     OW12417   4.627  10.718   4.514  0.1496 -0.1906  0.0100
 3175SOL    HW112418   4.712  10.739   4.476  0.1056  1.8210  0.8970
 3175SOL    HW212419   4.643  10.714   4.608 -0.8173  0.6642  0.2206
 3176SOL     OW12420   5.012   7.154   7.426  0.2048  0.3981 -0.2020
 3176SOL    HW112421   5.066   7.094   7.477 -0.2991  0.4218  0.3615
 3176SOL    HW212422   4.931   7.105   7.410  0.3340  0.4118 -0.9267
 3177SOL     OW12423   2.020  10.146   9.812  0.1352 -0.2229 -0.6575
 3177SOL    HW112424   1.937  10.177   9.850  0.4140 -0.9558  0.6197
 3177SOL    HW212425   2.040  10.066   9.860  2.3301  0.7083  0.1388
 3178SOL     OW12426  10.083   9.171   5.499 -0.3066  0.0209  0.3065
 3178SOL    HW112427  10.037   9.182   5.416 -0.7913  0.9120  0.6802
 3178SOL    HW212428  10.055   9.086   5.531 -1.9458  0.6477  0.6518
 3179SOL     OW12429   3.376   2.356   2.018 -0.1479  0.0077  0.0002
 3179SOL    HW112430   3.341   2.267   2.020 -1.3187  0.4690  0.5232
 3179SOL    HW212431   3.402   2.369   1.926 -1.2160 -0.4071 -0.3758
 3180SOL     OW12432   6.622   1.236   3.394 -0.2859 -0.0634  0.3269
 3180SOL    HW112433   6.700   1.263   3.443 -0.1721 -0.7405  0.5222
 3180SOL    HW212434   6.648   1.239   3.302 -0.2569  0.4271  0.3483
 3181SOL     OW12435   8.612   9.677   5.455 -0.0260  0.7451  0.0605
 3181SOL    HW112436   8.575   9.657   5.369  0.5917 -1.8267  0.3208
 3181SOL    HW212437   8.562   9.623   5.516  1.2524  0.5317  0.9629
 3182SOL     OW12438   4.665  10.044   8.668 -0.2759 -0.6901 -0.2931
 3182SOL    HW112439   4.703  10.125   8.635 -2.2881 -0.0637 -1.2312
 3182SOL    HW212440   4.706  10.030   8.753  1.2769  0.4351 -0.8202
 3183SOL     OW12441   1.298   2.093   4.726 -0.2449  0.6889 -0.6566
 3183SOL    HW112442   1.334   2.007   4.708  0.8253  1.4777 -2.5553
 3183SOL    HW212443   1.296   2.099   4.822  0.4312 -1.1035 -0.5006
 3184SOL     OW12444   3.784   9.950   8.382  0.0445 -0.1804  0.7906
 3184SOL    HW112445   3.781   9.875   8.443  2.2386 -1.2681 -0.3230
 3184SOL    HW212446   3.693   9.980   8.377 -0.3573 -0.4947  3.9865
 3185SOL     OW12447   1.167   1.639   0.210  0.2921 -0.0550 -1.0372
 3185SOL    HW112448   1.179   1.732   0.228  0.5109 -0.1009 -0.9544
 3185SOL    HW212449   1.255   1.602   0.210  0.0621 -0.7725  1.5734
 3186SOL     OW12450   9.242   5.276   9.592  0.3177  0.0463 -0.3663
 3186SOL    HW112451   9.223   5.217   9.665  2.2871  0.7991  0.8368
 3186SOL    HW212452   9.239   5.363   9.630  2.7652  0.3765 -0.7988
 3187SOL     OW12453   4.193   0.800   7.789  0.5531  0.2411 -0.1433
 3187SOL    HW112454   4.166   0.845   7.708  0.6073 -1.0623 -0.9141
 3187SOL    HW212455   4.111   0.789   7.838  0.5922  1.4973  0.2435
 3188SOL     OW12456   5.354   9.309   0.855 -0.3927  0.0286 -0.8553
 3188SOL    HW112457   5.391   9.220   0.863 -0.0204  0.3149  1.8716
 3188SOL    HW212458   5.261   9.295   0.837 -1.2162 -1.2380  3.1852
 3189SOL     OW12459   8.417   8.189   8.816  1.1986  0.2561  0.2302
 3189SOL    HW112460   8.383   8.272   8.782  1.1586 -0.3988 -1.4242
 3189SOL    HW212461   8.348   8.157   8.875  0.3487  0.4828 -0.6115
 3190SOL     OW12462   1.538   6.685   4.896  0.3294  0.0143  0.2928
 3190SOL    HW112463   1.491   6.764   4.921 -1.5967 -1.1983  0.7525
 3190SOL    HW212464   1.549   6.693   4.801  0.1880  0.8358  0.3383
 3191SOL     OW12465   6.555   9.163   5.139  0.4680  0.1613  0.5453
 3191SOL    HW112466   6.509   9.132   5.062  1.0292 -1.8203  0.9491
 3191SOL    HW212467   6.570   9.257   5.123 -2.2283  0.5319 -0.2824
 3192SOL     OW12468   8.615   9.802   6.949  0.6438 -0.2155  0.0510
 3192SOL    HW112469   8.627   9.788   7.043  0.9927  0.4395  0.1127
 3192SOL    HW212470   8.687   9.753   6.909  1.1920  0.4477  0.1998
 3193SOL     OW12471   2.323   9.328   3.477  0.7746 -0.3046  0.5208
 3193SOL    HW112472   2.310   9.264   3.406  0.8139 -1.5878  1.6250
 3193SOL    HW212473   2.241   9.377   3.480  0.2581 -1.1344  0.4385
 3194SOL     OW12474   3.473   7.452   1.167  0.0331 -0.1163  0.1656
 3194SOL    HW112475   3.446   7.524   1.224  2.5904 -0.3679  1.8349
 3194SOL    HW212476   3.555   7.421   1.204  0.5255 -1.9964 -2.2358
 3195SOL     OW12477   4.776   0.273   8.488  0.4936  0.1957 -0.5763
 3195SOL    HW112478   4.720   0.342   8.524 -0.6014 -1.4081  0.9668
 3195SOL    HW212479   4.842   0.259   8.556 -0.1257 -1.2018 -0.2360
 3196SOL     OW12480   3.655   7.469   9.808 -0.5915  0.3468 -0.6193
 3196SOL    HW112481   3.643   7.502   9.719 -1.4426  0.6036 -0.4190
 3196SOL    HW212482   3.570   7.431   9.831 -1.1293  2.3304  0.9386
 3197SOL     OW12483   2.248   3.762   5.311  0.2135 -0.1240  0.0355
 3197SOL    HW112484   2.156   3.752   5.337  0.2409 -3.3317 -0.7378
 3197SOL    HW212485   2.251   3.847   5.267 -2.5508 -0.2136 -0.5288
 3198SOL     OW12486   2.176   4.338   0.502 -0.4193  0.4421 -0.0163
 3198SOL    HW112487   2.164   4.265   0.562  0.2148  1.9750  2.0761
 3198SOL    HW212488   2.100   4.334   0.444 -0.0632 -2.2173 -0.4194
 3199SOL     OW12489   7.347   2.246   2.572  0.0929 -0.2426 -0.2082
 3199SOL    HW112490   7.368   2.246   2.479 -0.0582 -0.0531 -0.2436
 3199SOL    HW212491   7.251   2.250   2.575  0.1184  0.3712 -0.0436
 3200SOL     OW12492   0.317   4.889   9.076  0.6504  0.2199  0.4469
 3200SOL    HW112493   0.255   4.961   9.065  0.8023 -0.0195 -3.0026
 3200SOL    HW212494   0.282   4.839   9.150 -0.3818  2.8117  1.8601
 3201SOL     OW12495   8.703   4.200   3.073  0.2297  0.4198 -0.3048
 3201SOL    HW112496   8.622   4.153   3.052  1.2671 -0.1306 -3.7162
 3201SOL    HW212497   8.718   4.256   2.997  3.0943  0.3799  0.1322
 3202SOL     OW12498   8.902   9.845   7.714 -0.0000  0.2939 -0.5184
 3202SOL    HW112499   8.916   9.799   7.632  0.6763  1.2049 -0.9330
 3202SOL    HW212500   8.879   9.777   7.777  0.1768 -0.4920 -1.2994
 3203SOL     OW12501   0.768   4.417   8.952  0.6702  0.1813 -0.2258
 3203SOL    HW112502   0.817   4.392   8.874  0.1788 -1.6612  0.0129
 3203SOL    HW212503   0.796   4.507   8.970  1.4140  0.3507 -2.0258
 3204SOL     OW12504   8.086   0.475   3.748  0.3895  0.3464 -0.1274
 3204SOL    HW112505   8.081   0.379   3.738  0.3396  0.4341 -1.0190
 3204SOL    HW212506   8.076   0.489   3.842  0.0668 -0.5107 -0.0182
 3205SOL     OW12507   8.196   2.082   4.369  0.4216  0.4074  0.0447
 3205SOL    HW112508   8.155   2.126   4.443  0.1423  0.5447 -0.1895
 3205SOL    HW212509   8.130   2.084   4.300  0.2766 -0.6874  0.1368
 3206SOL     OW12510   2.695   2.783   5.570 -0.4152 -0.7820 -0.0535
 3206SOL    HW112511   2.690   2.744   5.657  1.4151  3.1549  2.0848
 3206SOL    HW212512   2.779   2.753   5.535  1.2777  1.3648  1.8295
 3207SOL     OW12513   0.628   9.108   6.188  0.2605 -0.6552 -0.0322
 3207SOL    HW112514   0.637   9.015   6.210  1.3410 -0.7836 -0.9126
 3207SOL    HW212515   0.707   9.128   6.138  0.2828  0.8635  0.5508
 3208SOL     OW12516   5.840  10.444   1.887  0.2909  0.1777  0.2940
 3208SOL    HW112517   5.797  10.461   1.803 -1.8203  2.1326  1.6375
 3208SOL    HW212518   5.918  10.500   1.886 -0.7283  1.6713  0.3021
 3209SOL     OW12519   6.896   3.833   7.335  0.9320 -0.4498 -0.6357
 3209SOL    HW112520   6.916   3.916   7.293  1.4587  0.2343  0.9021
 3209SOL    HW212521   6.965   3.822   7.401 -0.7624 -0.6549  1.1805
 3210SOL     OW12522   0.215   3.020   8.676 -0.1703 -0.5256  0.1290
 3210SOL    HW112523   0.203   3.073   8.598  1.1900  1.7211  1.3409
 3210SOL    HW212524   0.127   2.996   8.703 -0.6915 -0.9570 -1.7773
 3211SOL     OW12525   6.230   2.378   6.851 -0.2072 -0.0082 -0.0327
 3211SOL    HW112526   6.151   2.404   6.804 -1.1668  1.1485  2.0795
 3211SOL    HW212527   6.290   2.452   6.841  0.7824 -1.0125 -1.8933
 3212SOL     OW12528   8.557   7.526   5.266  0.1893  0.3224  0.3776
 3212SOL    HW112529   8.505   7.549   5.189  2.4028  1.7873 -0.8086
 3212SOL    HW212530   8.617   7.600   5.277  2.9858 -1.7945  0.7166
 3213SOL     OW12531   7.220   1.328  10.767 -0.5541  0.0601 -0.1262
 3213SOL    HW112532   7.298   1.273  10.781 -0.1269  0.4356 -0.9836
 3213SOL    HW212533   7.165   1.276  10.708 -0.5077  0.2083 -0.3013
 3214SOL     OW12534   2.193   7.067   1.738  0.2955 -0.6208 -0.1433
 3214SOL    HW112535   2.182   7.161   1.723 -1.1091 -0.6386  0.5882
 3214SOL    HW212536   2.229   7.034   1.656  1.2978  0.6266 -0.2335
 3215SOL     OW12537   6.999   4.458   5.704  0.3099  0.1822 -0.2803
 3215SOL    HW112538   7.049   4.413   5.635 -0.8949 -0.2952 -0.8590
 3215SOL    HW212539   6.915   4.413   5.707 -0.2808  1.2770  0.3500
 3216SOL     OW12540   2.586   0.674   6.981 -0.4738  0.0720  0.3850
 3216SOL    HW112541   2.574   0.601   7.043  0.3110 -1.4530 -1.1767
 3216SOL    HW212542   2.505   0.678   6.932  0.2566 -1.2465 -1.0009
 3217SOL     OW12543   0.584   2.807   9.526  0.7713 -0.2843 -0.3606
 3217SOL    HW112544   0.639   2.737   9.491 -0.1463 -0.9350 -0.5191
 3217SOL    HW212545   0.553   2.774   9.610  0.7167  0.1360 -0.2111
 3218SOL     OW12546   1.541   0.221   4.972 -0.3563  1.0435 -0.8991
 3218SOL    HW112547   1.524   0.277   5.048  1.7991 -1.6498  1.8117
 3218SOL    HW212548   1.632   0.240   4.948  0.5638 -1.3895  0.3469
 3219SOL     OW12549   3.910   9.251  10.323 -0.0005  0.2338  0.0448
 3219SOL    HW112550   3.962   9.183  10.368 -0.6327  0.0126  0.4487
 3219SOL    HW212551   3.917   9.228  10.231 -3.2193 -2.6568  0.3321
 3220SOL     OW12552   6.031   7.734  10.640  0.1336  0.1834  0.4119
 3220SOL    HW112553   6.073   7.761  10.722 -1.5561  2.6553  0.5541
 3220SOL    HW212554   5.996   7.647  10.659  1.1359  0.0448  1.7767
 3221SOL     OW12555   8.238   4.870   5.714 -0.3315 -0.2666  0.6718
 3221SOL    HW112556   8.242   4.919   5.632 -0.8560  0.3275  0.9989
 3221SOL    HW212557   8.300   4.915   5.772  0.0227 -0.6723  0.6159
 3222SOL     OW12558   0.295   3.989   6.956  0.1822 -0.1178  0.6702
 3222SOL    HW112559   0.345   4.062   6.920 -1.2703  1.5918  1.9458
 3222SOL    HW212560   0.283   3.929   6.882  0.9123  1.2091 -0.5636
 3223SOL     OW12561   0.379   1.216   4.716  0.0260  0.2755  0.2826
 3223SOL    HW112562   0.427   1.133   4.722  0.4569  0.4398 -0.6619
 3223SOL    HW212563   0.331   1.222   4.799  0.6490 -0.5024  0.7157
 3224SOL     OW12564   0.757   2.174   1.008 -0.4130 -0.0809 -0.3300
 3224SOL    HW112565   0.805   2.107   1.057 -0.6635  0.5046  0.7359
 3224SOL    HW212566   0.697   2.124   0.952  0.6594 -0.7856 -0.8736
 3225SOL     OW12567   2.700   5.740   8.782  0.2246  0.0717  0.3702
 3225SOL    HW112568   2.734   5.661   8.824  1.7824  0.9174  0.7302
 3225SOL    HW212569   2.675   5.711   8.694  3.8124 -0.2330 -0.6783
 3226SOL     OW12570   1.127  10.597   4.215 -0.3941 -0.1965  0.1487
 3226SOL    HW112571   1.215  10.562   4.230 -1.2126 -2.1480  0.6264
 3226SOL    HW212572   1.124  10.613   4.120  1.0601  1.7257  0.3494
 3227SOL     OW12573   4.795   8.416   5.097 -0.5099 -0.0898 -0.8402
 3227SOL    HW112574   4.781   8.507   5.126  0.8412 -0.4383  1.1284
 3227SOL    HW212575   4.730   8.365   5.146  0.2473 -0.4192 -0.1492
 3228SOL     OW12576   7.530   0.151   0.453 -0.8612  0.1600 -0.3986
 3228SOL    HW112577   7.444   0.137   0.413 -1.8707  1.8089  1.0828
 3228SOL    HW212578   7.557   0.063   0.481 -0.7349 -0.8530 -3.3011
 3229SOL     OW12579   9.525   8.835   8.060 -0.3516  0.0130 -0.0062
 3229SOL    HW112580   9.593   8.845   7.993  0.1574  1.0354  0.6455
 3229SOL    HW212581   9.484   8.751   8.039  1.8050 -1.1690  0.1804
 3230SOL     OW12582   8.886   5.652   3.210  0.5936 -0.0056  0.6896
 3230SOL    HW112583   8.810   5.650   3.268  0.4310 -0.9327  0.4587
 3230SOL    HW212584   8.853   5.615   3.127  0.5145  2.2724 -0.3754
 3231SOL     OW12585   1.830   2.171   2.124 -0.1638  0.4717  0.0546
 3231SOL    HW112586   1.865   2.257   2.147  1.3528 -0.3594  0.9483
 3231SOL    HW212587   1.890   2.108   2.164 -2.4128 -1.0340  1.2936
 3232SOL     OW12588   4.774   2.028   0.148  0.6064  0.0146 -0.7117
 3232SOL    HW112589   4.710   2.045   0.217  3.5959  1.6707  1.9228
 3232SOL    HW212590   4.757   2.096   0.083  1.1482  2.0408  1.1440
 3233SOL     OW12591   3.584   9.524   8.809  0.0661  0.1893  0.2423
 3233SOL    HW112592   3.507   9.569   8.843 -1.4872 -0.6642 -1.9092
 3233SOL    HW212593   3.563   9.431   8.815  1.8831 -0.1794  1.6306
 3234SOL     OW12594   4.661   2.545   2.664  0.1964 -0.5112  0.2994
 3234SOL    HW112595   4.583   2.570   2.713  0.3503 -0.1686  0.3768
 3234SOL    HW212596   4.679   2.456   2.691 -1.4105 -1.4067 -1.3218
 3235SOL     OW12597   9.800   0.661   4.496  0.0578  0.1968 -0.6620
 3235SOL    HW112598   9.727   0.642   4.556  0.4154  0.5081 -0.1174
 3235SOL    HW212599   9.858   0.586   4.506  1.3127  1.3365  1.2497
 3236SOL     OW12600   8.359   6.627   2.972 -0.2478 -0.1378  0.1582
 3236SOL    HW112601   8.318   6.640   3.058 -1.7955  0.1864 -0.5832
 3236SOL    HW212602   8.285   6.615   2.913  0.7236  1.2400 -1.4089
 3237SOL     OW12603   9.574   5.446   0.238 -0.1579  0.0171  0.4487
 3237SOL    HW112604   9.519   5.369   0.252  1.9044 -1.5420  0.3271
 3237SOL    HW212605   9.589   5.482   0.326  0.1573 -0.6666  0.6803
 3238SOL     OW12606   5.905   9.655  10.024  0.1473 -0.0315 -0.0178
 3238SOL    HW112607   5.926   9.747  10.036 -0.4670  0.0044  0.9103
 3238SOL    HW212608   5.844   9.635  10.095  0.5397 -1.2354  0.0096
 3239SOL     OW12609   2.105   1.147   8.688 -0.0106  0.4846  0.7518
 3239SOL    HW112610   2.041   1.178   8.752  1.3668  0.0783  2.4037
 3239SOL    HW212611   2.115   1.219   8.626  0.3750  1.8761  2.3771
 3240SOL     OW12612   4.371   4.017   1.296  0.5491  0.1281 -0.3712
 3240SOL    HW112613   4.423   3.990   1.372  0.2346  0.0422 -0.1874
 3240SOL    HW212614   4.351   3.935   1.250  0.7321  0.1788 -0.5446
 3241SOL     OW12615   3.076   7.286   0.145 -0.0611  0.0171  0.8718
 3241SOL    HW112616   3.042   7.376   0.142 -0.2321 -0.0289  1.3808
 3241SOL    HW212617   3.134   7.280   0.069 -0.6781  0.3062  0.3645
 3242SOL     OW12618   7.074   7.089   6.536  0.4343  0.3494 -0.2523
 3242SOL    HW112619   7.076   7.185   6.545  0.6768  0.2175  1.2047
 3242SOL    HW212620   7.162   7.060   6.557  0.5175 -0.1703 -1.2541
 3243SOL     OW12621  10.705   1.202   4.722  0.3229 -0.0533 -0.5595
 3243SOL    HW112622  10.773   1.137   4.740  1.0907  1.0872  0.9197
 3243SOL    HW212623  10.752   1.275   4.681 -0.2063  0.2978 -0.5560
 3244SOL     OW12624   3.834   3.321   1.380  0.0058  0.1391  0.0960
 3244SOL    HW112625   3.746   3.290   1.360 -0.8421  1.3250  1.7224
 3244SOL    HW212626   3.857   3.378   1.306 -0.0258 -1.1632 -0.9606
 3245SOL     OW12627   1.643   9.303   8.009 -0.0419 -0.3395  0.2833
 3245SOL    HW112628   1.699   9.227   7.995 -0.5340 -0.8895  1.1997
 3245SOL    HW212629   1.702   9.378   7.998  0.8733 -0.9041  1.1082
 3246SOL     OW12630   9.543  10.774   0.016  0.1323  0.1592  0.4507
 3246SOL    HW112631   9.510  10.704   0.073  0.9364 -0.9287 -0.3579
 3246SOL    HW212632   9.607  10.820   0.071 -1.6017  1.3789  1.5434
 3247SOL     OW12633  10.188   8.220   4.076 -0.1557  0.5123 -0.3500
 3247SOL    HW112634  10.254   8.150   4.082  0.7866  1.1813 -2.2094
 3247SOL    HW212635  10.121   8.185   4.017 -0.4240  0.6458 -0.1262
 3248SOL     OW12636  10.095   6.829   0.581  0.1170  0.1046  0.5617
 3248SOL    HW112637  10.111   6.815   0.488 -0.1812 -2.7261  0.8467
 3248SOL    HW212638  10.116   6.921   0.596  3.3218 -0.1169 -1.6595
 3249SOL     OW12639   0.429   3.275   0.066  0.4570  0.0207 -0.2637
 3249SOL    HW112640   0.418   3.270  -0.029 -0.3491 -1.0973 -0.1399
 3249SOL    HW212641   0.523   3.264   0.080  0.6813  0.9356 -0.9584
 3250SOL     OW12642   1.516   7.381   1.891  0.1016 -0.4314  0.3219
 3250SOL    HW112643   1.435   7.331   1.891 -0.5631  0.5967  0.2164
 3250SOL    HW212644   1.529   7.405   1.983  0.5415 -0.9697  0.4069
 3251SOL     OW12645   2.561   5.521   7.428  0.5409 -0.2312  0.9730
 3251SOL    HW112646   2.503   5.459   7.474  2.5627 -0.4120  3.4434
 3251SOL    HW212647   2.534   5.607   7.460 -0.0016 -0.0764  0.1441
 3252SOL     OW12648   5.346   5.943   1.397 -0.2019  0.1495 -0.0522
 3252SOL    HW112649   5.276   5.979   1.452 -0.9073 -0.1265 -0.7552
 3252SOL    HW212650   5.416   6.008   1.401 -0.0651 -0.0473  1.4984
 3253SOL     OW12651   1.649   2.546   1.949  0.3107 -0.1778 -0.1354
 3253SOL    HW112652   1.559   2.537   1.917  0.4092 -0.8985 -0.2214
 3253SOL    HW212653   1.683   2.621   1.901 -0.4059  0.4409  0.2853
 3254SOL     OW12654   9.277   1.742   9.065 -0.1283  0.1434  0.0162
 3254SOL    HW112655   9.182   1.742   9.074 -0.3878 -1.0624 -2.0579
 3254SOL    HW212656   9.296   1.813   9.004 -0.0566 -1.3497 -1.8167
 3255SOL     OW12657   2.002   5.016   2.180 -0.1922  0.4530 -0.3620
 3255SOL    HW112658   2.055   5.071   2.238 -1.4224  0.1656  1.0885
 3255SOL    HW212659   1.991   4.934   2.229 -2.3315  0.6656 -0.4090
 3256SOL     OW12660   1.923  10.701   6.815  0.0892 -0.3007  0.3236
 3256SOL    HW112661   1.971  10.726   6.736 -1.7006  0.8204 -0.4745
 3256SOL    HW212662   1.985  10.716   6.887  2.0194 -2.0306 -0.8381
 3257SOL     OW12663   0.899   6.376   2.714 -0.0402 -0.1576  0.4653
 3257SOL    HW112664   0.944   6.451   2.754  0.1170 -0.6782  1.2779
 3257SOL    HW212665   0.818   6.368   2.763 -0.3697 -0.1033 -0.0681
 3258SOL     OW12666   3.026   0.802   3.345 -0.4208 -0.2340 -0.3176
 3258SOL    HW112667   3.035   0.741   3.419  0.6339 -0.7981 -0.8811
 3258SOL    HW212668   2.935   0.793   3.318 -0.0729 -2.3845 -1.0381
 3259SOL     OW12669   8.706   9.501  10.505  0.0019 -0.3892 -0.1070
 3259SOL    HW112670   8.767   9.432  10.479  0.3925  0.4975 -1.6672
 3259SOL    HW212671   8.624   9.477  10.463 -0.3927 -0.9053  0.9389
 3260SOL     OW12672   7.441   4.388   0.390 -0.3700 -0.7136 -0.1665
 3260SOL    HW112673   7.370   4.353   0.443  0.0644  0.3683  1.1820
 3260SOL    HW212674   7.401   4.458   0.339 -0.7691 -1.7030 -1.2731
 3261SOL     OW12675  10.300   5.214   3.452 -0.0743  0.1426 -0.1875
 3261SOL    HW112676  10.326   5.230   3.543 -0.2868 -0.7609  0.0369
 3261SOL    HW212677  10.248   5.134   3.456  0.7270 -0.4528 -1.2478
 3262SOL     OW12678   2.722   2.594   2.146  0.6040 -0.3265 -0.4217
 3262SOL    HW112679   2.720   2.689   2.150 -2.0437 -0.2852 -0.6444
 3262SOL    HW212680   2.675   2.572   2.066  1.2568 -1.8344 -0.4347
 3263SOL     OW12681   9.377   8.515   3.124  0.8646  0.2681 -0.0201
 3263SOL    HW112682   9.402   8.470   3.043  0.0448 -1.1552  0.4855
 3263SOL    HW212683   9.305   8.463   3.159  1.9027  0.2243  2.1967
 3264SOL     OW12684   0.686  10.525  10.360  0.7008 -0.0339 -0.7978
 3264SOL    HW112685   0.737  10.594  10.404  3.8416 -2.5353 -0.1192
 3264SOL    HW212686   0.741  10.498  10.287 -0.7819 -1.3700 -1.4727
 3265SOL     OW12687  10.017  10.467   3.110 -0.7181 -0.3848 -0.2641
 3265SOL    HW112688   9.988  10.413   3.183  1.3574 -0.8522  0.2526
 3265SOL    HW212689   9.988  10.555   3.133 -0.9009 -0.6795  0.6773
 3266SOL     OW12690   3.299   2.837   2.689  0.1204  0.0313  0.0549
 3266SOL    HW112691   3.273   2.828   2.598  0.4059  1.2270 -0.1667
 3266SOL    HW212692   3.224   2.880   2.731 -0.5640 -1.7008  0.7098
 3267SOL     OW12693   1.134   2.430   6.605  0.1994  0.2472 -0.2762
 3267SOL    HW112694   1.139   2.408   6.512  0.4272  1.0600 -0.4627
 3267SOL    HW212695   1.049   2.396   6.633  0.5007 -0.7862 -0.5616
 3268SOL     OW12696   0.969   0.850   4.489  0.4716  0.7811  0.2194
 3268SOL    HW112697   0.933   0.761   4.487 -0.0532  0.9998 -0.3458
 3268SOL    HW212698   1.046   0.843   4.545  1.6130 -0.4794 -1.4030
 3269SOL     OW12699   1.940   9.123   7.756 -0.7676  0.0134 -0.4163
 3269SOL    HW112700   1.983   9.203   7.787  1.7092 -0.0233 -3.3105
 3269SOL    HW212701   1.923   9.073   7.835  0.3582  2.1013  1.2525
 3270SOL     OW12702   5.126   3.799   3.572 -0.1295  0.5831  0.3886
 3270SOL    HW112703   5.080   3.880   3.551 -1.9091 -0.3236  0.6081
 3270SOL    HW212704   5.072   3.757   3.639 -0.2477 -1.6442 -1.0091
 3271SOL     OW12705   9.259   8.735   7.243 -0.2320 -0.4699 -0.1142
 3271SOL    HW112706   9.272   8.678   7.167 -0.4740  0.1907 -0.6577
 3271SOL    HW212707   9.213   8.811   7.209  0.3352  0.1864  0.5533
 3272SOL     OW12708   0.136   5.208   5.498 -0.4310 -0.3311  0.6266
 3272SOL    HW112709   0.148   5.277   5.563  0.4960  0.0837  0.0471
 3272SOL    HW212710   0.115   5.255   5.417 -0.9666 -0.8001  0.4940
 3273SOL     OW12711   8.506  10.168   1.980  0.3459  0.0724  0.1197
 3273SOL    HW112712   8.541  10.084   2.007 -1.2411 -0.3652  0.9588
 3273SOL    HW212713   8.534  10.229   2.048  0.4276 -0.0371  0.1831
 3274SOL     OW12714   1.227   6.440   8.588  0.1344  0.2232 -0.1463
 3274SOL    HW112715   1.193   6.391   8.513 -1.8847  0.4206  0.5819
 3274SOL    HW212716   1.153   6.493   8.618  1.3300  1.2781  1.0696
 3275SOL     OW12717   8.243   2.621   1.697 -0.6185 -0.4068 -0.1887
 3275SOL    HW112718   8.282   2.696   1.652 -0.5812  1.2412  2.3645
 3275SOL    HW212719   8.148   2.633   1.688 -0.6052 -0.3208 -0.2101
 3276SOL     OW12720   9.660   2.843   2.371 -0.3196  0.2423  0.3095
 3276SOL    HW112721   9.617   2.842   2.457 -0.4740  0.1728  0.2321
 3276SOL    HW212722   9.619   2.772   2.323  1.8407 -1.7208  1.1787
 3277SOL     OW12723   5.793   3.266   7.750  0.0573 -0.1913 -0.0954
 3277SOL    HW112724   5.806   3.268   7.845  0.4392  1.9226 -0.1506
 3277SOL    HW212725   5.706   3.227   7.739 -0.0391 -0.3629  1.1153
 3278SOL     OW12726   9.588   2.617   8.210 -0.2230  0.4441 -0.1489
 3278SOL    HW112727   9.583   2.712   8.221  1.2581  0.6584 -0.9900
 3278SOL    HW212728   9.558   2.581   8.293  1.1592  1.7078  0.9392
 3279SOL     OW12729   2.428   7.043   2.395  0.0149  0.3369  0.0539
 3279SOL    HW112730   2.467   6.981   2.456 -1.5031 -0.1206  0.6079
 3279SOL    HW212731   2.333   7.030   2.405 -0.2767  0.1896 -2.4770
 3280SOL     OW12732   5.590   2.821   9.217  0.3626 -1.0739 -0.2798
 3280SOL    HW112733   5.504   2.852   9.190 -0.3850 -0.6297  2.2824
 3280SOL    HW212734   5.646   2.899   9.213 -0.0521 -0.7186  0.5833
 3281SOL     OW12735   9.478  10.684   5.756 -0.1588 -0.3920 -0.6247
 3281SOL    HW112736   9.544  10.693   5.824 -0.9976  0.4737  0.0894
 3281SOL    HW212737   9.443  10.595   5.767  1.3871 -1.1507 -1.5044
 3282SOL     OW12738   7.600   8.866   4.103  0.0784  0.4853  0.3391
 3282SOL    HW112739   7.670   8.926   4.128  0.9603  0.0083 -0.8795
 3282SOL    HW212740   7.606   8.861   4.008  0.1490 -1.6407  0.4125
 3283SOL     OW12741   3.590   7.390   6.885 -0.2276 -0.0182 -0.0734
 3283SOL    HW112742   3.584   7.411   6.791  1.3198 -1.0819 -0.4445
 3283SOL    HW212743   3.500   7.369   6.910 -0.5910 -0.2801 -1.4734
 3284SOL     OW12744   8.573  10.491   8.562  0.0515  0.1533  0.6844
 3284SOL    HW112745   8.590  10.398   8.578  2.7973  0.4261 -0.0756
 3284SOL    HW212746   8.624  10.536   8.629  2.7204  1.0794 -1.7247
 3285SOL     OW12747   7.723   8.140   4.175 -0.2641 -0.0967 -0.1596
 3285SOL    HW112748   7.684   8.151   4.088  2.2543 -0.4820 -1.4313
 3285SOL    HW212749   7.715   8.046   4.193  1.0439 -0.3885 -0.9628
 3286SOL     OW12750   6.997   2.893   1.032 -0.2867  0.1365  0.1072
 3286SOL    HW112751   6.990   2.988   1.022 -0.7456  0.0501 -0.4104
 3286SOL    HW212752   7.078   2.870   0.987  0.2577  0.3747  0.9283
 3287SOL     OW12753   6.770   8.004   7.335  0.6600  0.4051  0.1559
 3287SOL    HW112754   6.807   8.033   7.252 -0.8353 -0.6355 -0.9315
 3287SOL    HW212755   6.817   7.923   7.356  0.4004  0.1732 -0.1586
 3288SOL     OW12756   0.469   2.869  10.564 -0.1319 -0.1070  0.2527
 3288SOL    HW112757   0.451   2.852  10.657  0.4054 -2.4905 -0.0391
 3288SOL    HW212758   0.514   2.791  10.533 -1.2867  0.1579 -2.3125
 3289SOL     OW12759   3.072   1.398   7.295 -0.1798 -0.6152  0.4367
 3289SOL    HW112760   2.984   1.418   7.264  0.4999  0.8558 -0.6288
 3289SOL    HW212761   3.087   1.308   7.266 -0.4875 -0.1091 -1.4301
 3290SOL     OW12762   4.287   8.389   6.872 -0.6778 -0.2909  0.2359
 3290SOL    HW112763   4.330   8.444   6.937  0.8567 -0.9200 -0.1841
 3290SOL    HW212764   4.318   8.301   6.891 -1.0656 -0.6369 -0.6795
 3291SOL     OW12765   6.242   2.713   7.694 -0.0394  0.3052  0.6769
 3291SOL    HW112766   6.186   2.772   7.743 -0.0132  1.0293 -0.1359
 3291SOL    HW212767   6.286   2.660   7.761 -1.8732 -0.4875  1.3214
 3292SOL     OW12768   3.753   6.406   9.003  0.2055 -0.0043  0.0945
 3292SOL    HW112769   3.842   6.376   8.985  0.3854  1.2165 -1.2259
 3292SOL    HW212770   3.696   6.336   8.970  0.6612 -0.5490  0.4579
 3293SOL     OW12771   3.636   6.024   6.153  0.0812  0.0896 -0.3519
 3293SOL    HW112772   3.661   6.100   6.101  1.1947 -0.0313 -0.0289
 3293SOL    HW212773   3.714   6.006   6.206 -0.6736 -0.3953  0.6151
 3294SOL     OW12774   1.152   3.875   5.888 -0.5999 -0.3648  0.4236
 3294SOL    HW112775   1.137   3.954   5.836  2.4783  0.0636 -0.0062
 3294SOL    HW212776   1.118   3.804   5.834  0.4218  0.3016 -1.1597
 3295SOL     OW12777   7.261  10.429   2.998 -0.2278  0.1532 -0.3540
 3295SOL    HW112778   7.342  10.466   2.964 -0.9803  1.4864 -0.7916
 3295SOL    HW212779   7.201  10.430   2.923 -1.4250  1.6192  0.5612
 3296SOL     OW12780   6.746   4.240   2.735 -0.3251 -0.1464 -0.2501
 3296SOL    HW112781   6.678   4.299   2.765 -0.7046 -0.9433  0.5263
 3296SOL    HW212782   6.769   4.271   2.648  0.3471  1.8658  0.5858
 3297SOL     OW12783   8.941   3.418   5.031 -0.1605  0.0401 -0.2461
 3297SOL    HW112784   8.919   3.342   4.977  0.4561  0.5360 -1.2418
 3297SOL    HW212785   8.947   3.384   5.120 -1.0988 -0.8286 -0.4967
 3298SOL     OW12786   2.489   9.171   6.606  0.0816 -0.0302  0.5895
 3298SOL    HW112787   2.470   9.096   6.662 -0.5385 -0.8364 -0.6547
 3298SOL    HW212788   2.454   9.246   6.654 -0.9071 -0.7612  1.0578
 3299SOL     OW12789   7.516   8.997   4.404  0.4789 -0.3487  0.1937
 3299SOL    HW112790   7.477   8.950   4.479  0.6287 -0.7456  0.0240
 3299SOL    HW212791   7.597   9.033   4.439  0.1379  0.1866  0.4531
 3300SOL     OW12792   1.423   0.725   0.263 -0.3436 -0.2310  0.2642
 3300SOL    HW112793   1.456   0.742   0.351 -1.0444 -1.0124  0.6833
 3300SOL    HW212794   1.487   0.767   0.206  1.3367 -1.5633  1.0556
 3301SOL     OW12795   6.344   5.250   2.319 -0.1522 -0.4589 -0.5878
 3301SOL    HW112796   6.323   5.272   2.228  0.8178  1.0874 -0.4687
 3301SOL    HW212797   6.431   5.287   2.333 -1.4522  2.0128  1.8563
 3302SOL     OW12798   8.443   1.392   6.663 -0.4184  0.2549 -0.1122
 3302SOL    HW112799   8.428   1.298   6.677 -1.9837  0.0417 -2.5464
 3302SOL    HW212800   8.383   1.415   6.592 -0.9170  3.3978  1.1718
 3303SOL     OW12801   1.317   8.409   9.668  0.0685  0.0666  0.4697
 3303SOL    HW112802   1.327   8.504   9.680 -1.2858  0.6446 -2.0867
 3303SOL    HW212803   1.393   8.383   9.616  0.6525 -0.3787  1.5093
 3304SOL     OW12804   2.523   7.721   8.850  0.1547 -0.5152 -0.0520
 3304SOL    HW112805   2.559   7.789   8.793  0.9794 -0.5713  0.3857
 3304SOL    HW212806   2.449   7.763   8.894 -0.0633 -0.2635 -0.6512
 3305SOL     OW12807   3.793   3.942   1.051 -0.0474 -0.1909 -0.0634
 3305SOL    HW112808   3.841   3.904   0.978  0.7106 -1.3339  0.9750
 3305SOL    HW212809   3.770   3.867   1.106 -2.7445  0.3557 -0.3082
 3306SOL     OW12810  10.570   0.420   3.452  0.4021  0.9504 -0.1047
 3306SOL    HW112811  10.486   0.434   3.495  0.9051  0.9017  0.9194
 3306SOL    HW212812  10.555   0.344   3.396 -0.2522  0.9858  0.0114
 3307SOL     OW12813   7.000   9.128   3.918 -0.1342 -0.0876 -0.4128
 3307SOL    HW112814   7.042   9.043   3.924 -0.3172 -0.1551 -0.0271
 3307SOL    HW212815   7.058   9.181   3.863  0.9697  0.1298  0.8953
 3308SOL     OW12816   9.539   0.196   6.410 -0.0147  0.3796 -0.4907
 3308SOL    HW112817   9.492   0.248   6.345  0.7476  1.3618 -0.2832
 3308SOL    HW212818   9.565   0.259   6.478 -0.4456 -0.5571  0.5704
 3309SOL     OW12819   7.652   9.764   7.190  0.0653 -0.0197  0.2009
 3309SOL    HW112820   7.582   9.827   7.171  0.4189 -0.3840 -2.6908
 3309SOL    HW212821   7.611   9.678   7.182  0.1059 -0.2498  1.9505
 3310SOL     OW12822   0.884   3.133   8.767  0.1216  0.3063 -0.2276
 3310SOL    HW112823   0.813   3.151   8.829 -0.7753 -1.1838 -0.7578
 3310SOL    HW212824   0.840   3.125   8.682  1.0845  0.4839 -0.7540
 3311SOL     OW12825   6.668   2.825   6.206  0.4741 -0.1615 -0.6245
 3311SOL    HW112826   6.694   2.736   6.179  2.1928 -0.3576  1.4109
 3311SOL    HW212827   6.747   2.861   6.246 -0.6589  1.7192  0.0053
 3312SOL     OW12828   7.739   0.195   6.849 -0.0690 -0.8962  0.3845
 3312SOL    HW112829   7.715   0.232   6.765 -0.8609 -1.7090  0.2295
 3312SOL    HW212830   7.724   0.101   6.839 -0.9910 -0.9149  1.6837
 3313SOL     OW12831   0.376   8.253   7.700  0.2557  0.0425 -0.1880
 3313SOL    HW112832   0.333   8.234   7.783  1.8731  0.7130  0.8586
 3313SOL    HW212833   0.364   8.173   7.648 -1.7851  0.0380  0.1967
 3314SOL     OW12834  10.537   4.230   8.096  0.6216 -0.3872  0.2600
 3314SOL    HW112835  10.625   4.230   8.059  0.3933  0.0166 -0.3014
 3314SOL    HW212836  10.485   4.283   8.035  0.0236 -0.4966  0.6616
 3315SOL     OW12837   5.484   0.518   3.195  0.0884  0.3424 -0.5706
 3315SOL    HW112838   5.400   0.488   3.229 -0.5177 -0.4550 -2.6032
 3315SOL    HW212839   5.484   0.612   3.209 -0.8883  0.2659 -0.0254
 3316SOL     OW12840   2.740   4.645   8.408  0.3597  0.5630  0.1004
 3316SOL    HW112841   2.715   4.557   8.434  1.4224 -0.3788 -1.8713
 3316SOL    HW212842   2.769   4.687   8.489 -1.2100 -0.4769  1.2670
 3317SOL     OW12843   7.863   7.245   4.067  0.1184  0.2409 -0.0975
 3317SOL    HW112844   7.833   7.155   4.082  0.8722  0.0672  0.4460
 3317SOL    HW212845   7.826   7.295   4.139  0.1671  0.2560 -0.0836
 3318SOL     OW12846   8.168   9.051   5.153 -0.0065  0.7076  0.0137
 3318SOL    HW112847   8.257   9.045   5.187  0.3259  0.0811 -0.9248
 3318SOL    HW212848   8.134   8.962   5.155  0.3394  0.4737 -2.0322
 3319SOL     OW12849  10.600   1.387   7.308  0.0339 -0.2487 -0.3683
 3319SOL    HW112850  10.538   1.418   7.242  0.6765  0.5375 -0.6267
 3319SOL    HW212851  10.660   1.331   7.260  0.5923  0.4452 -0.4994
 3320SOL     OW12852   0.548   0.898   3.478 -0.1577  0.9117 -0.5311
 3320SOL    HW112853   0.508   0.859   3.400  1.1164 -2.9674  0.4961
 3320SOL    HW212854   0.485   0.882   3.548  0.9330 -0.7068  0.1560
 3321SOL     OW12855   8.245   5.327   2.081 -0.0382  0.2494 -0.0206
 3321SOL    HW112856   8.318   5.313   2.142  0.8461 -0.1593 -1.1472
 3321SOL    HW212857   8.271   5.404   2.030 -0.6916  0.4840 -0.0084
 3322SOL     OW12858   5.645   3.486   2.772  0.1931 -0.2784  0.2649
 3322SOL    HW112859   5.693   3.505   2.692  0.4585  2.4319  0.9493
 3322SOL    HW212860   5.587   3.562   2.783  0.1421 -0.5925  2.5981
 3323SOL     OW12861   0.163   0.129   2.898  0.0208  0.2455  0.5215
 3323SOL    HW112862   0.070   0.126   2.879  0.2652  0.3437 -0.7566
 3323SOL    HW212863   0.182   0.222   2.913 -0.1919  0.1551  1.4226
 3324SOL     OW12864   4.764  10.502   7.954 -0.3307  0.0237  0.0319
 3324SOL    HW112865   4.738  10.564   7.886 -0.7865 -1.2540 -1.0025
 3324SOL    HW212866   4.810  10.556   8.019  1.5577  1.0758 -2.0199
 3325SOL     OW12867   7.754   0.090   2.904  0.4533  0.3574  0.4901
 3325SOL    HW112868   7.741   0.144   2.826 -0.7468 -0.7551 -0.1214
 3325SOL    HW212869   7.687   0.022   2.898  0.3490  0.2205  2.4901
 3326SOL     OW12870   3.014   2.461   8.395  0.2740  0.5048  0.2305
 3326SOL    HW112871   3.092   2.517   8.391 -0.9049  2.1817 -0.5079
 3326SOL    HW212872   2.977   2.478   8.482 -0.1670  1.0068 -0.0511
 3327SOL     OW12873   5.600   4.974   5.479  0.1483  0.0199  0.0814
 3327SOL    HW112874   5.588   4.970   5.574 -1.5642 -1.4241 -0.1447
 3327SOL    HW212875   5.593   5.066   5.457 -1.9108  0.1497  1.1007
 3328SOL     OW12876   4.952   0.919   1.616 -0.6404 -0.1316  0.2607
 3328SOL    HW112877   5.046   0.904   1.608 -0.4688  0.9974  0.0429
 3328SOL    HW212878   4.944   1.002   1.662 -1.5368 -0.2752  0.3865
 3329SOL     OW12879   2.847   2.289   9.098 -0.0134  0.2255  0.0301
 3329SOL    HW112880   2.770   2.277   9.042  1.2632 -4.6049 -1.1170
 3329SOL    HW212881   2.823   2.247   9.181  1.7824 -3.1640 -0.9932
 3330SOL     OW12882   6.090   1.546   0.807  0.8439 -0.4307  0.1415
 3330SOL    HW112883   6.026   1.475   0.811  0.7641 -0.3268  0.8293
 3330SOL    HW212884   6.107   1.569   0.899  1.9898 -0.5651 -0.0125
 3331SOL     OW12885   0.447   6.863   6.929 -0.5096  0.0601 -0.9306
 3331SOL    HW112886   0.363   6.865   6.884 -0.2782  1.1757 -1.3592
 3331SOL    HW212887   0.508   6.906   6.868 -0.2000  1.7069  0.4358
 3332SOL     OW12888   6.264   9.647   1.971 -0.8094 -0.1922 -0.0801
 3332SOL    HW112889   6.306   9.577   2.021 -1.8461 -1.5544 -1.0736
 3332SOL    HW212890   6.329   9.671   1.905 -0.9776 -1.2357 -0.6453
 3333SOL     OW12891   1.370   8.380   1.883  0.2194  0.1424  0.3843
 3333SOL    HW112892   1.418   8.323   1.823 -1.1155 -1.7270  0.9815
 3333SOL    HW212893   1.318   8.320   1.937 -0.9855  1.9213  1.3266
 3334SOL     OW12894   5.192   8.644  10.780 -0.1559 -0.2386 -0.3945
 3334SOL    HW112895   5.220   8.555  10.760 -0.6006 -0.2512 -1.0090
 3334SOL    HW212896   5.096   8.640  10.773 -0.1267  0.5209 -1.4749
 3335SOL     OW12897   0.601   7.380   3.568  0.0756 -0.0995  0.4524
 3335SOL    HW112898   0.658   7.424   3.504  0.0861  1.0835  1.2388
 3335SOL    HW212899   0.561   7.309   3.519 -0.2477  1.0350 -1.0024
 3336SOL     OW12900   1.188   6.261   4.105  0.6381  0.7940  0.3604
 3336SOL    HW112901   1.109   6.210   4.123  2.7485 -2.8102  0.3165
 3336SOL    HW212902   1.155   6.347   4.080 -3.1984 -0.1957  1.2927
 3337SOL     OW12903  10.773   8.129   9.169  0.1355 -0.1846  0.0863
 3337SOL    HW112904  10.777   8.038   9.198 -0.5078 -1.0809 -2.3334
 3337SOL    HW212905  10.862   8.162   9.177  1.0143 -1.9665 -1.5633
 3338SOL     OW12906   3.521   4.902  10.622  0.3614 -0.1673  0.0997
 3338SOL    HW112907   3.559   4.976  10.669  0.9253  0.0629 -0.6906
 3338SOL    HW212908   3.586   4.832  10.631  0.2428 -0.2788  0.0887
 3339SOL     OW12909   6.687   3.942   8.791  0.2217  0.0604 -0.1623
 3339SOL    HW112910   6.684   4.038   8.790  1.3812  0.1267  0.9273
 3339SOL    HW212911   6.597   3.915   8.775 -1.1900  1.3766  4.2914
 3340SOL     OW12912   7.940   9.532   7.737 -0.2624  0.3963 -0.2495
 3340SOL    HW112913   7.864   9.563   7.788 -0.2742 -2.6005  1.8460
 3340SOL    HW212914   8.016   9.565   7.785 -0.2328  1.0478 -0.7326
 3341SOL     OW12915   3.111   3.460   5.019 -0.1143 -0.3111 -0.0478
 3341SOL    HW112916   3.050   3.533   5.009  0.2241 -0.2197 -1.9754
 3341SOL    HW212917   3.190   3.500   5.055  0.1854  0.3970 -1.3968
 3342SOL     OW12918   4.263   4.041   9.457 -0.1869 -0.5838  0.1357
 3342SOL    HW112919   4.245   4.092   9.535  0.9993 -0.8208  0.5856
 3342SOL    HW212920   4.293   4.105   9.393  0.3166 -0.5759  0.3740
 3343SOL     OW12921  10.387   3.086   4.679 -0.0955  0.0075 -0.5603
 3343SOL    HW112922  10.298   3.053   4.684 -0.5977  1.4371  3.1234
 3343SOL    HW212923  10.382   3.175   4.714  2.7106  0.2533 -0.5240
 3344SOL     OW12924   3.399   4.201   3.658 -1.0441  0.4848  0.0852
 3344SOL    HW112925   3.441   4.234   3.737 -2.7856 -1.4897  1.9491
 3344SOL    HW212926   3.385   4.107   3.675 -0.9675 -0.1663 -2.8223
 3345SOL     OW12927   0.974   8.227   4.147 -0.3578 -0.0687 -0.0298
 3345SOL    HW112928   0.962   8.295   4.081  2.1417 -0.0690 -0.5535
 3345SOL    HW212929   0.969   8.273   4.231 -1.5062  0.2471 -0.2438
 3346SOL     OW12930   6.725  10.693   3.022  0.7018 -0.9872 -0.4877
 3346SOL    HW112931   6.651  10.654   3.069  1.0159 -1.6686 -0.5340
 3346SOL    HW212932   6.800  10.675   3.078  0.8184 -0.1679 -0.3692
 3347SOL     OW12933   4.394   6.803   9.837  0.1549  0.0361 -0.2907
 3347SOL    HW112934   4.340   6.789   9.915 -0.6438  0.9380 -0.6712
 3347SOL    HW212935   4.484   6.798   9.870 -0.1344  2.4395  1.1373
 3348SOL     OW12936   1.971  10.075   2.137 -0.4723 -0.1693  0.4527
 3348SOL    HW112937   1.962  10.093   2.230  0.7985 -0.9585  0.7465
 3348SOL    HW212938   2.026   9.996   2.132  1.4116  1.1227 -0.9821
 3349SOL     OW12939   8.826   8.858   9.135  0.0325  0.5038  0.8034
 3349SOL    HW112940   8.883   8.934   9.134  0.7966  0.0563  3.5925
 3349SOL    HW212941   8.880   8.787   9.168 -0.9495 -1.0551 -0.7319
 3350SOL     OW12942  10.064   9.539   0.393  0.1155 -1.0795  0.5530
 3350SOL    HW112943  10.033   9.558   0.304  0.8466 -2.5825 -0.0506
 3350SOL    HW212944  10.158   9.521   0.383  0.6198  0.4379  1.9105
 3351SOL     OW12945   9.880   2.235   4.106 -0.2923  0.3292 -1.0018
 3351SOL    HW112946   9.843   2.290   4.176  1.3447  1.7845 -1.2272
 3351SOL    HW212947   9.850   2.276   4.025 -1.7240 -1.0386 -1.2291
 3352SOL     OW12948   9.977   0.715   0.365 -0.4373  0.0515  0.2090
 3352SOL    HW112949  10.072   0.722   0.358 -0.3548 -0.5979  0.5786
 3352SOL    HW212950   9.961   0.693   0.457 -0.9188 -0.2402  0.0626
 3353SOL     OW12951  10.329   5.541   8.576  0.1301  0.7210 -0.1129
 3353SOL    HW112952  10.240   5.516   8.600  1.3780 -2.5376  1.8171
 3353SOL    HW212953  10.367   5.578   8.655  1.2802 -0.6351  0.0257
 3354SOL     OW12954   2.100   3.318   2.423 -0.5514  0.2646  0.2794
 3354SOL    HW112955   2.162   3.375   2.469  1.2285  1.1889 -2.9382
 3354SOL    HW212956   2.018   3.329   2.471  0.4586  3.1769  1.6278
 3355SOL     OW12957   6.937   8.531   6.436 -0.0349 -0.0925  0.1362
 3355SOL    HW112958   6.930   8.576   6.352 -0.9905 -1.2731 -0.4333
 3355SOL    HW212959   6.893   8.590   6.498 -0.9697 -0.0556 -0.5353
 3356SOL     OW12960   6.190   7.990   6.286  0.0427 -0.2239  0.0496
 3356SOL    HW112961   6.203   7.901   6.319 -0.2070 -1.4521 -2.8401
 3356SOL    HW212962   6.104   8.016   6.320 -1.3175 -2.3707 -1.4985
 3357SOL     OW12963   0.922   7.983   9.029  0.6073  0.3008  0.2748
 3357SOL    HW112964   0.880   7.979   8.943  1.5868  0.3755 -0.2229
 3357SOL    HW212965   1.014   8.000   9.009  0.9266 -0.1738  1.3262
 3358SOL     OW12966   1.293   3.477   7.816  0.5501  0.1454 -0.1195
 3358SOL    HW112967   1.198   3.466   7.821  0.6659 -0.4430  1.3691
 3358SOL    HW212968   1.327   3.409   7.874  1.7660  2.0195  1.5035
 3359SOL     OW12969   5.140   5.331   7.092  0.3958 -0.1064  0.3917
 3359SOL    HW112970   5.165   5.243   7.122  3.0122  0.5682  0.3716
 3359SOL    HW212971   5.080   5.363   7.160  1.3452 -0.9924  1.7096
 3360SOL     OW12972   0.917   3.171   3.496  0.0482 -0.1675 -0.1556
 3360SOL    HW112973   0.907   3.084   3.459  2.6136 -0.3484 -0.5678
 3360SOL    HW212974   0.924   3.156   3.591  1.7860 -0.5850 -0.3257
 3361SOL     OW12975   8.248   3.132  10.044  0.1000  0.1879 -0.2140
 3361SOL    HW112976   8.185   3.106   9.976  0.0265  0.8963 -0.4240
 3361SOL    HW212977   8.238   3.065  10.112  0.7098 -0.9561 -1.2178
 3362SOL     OW12978   1.743   8.941   0.945 -0.2177 -0.2691  0.0306
 3362SOL    HW112979   1.791   8.884   1.005 -1.4934 -0.4710  0.8882
 3362SOL    HW212980   1.794   8.939   0.863  1.0635 -0.6857  0.8177
 3363SOL     OW12981   5.979   9.727   8.213 -0.8350  0.2652  0.1205
 3363SOL    HW112982   6.062   9.726   8.260 -0.1153 -0.0861 -1.1159
 3363SOL    HW212983   5.913   9.732   8.282  0.2008  0.5444  1.1280
 3364SOL     OW12984   0.682   2.250   8.615 -0.2121 -0.2540  0.4959
 3364SOL    HW112985   0.679   2.287   8.527 -2.4141  1.0296  1.0461
 3364SOL    HW212986   0.715   2.161   8.602 -1.3058 -0.4024 -1.7485
 3365SOL     OW12987   5.930   6.798   7.838  0.0875 -0.0692  0.3426
 3365SOL    HW112988   5.859   6.774   7.898 -0.3098 -2.4021 -0.9297
 3365SOL    HW212989   6.009   6.787   7.890 -0.3513  0.1657  1.0799
 3366SOL     OW12990   4.224   0.286   8.258  0.6327  0.3802  0.9135
 3366SOL    HW112991   4.308   0.333   8.255  0.5822  0.4484 -1.2069
 3366SOL    HW212992   4.183   0.306   8.174 -0.3573 -1.7210  0.8355
 3367SOL     OW12993   3.796   2.232   3.007  0.2195 -0.1519  0.0255
 3367SOL    HW112994   3.866   2.297   3.011  0.7377 -0.3030 -3.5187
 3367SOL    HW212995   3.720   2.280   2.975 -0.0142 -0.8145 -0.4459
 3368SOL     OW12996   8.027   8.331   1.196 -0.3283 -0.2036  0.1619
 3368SOL    HW112997   7.951   8.389   1.202  1.6710  2.4848  1.4252
 3368SOL    HW212998   8.046   8.307   1.286 -1.1756 -3.1237 -0.3260
 3369SOL     OW12999   9.176   9.144   4.542  0.0736  0.5575  0.1969
 3369SOL    HW113000   9.210   9.226   4.507  0.4885  0.5592  0.5943
 3369SOL    HW213001   9.167   9.159   4.636 -0.4787  0.3630  0.1815
 3370SOL     OW13002   0.069  10.494   7.444  0.3248  0.1848  0.7582
 3370SOL    HW113003  -0.008  10.457   7.487  0.5268  0.4351  1.3507
 3370SOL    HW213004   0.134  10.502   7.515  1.7795 -2.3769 -0.1547
 3371SOL     OW13005   6.974   3.188   4.991  0.6168  0.6300 -0.4602
 3371SOL    HW113006   7.054   3.147   4.956 -1.4753 -2.8909 -1.5960
 3371SOL    HW213007   6.980   3.172   5.086  1.4623  0.8918 -0.4534
 3372SOL     OW13008   5.384   5.366  10.019  0.0766  0.1016 -0.4676
 3372SOL    HW113009   5.403   5.272  10.030 -0.7770 -0.1181 -0.7792
 3372SOL    HW213010   5.296   5.368   9.981 -0.0810  1.0475 -0.0756
 3373SOL     OW13011   0.117   3.620   9.091  0.2814 -0.3104 -0.5403
 3373SOL    HW113012   0.097   3.654   9.178 -1.5183 -1.8126 -0.3172
 3373SOL    HW213013   0.212   3.606   9.092  0.6828  2.0698  0.2460
 3374SOL     OW13014   3.060   9.249   7.889 -0.1804 -0.4379 -0.2217
 3374SOL    HW113015   2.968   9.240   7.913 -0.1626 -0.3990 -0.1389
 3374SOL    HW213016   3.067   9.206   7.803 -0.4979  0.4913 -0.7273
 3375SOL     OW13017   3.791   8.058   3.643 -0.8905  0.1778  0.2897
 3375SOL    HW113018   3.717   8.025   3.592  0.8455 -1.6257 -1.2025
 3375SOL    HW213019   3.816   8.140   3.599 -0.2591 -0.6697 -0.9729
 3376SOL     OW13020   3.244   7.736   7.827  0.1538 -0.3917 -0.0566
 3376SOL    HW113021   3.215   7.676   7.896  0.4110 -1.6831 -1.0296
 3376SOL    HW213022   3.322   7.778   7.863 -0.6381  0.1773  1.0539
 3377SOL     OW13023   1.553   4.733   7.410 -0.1341  0.3218 -0.6441
 3377SOL    HW113024   1.628   4.782   7.444  0.7502 -1.2775 -0.1884
 3377SOL    HW213025   1.566   4.730   7.315 -0.5911  1.5664 -0.7592
 3378SOL     OW13026   1.358   2.252   1.204  0.3004  0.0691 -0.2166
 3378SOL    HW113027   1.416   2.285   1.136  0.2891  2.3870  0.7953
 3378SOL    HW213028   1.417   2.224   1.274  0.2669  0.9010  0.1583
 3379SOL     OW13029   5.574   4.248   5.809  0.3446  0.1990 -0.5051
 3379SOL    HW113030   5.549   4.319   5.868  2.5009  0.6773 -0.0840
 3379SOL    HW213031   5.655   4.279   5.767  0.1773 -1.1389 -1.9172
 3380SOL     OW13032   6.666   0.750   7.829  0.1619 -0.0597 -0.4334
 3380SOL    HW113033   6.654   0.841   7.800  1.1954 -0.4094 -2.0544
 3380SOL    HW213034   6.746   0.752   7.882 -0.3712  0.1264  0.3952
 3381SOL     OW13035   1.139   2.456   2.149 -0.0718 -0.1268 -0.6237
 3381SOL    HW113036   1.193   2.535   2.140 -0.2683  0.2695  1.2909
 3381SOL    HW213037   1.192   2.397   2.204 -0.7274 -0.5483 -0.4325
 3382SOL     OW13038   9.002   9.917   6.843  0.6420 -0.0538  0.2328
 3382SOL    HW113039   8.939   9.940   6.912  0.4533 -1.2069  0.4647
 3382SOL    HW213040   9.017   9.999   6.796 -0.8132  0.3205  0.3563
 3383SOL     OW13041  10.255   3.148   7.424  0.2216  0.0833  0.1448
 3383SOL    HW113042  10.167   3.181   7.438  0.2137  0.0985  0.0619
 3383SOL    HW213043  10.243   3.066   7.377  0.2640  0.2578 -0.1755
 3384SOL     OW13044   2.853  10.497   9.269  0.4041 -0.4646  0.5021
 3384SOL    HW113045   2.844  10.511   9.364  2.1003  0.6721  0.5467
 3384SOL    HW213046   2.816  10.576   9.229  1.2223 -0.1530  0.3239
 3385SOL     OW13047   9.191   4.932   6.506 -0.2457 -0.1577 -0.1298
 3385SOL    HW113048   9.189   4.999   6.575  1.1227  0.5611 -0.7417
 3385SOL    HW213049   9.107   4.888   6.513 -0.1922 -0.0486  1.9395
 3386SOL     OW13050   7.739   5.666   6.891 -0.2757 -0.0372  0.2518
 3386SOL    HW113051   7.722   5.636   6.802  1.2244  0.8615 -0.3585
 3386SOL    HW213052   7.808   5.608   6.923 -0.7787 -0.3300  0.8247
 3387SOL     OW13053   3.215   2.514   0.737 -0.4478 -0.1763  0.0287
 3387SOL    HW113054   3.173   2.430   0.717  0.7515 -0.8338  0.1815
 3387SOL    HW213055   3.262   2.498   0.819  0.4175  0.4222 -0.3417
 3388SOL     OW13056   9.758   3.716   8.243 -0.1868  0.2435  0.0994
 3388SOL    HW113057   9.699   3.773   8.293 -2.3898 -2.8261  1.3321
 3388SOL    HW213058   9.819   3.682   8.308 -0.4279 -0.5862 -0.0970
 3389SOL     OW13059   1.654   0.861  10.536  0.2850  0.1310 -0.2804
 3389SOL    HW113060   1.633   0.936  10.480 -0.1364  0.3229  0.1268
 3389SOL    HW213061   1.750   0.859  10.538  0.3024  0.8171 -0.0950
 3390SOL     OW13062   5.474   3.344   5.590 -0.3422 -0.2344  0.1118
 3390SOL    HW113063   5.561   3.338   5.629 -1.8545 -1.7688  3.6660
 3390SOL    HW213064   5.479   3.419   5.531  3.1849  0.0797  0.6086
 3391SOL     OW13065   5.482   5.083   9.947  0.2808 -0.3924  0.1318
 3391SOL    HW113066   5.537   5.006   9.933  1.7881  0.8274 -1.0689
 3391SOL    HW213067   5.501   5.110  10.037  2.5915  0.6004 -0.5542
 3392SOL     OW13068   5.948   9.736   1.217 -0.4375  0.1554 -0.8550
 3392SOL    HW113069   5.898   9.731   1.298 -1.5653  0.4637 -1.5102
 3392SOL    HW213070   5.914   9.814   1.172 -0.5251 -0.5431 -2.0563
 3393SOL     OW13071   0.441   3.167   2.720  0.4759  0.0159 -0.1260
 3393SOL    HW113072   0.386   3.243   2.697 -0.7889 -1.5683 -2.8110
 3393SOL    HW213073   0.517   3.206   2.763 -0.5588  2.7322 -0.4971
 3394SOL     OW13074   3.683  10.677   4.500  0.3991  0.3541  0.4457
 3394SOL    HW113075   3.657  10.587   4.482  1.0544  0.0580  0.9157
 3394SOL    HW213076   3.601  10.725   4.510  0.0331 -0.3805  1.0649
 3395SOL     OW13077   7.323   3.590   2.068 -0.5634  0.0795 -0.0834
 3395SOL    HW113078   7.330   3.503   2.029  1.0142 -0.7440  1.8153
 3395SOL    HW213079   7.230   3.612   2.061 -0.5388 -0.3945 -3.2503
 3396SOL     OW13080   3.223  10.435   4.634 -0.3045 -0.3080 -0.0534
 3396SOL    HW113081   3.254  10.438   4.544  0.6682 -2.5120  0.1512
 3396SOL    HW213082   3.129  10.454   4.627 -0.4373 -1.3685 -1.6403
 3397SOL     OW13083   8.914   8.657   5.602  0.4941 -0.9227  0.3781
 3397SOL    HW113084   9.008   8.637   5.604  0.5913 -0.6713 -0.7268
 3397SOL    HW213085   8.907   8.730   5.541 -0.3907 -0.7217  0.7054
 3398SOL     OW13086   3.192  10.520   0.005  0.0482  0.0339 -0.0363
 3398SOL    HW113087   3.189  10.452  -0.062  1.1290 -2.2925  2.1146
 3398SOL    HW213088   3.243  10.590  -0.035 -1.0544 -0.3553 -2.3239
 3399SOL     OW13089   7.711   9.887  10.129 -0.8256  0.4197 -0.7247
 3399SOL    HW113090   7.685   9.975  10.159 -0.5890  0.4587 -0.6335
 3399SOL    HW213091   7.806   9.885  10.140 -0.7239  0.4565 -1.5517
 3400SOL     OW13092  10.499   8.214   8.216 -0.2687 -0.3108 -0.5781
 3400SOL    HW113093  10.413   8.208   8.177 -0.7780 -0.5368  0.5280
 3400SOL    HW213094  10.483   8.206   8.311  0.9202 -0.0024 -0.3334
 3401SOL     OW13095   7.129   8.666   9.071  0.5814 -0.0877  0.4502
 3401SOL    HW113096   7.196   8.600   9.087 -0.9062 -1.4747  1.2727
 3401SOL    HW213097   7.092   8.684   9.158 -0.4720  0.2457 -0.0470
 3402SOL     OW13098   3.514   9.591   1.407 -0.6504  0.0657  0.9646
 3402SOL    HW113099   3.504   9.496   1.409 -1.1931  0.0519 -0.6009
 3402SOL    HW213100   3.440   9.624   1.457 -1.9724 -0.3116 -0.6535
 3403SOL     OW13101   9.822   8.539   4.620 -0.0270 -0.5764 -0.4035
 3403SOL    HW113102   9.809   8.461   4.674 -1.1817 -0.7043 -0.8389
 3403SOL    HW213103   9.839   8.609   4.683 -1.4465 -0.7040  0.1412
 3404SOL     OW13104   0.229   8.481   5.341 -0.0647  0.0412 -0.0229
 3404SOL    HW113105   0.175   8.403   5.329 -0.5273  0.4590 -0.7636
 3404SOL    HW213106   0.264   8.498   5.253  0.5392  0.3004  0.2673
 3405SOL     OW13107   2.472   4.292   9.672 -0.0613  0.0381  0.1550
 3405SOL    HW113108   2.419   4.330   9.742 -0.5027  1.0516 -0.6892
 3405SOL    HW213109   2.523   4.224   9.714 -0.2812  0.6565  1.4706
 3406SOL     OW13110  10.033   7.481   9.264 -0.3912  0.2188 -0.9428
 3406SOL    HW113111   9.992   7.476   9.351  1.3985  0.8571 -0.0130
 3406SOL    HW213112  10.013   7.397   9.223 -1.0806 -0.1839  0.1626
 3407SOL     OW13113   0.522   9.734   3.921  0.6318  0.8597  0.0971
 3407SOL    HW113114   0.489   9.674   3.988 -0.3966  2.5661  1.1931
 3407SOL    HW213115   0.610   9.758   3.951  1.1035 -0.1548 -0.4179
 3408SOL     OW13116   4.160   2.184   4.833 -0.0499  0.1664  0.4213
 3408SOL    HW113117   4.088   2.162   4.775  0.0432 -0.1115  0.4092
 3408SOL    HW213118   4.192   2.099   4.864 -0.4201  0.3234  1.2665
 3409SOL     OW13119   6.349  10.076   6.908 -0.3052 -0.5339 -0.5760
 3409SOL    HW113120   6.421  10.060   6.847  1.0072 -0.3248  0.8458
 3409SOL    HW213121   6.377  10.032   6.989 -1.2670  0.4962  0.3392
 3410SOL     OW13122   1.786   5.611   5.628 -0.4552 -0.3404 -0.4207
 3410SOL    HW113123   1.726   5.637   5.698  1.3633 -1.5995  1.7464
 3410SOL    HW213124   1.729   5.584   5.556 -2.4286  0.2121  0.8612
 3411SOL     OW13125   4.065   2.643  10.244  0.1690  0.1159  0.4819
 3411SOL    HW113126   4.033   2.699  10.315  0.4938 -0.2334  0.9151
 3411SOL    HW213127   3.987   2.599  10.210  0.1927 -0.8935  1.6685
 3412SOL     OW13128   1.395  10.117   9.654 -0.0817  0.2036 -0.1127
 3412SOL    HW113129   1.376  10.067   9.574  0.5005  0.3993 -0.3789
 3412SOL    HW213130   1.490  10.118   9.659 -0.1168 -0.5289  1.0542
 3413SOL     OW13131   5.084   2.419   1.773 -0.1314 -0.5197  0.3893
 3413SOL    HW113132   5.170   2.424   1.730  0.4121  2.3158  1.5888
 3413SOL    HW213133   5.079   2.329   1.806  2.4522 -0.7500  0.3765
 3414SOL     OW13134   4.670   3.442   8.115 -0.3068  0.1771  0.2679
 3414SOL    HW113135   4.577   3.420   8.106 -0.5621 -0.2496  3.0717
 3414SOL    HW213136   4.715   3.361   8.091 -0.8262 -0.4335  1.2263
 3415SOL     OW13137   4.027   0.961  10.167  0.2582 -0.5557  0.1076
 3415SOL    HW113138   4.105   1.016  10.175  1.7679 -2.2594 -1.8787
 3415SOL    HW213139   4.039   0.892  10.232  0.3253 -0.7312 -0.0914
 3416SOL     OW13140   7.997  10.554   9.758 -0.7967 -0.6458 -1.0694
 3416SOL    HW113141   8.027  10.643   9.779  0.9015 -1.1266 -1.3184
 3416SOL    HW213142   7.980  10.556   9.664 -0.3924 -0.6666 -1.1471
 3417SOL     OW13143   9.751   4.747   8.789  0.3202  0.3091  0.0979
 3417SOL    HW113144   9.803   4.823   8.764 -1.8943  1.6028 -0.8277
 3417SOL    HW213145   9.749   4.750   8.885  0.9156  0.9706  0.0936
 3418SOL     OW13146   7.592   2.891   5.063 -0.1822  0.2497 -0.0057
 3418SOL    HW113147   7.634   2.908   4.979 -0.7216  2.5953  0.1337
 3418SOL    HW213148   7.610   2.968   5.116 -1.2705 -0.4368  1.4624
 3419SOL     OW13149   5.057   0.289   5.317  0.0268 -0.0536 -0.0912
 3419SOL    HW113150   4.975   0.320   5.280  0.3583 -0.5752 -1.3404
 3419SOL    HW213151   5.081   0.214   5.262  1.2730  0.0245  0.3146
 3420SOL     OW13152   4.378   1.857   9.317  0.1477 -0.5383  0.2734
 3420SOL    HW113153   4.409   1.944   9.342 -2.7364  0.4801  0.6792
 3420SOL    HW213154   4.363   1.812   9.401 -0.1347 -0.7424  0.1148
 3421SOL     OW13155   9.958   1.643   4.472 -0.8519  0.1384  0.4440
 3421SOL    HW113156  10.047   1.625   4.504 -0.9063  0.1286  0.5859
 3421SOL    HW213157   9.973   1.689   4.388 -0.7043 -1.6518 -0.5531
 3422SOL     OW13158   7.266   1.596   0.664 -0.1249 -0.3934  0.2366
 3422SOL    HW113159   7.190   1.608   0.607  0.0689  3.9243  0.5989
 3422SOL    HW213160   7.340   1.630   0.614  0.4437  1.3083  2.0861
 3423SOL     OW13161   8.913   1.188   8.275 -0.3692  0.3199  0.4002
 3423SOL    HW113162   8.861   1.114   8.243 -0.2320  0.5991 -0.4977
 3423SOL    HW213163   8.879   1.263   8.226  0.4308  0.6188  0.3011
 3424SOL     OW13164   4.346   7.087   4.720 -0.0369  0.1166  0.1097
 3424SOL    HW113165   4.357   7.000   4.759  0.1482 -0.2540 -0.7450
 3424SOL    HW213166   4.291   7.134   4.782  1.4937  0.0580  1.5710
 3425SOL     OW13167   7.112   1.513   8.950 -0.5233  0.4854 -0.1514
 3425SOL    HW113168   7.205   1.520   8.931 -0.2905 -1.3206  0.1712
 3425SOL    HW213169   7.108   1.469   9.035 -1.6723 -0.7509 -0.8101
 3426SOL     OW13170   5.251   3.642   6.234 -0.2353 -0.4461 -0.0966
 3426SOL    HW113171   5.203   3.632   6.316 -2.1696  0.7156 -1.0125
 3426SOL    HW213172   5.282   3.733   6.235  1.9156 -1.1248  0.4019
 3427SOL     OW13173  10.421   7.399   2.514  0.7184 -0.0907  0.3248
 3427SOL    HW113174  10.463   7.457   2.579  0.7747 -1.4260  1.5405
 3427SOL    HW213175  10.463   7.423   2.431 -0.1496  2.4485  0.5188
 3428SOL     OW13176   4.726   5.733   6.442 -1.0209 -0.3534  0.8250
 3428SOL    HW113177   4.734   5.790   6.366 -0.5050 -0.7453  0.5762
 3428SOL    HW213178   4.682   5.786   6.508  0.0983  0.5772  0.8545
 3429SOL     OW13179   4.300   3.296   0.863 -0.0355  0.1537 -0.8829
 3429SOL    HW113180   4.354   3.370   0.891 -0.7222  0.0374  0.8878
 3429SOL    HW213181   4.332   3.275   0.775  1.2767  1.4961 -0.7723
 3430SOL     OW13182   7.064   0.581   1.652  0.2255  0.5290  1.1362
 3430SOL    HW113183   6.975   0.607   1.630 -0.1400 -1.7881 -0.4943
 3430SOL    HW213184   7.119   0.623   1.586 -0.1496 -1.0943 -0.2816
 3431SOL     OW13185  10.526   5.940   1.002  0.5328  0.1341  0.4251
 3431SOL    HW113186  10.571   6.014   1.043 -0.9149  1.2964 -0.0070
 3431SOL    HW213187  10.587   5.910   0.934  1.1770  0.8754  0.6601
 3432SOL     OW13188   2.693   5.050   7.571  0.1994 -0.4117  0.3653
 3432SOL    HW113189   2.638   4.994   7.626  0.9673 -1.3247  0.2374
 3432SOL    HW213190   2.779   5.009   7.574  0.7923  0.7867  0.2680
 3433SOL     OW13191   1.794   1.150   0.274  0.7896  0.3257  0.1563
 3433SOL    HW113192   1.828   1.240   0.268  2.2001 -0.2410 -0.8156
 3433SOL    HW213193   1.872   1.095   0.273 -0.1216 -1.0574 -2.0608
 3434SOL     OW13194   1.222   1.323  10.732  0.1624 -0.2189  0.3473
 3434SOL    HW113195   1.181   1.408  10.750 -1.4909 -1.0017  0.5015
 3434SOL    HW213196   1.304   1.344  10.688 -0.0681  1.4609  0.6593
 3435SOL     OW13197   0.188   9.242   4.435  0.3525 -0.1946  0.1941
 3435SOL    HW113198   0.161   9.249   4.526 -1.2715  0.7373 -0.3126
 3435SOL    HW213199   0.257   9.308   4.425 -1.0411  1.3412  0.2534
 3436SOL     OW13200   0.832   6.504   9.448 -0.2647  0.4157  0.1368
 3436SOL    HW113201   0.743   6.468   9.439 -0.5017  1.0916 -0.3053
 3436SOL    HW213202   0.889   6.436   9.412 -0.5304 -0.3427  1.1078
 3437SOL     OW13203   3.467   4.134   2.251 -0.2062  0.2488  0.3710
 3437SOL    HW113204   3.419   4.214   2.273 -1.3304  0.0075 -1.0713
 3437SOL    HW213205   3.559   4.160   2.253 -0.5896  1.8161 -0.8947
 3438SOL     OW13206   8.371   1.414   0.218  0.0594 -0.2559 -0.0891
 3438SOL    HW113207   8.387   1.465   0.138 -0.8482 -0.9978 -0.7622
 3438SOL    HW213208   8.442   1.439   0.277  0.7378  0.3050 -1.1236
 3439SOL     OW13209   8.258   6.746   7.581 -0.0743 -0.5564 -0.2639
 3439SOL    HW113210   8.346   6.782   7.573 -0.7982  1.3851 -0.1231
 3439SOL    HW213211   8.214   6.803   7.644 -0.9266 -2.5715  1.0734
 3440SOL     OW13212   9.752   6.486   7.621  0.1014  0.4199 -0.5484
 3440SOL    HW113213   9.718   6.572   7.596 -0.4957  0.1452 -0.6998
 3440SOL    HW213214   9.675   6.436   7.646  0.5865  0.4213  1.0888
 3441SOL     OW13215   6.757   7.289  10.315 -0.5511  0.1564 -0.2969
 3441SOL    HW113216   6.783   7.197  10.312  1.6387  0.7207 -0.0504
 3441SOL    HW213217   6.783   7.318  10.402 -1.3321  1.0053 -0.3330
 3442SOL     OW13218   0.532   7.892   3.681  0.1134  0.4535  0.1426
 3442SOL    HW113219   0.553   7.800   3.663 -0.9011  0.2041  0.1641
 3442SOL    HW213220   0.590   7.942   3.623  1.7445 -0.1287  1.2047
 3443SOL     OW13221  10.272   5.152   8.390 -0.0410  0.2650 -0.3417
 3443SOL    HW113222  10.239   5.227   8.341 -1.3814  0.4633  0.7982
 3443SOL    HW213223  10.343   5.188   8.443  1.3426  0.0730 -1.9569
 3444SOL     OW13224   8.326   1.425   1.267  0.0242 -0.1841  0.5059
 3444SOL    HW113225   8.292   1.445   1.179  0.3101 -1.1917  0.1538
 3444SOL    HW213226   8.370   1.341   1.257  1.4192  0.4278  1.2767
 3445SOL     OW13227   0.354   8.240   2.235  0.6490 -0.5276 -0.0910
 3445SOL    HW113228   0.434   8.211   2.279  0.9034  0.6941  0.2851
 3445SOL    HW213229   0.382   8.263   2.147  0.4942 -1.1674 -0.3111
 3446SOL     OW13230  10.058   3.974   8.854  0.2142  0.1151 -0.2186
 3446SOL    HW113231  10.129   3.948   8.912 -0.1653 -2.1743 -0.6822
 3446SOL    HW213232   9.986   3.997   8.912  0.5774  0.1639  0.2180
 3447SOL     OW13233   2.946   4.167   3.467  0.7808  0.2149  0.1350
 3447SOL    HW113234   2.875   4.167   3.403 -0.9438 -2.1027  1.8678
 3447SOL    HW213235   3.015   4.114   3.427  0.5982  0.5468 -0.6308
 3448SOL     OW13236   6.951   9.054   6.205  0.0723  0.0259  0.1225
 3448SOL    HW113237   7.011   9.113   6.160  0.4867  0.8302  1.7005
 3448SOL    HW213238   7.005   9.007   6.268 -0.6885 -0.2989  0.5459
 3449SOL     OW13239   7.101   5.555   4.351 -0.0310 -0.1423  0.6079
 3449SOL    HW113240   7.091   5.650   4.341 -0.7962 -0.2715  0.0643
 3449SOL    HW213241   7.060   5.518   4.273  4.0232 -0.8213 -1.4763
 3450SOL     OW13242   9.884   7.998   1.156  0.3178 -0.3346  0.0501
 3450SOL    HW113243   9.974   7.985   1.184  0.3408  1.0979  0.7153
 3450SOL    HW213244   9.870   7.932   1.088  2.4008  0.4759 -1.2511
 3451SOL     OW13245   2.476   4.863   4.354 -0.7176 -0.3095 -0.5073
 3451SOL    HW113246   2.408   4.850   4.288 -1.0255  0.6036 -0.3857
 3451SOL    HW213247   2.482   4.779   4.400  0.7332 -1.5986 -2.8192
 3452SOL     OW13248   4.363   2.482   8.805 -0.2621 -0.1143 -0.0512
 3452SOL    HW113249   4.349   2.422   8.731 -1.3513 -0.6025  0.5220
 3452SOL    HW213250   4.456   2.503   8.801  0.3650 -2.4808  0.1676
 3453SOL     OW13251   3.775   3.992   8.435 -0.0080  0.1587  0.0556
 3453SOL    HW113252   3.829   4.068   8.410 -0.3960 -0.2590 -2.3049
 3453SOL    HW213253   3.721   4.024   8.508  0.5602  1.8329 -0.2118
 3454SOL     OW13254   0.253   5.419   3.829 -0.3276 -0.0593  0.0985
 3454SOL    HW113255   0.236   5.463   3.746 -1.0073  0.0147  0.2661
 3454SOL    HW213256   0.230   5.484   3.896  1.4649  0.3524  0.3703
 3455SOL     OW13257   0.391  10.646   1.568 -0.1225  0.7189  0.0239
 3455SOL    HW113258   0.311  10.593   1.574  0.7783 -0.9912 -1.8091
 3455SOL    HW213259   0.365  10.732   1.601 -2.9116  0.4384 -1.1412
 3456SOL     OW13260   4.653   3.831   2.048 -0.2912  0.0390 -0.5706
 3456SOL    HW113261   4.715   3.760   2.035  1.0889  1.4538 -2.2817
 3456SOL    HW213262   4.659   3.852   2.141  0.8839 -0.6799 -0.4686
 3457SOL     OW13263   0.640   1.269   0.662 -0.1673 -0.3382 -0.0407
 3457SOL    HW113264   0.651   1.340   0.599 -0.4747 -0.0911  0.1755
 3457SOL    HW213265   0.658   1.190   0.612  0.1719 -0.1101 -0.2882
 3458SOL     OW13266   5.882   1.593  10.302 -0.5592  0.0782  0.0613
 3458SOL    HW113267   5.973   1.613  10.324 -0.0417 -1.8602 -0.1354
 3458SOL    HW213268   5.830   1.657  10.350  0.8786  0.7609  0.7358
 3459SOL     OW13269   6.266   7.491   8.338 -0.2875  0.1428 -0.2099
 3459SOL    HW113270   6.300   7.540   8.413  0.9639 -0.0888 -0.6050
 3459SOL    HW213271   6.310   7.530   8.262 -1.4359  0.2807 -0.8290
 3460SOL     OW13272   6.724   8.924   4.588  0.6307  0.2311  0.4457
 3460SOL    HW113273   6.642   8.878   4.602  1.4085 -2.0507 -1.7575
 3460SOL    HW213274   6.754   8.947   4.676 -0.8294 -1.7044  1.5215
 3461SOL     OW13275   3.600   9.506   5.080  0.4251  0.1709 -0.0650
 3461SOL    HW113276   3.513   9.501   5.119  1.3222 -0.9170  1.9354
 3461SOL    HW213277   3.643   9.578   5.125  0.5123  0.8916 -1.2471
 3462SOL     OW13278   1.092   8.195   5.917 -0.3349 -0.3176 -0.0429
 3462SOL    HW113279   1.110   8.219   5.826  0.0560 -0.3590  0.0229
 3462SOL    HW213280   1.034   8.264   5.948 -0.7580 -0.4943 -0.4279
 3463SOL     OW13281   0.146   0.953   7.959  0.3727 -0.1771  0.6398
 3463SOL    HW113282   0.117   1.045   7.962  0.2684 -0.2339  1.4160
 3463SOL    HW213283   0.075   0.908   7.913  0.1717  0.0350  0.7373
 3464SOL     OW13284   3.843   8.778   1.627 -0.1837  0.1152 -0.6785
 3464SOL    HW113285   3.748   8.781   1.629 -0.1506  0.6867  0.4842
 3464SOL    HW213286   3.869   8.863   1.592 -0.0869 -0.1515 -1.2850
 3465SOL     OW13287   2.747   0.354   0.087 -0.1799 -0.2760 -0.0995
 3465SOL    HW113288   2.714   0.428   0.139  0.2498 -0.1444 -0.0154
 3465SOL    HW213289   2.683   0.345   0.016  0.6234  1.2565 -1.0925
 3466SOL     OW13290   6.133   6.959   5.790 -0.0014 -0.3530  0.4014
 3466SOL    HW113291   6.064   6.942   5.854 -0.6366 -1.7405 -0.5862
 3466SOL    HW213292   6.095   7.023   5.730 -0.4335 -1.0306 -0.0757
 3467SOL     OW13293  10.334   3.296   1.284 -0.0455 -0.2575 -0.3615
 3467SOL    HW113294  10.396   3.266   1.350  1.4642  1.0705 -1.0926
 3467SOL    HW213295  10.276   3.222   1.269 -0.9455 -0.3543  2.9860
 3468SOL     OW13296   1.857   7.418   6.655 -0.3441 -0.1365 -0.0491
 3468SOL    HW113297   1.915   7.392   6.726 -0.5907  1.2447  0.6812
 3468SOL    HW213298   1.912   7.471   6.597 -0.8549  1.1830  0.6490
 3469SOL     OW13299   2.897   2.732   0.513 -0.1592  0.1433  0.5896
 3469SOL    HW113300   2.813   2.777   0.509 -0.4613 -0.4517 -0.0480
 3469SOL    HW213301   2.900   2.680   0.432 -0.1730 -1.5963  1.6733
 3470SOL     OW13302   2.300   2.847   6.565 -0.1697 -0.4834  0.3853
 3470SOL    HW113303   2.274   2.808   6.482  0.1118  2.8685 -1.4699
 3470SOL    HW213304   2.218   2.860   6.613 -0.6849  0.0820 -0.6283
 3471SOL     OW13305   6.135   7.686   1.852 -0.5167 -0.1619 -0.0490
 3471SOL    HW113306   6.129   7.747   1.925  0.8141  0.0268 -0.0727
 3471SOL    HW213307   6.162   7.603   1.891  0.0967 -0.0873 -0.2956
 3472SOL     OW13308   0.578   5.673   1.381  0.2336  0.0964 -0.4564
 3472SOL    HW113309   0.495   5.666   1.334  0.5912 -0.3024 -1.0529
 3472SOL    HW213310   0.640   5.704   1.315  1.3125 -2.8492 -0.9713
 3473SOL     OW13311   3.708   8.203   5.892  0.0393 -0.6737  0.2214
 3473SOL    HW113312   3.772   8.211   5.964  1.0291 -0.2080 -0.6827
 3473SOL    HW213313   3.694   8.108   5.884  0.2903 -0.7586  0.7049
 3474SOL     OW13314   0.307   1.539   0.645 -0.2708  0.0451  0.4269
 3474SOL    HW113315   0.354   1.522   0.564  0.2950 -0.3285  0.8263
 3474SOL    HW213316   0.276   1.453   0.674  0.8582 -0.0449  1.4009
 3475SOL     OW13317   1.441   5.886   1.994 -0.6939  0.4106  0.5465
 3475SOL    HW113318   1.412   5.977   1.985 -0.3339  0.3837 -1.3440
 3475SOL    HW213319   1.508   5.888   2.062  0.9250  2.0000 -0.9918
 3476SOL     OW13320   2.397   9.462   6.137  0.0948  0.3228  0.1709
 3476SOL    HW113321   2.473   9.428   6.091  0.3275 -1.0574  1.5177
 3476SOL    HW213322   2.376   9.396   6.202 -2.6646  0.3508 -0.5473
 3477SOL     OW13323  10.420   9.595   5.212  0.0482 -0.2445 -0.3587
 3477SOL    HW113324  10.441   9.502   5.215 -1.3069 -0.5510  0.2041
 3477SOL    HW213325  10.329   9.600   5.239  0.5473  1.3919  1.2537
 3478SOL     OW13326   4.537   1.127   9.228  1.0679  0.0497  0.3066
 3478SOL    HW113327   4.513   1.129   9.136  1.7794 -0.0007  0.1162
 3478SOL    HW213328   4.585   1.208   9.243 -1.0202  1.1959  1.2052
 3479SOL     OW13329   0.029   7.644   9.774  0.0207 -0.3939  0.2401
 3479SOL    HW113330   0.068   7.721   9.816 -0.9409 -1.3089  3.0403
 3479SOL    HW213331  -0.058   7.673   9.746 -0.0134 -0.2407  0.5039
 3480SOL     OW13332   2.392   7.290  10.391  0.3633  0.2373 -0.3451
 3480SOL    HW113333   2.474   7.266  10.347  0.6776  0.7513 -0.0454
 3480SOL    HW213334   2.377   7.381  10.364  0.7089  0.6563  0.8295
 3481SOL     OW13335   3.286  10.274   0.156 -0.0741  0.2024 -0.0996
 3481SOL    HW113336   3.240  10.343   0.108 -1.1155 -0.5406 -0.1937
 3481SOL    HW213337   3.221  10.204   0.167 -1.0595  1.5009  5.1736
 3482SOL     OW13338   2.670   7.396   0.773 -0.5353  0.0214 -0.5880
 3482SOL    HW113339   2.720   7.474   0.749  0.4481 -0.5580 -0.4894
 3482SOL    HW213340   2.588   7.403   0.725  1.0419 -0.7498 -3.6048
 3483SOL     OW13341   3.010   0.461   8.526 -0.1332 -0.3725  0.2498
 3483SOL    HW113342   2.952   0.537   8.517  0.1873  0.0401  1.4382
 3483SOL    HW213343   2.966   0.391   8.477 -0.8653  0.3444 -0.1333
 3484SOL     OW13344   4.766   3.930   0.128 -0.1762  0.4325 -0.1522
 3484SOL    HW113345   4.672   3.932   0.110 -0.2682 -0.4756  0.1542
 3484SOL    HW213346   4.799   3.860   0.072  0.3406  0.8401 -0.3578
 3485SOL     OW13347   0.181   9.411   6.960  0.0279  0.1240  0.9143
 3485SOL    HW113348   0.267   9.451   6.953  1.0433 -1.5038  3.1873
 3485SOL    HW213349   0.195   9.319   6.941 -1.2235 -0.1871  1.3843
 3486SOL     OW13350   2.185   3.086   7.340  0.0200 -0.2720 -0.4433
 3486SOL    HW113351   2.256   3.125   7.289 -0.1907  1.0505  0.2402
 3486SOL    HW213352   2.217   3.087   7.430 -0.1350 -1.3803 -0.3667
 3487SOL     OW13353   7.740   3.090   8.563 -0.7150 -0.2150 -0.6915
 3487SOL    HW113354   7.705   3.177   8.547  0.3185  0.6096  1.2335
 3487SOL    HW213355   7.781   3.065   8.480 -1.3989  0.9174 -1.3991
 3488SOL     OW13356   3.573   0.115   5.075 -0.2937 -0.0977  0.3176
 3488SOL    HW113357   3.556   0.060   4.998  0.7647 -0.5816  0.4101
 3488SOL    HW213358   3.503   0.094   5.136 -0.2982 -0.8260  0.0649
 3489SOL     OW13359   0.171   3.631  10.096  0.4277 -0.0680 -0.0479
 3489SOL    HW113360   0.091   3.682  10.081  0.4649 -0.2921 -1.0525
 3489SOL    HW213361   0.145   3.565  10.161 -0.2505 -0.2404 -0.4857
 3490SOL     OW13362   2.143   1.630   8.682 -0.1137 -0.1888 -0.2526
 3490SOL    HW113363   2.088   1.656   8.756 -0.8075 -0.5167 -0.6397
 3490SOL    HW213364   2.126   1.697   8.615 -1.1614 -1.0543 -0.8951
 3491SOL     OW13365  10.074  10.392   7.843 -0.4157 -0.0057 -0.0107
 3491SOL    HW113366   9.998  10.439   7.808 -1.0124  1.2855  2.7880
 3491SOL    HW213367  10.038  10.335   7.910  0.7360 -2.1426 -1.1140
 3492SOL     OW13368   3.969   9.086   8.264  0.4285  0.4559 -0.6381
 3492SOL    HW113369   3.915   9.013   8.234 -1.0963  1.4754 -0.4827
 3492SOL    HW213370   3.915   9.164   8.251  1.5737  1.4506  0.2404
 3493SOL     OW13371   7.878   5.192   4.115 -0.4242  0.4797  0.0085
 3493SOL    HW113372   7.840   5.267   4.069 -1.0300 -0.7583 -1.6136
 3493SOL    HW213373   7.830   5.117   4.080  0.4056 -0.6958  1.3385
 3494SOL     OW13374   2.700   1.096   9.144  0.2571  0.5014 -0.0814
 3494SOL    HW113375   2.644   1.050   9.082 -0.7139  1.7586 -0.1774
 3494SOL    HW213376   2.768   1.136   9.090  0.7566 -0.2862 -0.0600
 3495SOL     OW13377   5.123  10.314   5.958  0.3498  0.0867  0.5610
 3495SOL    HW113378   5.125  10.254   6.033  1.5320  1.3222  1.5612
 3495SOL    HW213379   5.051  10.374   5.978 -0.1577 -0.3434  0.0642
 3496SOL     OW13380   1.316   0.467   0.356 -0.2291  0.4246 -0.4005
 3496SOL    HW113381   1.239   0.414   0.378 -0.2956  0.5839 -0.2455
 3496SOL    HW213382   1.386   0.403   0.344 -0.1964  0.3227  0.2630
 3497SOL     OW13383   5.657   5.149   3.910 -0.4052 -0.3697  0.1751
 3497SOL    HW113384   5.618   5.187   3.831 -1.0501 -0.0413  0.6371
 3497SOL    HW213385   5.750   5.142   3.891 -0.0342  2.5686  0.4612
 3498SOL     OW13386   2.053   9.839   5.533  0.0691 -0.1893 -0.6121
 3498SOL    HW113387   1.993   9.911   5.555 -0.4286 -0.6058 -0.5910
 3498SOL    HW213388   2.000   9.760   5.542  0.7952 -0.6161  0.0245
 3499SOL     OW13389   8.128   8.952   7.228  0.0628 -0.1767  0.3339
 3499SOL    HW113390   8.179   9.030   7.248  0.2364 -0.2474  0.1628
 3499SOL    HW213391   8.071   8.978   7.156 -0.1160 -0.1102  0.4970
 3500SOL     OW13392   8.701   2.948   8.945  0.1152  0.0860 -0.1187
 3500SOL    HW113393   8.623   2.970   8.995 -0.2421  0.3014 -0.7546
 3500SOL    HW213394   8.756   2.898   9.006 -0.3377  0.2744  0.4553
 3501SOL     OW13395  10.175   0.871  10.552  0.5208 -0.0350 -0.2111
 3501SOL    HW113396  10.257   0.905  10.587  0.0346  0.8640  0.0730
 3501SOL    HW213397  10.129   0.948  10.518  0.0791 -0.6157 -0.9643
 3502SOL     OW13398   0.428   5.341   5.427  0.0859  0.0629  0.3369
 3502SOL    HW113399   0.489   5.387   5.484  0.4359 -0.3688  0.3231
 3502SOL    HW213400   0.362   5.406   5.404  1.8979  1.3072 -1.6859
 3503SOL     OW13401   1.390   1.869   3.721  0.0109  0.0065  0.4782
 3503SOL    HW113402   1.384   1.774   3.735  0.4355  0.2170  2.3921
 3503SOL    HW213403   1.302   1.901   3.735 -0.0688 -0.0699  0.1528
 3504SOL     OW13404   8.117   7.227   2.386 -0.0946  0.1678  0.0240
 3504SOL    HW113405   8.093   7.317   2.406  0.7072  0.7863 -1.6669
 3504SOL    HW213406   8.213   7.226   2.389 -0.0935 -0.6162 -0.0175
 3505SOL     OW13407   9.089   0.391   0.950 -0.6464 -0.3502  0.6875
 3505SOL    HW113408   9.096   0.469   1.006  1.1548 -0.8417  1.2150
 3505SOL    HW213409   9.022   0.414   0.885  0.5052  2.0309  0.2252
 3506SOL     OW13410  10.534   6.524   0.360 -0.6634 -0.2255 -0.0511
 3506SOL    HW113411  10.507   6.436   0.388 -1.8914 -0.3421 -1.4816
 3506SOL    HW213412  10.566   6.512   0.270 -0.7087  0.7612 -0.2087
 3507SOL     OW13413   6.820   7.245   6.891  0.0278  0.6568 -0.5389
 3507SOL    HW113414   6.746   7.247   6.951 -0.0448 -2.4966 -0.3231
 3507SOL    HW213415   6.890   7.292   6.937  0.2277 -2.2856  2.5540
 3508SOL     OW13416   1.343   7.895   0.788  0.0688  0.2065  0.0647
 3508SOL    HW113417   1.400   7.901   0.712  1.1451  0.9447  0.9053
 3508SOL    HW213418   1.390   7.940   0.858 -0.2062 -1.7006  1.5701
 3509SOL     OW13419   0.886   2.817   8.035 -0.3265  0.0258  0.2517
 3509SOL    HW113420   0.890   2.735   7.985 -1.2185 -0.1907  0.5238
 3509SOL    HW213421   0.935   2.879   7.981 -0.6995 -0.3761 -0.5706
 3510SOL     OW13422  10.419   5.869   5.070  0.2549  0.3478 -0.3688
 3510SOL    HW113423  10.340   5.909   5.106 -0.2487 -1.2790  0.3918
 3510SOL    HW213424  10.390   5.785   5.035  1.9483 -1.1568  1.6384
 3511SOL     OW13425  10.606   7.363   1.857  0.0813 -0.0176  0.3961
 3511SOL    HW113426  10.655   7.444   1.867  0.8094 -0.5851  1.5850
 3511SOL    HW213427  10.616   7.318   1.940 -2.1631 -0.3390  0.5537
 3512SOL     OW13428   1.002   5.154  10.677 -0.7183  0.0852 -0.7947
 3512SOL    HW113429   0.981   5.247  10.687 -0.4707  0.0290  0.4743
 3512SOL    HW213430   1.062   5.136  10.749 -1.6122 -1.3043 -0.3605
 3513SOL     OW13431   0.095   9.053   6.685  0.6843 -0.3125 -0.2859
 3513SOL    HW113432   0.108   9.134   6.636  0.7299  0.3350  0.7689
 3513SOL    HW213433   0.076   8.987   6.618  1.5369  0.3767 -1.2324
 3514SOL     OW13434   5.672   1.543   2.527  0.6060  0.6106 -0.0380
 3514SOL    HW113435   5.609   1.497   2.582  0.8104  1.8437  1.2820
 3514SOL    HW213436   5.727   1.474   2.491 -0.5017 -0.3543  0.0456
 3515SOL     OW13437   3.525   1.766   2.195 -0.5638  0.5015  0.3564
 3515SOL    HW113438   3.524   1.750   2.101 -0.2156 -0.3234  0.4791
 3515SOL    HW213439   3.532   1.861   2.204  1.1731  0.4908 -0.4731
 3516SOL     OW13440  10.766   8.620   4.201 -0.1124 -0.6198 -0.0693
 3516SOL    HW113441  10.724   8.604   4.117  1.8276  1.8989 -1.6527
 3516SOL    HW213442  10.749   8.713   4.219  0.8400 -0.7212  1.5576
 3517SOL     OW13443   5.194   2.971   6.496  0.1800  0.1323 -0.1929
 3517SOL    HW113444   5.117   2.959   6.441  1.0638  0.7558 -1.6101
 3517SOL    HW213445   5.227   3.058   6.472  1.2823 -0.0887  0.4641
 3518SOL     OW13446   0.840   3.990   5.988  0.4873 -0.3223 -0.3094
 3518SOL    HW113447   0.892   3.989   5.908  1.6696  0.6090  0.4091
 3518SOL    HW213448   0.885   4.052   6.046 -0.1444 -1.1905  1.1968
 3519SOL     OW13449   4.368  10.115   4.016  0.1561 -0.3543  0.3764
 3519SOL    HW113450   4.429  10.043   4.034  0.1932 -0.2169  0.7951
 3519SOL    HW213451   4.285  10.086   4.053  0.1257 -0.2567  0.3830
 3520SOL     OW13452   8.334   4.433   2.383  0.1652 -0.8771  0.2412
 3520SOL    HW113453   8.243   4.446   2.354  0.1222 -1.2115  0.2244
 3520SOL    HW213454   8.353   4.342   2.361  0.0009 -1.2671  1.6030
 3521SOL     OW13455   9.903   7.722   4.475 -0.1429  0.5632  0.3304
 3521SOL    HW113456   9.924   7.775   4.552  1.0807  0.2656  0.2111
 3521SOL    HW213457   9.883   7.635   4.510  1.9090  0.0083  0.2329
 3522SOL     OW13458   2.553   8.239   5.826 -0.0871 -0.5879  0.0275
 3522SOL    HW113459   2.608   8.170   5.788  1.8123  0.0110  1.4711
 3522SOL    HW213460   2.467   8.199   5.835  0.2843 -1.8711 -1.5808
 3523SOL     OW13461   5.858   7.352   2.940 -0.1714 -0.5250 -0.0458
 3523SOL    HW113462   5.842   7.258   2.951  2.6641 -1.1754 -0.8110
 3523SOL    HW213463   5.836   7.390   3.026 -3.3814 -1.4596 -0.3044
 3524SOL     OW13464   3.301   3.911   6.017  0.2928 -0.0723  0.2830
 3524SOL    HW113465   3.385   3.932   6.057  0.8421 -0.6148 -0.5403
 3524SOL    HW213466   3.276   3.826   6.054 -0.4396  0.5856  1.3405
 3525SOL     OW13467   7.767   1.758   9.814  0.1212  0.3181 -0.0603
 3525SOL    HW113468   7.852   1.776   9.856  0.6812 -1.1550 -0.5158
 3525SOL    HW213469   7.728   1.689   9.868 -1.5747  2.0725  1.1210
 3526SOL     OW13470   2.867   0.002   0.348  0.0175 -0.0818  0.0848
 3526SOL    HW113471   2.848   0.001   0.254 -2.5633 -0.7801  0.5378
 3526SOL    HW213472   2.888  -0.088   0.369 -1.7876 -0.4525  0.5245
 3527SOL     OW13473   2.630   1.519   5.670  0.0346 -0.1124 -0.0201
 3527SOL    HW113474   2.555   1.483   5.717 -0.0974  1.2248  0.8497
 3527SOL    HW213475   2.703   1.509   5.731  0.1773  0.2859 -0.1260
 3528SOL     OW13476  10.353   6.067   0.741  0.0709 -0.3499 -0.0539
 3528SOL    HW113477  10.422   6.133   0.753 -0.3471  0.3745 -1.4834
 3528SOL    HW213478  10.273   6.110   0.772  0.3600 -1.5657  2.6356
 3529SOL     OW13479   6.794   9.466  10.664  0.4055 -0.1890  0.0370
 3529SOL    HW113480   6.879   9.498  10.634  0.0466  0.5020 -0.2499
 3529SOL    HW213481   6.792   9.374  10.635  1.1101 -0.2511  0.1734
 3530SOL     OW13482   1.451   0.332   8.648  0.0473 -0.0827 -0.1164
 3530SOL    HW113483   1.376   0.279   8.624 -0.9017  0.7744  0.8587
 3530SOL    HW213484   1.441   0.413   8.598  0.4392 -0.0399 -0.1338
 3531SOL     OW13485   4.258   9.794   5.860  0.7759 -0.4762  0.5580
 3531SOL    HW113486   4.291   9.706   5.877  1.0277 -0.1024  2.0975
 3531SOL    HW213487   4.262   9.802   5.765 -1.6558 -3.0733  0.0769
 3532SOL     OW13488   8.537   7.815   5.525 -0.7059  0.1689  0.6707
 3532SOL    HW113489   8.490   7.875   5.584  1.7551  1.5801  1.3416
 3532SOL    HW213490   8.516   7.728   5.558 -2.8600  0.6953  0.8729
 3533SOL     OW13491   7.168   5.775   1.020 -0.3271 -0.3650  0.1311
 3533SOL    HW113492   7.139   5.839   1.085 -0.9385  0.8534 -1.2868
 3533SOL    HW213493   7.262   5.791   1.011  0.0779 -1.5457  1.7363
 3534SOL     OW13494   9.237   8.748   6.375 -0.0494 -0.0015 -0.0086
 3534SOL    HW113495   9.229   8.690   6.299  1.7058 -2.7848  1.7495
 3534SOL    HW213496   9.157   8.731   6.426  0.1652 -0.4449  0.1903
 3535SOL     OW13497  10.221   8.881   8.936  0.7546 -0.5504 -0.1349
 3535SOL    HW113498  10.290   8.857   8.997  0.2800 -0.9395  0.2526
 3535SOL    HW213499  10.217   8.977   8.940  0.3487 -0.6061  0.8627
 3536SOL     OW13500   9.337   3.273  10.692  0.0668 -0.5492 -0.0927
 3536SOL    HW113501   9.260   3.228  10.726 -0.6302  0.2137 -0.6202
 3536SOL    HW213502   9.405   3.206  10.688 -0.9923 -1.6064 -1.0117
 3537SOL     OW13503   8.696   3.854   3.007  0.0269  0.2929  0.1160
 3537SOL    HW113504   8.776   3.866   2.955  0.3937 -0.5827  0.4644
 3537SOL    HW213505   8.720   3.887   3.094 -0.3760  1.1384 -0.0843
 3538SOL     OW13506   4.373   7.656   4.494 -0.1550  0.0314 -0.0913
 3538SOL    HW113507   4.330   7.604   4.561  0.2081  1.5888  1.4198
 3538SOL    HW213508   4.353   7.611   4.412  0.2673 -2.5406  1.1180
 3539SOL     OW13509   9.308   5.644   3.814  0.3578  0.6148 -0.2897
 3539SOL    HW113510   9.277   5.666   3.902 -1.6878  0.8732 -1.0145
 3539SOL    HW213511   9.257   5.567   3.790  0.4889  0.8753 -1.4411
 3540SOL     OW13512   6.282   3.417   8.853  0.0362  0.1693  0.0665
 3540SOL    HW113513   6.207   3.361   8.833 -0.2440  0.5114  0.1567
 3540SOL    HW213514   6.267   3.446   8.943  0.3583  0.1060  0.1408
 3541SOL     OW13515   6.910   1.084   7.887  0.4193 -0.0174 -0.1681
 3541SOL    HW113516   6.913   0.990   7.870  2.0014  0.4571 -3.1435
 3541SOL    HW213517   6.999   1.106   7.915  0.5842  0.8503 -1.3163
 3542SOL     OW13518   3.166   0.182   6.844  0.1836 -0.1665 -0.4223
 3542SOL    HW113519   3.143   0.119   6.913 -1.5062  1.5607  0.6818
 3542SOL    HW213520   3.129   0.265   6.874  3.6827  1.8078 -1.0072
 3543SOL     OW13521   3.218   0.539  10.778  0.2205  0.2475  0.4507
 3543SOL    HW113522   3.199   0.536  10.684 -0.9806  2.1320  0.5731
 3543SOL    HW213523   3.217   0.633  10.799  0.4921 -0.1399  2.3433
 3544SOL     OW13524   6.282   1.699   2.624 -0.2236 -0.6340 -0.4258
 3544SOL    HW113525   6.193   1.715   2.656  0.3769  0.4800  0.7725
 3544SOL    HW213526   6.272   1.629   2.559 -1.9126 -0.8061 -0.0247
 3545SOL     OW13527   3.542   2.788   2.602 -0.1217 -0.0681  0.2440
 3545SOL    HW113528   3.577   2.851   2.539  0.8491  0.8798  1.6551
 3545SOL    HW213529   3.481   2.839   2.655  0.6247 -0.2869  1.3545
 3546SOL     OW13530   0.276   6.373   4.982 -0.1296  0.9154 -0.3583
 3546SOL    HW113531   0.247   6.402   5.068 -0.4481  0.4783 -0.3177
 3546SOL    HW213532   0.338   6.302   5.000 -0.6474  0.4186 -0.4992
 3547SOL     OW13533   9.356   5.939   8.671  0.0121 -0.2183 -0.0344
 3547SOL    HW113534   9.436   5.946   8.618  0.5601 -3.9527  0.0284
 3547SOL    HW213535   9.297   5.887   8.617 -0.4555 -1.7637  1.8671
 3548SOL     OW13536   3.122   9.879   2.323 -0.5028  0.0456 -0.4359
 3548SOL    HW113537   3.169   9.938   2.264 -1.4085  1.0153 -0.2396
 3548SOL    HW213538   3.176   9.801   2.328  1.9725  1.7194  1.1238
 3549SOL     OW13539   0.263   3.052   8.406  0.1345  0.3137  0.3358
 3549SOL    HW113540   0.269   2.957   8.395  1.2423  0.3520  0.4959
 3549SOL    HW213541   0.190   3.078   8.349 -0.0407 -0.6012  0.1221
 3550SOL     OW13542   7.206   5.455   3.981  1.2269  0.1419  0.5798
 3550SOL    HW113543   7.126   5.506   3.982  0.5985 -0.8117  0.5572
 3550SOL    HW213544   7.251   5.479   4.063  1.5349  1.5834  0.0197
 3551SOL     OW13545   0.924   8.526   0.965  0.2385  0.4635  0.4388
 3551SOL    HW113546   0.857   8.502   0.901 -0.1427 -1.5622  1.5187
 3551SOL    HW213547   0.899   8.614   0.993 -2.0791 -0.2468  0.8475
 3552SOL     OW13548   5.472   1.999   9.836  0.3581  0.0718 -0.2187
 3552SOL    HW113549   5.489   2.081   9.883  0.5695  0.0053 -0.1755
 3552SOL    HW213550   5.540   1.996   9.769  1.2560 -0.7676  0.6970
 3553SOL     OW13551   7.641   8.161   3.920 -0.6722 -0.5551  0.3532
 3553SOL    HW113552   7.682   8.238   3.882  0.2992 -0.7576  0.9732
 3553SOL    HW213553   7.629   8.100   3.847  0.6942 -0.7352  0.2675
 3554SOL     OW13554   5.449   7.411   6.053 -0.2328  0.1557  0.0565
 3554SOL    HW113555   5.542   7.391   6.044 -0.6827 -2.1302 -0.1905
 3554SOL    HW213556   5.430   7.395   6.146 -0.7316 -1.3778 -0.2708
 3555SOL     OW13557   0.814   3.265   9.580  0.2439 -0.0938 -0.3110
 3555SOL    HW113558   0.897   3.280   9.535 -0.5604  0.7367 -1.5512
 3555SOL    HW213559   0.768   3.202   9.525 -0.2216 -0.0732  0.0494
 3556SOL     OW13560   0.037   3.846   6.556  0.2375  0.0295  0.2035
 3556SOL    HW113561   0.034   3.872   6.648  1.0038 -1.7766  0.7695
 3556SOL    HW213562   0.122   3.877   6.525 -0.0183  0.6319  0.0829
 3557SOL     OW13563   0.686   6.988   4.042 -0.5584 -0.3990  0.0204
 3557SOL    HW113564   0.621   7.039   3.994 -1.5361  1.1116  2.7223
 3557SOL    HW213565   0.761   7.047   4.049 -1.4107  0.5089  2.5011
 3558SOL     OW13566   4.802   3.813   9.560 -0.0945  0.1224 -0.6696
 3558SOL    HW113567   4.743   3.882   9.529 -0.2906  0.3235  0.1409
 3558SOL    HW213568   4.758   3.732   9.534  0.2340  0.2876 -1.8082
 3559SOL     OW13569   6.501   6.906   1.611  0.3841 -0.0860  0.3483
 3559SOL    HW113570   6.433   6.850   1.650 -1.4248  1.0567 -0.9860
 3559SOL    HW213571   6.576   6.848   1.598 -1.2676 -2.1238 -0.6500
 3560SOL     OW13572   9.463   7.900   7.557 -0.2337  0.3038  0.4491
 3560SOL    HW113573   9.452   7.841   7.632  0.2366  1.3949  1.4122
 3560SOL    HW213574   9.375   7.931   7.538 -1.0716 -3.0820 -2.1754
 3561SOL     OW13575   9.169   4.052   3.135  0.1476  0.5444 -0.1696
 3561SOL    HW113576   9.087   4.096   3.157 -0.2523 -1.3132  2.5423
 3561SOL    HW213577   9.213   4.039   3.219  2.1236 -0.5861 -1.2996
 3562SOL     OW13578   2.115   1.493   8.096  0.1306  0.7161 -0.3894
 3562SOL    HW113579   2.097   1.584   8.072  0.3530  0.8768  0.0358
 3562SOL    HW213580   2.032   1.460   8.130 -0.4401  0.2136 -2.1504
 3563SOL     OW13581   1.134   6.416   0.776 -0.3080  0.2258 -0.8459
 3563SOL    HW113582   1.210   6.423   0.833 -0.7136  0.5874 -0.3323
 3563SOL    HW213583   1.095   6.504   0.777 -0.7331  0.0466 -1.0999
 3564SOL     OW13584   4.431   9.194   4.738  0.2659  0.1941 -0.3172
 3564SOL    HW113585   4.390   9.252   4.802 -0.9556  0.5692 -1.4133
 3564SOL    HW213586   4.376   9.115   4.739  0.8921 -0.2512 -0.1205
 3565SOL     OW13587   6.462   8.749   0.218  0.1220 -0.0222 -0.4888
 3565SOL    HW113588   6.374   8.786   0.220  0.3359  0.4712 -0.2141
 3565SOL    HW213589   6.476   8.727   0.125 -1.0407 -1.9573 -0.2763
 3566SOL     OW13590   8.277   4.241  10.125  0.0202 -0.2983  0.0980
 3566SOL    HW113591   8.319   4.327  10.119  0.4461 -0.5786 -1.1655
 3566SOL    HW213592   8.339   4.180  10.085 -1.7252 -0.6505 -2.2612
 3567SOL     OW13593   1.281   8.314   8.811 -0.2163  0.5946  0.4013
 3567SOL    HW113594   1.310   8.343   8.897 -0.2898  0.3808  0.4977
 3567SOL    HW213595   1.361   8.305   8.760 -0.1847  0.8677  0.4020
 3568SOL     OW13596   9.039   0.975   1.704  0.1123 -0.6826  0.2679
 3568SOL    HW113597   9.096   0.991   1.780  0.2184  2.3759 -0.3463
 3568SOL    HW213598   8.953   1.005   1.732 -0.0986 -0.6267 -0.4289
 3569SOL     OW13599   9.975  10.604   5.900 -0.6973  0.4261  0.4764
 3569SOL    HW113600   9.956  10.664   5.973  0.7939  0.6234  0.7376
 3569SOL    HW213601   9.993  10.520   5.942 -0.9047  0.2699  0.2523
 3570SOL     OW13602   7.933   3.336   1.531 -0.1368 -0.0410 -0.1609
 3570SOL    HW113603   7.839   3.321   1.534 -0.1756 -0.2675 -1.6361
 3570SOL    HW213604   7.943   3.408   1.469  0.7110 -0.5636 -0.6475
 3571SOL     OW13605   4.215   2.709  10.029 -0.0612 -0.5938 -0.3793
 3571SOL    HW113606   4.175   2.696  10.115  0.7354 -0.4326  0.0283
 3571SOL    HW213607   4.167   2.782   9.991 -0.2390 -0.4844  0.0471
 3572SOL     OW13608   3.525   9.315   1.402  0.2101 -0.7700  0.8807
 3572SOL    HW113609   3.555   9.258   1.473  0.2467 -0.0131  1.4873
 3572SOL    HW213610   3.451   9.268   1.362 -0.0506 -1.0313  1.6600
 3573SOL     OW13611   8.632  10.665   0.307  0.0967  0.3503 -0.1549
 3573SOL    HW113612   8.548  10.627   0.281  0.3646  0.1840 -0.7926
 3573SOL    HW213613   8.694  10.592   0.301  0.3514  0.5536 -0.0290
 3574SOL     OW13614   5.307   6.829   6.066 -0.2796 -0.3802  0.1292
 3574SOL    HW113615   5.246   6.887   6.020  2.0004  0.2494 -2.3504
 3574SOL    HW213616   5.284   6.741   6.037 -0.3339 -0.2000 -0.3722
 3575SOL     OW13617   1.690  10.627   8.620  0.2948 -0.3299 -0.0389
 3575SOL    HW113618   1.628  10.555   8.633  1.3716 -1.3403 -0.2567
 3575SOL    HW213619   1.717  10.651   8.708  1.3019 -1.4727 -0.0048
 3576SOL     OW13620   2.759   8.709   2.987  0.1410  0.1493  0.6432
 3576SOL    HW113621   2.764   8.726   2.893  1.1261 -0.0258  0.6548
 3576SOL    HW213622   2.670   8.735   3.011 -0.6111 -1.1092 -0.6005
 3577SOL     OW13623   5.112   9.231   1.177  0.9556 -0.2023  0.0125
 3577SOL    HW113624   5.078   9.220   1.266  3.1642  0.3023  0.9924
 3577SOL    HW213625   5.125   9.142   1.145  1.4762 -0.4148  0.7804
 3578SOL     OW13626   1.982   7.525   5.194 -0.2781 -0.8909 -0.3177
 3578SOL    HW113627   1.939   7.595   5.143 -0.3868 -0.0040  0.9461
 3578SOL    HW213628   2.072   7.525   5.162 -0.2300 -0.0370 -0.2247
 3579SOL     OW13629   3.057   9.852   9.324 -0.0828 -0.0662  0.2997
 3579SOL    HW113630   3.004   9.834   9.401 -1.1184  0.4111 -0.2780
 3579SOL    HW213631   3.136   9.798   9.336 -0.4351 -0.3529  1.4484
 3580SOL     OW13632   8.535   2.204   1.372  0.2590  0.3072 -0.2922
 3580SOL    HW113633   8.475   2.130   1.363 -0.0445  0.3136  1.4260
 3580SOL    HW213634   8.527   2.231   1.463  1.5810  1.4292 -0.4726
 3581SOL     OW13635   3.225   0.076   4.096  0.2461  0.1200 -0.2420
 3581SOL    HW113636   3.295   0.022   4.132  0.2058  0.7448  0.7993
 3581SOL    HW213637   3.227   0.156   4.147 -0.0572  0.8982 -1.3984
 3582SOL     OW13638   9.194   8.055   8.485 -0.1467 -0.0590  0.1631
 3582SOL    HW113639   9.108   8.096   8.489 -0.0359  0.1755  0.1991
 3582SOL    HW213640   9.246   8.112   8.429  0.0647 -0.0431  0.3680
 3583SOL     OW13641   1.804   3.572   0.696  0.2284  0.1277  0.6137
 3583SOL    HW113642   1.837   3.523   0.771 -1.0080  0.0930  1.1517
 3583SOL    HW213643   1.735   3.517   0.659  2.4086 -1.0488 -2.1147
 3584SOL     OW13644   3.301   2.554   7.011 -0.0208 -0.1347  0.1321
 3584SOL    HW113645   3.234   2.607   6.967 -2.1494 -1.3336  1.7380
 3584SOL    HW213646   3.288   2.466   6.977 -0.2168 -0.6446  1.4585
 3585SOL     OW13647   6.740   1.289   7.010 -0.5792 -0.6288 -0.0778
 3585SOL    HW113648   6.810   1.229   6.986  0.4680  1.0482 -1.5012
 3585SOL    HW213649   6.659   1.244   6.985 -0.0358 -2.5163  1.4121
 3586SOL     OW13650   3.289   4.213   2.875  0.4252 -0.4923 -0.4264
 3586SOL    HW113651   3.224   4.153   2.839  0.5457 -2.5843  2.5132
 3586SOL    HW213652   3.244   4.255   2.949  2.0812 -1.4083  1.1848
 3587SOL     OW13653   7.366   6.825   9.319  0.1823 -0.1943  0.6075
 3587SOL    HW113654   7.310   6.900   9.338 -0.7682 -0.7124 -0.0658
 3587SOL    HW213655   7.442   6.837   9.376 -0.9603  0.1156  2.1218
 3588SOL     OW13656   2.670   8.758   2.699 -0.4209  0.0722 -0.0010
 3588SOL    HW113657   2.698   8.697   2.630  2.8366  1.5129 -0.1734
 3588SOL    HW213658   2.579   8.777   2.680 -0.1888 -1.1236 -2.7299
 3589SOL     OW13659   4.111   0.539   5.224 -1.1216  0.0135 -0.0930
 3589SOL    HW113660   4.177   0.608   5.235 -0.8025 -0.4306  0.9989
 3589SOL    HW213661   4.133   0.499   5.140 -0.7790  0.6816 -0.3350
 3590SOL     OW13662   0.481   6.769   9.288 -0.6703 -0.2371 -0.1367
 3590SOL    HW113663   0.418   6.742   9.221  0.5202  0.9966 -1.8511
 3590SOL    HW213664   0.565   6.735   9.256 -0.2676 -0.8442  1.4949
 3591SOL     OW13665  10.489   2.109   7.709  0.4239 -0.0503 -0.6832
 3591SOL    HW113666  10.560   2.105   7.773  1.0726  0.3937 -1.3602
 3591SOL    HW213667  10.457   2.020   7.702  0.3782 -0.1122  0.2257
 3592SOL     OW13668   0.587   7.404   7.758  0.5467 -0.9955  0.2117
 3592SOL    HW113669   0.602   7.392   7.664  0.8360 -1.8511  0.3573
 3592SOL    HW213670   0.509   7.460   7.763  1.3239  0.2033 -0.5348
 3593SOL     OW13671   7.849   3.166   7.241  0.0489  0.1624 -0.0709
 3593SOL    HW113672   7.877   3.113   7.166  0.0312  1.8100 -1.3244
 3593SOL    HW213673   7.920   3.157   7.305  0.0930 -1.2332 -0.2925
 3594SOL     OW13674   5.263   5.323   6.146  0.3560  0.1444 -0.0278
 3594SOL    HW113675   5.346   5.299   6.187  1.2130  1.3330 -0.9933
 3594SOL    HW213676   5.270   5.417   6.131 -0.7057  0.0659 -1.1629
 3595SOL     OW13677   7.377   3.244   0.850  0.1289  0.2810 -0.2721
 3595SOL    HW113678   7.396   3.333   0.820  1.5946  0.1553  0.1921
 3595SOL    HW213679   7.411   3.187   0.781 -1.0246  0.0665 -0.6806
 3596SOL     OW13680   3.525   4.215   0.248 -0.2717 -0.5557  0.0170
 3596SOL    HW113681   3.598   4.245   0.192 -0.8091  0.2074 -0.2981
 3596SOL    HW213682   3.487   4.296   0.282 -2.1703 -0.8215 -1.3507
 3597SOL     OW13683   0.797   9.811   4.606  0.5935  0.6111 -0.3490
 3597SOL    HW113684   0.717   9.856   4.634  1.5893  0.8344  2.5102
 3597SOL    HW213685   0.776   9.718   4.610  0.5456  0.6601  0.7421
 3598SOL     OW13686   8.352   4.073   3.674 -0.8181 -0.0358  0.4134
 3598SOL    HW113687   8.391   4.160   3.687  0.2108 -0.4892  0.4619
 3598SOL    HW213688   8.323   4.046   3.761  0.3771 -0.4282  0.7089
 3599SOL     OW13689  10.036   3.401   0.876 -0.3670  0.1393  0.5931
 3599SOL    HW113690   9.948   3.437   0.890 -1.0501 -1.3563  0.4125
 3599SOL    HW213691  10.029   3.352   0.794  0.3171 -0.9287  1.1500
 3600SOL     OW13692  10.230   1.842   8.362 -0.3243 -0.1682  0.7843
 3600SOL    HW113693  10.238   1.813   8.453 -2.3016 -2.6248  0.2794
 3600SOL    HW213694  10.138   1.866   8.353 -0.5987 -1.7205 -1.0111
 3601SOL     OW13695   9.451   3.937   8.659 -0.2386 -0.8022  0.4283
 3601SOL    HW113696   9.523   3.900   8.711 -0.3369 -0.0400  1.1202
 3601SOL    HW213697   9.494   4.002   8.603  0.2470 -3.1435 -2.1578
 3602SOL     OW13698   2.770   6.526   0.796  0.0239  0.3649  0.6644
 3602SOL    HW113699   2.826   6.542   0.872 -0.0719 -1.2889  1.1341
 3602SOL    HW213700   2.723   6.445   0.818 -1.1477  0.6799 -0.5173
 3603SOL     OW13701   6.239   5.095   7.620 -0.0260  0.0265  0.7388
 3603SOL    HW113702   6.228   5.030   7.690 -0.4162  0.5102  1.1373
 3603SOL    HW213703   6.163   5.153   7.630  0.7195  1.0003  0.8871
 3604SOL     OW13704   2.962   9.085   5.115  0.0408 -0.9952 -0.6021
 3604SOL    HW113705   2.969   9.023   5.043 -0.8709 -1.5986 -0.1922
 3604SOL    HW213706   2.881   9.133   5.098 -0.5033 -1.5587  0.3139
 3605SOL     OW13707   9.560   9.731   6.084 -0.1240  0.0420 -0.0701
 3605SOL    HW113708   9.477   9.777   6.071  0.0617  1.1345  2.0195
 3605SOL    HW213709   9.627   9.795   6.059  0.1460 -0.9196 -1.9874
 3606SOL     OW13710   3.946   9.349   9.474  0.5747  0.0750  0.3073
 3606SOL    HW113711   3.885   9.286   9.512  0.7007  0.8184  1.8375
 3606SOL    HW213712   4.032   9.320   9.505  0.6436  0.9165  0.9163
 3607SOL     OW13713   4.690   9.068   1.501 -0.3102  0.0703 -0.3602
 3607SOL    HW113714   4.722   9.028   1.582 -0.2603 -0.1996 -0.5098
 3607SOL    HW213715   4.660   8.993   1.449 -0.8466  0.2888 -0.3689
 3608SOL     OW13716   0.982   7.229   6.448 -0.4078 -0.2154 -0.2641
 3608SOL    HW113717   0.969   7.243   6.354  0.4945 -0.8855 -0.5015
 3608SOL    HW213718   1.000   7.317   6.483 -1.9676  0.2224 -0.4837
 3609SOL     OW13719   2.408   1.491   7.980  0.2451 -0.2115 -0.0064
 3609SOL    HW113720   2.381   1.419   7.923 -0.3092  0.7898 -1.0311
 3609SOL    HW213721   2.335   1.502   8.041 -1.0417  1.4194 -1.7465
 3610SOL     OW13722   2.286   1.733   5.067 -0.0283  0.1572 -0.8857
 3610SOL    HW113723   2.348   1.676   5.111 -2.0783 -1.7646 -0.2598
 3610SOL    HW213724   2.205   1.724   5.117 -0.6663  3.1911 -1.1421
 3611SOL     OW13725   6.651   3.402   3.440  0.4334  0.2370  0.1616
 3611SOL    HW113726   6.641   3.377   3.348 -0.8626 -0.7962  0.5596
 3611SOL    HW213727   6.708   3.479   3.438  0.8722 -0.1043 -1.4567
 3612SOL     OW13728   6.335  10.735   1.608  0.1696  0.5099  0.5146
 3612SOL    HW113729   6.361  10.816   1.565 -0.7567 -0.5455 -2.2842
 3612SOL    HW213730   6.273  10.695   1.547 -0.8507 -1.4209  2.6727
 3613SOL     OW13731   3.995   2.576   3.167  0.4848  0.6828 -0.3002
 3613SOL    HW113732   3.906   2.600   3.141  0.1937 -0.9875 -0.9580
 3613SOL    HW213733   4.044   2.575   3.084  0.3845 -1.2626 -0.3825
 3614SOL     OW13734   2.354   5.266   2.922 -0.0791  0.3800  0.7152
 3614SOL    HW113735   2.418   5.301   2.860  0.7888 -0.9502  0.8145
 3614SOL    HW213736   2.337   5.339   2.982 -0.1939  1.3782 -0.4900
 3615SOL     OW13737   1.306   9.082   6.636 -0.8992  1.0891  0.3873
 3615SOL    HW113738   1.349   9.150   6.584  1.5790 -1.9234 -1.9755
 3615SOL    HW213739   1.378   9.038   6.681 -2.4497  0.2503  2.1658
 3616SOL     OW13740   0.258   0.161   2.021  0.1838  0.1893  0.0348
 3616SOL    HW113741   0.333   0.185   2.076 -0.4908 -0.3061  1.2058
 3616SOL    HW213742   0.184   0.155   2.082 -0.3044 -1.7800 -0.6927
 3617SOL     OW13743   4.019   8.332   0.332 -0.6606 -0.5355 -0.0186
 3617SOL    HW113744   3.963   8.278   0.388 -1.7452  1.8316  1.3157
 3617SOL    HW213745   3.961   8.402   0.302  1.0597  0.7813 -0.3676
 3618SOL     OW13746   9.200   1.242   6.370  0.5057 -0.6014 -0.1134
 3618SOL    HW113747   9.129   1.292   6.411  1.2117  0.4314 -0.1018
 3618SOL    HW213748   9.189   1.153   6.403 -0.8672 -0.4969 -0.2357
 3619SOL     OW13749   7.318   2.737   5.771  0.0308  0.4513 -0.3791
 3619SOL    HW113750   7.360   2.821   5.788  0.6386  0.7307 -2.9573
 3619SOL    HW213751   7.247   2.757   5.711  0.6179 -0.9455 -1.6075
 3620SOL     OW13752  10.578   6.801   1.480 -0.0658  0.1676 -0.2970
 3620SOL    HW113753  10.646   6.843   1.427 -0.0216  0.6614  0.1496
 3620SOL    HW213754  10.601   6.822   1.570 -1.6016  1.5646 -0.1853
 3621SOL     OW13755   0.436   3.721   9.524 -0.4618 -0.4688  0.4889
 3621SOL    HW113756   0.529   3.741   9.535 -0.8565  0.6777  2.2343
 3621SOL    HW213757   0.431   3.626   9.537  0.5935 -0.7659 -0.9687
 3622SOL     OW13758   4.983   2.396   4.257 -0.5358 -0.5852 -0.1601
 3622SOL    HW113759   5.038   2.325   4.225  0.1750 -0.1262  0.0113
 3622SOL    HW213760   5.036   2.439   4.324 -0.3693  0.9521 -1.2103
 3623SOL     OW13761  10.756   1.602   4.439 -0.1598  0.4183 -0.2232
 3623SOL    HW113762  10.815   1.668   4.401 -1.9411  1.7785 -0.7467
 3623SOL    HW213763  10.708   1.567   4.364 -1.5870  0.9738  0.3946
 3624SOL     OW13764   2.155   8.850  10.272  0.3241 -0.1817 -0.0055
 3624SOL    HW113765   2.109   8.817  10.349 -0.1999 -0.3146 -0.3676
 3624SOL    HW213766   2.115   8.936  10.256 -0.3354 -0.6140 -0.7602
 3625SOL     OW13767   2.225   9.378   2.554  0.2088  0.3808  0.1281
 3625SOL    HW113768   2.255   9.374   2.645  0.2766 -0.4592  0.0750
 3625SOL    HW213769   2.137   9.415   2.559 -0.0520 -0.2796  0.6116
 3626SOL     OW13770   6.156   2.073  10.678  0.3044 -0.5334 -0.4724
 3626SOL    HW113771   6.183   2.050  10.767 -1.2553 -1.3670 -0.1827
 3626SOL    HW213772   6.099   2.149  10.689 -1.8119 -2.0276 -0.4397
 3627SOL     OW13773   5.192   6.651   8.112  0.0478  0.4832  0.5391
 3627SOL    HW113774   5.207   6.560   8.084 -0.1319  1.5863 -3.7614
 3627SOL    HW213775   5.280   6.687   8.124  0.2546  0.5762 -1.0767
 3628SOL     OW13776   1.288   9.993   0.433  0.0361 -0.0709 -0.2866
 3628SOL    HW113777   1.382  10.009   0.421  0.1073 -1.0988 -1.3177
 3628SOL    HW213778   1.246  10.075   0.409  0.6415  0.2277 -0.3358
 3629SOL     OW13779   1.563   9.503   6.258  0.2361  0.1185  0.3096
 3629SOL    HW113780   1.548   9.412   6.283 -0.0335 -0.1344 -0.7330
 3629SOL    HW213781   1.502   9.519   6.186 -1.0267  1.6786  1.6411
 3630SOL     OW13782   4.626  10.735   9.154  0.0264 -0.1632  0.7098
 3630SOL    HW113783   4.614  10.691   9.070  0.3369  0.1402  0.5051
 3630SOL    HW213784   4.597  10.671   9.219  1.1289 -0.9464  0.4642
 3631SOL     OW13785   5.097   3.843   0.018 -0.6461  0.0950  0.2481
 3631SOL    HW113786   5.101   3.939   0.012  0.2668  0.0629  0.1842
 3631SOL    HW213787   5.067   3.826   0.107 -1.8315  0.4472 -0.0681
 3632SOL     OW13788   4.418   0.022   2.190  0.1424 -0.2889  0.7941
 3632SOL    HW113789   4.403   0.028   2.284 -1.0600  1.0043  0.5427
 3632SOL    HW213790   4.492   0.081   2.174 -0.3097  0.2907  0.8006
 3633SOL     OW13791   5.892   6.278  10.399  0.8491  0.0593  0.4210
 3633SOL    HW113792   5.826   6.286  10.468  1.3369 -0.6455  0.9831
 3633SOL    HW213793   5.864   6.203  10.347  0.0299  1.0824 -0.6813
 3634SOL     OW13794   7.033   8.254   4.188 -0.3077  0.7537  0.2911
 3634SOL    HW113795   7.022   8.311   4.264  1.5272  1.1309  0.3347
 3634SOL    HW213796   7.030   8.165   4.223  0.6369  0.9290  0.8549
 3635SOL     OW13797   3.106   0.387   3.988  0.7192 -0.5625 -0.2025
 3635SOL    HW113798   3.075   0.476   4.003  2.2838  0.5161 -2.7515
 3635SOL    HW213799   3.029   0.338   3.959  0.2623  0.5649 -0.9343
 3636SOL     OW13800   3.223   4.207   8.457  0.3623 -0.2499 -0.4051
 3636SOL    HW113801   3.207   4.125   8.504  0.9193 -1.0770 -1.5769
 3636SOL    HW213802   3.137   4.234   8.425 -0.2115  0.9416  1.9690
 3637SOL     OW13803   1.039   6.256   5.027 -0.0445  0.4214 -0.3486
 3637SOL    HW113804   0.993   6.309   5.092  0.7840  0.9438 -0.1623
 3637SOL    HW213805   1.064   6.176   5.075 -2.0352 -0.5725 -0.8582
 3638SOL     OW13806   8.111   6.415   7.396 -0.1951  0.7472  0.2335
 3638SOL    HW113807   8.080   6.504   7.379 -2.0687 -0.0460 -0.7723
 3638SOL    HW213808   8.103   6.370   7.312  1.5040 -0.1783  0.5227
 3639SOL     OW13809   8.087   1.800   0.412 -0.1083  0.0442  0.0524
 3639SOL    HW113810   8.073   1.839   0.498 -0.2305 -0.7428  0.3976
 3639SOL    HW213811   8.041   1.857   0.351 -0.0742  0.5703  0.5133
 3640SOL     OW13812   7.554   0.600   1.003 -0.2893 -0.0413  0.1707
 3640SOL    HW113813   7.568   0.601   0.908 -0.5719 -1.5252  0.0785
 3640SOL    HW213814   7.498   0.523   1.017  0.3674 -0.2774  1.6198
 3641SOL     OW13815   0.276  10.780   7.936 -0.3299  0.2025  0.5693
 3641SOL    HW113816   0.298  10.772   7.844 -3.3757  1.6668 -0.4344
 3641SOL    HW213817   0.230  10.699   7.957  1.1811 -0.5410  1.1270
 3642SOL     OW13818   8.360   0.947   2.840 -0.3453  0.1225  0.4929
 3642SOL    HW113819   8.416   0.984   2.907 -0.0610  2.6305 -1.0187
 3642SOL    HW213820   8.272   0.977   2.862 -0.3633  0.3162  0.1616
 3643SOL     OW13821   3.106   0.689  10.299  0.5898 -0.2366  0.0063
 3643SOL    HW113822   3.112   0.712  10.207 -2.5049 -0.1282 -0.2686
 3643SOL    HW213823   3.072   0.768  10.342 -0.9867 -1.2211  0.6633
 3644SOL     OW13824   7.586   1.289   7.027  0.0848  0.1223 -0.8213
 3644SOL    HW113825   7.574   1.340   6.947 -0.7095 -0.0310 -0.8014
 3644SOL    HW213826   7.502   1.246   7.042 -0.1531  1.0183  0.7097
 3645SOL     OW13827   3.604  10.059   3.012 -0.2345 -0.2207  1.0053
 3645SOL    HW113828   3.511  10.069   3.033  0.1163 -1.0102  3.1702
 3645SOL    HW213829   3.634  10.148   2.992 -1.3043  0.1259  0.8821
 3646SOL     OW13830   5.207   1.564   1.185 -0.1645 -0.3365  0.2477
 3646SOL    HW113831   5.191   1.473   1.160 -2.7481 -0.2661  1.3490
 3646SOL    HW213832   5.138   1.614   1.142  0.2637  0.8890  0.9244
 3647SOL     OW13833   4.971  10.393   3.758 -0.5478 -0.1325 -0.0127
 3647SOL    HW113834   4.925  10.448   3.821  1.2967  1.3768  0.0924
 3647SOL    HW213835   4.924  10.406   3.676 -0.7617  0.7853  0.2436
 3648SOL     OW13836   6.702   4.622   4.806 -0.0831  0.1052 -0.7903
 3648SOL    HW113837   6.740   4.599   4.721  0.5602  0.9555 -0.7376
 3648SOL    HW213838   6.755   4.695   4.838 -1.7263  1.3205 -0.7118
 3649SOL     OW13839   2.797   2.433   9.699 -0.3461 -0.2980  0.1724
 3649SOL    HW113840   2.845   2.401   9.775  0.5675  1.3653  0.3464
 3649SOL    HW213841   2.763   2.354   9.657  0.9356 -1.3986  1.1184
 3650SOL     OW13842   9.081  10.726   8.053  0.4050 -0.3389  0.3941
 3650SOL    HW113843   9.036  10.731   8.137  0.9314  2.6441  0.6076
 3650SOL    HW213844   9.174  10.732   8.075  0.6063 -0.6372 -0.3421
 3651SOL     OW13845   8.454   7.512   5.668  0.4492 -0.0549  0.3085
 3651SOL    HW113846   8.362   7.488   5.661  0.1143  1.1455  0.4701
 3651SOL    HW213847   8.496   7.466   5.595 -0.6273  1.0202 -1.0245
 3652SOL     OW13848   6.891   4.545   1.602 -0.1305  0.3887 -0.1385
 3652SOL    HW113849   6.956   4.599   1.556 -1.3895  2.3487  0.2786
 3652SOL    HW213850   6.816   4.544   1.543 -0.4037 -0.3101  0.2143
 3653SOL     OW13851   2.085   7.690   9.556  0.2909  0.0051 -0.2167
 3653SOL    HW113852   2.042   7.698   9.641 -0.7951 -0.1490 -0.7213
 3653SOL    HW213853   2.178   7.693   9.575  0.0634 -0.0216  0.9734
 3654SOL     OW13854   2.393   2.541   4.629  0.0854 -0.2336  0.2398
 3654SOL    HW113855   2.443   2.522   4.709 -0.2269 -0.8251  0.3050
 3654SOL    HW213856   2.351   2.458   4.607 -0.9462  0.2670  0.2403
 3655SOL     OW13857   4.223   2.471   2.735 -0.8741 -0.0910 -0.0574
 3655SOL    HW113858   4.214   2.385   2.695 -1.7846 -0.3611  0.6880
 3655SOL    HW213859   4.262   2.526   2.666 -2.8757 -0.3969 -1.5121
 3656SOL     OW13860   5.505   5.428   1.646  0.3119  0.6099 -0.1180
 3656SOL    HW113861   5.492   5.335   1.627  1.2855  0.2667  0.7833
 3656SOL    HW213862   5.514   5.469   1.561 -0.9950  0.0264 -0.5667
 3657SOL     OW13863   0.861   6.847   2.149 -0.5832  0.2566 -0.2777
 3657SOL    HW113864   0.848   6.940   2.167  1.6385  0.8263 -1.2348
 3657SOL    HW213865   0.863   6.805   2.235 -1.5950  1.0790  0.1615
 3658SOL     OW13866   0.148   4.895   9.880 -0.3891 -0.8296 -0.1871
 3658SOL    HW113867   0.227   4.879   9.933 -1.4421 -1.0091  1.4218
 3658SOL    HW213868   0.096   4.815   9.891 -2.2961  0.5361  1.6364
 3659SOL     OW13869   7.813   9.756   9.241 -0.2714  0.3821  0.8544
 3659SOL    HW113870   7.732   9.805   9.258 -1.6816 -1.8642  1.1471
 3659SOL    HW213871   7.842   9.726   9.327 -0.4072 -0.6500  0.5628
 3660SOL     OW13872   6.039   1.510   9.869  0.5680  0.2182 -0.1157
 3660SOL    HW113873   6.076   1.561   9.941 -0.5338  0.5480  0.2380
 3660SOL    HW213874   5.983   1.571   9.821 -1.1229 -0.6947  0.5701
 3661SOL     OW13875   8.916   3.910   1.421  0.3748 -1.1826 -0.3221
 3661SOL    HW113876   8.862   3.987   1.404  1.3318 -0.5103 -0.3907
 3661SOL    HW213877   9.004   3.935   1.392  0.9923 -1.8075  0.9191
 3662SOL     OW13878   5.584   1.601   9.799  0.2347  0.7520 -0.2671
 3662SOL    HW113879   5.636   1.679   9.777  1.2352  0.1701 -0.0628
 3662SOL    HW213880   5.631   1.562   9.873  0.5080 -0.7544 -1.2039
 3663SOL     OW13881   3.210   3.317   1.696  0.0179  0.1631 -0.3486
 3663SOL    HW113882   3.204   3.403   1.654 -0.0215  0.6638  0.6563
 3663SOL    HW213883   3.137   3.315   1.758 -0.2398 -0.7757 -0.6572
 3664SOL     OW13884   3.077   1.337   0.273  0.2865 -0.2603  0.0699
 3664SOL    HW113885   3.062   1.362   0.364  0.5420  0.4111 -0.0671
 3664SOL    HW213886   3.148   1.274   0.276 -0.4389 -1.0877  0.4335
 3665SOL     OW13887   4.199   4.970   7.141 -0.9754 -0.2550  0.1280
 3665SOL    HW113888   4.244   4.981   7.057 -1.2518 -0.6982 -0.0801
 3665SOL    HW213889   4.207   5.055   7.184 -0.8611 -0.0174 -0.3608
 3666SOL     OW13890   2.579   6.069  10.699  0.0709 -0.2993 -0.0308
 3666SOL    HW113891   2.559   6.101  10.611  1.2307 -0.2875 -0.3010
 3666SOL    HW213892   2.495   6.035  10.731 -0.4379 -0.0208 -1.0128
 3667SOL     OW13893   3.500   4.263   3.891 -0.1122 -0.0037  0.4061
 3667SOL    HW113894   3.474   4.217   3.971  0.9056 -1.9227 -0.3109
 3667SOL    HW213895   3.594   4.278   3.902 -0.2424  1.0110  0.1755
 3668SOL     OW13896   2.927   0.190   2.383  0.3984 -0.2868  0.1881
 3668SOL    HW113897   2.950   0.243   2.306 -1.7382  0.1155 -0.2491
 3668SOL    HW213898   2.875   0.249   2.437 -0.0435 -1.2484  0.8320
 3669SOL     OW13899   9.256  10.491  10.116  0.9577 -0.0981 -0.2466
 3669SOL    HW113900   9.219  10.428  10.055  0.2440  1.6353 -1.6993
 3669SOL    HW213901   9.328  10.444  10.159 -0.1072 -2.1370 -0.5888
 3670SOL     OW13902   7.115  10.561   2.760 -0.4122  0.2995  0.4578
 3670SOL    HW113903   7.078  10.579   2.846 -0.8545 -0.5324  0.4574
 3670SOL    HW213904   7.042  10.522   2.711  0.1195 -0.1757  0.0406
 3671SOL     OW13905   1.869   8.582   8.486 -0.2587 -0.1388  0.0481
 3671SOL    HW113906   1.829   8.590   8.399 -2.0523  1.5919  0.9670
 3671SOL    HW213907   1.901   8.670   8.506  0.1704 -0.5279  1.1499
 3672SOL     OW13908   7.311   7.973   2.880  0.5242  0.7832 -0.5080
 3672SOL    HW113909   7.355   7.962   2.796  1.4164  0.8682 -0.0597
 3672SOL    HW213910   7.372   7.938   2.944  0.6420  2.3570  0.2934
 3673SOL     OW13911   6.013   1.545   4.451  0.0540  0.6049 -0.0946
 3673SOL    HW113912   6.072   1.576   4.520 -0.4899 -0.0582  0.6862
 3673SOL    HW213913   6.071   1.516   4.381  0.6164  1.3159  0.0565
 3674SOL     OW13914   2.453   1.796   4.856  0.5098 -0.0114  0.4588
 3674SOL    HW113915   2.540   1.827   4.883  1.2542 -0.9015 -0.8433
 3674SOL    HW213916   2.405   1.785   4.939  1.6283  0.4730  1.1956
 3675SOL     OW13917   9.623  10.440   0.363  0.8266  0.1134  0.1693
 3675SOL    HW113918   9.643  10.531   0.388  0.5499  0.4997 -0.9370
 3675SOL    HW213919   9.592  10.399   0.444  0.4173  1.1661  0.5708
 3676SOL     OW13920   9.486   8.155   6.338 -0.1749 -0.0056 -0.0167
 3676SOL    HW113921   9.535   8.091   6.286 -0.6508  0.6766 -1.3622
 3676SOL    HW213922   9.520   8.146   6.427  1.1225 -0.7665 -0.5708
 3677SOL     OW13923   3.888   0.212   8.793  0.1109  0.1558  0.1863
 3677SOL    HW113924   3.984   0.223   8.795  0.1806 -0.4391  0.8981
 3677SOL    HW213925   3.873   0.130   8.841 -0.7607  0.2578  0.0989
 3678SOL     OW13926   0.666   8.579   5.652 -0.3349  0.6613  0.1520
 3678SOL    HW113927   0.660   8.606   5.560 -0.5685 -0.1562 -0.0791
 3678SOL    HW213928   0.742   8.521   5.655  1.5621  3.0372  1.0873
 3679SOL     OW13929   4.200   7.276   8.758 -0.6632  0.4177  0.4262
 3679SOL    HW113930   4.176   7.191   8.794  0.5567 -0.4524 -0.7430
 3679SOL    HW213931   4.153   7.282   8.675  1.3140 -0.3787 -0.8424
 3680SOL     OW13932   3.137   1.640   7.950  0.0827  0.0496  0.3634
 3680SOL    HW113933   3.097   1.587   8.020  2.2697  0.3098  1.9217
 3680SOL    HW213934   3.133   1.583   7.873  1.3337 -2.0529  1.7151
 3681SOL     OW13935  10.008   5.290   3.068  0.0820 -0.2332 -0.1647
 3681SOL    HW113936  10.083   5.249   3.024  0.1462 -0.0062 -0.2636
 3681SOL    HW213937   9.954   5.324   2.997  0.6929  1.0363 -0.0522
 3682SOL     OW13938   0.411  10.503   4.435 -0.0064 -0.3315  0.5167
 3682SOL    HW113939   0.479  10.560   4.401  0.2532 -1.3738 -0.7841
 3682SOL    HW213940   0.360  10.558   4.494  0.8477  0.9527  0.0740
 3683SOL     OW13941   6.732   9.978   4.975 -0.1764 -0.5363  0.0737
 3683SOL    HW113942   6.741   9.892   5.017 -1.7980 -0.3361  0.9064
 3683SOL    HW213943   6.796  10.033   5.019  0.4445 -1.1505 -0.0354
 3684SOL     OW13944   1.941   5.996   6.756 -0.0674 -0.1522 -0.1318
 3684SOL    HW113945   1.854   5.964   6.781 -0.1766  0.8352  0.8122
 3684SOL    HW213946   1.931   6.023   6.664 -0.1276 -2.1733 -0.7571
 3685SOL     OW13947   6.650   8.692   8.410 -0.4675 -0.3440  0.0989
 3685SOL    HW113948   6.702   8.712   8.332  0.0865 -1.5685  0.1293
 3685SOL    HW213949   6.626   8.777   8.446 -0.1622  0.2330 -1.0354
 3686SOL     OW13950   2.152   4.306   2.458  0.2687 -0.3911 -0.3291
 3686SOL    HW113951   2.155   4.328   2.365 -1.7266 -1.9293 -0.8231
 3686SOL    HW213952   2.066   4.268   2.471  0.2038  0.4514  2.3463
 3687SOL     OW13953   0.700   1.885   0.246 -0.7164 -0.2982  0.2229
 3687SOL    HW113954   0.759   1.821   0.287 -1.2573 -1.9664 -1.4328
 3687SOL    HW213955   0.616   1.871   0.289 -0.2993  1.0546  1.5554
 3688SOL     OW13956  10.234   3.208  10.358 -0.5959 -0.6378 -0.5106
 3688SOL    HW113957  10.310   3.263  10.379 -1.4544  0.3659  0.0013
 3688SOL    HW213958  10.253   3.176  10.269  0.3450 -0.2656 -0.4612
 3689SOL     OW13959   2.142   5.208   5.338 -0.5332 -0.3898 -0.3930
 3689SOL    HW113960   2.055   5.167   5.338 -0.4446 -0.5917 -0.8837
 3689SOL    HW213961   2.168   5.206   5.246 -0.9617  1.7048 -0.5958
 3690SOL     OW13962   0.559   5.741   0.432 -0.0184 -0.3412 -0.3393
 3690SOL    HW113963   0.601   5.816   0.390  0.3111 -0.1363  0.3494
 3690SOL    HW213964   0.497   5.779   0.494 -1.2033 -0.6378 -1.3035
 3691SOL     OW13965  10.603   1.442   0.569  0.3675  0.1293  0.0935
 3691SOL    HW113966  10.541   1.515   0.566  0.0086 -0.2150 -1.2226
 3691SOL    HW213967  10.653   1.450   0.488  0.8122 -0.6668  0.2857
 3692SOL     OW13968   0.201   0.344   7.118  0.2401 -0.1889 -0.4106
 3692SOL    HW113969   0.193   0.254   7.086  2.2436  0.2040 -2.2887
 3692SOL    HW213970   0.129   0.391   7.077  0.3760 -0.5540 -1.0806
 3693SOL     OW13971   8.214   6.069   8.127 -0.3735  0.0526  0.5782
 3693SOL    HW113972   8.162   6.062   8.207 -1.3098  0.1644  0.0008
 3693SOL    HW213973   8.154   6.107   8.063  0.7565  1.2661  0.1823
 3694SOL     OW13974   9.799   7.677   1.317  1.0317  0.7973 -0.6887
 3694SOL    HW113975   9.865   7.692   1.385  0.3544 -0.6161  0.3299
 3694SOL    HW213976   9.723   7.727   1.346  0.4009 -0.5941  0.1769
 3695SOL     OW13977   5.632   5.384   8.496 -0.2580  0.3703 -0.4105
 3695SOL    HW113978   5.570   5.325   8.453 -0.3778  1.7593 -2.3318
 3695SOL    HW213979   5.622   5.367   8.589 -1.8491 -1.0699 -0.7925
 3696SOL     OW13980   0.455  10.126   5.933  0.1870  0.0873 -0.1112
 3696SOL    HW113981   0.460  10.036   5.966  0.5592  0.2071  0.1723
 3696SOL    HW213982   0.499  10.123   5.848  0.2839  0.0204 -0.0588
 3697SOL     OW13983   1.791   5.405   7.747  0.5236 -0.0509  0.0203
 3697SOL    HW113984   1.717   5.455   7.713 -0.3000 -0.0114  1.7405
 3697SOL    HW213985   1.751   5.339   7.804  1.8242  1.3416  2.7543
 3698SOL     OW13986   3.922   1.537   4.573  0.3155  0.4141  0.0060
 3698SOL    HW113987   3.895   1.629   4.583 -1.0370  0.0690 -0.1576
 3698SOL    HW213988   3.861   1.502   4.508  0.8234 -0.5975  0.0632
 3699SOL     OW13989   8.407   8.636   9.625  0.0406  0.3528  0.0201
 3699SOL    HW113990   8.354   8.602   9.553  0.5391 -0.7586  0.1463
 3699SOL    HW213991   8.441   8.719   9.592 -0.7997  0.4994 -0.5149
 3700SOL     OW13992  10.685   5.756   9.524  0.1530 -0.6440  0.1186
 3700SOL    HW113993  10.705   5.764   9.617 -1.3915 -1.2679  0.5253
 3700SOL    HW213994  10.653   5.667   9.513  0.2190 -0.5456 -0.9907
 3701SOL     OW13995  10.522   1.884   4.676  0.1416  0.1865  0.5904
 3701SOL    HW113996  10.427   1.881   4.688 -0.2152  0.9611 -1.4417
 3701SOL    HW213997  10.554   1.800   4.708 -1.3303 -0.3914  0.6169
 3702SOL     OW13998   2.085   6.131   2.357  0.1771  0.3569 -0.1764
 3702SOL    HW113999   2.079   6.091   2.444 -0.5930  0.6769 -0.0838
 3702SOL    HW214000   2.084   6.225   2.373  1.1750  0.4342 -0.4600
 3703SOL     OW14001   2.970   5.933   8.372  0.6447  0.0595 -0.0083
 3703SOL    HW114002   3.055   5.961   8.406  0.7251  0.5320 -0.5817
 3703SOL    HW214003   2.976   5.838   8.369  0.9862  0.0674  0.3969
 3704SOL     OW14004   0.315  10.321   5.092 -0.3730 -0.3765 -0.0218
 3704SOL    HW114005   0.322  10.407   5.050 -1.3501 -0.2213  0.1293
 3704SOL    HW214006   0.319  10.259   5.019  1.7488 -0.3096 -0.0427
 3705SOL     OW14007   3.460   6.398   6.438 -0.0107 -0.0108 -0.0381
 3705SOL    HW114008   3.439   6.339   6.510 -0.1205  1.0564  0.8389
 3705SOL    HW214009   3.388   6.461   6.437  1.7634  2.1618  1.3284
 3706SOL     OW14010   4.474  10.002   0.388 -0.3460 -0.3413 -0.5030
 3706SOL    HW114011   4.497   9.920   0.431 -3.8956 -0.4019  1.6658
 3706SOL    HW214012   4.427   9.975   0.308 -0.0372 -0.3699 -0.6764
 3707SOL     OW14013   4.288   5.878   2.816 -0.4849  0.0767 -0.0436
 3707SOL    HW114014   4.378   5.890   2.846 -0.1333 -1.3955 -0.3962
 3707SOL    HW214015   4.238   5.946   2.861  0.6882  0.4647  0.7210
 3708SOL     OW14016  10.143   5.383   1.203  0.4830  0.0810  0.2916
 3708SOL    HW114017  10.057   5.400   1.240 -2.0488 -2.5178 -3.6857
 3708SOL    HW214018  10.164   5.461   1.152 -0.3049  0.1173  0.0197
 3709SOL     OW14019   5.086   2.473   1.187 -0.5714  0.0064 -0.2313
 3709SOL    HW114020   5.082   2.471   1.091  0.6349 -0.0765 -0.2924
 3709SOL    HW214021   5.175   2.446   1.208 -0.8937 -0.1976  0.9330
 3710SOL     OW14022  10.671   4.979   2.953  0.0606  0.1087 -0.6029
 3710SOL    HW114023  10.756   4.984   2.998 -0.1300  0.5892 -0.2832
 3710SOL    HW214024  10.608   5.009   3.019 -0.1110  1.8874 -1.5077
 3711SOL     OW14025   6.142   7.672   3.211  0.4201  0.0205  0.0792
 3711SOL    HW114026   6.113   7.727   3.284 -0.1725  0.5550 -0.5434
 3711SOL    HW214027   6.221   7.715   3.178  0.9436 -0.4651  0.6690
 3712SOL     OW14028   6.364   8.161   8.366  0.6322 -0.2322  0.9008
 3712SOL    HW114029   6.274   8.142   8.392  0.5258  0.2381  0.8702
 3712SOL    HW214030   6.401   8.210   8.439 -0.4851  3.5210 -0.8154
 3713SOL     OW14031   1.532   0.053   3.786 -0.1155  0.1884 -0.4245
 3713SOL    HW114032   1.444   0.026   3.812  0.5381 -1.3981  0.2883
 3713SOL    HW214033   1.523   0.146   3.763 -1.9013  0.1326 -0.0917
 3714SOL     OW14034   5.689   0.080   1.546  0.5407  0.2205  0.1688
 3714SOL    HW114035   5.633   0.046   1.477  0.9837  2.2455 -1.2754
 3714SOL    HW214036   5.633   0.082   1.624 -1.1317  1.3301 -1.0174
 3715SOL     OW14037   5.982  10.073   9.273 -0.0226  0.0181  0.4620
 3715SOL    HW114038   5.961  10.166   9.266  2.0380  0.7027  2.1352
 3715SOL    HW214039   6.070  10.065   9.235 -0.2094 -1.2785  0.2536
 3716SOL     OW14040   3.008   6.013   0.333 -0.4799 -0.5581 -0.1006
 3716SOL    HW114041   3.017   6.084   0.269 -1.4434 -0.4837 -0.1739
 3716SOL    HW214042   2.977   6.057   0.412 -0.9306 -0.8745 -0.1000
 3717SOL     OW14043   3.230   6.655  10.246 -0.4695  0.0777  0.1273
 3717SOL    HW114044   3.280   6.658  10.165 -0.6941  0.3109 -0.0050
 3717SOL    HW214045   3.256   6.573  10.287  0.0337  0.2044  0.0714
 3718SOL     OW14046   1.030   8.383   1.969 -0.0984 -0.3972 -0.3208
 3718SOL    HW114047   0.937   8.401   1.956 -0.1440 -0.2872  0.1433
 3718SOL    HW214048   1.074   8.439   1.906 -0.3076  0.2508  0.0954
 3719SOL     OW14049   2.052   5.820   8.426  0.5253  0.4445 -0.9570
 3719SOL    HW114050   2.054   5.873   8.346  2.5535 -0.5916 -1.6848
 3719SOL    HW214051   2.111   5.747   8.407  1.0189  0.1248  1.4743
 3720SOL     OW14052   8.400   6.109   1.944  0.2440 -0.4718  0.0163
 3720SOL    HW114053   8.322   6.084   1.894  0.0883 -3.2833  1.4704
 3720SOL    HW214054   8.473   6.081   1.890  0.2399  0.6856 -0.6196
 3721SOL     OW14055   6.214   9.818   0.719  0.2052  0.3470  0.0052
 3721SOL    HW114056   6.161   9.823   0.799  1.5202  0.5924  0.8924
 3721SOL    HW214057   6.233   9.725   0.708 -0.6744  0.2189 -0.5103
 3722SOL     OW14058   1.600   7.920   6.020 -0.1987  0.0364 -0.0788
 3722SOL    HW114059   1.522   7.868   5.998 -1.2813  1.6637 -0.2747
 3722SOL    HW214060   1.601   7.991   5.955  1.3941  0.1274  0.0037
 3723SOL     OW14061   8.490   8.914   9.991 -0.0660  0.0026  0.2546
 3723SOL    HW114062   8.556   8.880  10.052 -0.3454  0.4498  0.8141
 3723SOL    HW214063   8.445   8.836   9.959  0.2582 -0.2575  0.4230
 3724SOL     OW14064   4.790   8.110   6.899  0.3498  0.2261 -0.2565
 3724SOL    HW114065   4.809   8.082   6.810  0.2512  2.1678 -0.9213
 3724SOL    HW214066   4.801   8.205   6.898  0.2433  0.3167  1.7781
 3725SOL     OW14067   2.180   5.083  10.729  0.2144  0.0231  0.1756
 3725SOL    HW114068   2.215   5.107  10.815  0.5173  0.3714 -0.0432
 3725SOL    HW214069   2.146   5.164  10.693 -0.3860 -0.2202  0.1761
 3726SOL     OW14070   5.014   5.148   5.474 -0.0965  0.2089 -0.4478
 3726SOL    HW114071   5.034   5.136   5.381 -1.5351 -3.1185 -0.4805
 3726SOL    HW214072   4.920   5.165   5.477 -0.0785  0.2175  0.4201
 3727SOL     OW14073   3.360   1.254   0.011 -0.5637  0.1558 -0.3712
 3727SOL    HW114074   3.449   1.237   0.040 -0.3019  1.4706 -0.3499
 3727SOL    HW214075   3.334   1.334   0.057 -0.3532  1.9644 -3.1558
 3728SOL     OW14076   3.736   6.305   5.946 -0.0922 -0.9665 -0.0615
 3728SOL    HW114077   3.812   6.268   5.901 -0.1666 -1.9019  0.5681
 3728SOL    HW214078   3.692   6.357   5.879  0.9345 -0.6553 -0.5106
 3729SOL     OW14079   7.625   4.575   5.753  0.0360 -0.0348  0.3508
 3729SOL    HW114080   7.616   4.481   5.743  0.5137 -0.2790  1.9768
 3729SOL    HW214081   7.624   4.590   5.847 -1.2896  1.7310  0.1180
 3730SOL     OW14082   6.847   4.886   9.511 -0.1626  0.2234  0.2296
 3730SOL    HW114083   6.807   4.969   9.486  0.1136  0.0227 -0.9592
 3730SOL    HW214084   6.929   4.883   9.460 -0.8977 -1.4499 -0.9477
 3731SOL     OW14085   0.634   8.043   0.056  0.2960  0.6579 -0.0095
 3731SOL    HW114086   0.543   8.071   0.049  0.8834  2.4637 -0.9338
 3731SOL    HW214087   0.670   8.095   0.128  0.8172  0.5815 -0.2051
 3732SOL     OW14088   7.604   1.463   1.431  0.5129 -0.1737  0.1339
 3732SOL    HW114089   7.566   1.548   1.453 -0.0083 -0.7320  1.5205
 3732SOL    HW214090   7.643   1.433   1.513  1.1844 -1.0206 -0.4844
 3733SOL     OW14091   1.370   7.285   4.429 -0.1538  0.0635  0.1654
 3733SOL    HW114092   1.327   7.242   4.502  0.3840 -0.4368  0.1981
 3733SOL    HW214093   1.422   7.355   4.469  0.8655 -0.7881  0.3724
 3734SOL     OW14094   7.910   5.022   9.375 -0.1528  0.0166 -0.4135
 3734SOL    HW114095   7.877   5.012   9.286 -0.7498  1.9687 -0.4532
 3734SOL    HW214096   7.876   5.107   9.404  1.1482  0.0397  1.1806
 3735SOL     OW14097   9.772   5.404   3.447 -0.0348 -0.5298 -0.1080
 3735SOL    HW114098   9.855   5.380   3.405  0.4360  0.2176  0.3661
 3735SOL    HW214099   9.790   5.399   3.541 -0.4970 -0.2740 -0.0012
 3736SOL     OW14100   1.319   5.142   2.990 -0.3909  0.5925 -0.1743
 3736SOL    HW114101   1.352   5.064   3.035 -1.5631  0.5279  0.6264
 3736SOL    HW214102   1.302   5.205   3.060 -1.1284  0.9256 -0.6341
 3737SOL     OW14103   8.918   8.164   7.713  0.0155  0.3192 -0.1511
 3737SOL    HW114104   8.931   8.200   7.626  0.1415  0.0848 -0.2287
 3737SOL    HW214105   8.977   8.089   7.718 -0.0118  0.3136  0.1241
 3738SOL     OW14106  10.479   3.462   2.577  0.9578 -0.6068  0.2116
 3738SOL    HW114107  10.440   3.547   2.597  1.5288 -0.1639 -0.4789
 3738SOL    HW214108  10.404   3.405   2.561  0.5459 -0.4438  1.4212
 3739SOL     OW14109   0.648   9.839   6.859  0.6910 -0.0513  0.4232
 3739SOL    HW114110   0.680   9.807   6.774  1.7100  0.1498  0.7145
 3739SOL    HW214111   0.717   9.899   6.890  0.3913 -0.2116  1.4464
 3740SOL     OW14112   4.079   6.303   2.322 -0.1759 -0.3289  0.3639
 3740SOL    HW114113   4.149   6.295   2.257 -1.0309  0.3606 -0.6830
 3740SOL    HW214114   4.098   6.235   2.387  1.5301 -0.0544  0.1880
 3741SOL     OW14115   2.125   8.866   5.108 -0.0204 -0.3049  0.3476
 3741SOL    HW114116   2.218   8.886   5.122  0.1420 -0.9042  0.1595
 3741SOL    HW214117   2.092   8.941   5.059  0.4226 -0.1822  0.2286
 3742SOL     OW14118   4.305   4.740   7.759  0.1417  1.0296  0.6122
 3742SOL    HW114119   4.224   4.776   7.721  0.5446  1.6185  0.3005
 3742SOL    HW214120   4.375   4.778   7.707  0.5636 -1.2832 -0.6614
 3743SOL     OW14121   1.131   3.924   5.067  0.2683  0.8094 -0.2399
 3743SOL    HW114122   1.082   3.895   4.991  0.3751  2.5088 -0.9911
 3743SOL    HW214123   1.078   3.993   5.106  0.1691 -0.0942  1.3099
 3744SOL     OW14124   1.148   7.483   8.620 -0.0838 -0.3062 -0.1139
 3744SOL    HW114125   1.088   7.541   8.667 -1.0270 -0.5633 -0.9908
 3744SOL    HW214126   1.233   7.500   8.661 -0.6757  0.3180  0.9050
 3745SOL     OW14127   0.158   1.909   5.229 -0.6567 -0.0870  0.1972
 3745SOL    HW114128   0.242   1.952   5.210  0.3396 -0.8494  2.4775
 3745SOL    HW214129   0.165   1.823   5.188 -1.1194  0.5014 -1.1755
 3746SOL     OW14130   4.971   3.702   0.536  0.8114  0.6606  0.1520
 3746SOL    HW114131   4.876   3.707   0.553  1.0423  2.0670  1.2298
 3746SOL    HW214132   4.978   3.683   0.443 -0.5376 -1.2030  0.3799
 3747SOL     OW14133   7.837   6.172   3.352  0.3163  0.5293 -0.5101
 3747SOL    HW114134   7.878   6.119   3.284  1.1746 -0.9326  1.0442
 3747SOL    HW214135   7.905   6.234   3.379  0.3654  0.3665 -0.2509
 3748SOL     OW14136   1.716   9.662   0.349 -0.3652  0.3631  0.0138
 3748SOL    HW114137   1.704   9.579   0.395 -0.2843 -0.1383 -0.8621
 3748SOL    HW214138   1.775   9.712   0.406 -0.1711 -0.2967  0.4049
 3749SOL     OW14139   2.990   2.062   4.800  0.0347 -0.3807  0.1922
 3749SOL    HW114140   3.072   2.107   4.783 -1.4268  1.6092 -2.1481
 3749SOL    HW214141   2.946   2.117   4.865 -0.3789 -0.2220 -0.2210
 3750SOL     OW14142   7.392   5.196  10.687  0.0100  0.7751 -0.6089
 3750SOL    HW114143   7.383   5.284  10.650  1.2214  1.1556 -0.0632
 3750SOL    HW214144   7.485   5.175  10.677  0.1039  0.3210  0.9013
 3751SOL     OW14145   0.232   1.571   1.762  0.2993  0.0429  0.3623
 3751SOL    HW114146   0.191   1.620   1.690 -0.8789  0.6007  1.3814
 3751SOL    HW214147   0.261   1.490   1.721  0.0690  0.5352 -0.8477
 3752SOL     OW14148   8.319   0.517   2.705  0.6560 -0.6855  0.0953
 3752SOL    HW114149   8.298   0.471   2.786  0.0148  0.3472  0.5472
 3752SOL    HW214150   8.315   0.450   2.637  2.5280 -1.8543  1.0526
 3753SOL     OW14151   5.092   8.285  10.012 -0.0118  0.6067 -0.1922
 3753SOL    HW114152   5.087   8.380  10.012 -1.3548  0.5686  0.3553
 3753SOL    HW214153   5.001   8.257  10.026  0.5470 -0.7336  0.9655
 3754SOL     OW14154   7.779   0.509   6.735  0.1378 -0.1963 -0.0883
 3754SOL    HW114155   7.689   0.537   6.749  0.1102 -0.3474  0.0445
 3754SOL    HW214156   7.803   0.463   6.816  0.4625  0.1818  0.0338
 3755SOL     OW14157  10.025   9.912   6.552  0.3947 -0.1321 -0.0684
 3755SOL    HW114158  10.087   9.841   6.567  0.9949 -0.1951 -2.3808
 3755SOL    HW214159  10.006   9.908   6.458 -1.5763  1.1537  0.1980
 3756SOL     OW14160   7.431   7.178   4.302 -0.1509 -0.0622  0.0006
 3756SOL    HW114161   7.379   7.099   4.291  0.0815 -0.2096 -0.0329
 3756SOL    HW214162   7.451   7.180   4.396  0.5662 -0.4983 -0.1400
 3757SOL     OW14163   8.434   8.879   1.208  0.1983  0.1314 -0.4712
 3757SOL    HW114164   8.372   8.857   1.277  0.8959 -1.0789 -0.1998
 3757SOL    HW214165   8.390   8.946   1.156 -1.0123 -0.1526  0.1577
 3758SOL     OW14166   3.052   4.476   0.362 -0.4334  0.2715  0.1884
 3758SOL    HW114167   3.130   4.459   0.416  0.1736 -0.5055 -0.8725
 3758SOL    HW214168   2.984   4.420   0.399  0.6806 -2.2562 -1.3259
 3759SOL     OW14169   1.539   6.425   5.671  0.7640  0.2413  0.2084
 3759SOL    HW114170   1.450   6.449   5.646  0.6062 -0.5427  0.0012
 3759SOL    HW214171   1.562   6.488   5.739 -0.3755 -0.2392  1.0731
 3760SOL     OW14172   1.111   8.783   7.912  0.3885 -0.5260 -0.1756
 3760SOL    HW114173   1.085   8.732   7.835  0.4540 -0.9176  0.0570
 3760SOL    HW214174   1.070   8.738   7.986 -0.1787  0.1979 -0.0329
 3761SOL     OW14175   3.029   5.962   9.305  0.3854 -0.0958 -0.0745
 3761SOL    HW114176   3.024   6.056   9.321  0.1328 -0.1356  0.0957
 3761SOL    HW214177   2.944   5.940   9.266  0.6217 -0.1699 -0.5609
 3762SOL     OW14178   1.115   2.397   8.811  0.6073  0.0196 -0.3151
 3762SOL    HW114179   1.135   2.316   8.857  0.3565  1.0081  1.6361
 3762SOL    HW214180   1.172   2.462   8.851  1.0933  0.7732 -2.1127
 3763SOL     OW14181   4.004   1.253   9.766  0.3667  0.0212  0.0520
 3763SOL    HW114182   4.024   1.326   9.707  1.0636  1.4277  1.9258
 3763SOL    HW214183   4.083   1.242   9.819 -1.3252  1.1688  3.0401
 3764SOL     OW14184   5.524   3.251   4.812 -0.2823 -0.0294 -0.2555
 3764SOL    HW114185   5.560   3.281   4.895 -0.3804  2.0535 -0.9038
 3764SOL    HW214186   5.431   3.270   4.818 -0.5756 -1.3513 -0.2655
 3765SOL     OW14187   5.777   4.529   0.635 -0.3626 -0.1703 -0.2088
 3765SOL    HW114188   5.783   4.448   0.585  0.9285  0.0188 -0.3730
 3765SOL    HW214189   5.781   4.502   0.726  0.2368 -0.2734 -0.2671
 3766SOL     OW14190   9.047   4.021   3.977 -0.4120 -0.4943  0.0035
 3766SOL    HW114191   8.955   4.032   3.954 -0.4203 -1.3774 -0.4393
 3766SOL    HW214192   9.079   3.954   3.916  0.3737 -0.6283  0.5460
 3767SOL     OW14193   2.305   5.073  10.067  0.0758 -0.3682 -0.1462
 3767SOL    HW114194   2.342   5.011  10.131 -0.6292 -0.5564  0.0797
 3767SOL    HW214195   2.239   5.122  10.115 -0.4542 -0.5023 -0.7199
 3768SOL     OW14196   0.537   1.028   7.944 -0.0406  0.0652  0.1221
 3768SOL    HW114197   0.619   0.991   7.976  0.9244  1.6083 -0.4853
 3768SOL    HW214198   0.560   1.115   7.912 -1.7007  0.0884 -1.1620
 3769SOL     OW14199   5.239   9.404   3.332  0.2059 -0.6040  0.0268
 3769SOL    HW114200   5.189   9.376   3.255 -1.3144 -0.8234  1.0382
 3769SOL    HW214201   5.242   9.499   3.325 -0.1426 -0.6045 -0.1879
 3770SOL     OW14202   2.724   6.638   9.745 -0.5085 -0.3151 -0.2199
 3770SOL    HW114203   2.752   6.560   9.794  0.5066  0.3069  0.2258
 3770SOL    HW214204   2.638   6.659   9.781 -0.0440 -0.2402  0.8910
 3771SOL     OW14205   8.474  10.688   5.730  0.1704  0.7191  0.0967
 3771SOL    HW114206   8.556  10.639   5.723  0.4478  1.1364  0.3680
 3771SOL    HW214207   8.410  10.623   5.760  0.0272  0.0269 -1.6427
 3772SOL     OW14208   8.418   7.849   0.983  0.4473  0.2121  0.8257
 3772SOL    HW114209   8.455   7.771   1.023  1.6450  0.2016 -0.2346
 3772SOL    HW214210   8.489   7.885   0.930 -0.5067  1.2513  0.2022
 3773SOL     OW14211   0.089   5.544  10.623 -0.0682 -0.3001 -0.2170
 3773SOL    HW114212   0.072   5.457  10.659 -1.6587  0.1941  0.2982
 3773SOL    HW214213   0.113   5.597  10.698 -0.8259  0.1060 -0.2458
 3774SOL     OW14214   7.164   2.113   0.070  0.3411  0.1389  0.5300
 3774SOL    HW114215   7.200   2.073  -0.009 -1.5342  1.0629 -0.8619
 3774SOL    HW214216   7.099   2.051   0.102  2.0869 -0.9197  2.2916
 3775SOL     OW14217  10.452   3.339   4.841  0.0814 -0.9720  0.1352
 3775SOL    HW114218  10.537   3.383   4.829  1.0323 -2.5805  0.6616
 3775SOL    HW214219  10.390   3.393   4.792  1.5282 -0.1198 -0.8384
 3776SOL     OW14220   2.774   4.572   2.389  0.4867 -0.5001 -0.3146
 3776SOL    HW114221   2.822   4.494   2.361  0.4523 -1.0196  1.0008
 3776SOL    HW214222   2.682   4.550   2.374  0.5677 -0.0116 -1.6053
 3777SOL     OW14223   8.758   3.416   4.692  0.4415  0.4082  0.0965
 3777SOL    HW114224   8.754   3.488   4.754  0.8712  0.8809 -0.4081
 3777SOL    HW214225   8.704   3.445   4.618  1.0424  0.4507 -0.3342
 3778SOL     OW14226  10.359   9.477   3.229 -0.3638 -0.0642 -0.5718
 3778SOL    HW114227  10.438   9.521   3.260  0.1341 -0.2304 -1.5689
 3778SOL    HW214228  10.326   9.533   3.159  0.3503 -1.2937 -1.9469
 3779SOL     OW14229   8.693   4.855   0.885  0.2268 -0.2513 -0.4430
 3779SOL    HW114230   8.718   4.916   0.816  0.2068 -0.6012 -0.7608
 3779SOL    HW214231   8.644   4.908   0.947  1.4773  0.3823  0.0342
 3780SOL     OW14232   2.901   5.169   4.295  0.7869 -0.4019  0.1251
 3780SOL    HW114233   2.838   5.238   4.317  0.2869 -0.9451  0.4512
 3780SOL    HW214234   2.846   5.092   4.279  1.3528 -0.7919  0.0513
 3781SOL     OW14235   6.732   6.777   6.637 -0.1243 -0.1244  0.1409
 3781SOL    HW114236   6.734   6.872   6.643 -1.8568 -0.0254 -0.3432
 3781SOL    HW214237   6.821   6.750   6.660  0.1562  1.5395  1.2224
 3782SOL     OW14238   7.377   6.337   4.670  0.3042  0.2605  0.5838
 3782SOL    HW114239   7.284   6.315   4.681  0.0618  0.1588 -1.2986
 3782SOL    HW214240   7.382   6.374   4.582  2.6003 -3.2096 -0.9983
 3783SOL     OW14241   1.191   9.157  10.667  0.2853 -0.5294 -0.4380
 3783SOL    HW114242   1.139   9.146  10.747  0.3241 -0.9977 -0.4758
 3783SOL    HW214243   1.282   9.145  10.696  0.6791  2.9364  0.1590
 3784SOL     OW14244   3.128   2.321   9.058  0.1439  1.1124  0.0798
 3784SOL    HW114245   3.034   2.313   9.074  0.4554 -0.1423  1.4448
 3784SOL    HW214246   3.168   2.305   9.142  1.6515  0.2913 -0.7616
 3785SOL     OW14247   2.076   2.257  10.105 -0.4396 -0.4971 -0.5420
 3785SOL    HW114248   1.985   2.233  10.125 -0.3577  0.1713  0.7453
 3785SOL    HW214249   2.068   2.330  10.044 -0.9125  1.5949  1.8366
 3786SOL     OW14250   9.000   7.962   7.952  0.4986 -0.2712 -0.1791
 3786SOL    HW114251   8.978   7.954   8.045  1.5904  1.5968  0.2779
 3786SOL    HW214252   8.925   8.008   7.914  0.4179 -0.3022 -0.0601
 3787SOL     OW14253   3.677   5.497   7.804 -0.0863 -0.2832 -0.1121
 3787SOL    HW114254   3.625   5.574   7.784 -0.5345 -0.7928 -0.9663
 3787SOL    HW214255   3.615   5.435   7.841 -0.0987 -0.8778 -1.0912
 3788SOL     OW14256   1.121   5.719   8.223 -0.0356 -0.2953 -0.1472
 3788SOL    HW114257   1.047   5.659   8.215  0.8407 -1.6388  1.1369
 3788SOL    HW214258   1.084   5.799   8.260 -0.8349 -0.9978  0.6184
 3789SOL     OW14259   2.562   0.279   7.624 -0.1628  0.1953 -0.3820
 3789SOL    HW114260   2.594   0.224   7.552 -0.6054 -0.5304 -0.0336
 3789SOL    HW214261   2.511   0.220   7.679 -0.2220  0.8445  0.2834
 3790SOL     OW14262   1.051   3.423   3.791 -0.1725  0.1018  0.5757
 3790SOL    HW114263   0.974   3.439   3.736  1.6649  2.0954 -1.6928
 3790SOL    HW214264   1.067   3.329   3.782 -2.1115 -0.2932  0.8315
 3791SOL     OW14265   6.894  10.177   5.099 -0.3655  0.0789  0.0281
 3791SOL    HW114266   6.887  10.270   5.079 -1.4643  0.8900  3.4084
 3791SOL    HW214267   6.977  10.150   5.060  0.9727  3.0190  0.5814
 3792SOL     OW14268   8.938   1.200   4.600  0.3673 -0.1686 -0.0921
 3792SOL    HW114269   9.019   1.191   4.650 -0.5325 -0.2970  1.4010
 3792SOL    HW214270   8.955   1.272   4.539  1.6811 -0.3730  0.0214
 3793SOL     OW14271   9.103   9.053   5.756 -0.1753 -0.1013 -0.1052
 3793SOL    HW114272   9.180   9.070   5.702  0.0518 -2.0333 -0.4562
 3793SOL    HW214273   9.030   9.053   5.695  0.1116 -2.5315 -0.5299
 3794SOL     OW14274   7.722   3.819   3.287  0.8042  0.0525  0.2066
 3794SOL    HW114275   7.662   3.756   3.247  0.7478 -0.4604  1.0650
 3794SOL    HW214276   7.664   3.877   3.337  0.9923 -0.2957  0.8399
 3795SOL     OW14277   0.325   2.027   7.762 -0.1507  0.2205  0.1512
 3795SOL    HW114278   0.351   2.102   7.815 -0.5859 -0.1428  0.9023
 3795SOL    HW214279   0.331   1.952   7.822  1.2223 -0.5095 -0.8363
 3796SOL     OW14280   5.195  10.077   6.114 -0.6067  0.7971  0.2491
 3796SOL    HW114281   5.187  10.012   6.044  0.6790  0.8737  0.0078
 3796SOL    HW214282   5.193  10.026   6.195 -2.7392  0.7603  0.2343
 3797SOL     OW14283   3.518   1.015   6.726 -0.3007  0.4126  0.5814
 3797SOL    HW114284   3.481   1.064   6.653  1.0810  0.3481 -0.2045
 3797SOL    HW214285   3.530   0.926   6.691 -0.7831  0.0604  1.2947
 3798SOL     OW14286   4.033  10.093   9.956 -0.2417 -0.5231  0.9159
 3798SOL    HW114287   3.949  10.054   9.982 -1.1359 -0.2321 -1.3268
 3798SOL    HW214288   4.020  10.121   9.865  1.6245  1.4807  1.1759
 3799SOL     OW14289  10.149  10.203  10.741  0.0072  0.6367 -0.3238
 3799SOL    HW114290  10.188  10.186  10.656  0.3272  0.8025 -0.2115
 3799SOL    HW214291  10.211  10.261  10.785 -1.1096  2.2537 -0.7530
 3800SOL     OW14292  10.148   8.101   3.811 -0.1139 -0.2219  0.4478
 3800SOL    HW114293  10.236   8.130   3.784  0.6763 -0.3287  2.7132
 3800SOL    HW214294  10.159   8.009   3.834 -0.4638  0.1112  2.0662
 3801SOL     OW14295   3.005   0.570  10.518  0.1431  0.4672  0.2498
 3801SOL    HW114296   3.012   0.646  10.575  1.0785  0.6339 -0.0764
 3801SOL    HW214297   3.081   0.576  10.460  0.4965 -0.9689  0.5194
 3802SOL     OW14298   3.668  10.615   2.502  0.3592  0.3960  0.1683
 3802SOL    HW114299   3.682  10.586   2.412 -2.3564 -2.6181  0.4920
 3802SOL    HW214300   3.582  10.656   2.501  1.2346  2.3714  1.0705
 3803SOL     OW14301  10.004  10.714   2.714 -0.5317 -0.1345 -0.3348
 3803SOL    HW114302  10.088  10.759   2.710  0.3758 -1.6856  0.1451
 3803SOL    HW214303   9.950  10.766   2.773  0.8531 -0.2576  1.0740
 3804SOL     OW14304  10.309  10.053   6.884 -0.2851 -0.3429 -0.1634
 3804SOL    HW114305  10.222  10.091   6.899  0.7208  1.8995  0.2953
 3804SOL    HW214306  10.366  10.128   6.868  1.7161 -1.7191  0.1648
 3805SOL     OW14307   5.381   8.208   9.469 -0.1781  0.0968  0.2217
 3805SOL    HW114308   5.441   8.176   9.402 -1.6511 -2.2679 -0.0775
 3805SOL    HW214309   5.378   8.303   9.455  0.7120 -0.1489 -2.0875
 3806SOL     OW14310   8.483   6.367   7.366  0.6499 -0.5701 -0.0877
 3806SOL    HW114311   8.447   6.365   7.455  2.5978  0.6317  0.8261
 3806SOL    HW214312   8.439   6.441   7.324  2.5806  1.5876  1.3744
 3807SOL     OW14313   3.187   3.126   4.644 -0.2562 -0.9255  0.4721
 3807SOL    HW114314   3.231   3.119   4.559 -0.6739 -0.3599  0.1930
 3807SOL    HW214315   3.165   3.036   4.668 -1.0758 -1.0173 -0.5415
 3808SOL     OW14316  10.044   8.281   9.319 -0.8871 -0.3753  0.3613
 3808SOL    HW114317  10.009   8.212   9.263  0.5311 -0.8250 -0.0023
 3808SOL    HW214318  10.097   8.335   9.261 -0.6738  0.0688  0.9566
 3809SOL     OW14319   1.634   1.478   9.363 -0.4690  0.2275 -0.0105
 3809SOL    HW114320   1.719   1.502   9.400 -0.4358 -0.0449  0.0930
 3809SOL    HW214321   1.575   1.548   9.391 -0.7519 -0.6718  1.7363
 3810SOL     OW14322   9.194   3.685   9.152 -0.3125 -0.3136  0.0574
 3810SOL    HW114323   9.206   3.614   9.215 -0.8662 -0.1663  0.3316
 3810SOL    HW214324   9.216   3.646   9.067  0.0806 -0.6133  0.2924
 3811SOL     OW14325   4.706   2.909   2.575 -0.3424 -0.0949 -0.0707
 3811SOL    HW114326   4.790   2.939   2.541 -0.8758  0.5681 -0.8402
 3811SOL    HW214327   4.692   2.824   2.532  0.0984 -0.3831  0.3461
 3812SOL     OW14328   3.626   2.296   0.482  0.3581 -0.2475  0.6387
 3812SOL    HW114329   3.626   2.391   0.472  2.0576  0.1826  3.4158
 3812SOL    HW214330   3.717   2.270   0.468  0.0052 -1.4115  0.3932
 3813SOL     OW14331   3.217   3.460   2.373 -0.0391 -0.2632 -0.1428
 3813SOL    HW114332   3.312   3.474   2.370 -0.0762 -0.2224 -1.7586
 3813SOL    HW214333   3.206   3.368   2.349 -0.3098 -0.9001  2.1923
 3814SOL     OW14334   5.454   1.397   2.669  0.7150 -0.7545 -0.3626
 3814SOL    HW114335   5.397   1.324   2.647  2.1235 -2.3642  0.9360
 3814SOL    HW214336   5.429   1.421   2.758  1.3726 -0.8269 -0.1466
 3815SOL     OW14337   6.494   7.428   1.375  0.3673 -0.1369 -0.0088
 3815SOL    HW114338   6.542   7.505   1.345  0.6600 -0.5252 -0.5617
 3815SOL    HW214339   6.560   7.358   1.377  0.0528 -0.4292  0.2567
 3816SOL     OW14340   3.370   1.263   0.865 -0.5167  0.3878 -0.2672
 3816SOL    HW114341   3.281   1.264   0.900 -0.5820  0.6820 -0.4370
 3816SOL    HW214342   3.425   1.284   0.940 -0.5224 -0.5120  0.0061
 3817SOL     OW14343   1.960   9.712   9.720 -0.1186  0.1591 -0.0859
 3817SOL    HW114344   2.040   9.692   9.673  1.1412  1.0109  1.5978
 3817SOL    HW214345   1.917   9.780   9.667  1.5050  1.4671  0.1947
 3818SOL     OW14346   8.117   6.314   9.879  0.6672  0.5901 -0.8021
 3818SOL    HW114347   8.109   6.408   9.864 -0.6796  0.3900 -1.4271
 3818SOL    HW214348   8.080   6.301   9.967 -2.3725  0.2342 -2.0371
 3819SOL     OW14349   4.347   4.008   3.505  0.3516  0.1483  0.1224
 3819SOL    HW114350   4.342   3.934   3.566 -0.9140 -0.8029 -1.0962
 3819SOL    HW214351   4.394   4.075   3.554  1.3347 -1.3651  1.3534
 3820SOL     OW14352   3.451   9.114   0.403 -0.3284  0.5044 -0.0042
 3820SOL    HW114353   3.532   9.155   0.433  0.8214 -1.7254  0.1993
 3820SOL    HW214354   3.381   9.165   0.444  0.9846  2.1621  0.2553
 3821SOL     OW14355   7.152   3.161   0.997  0.4340 -0.0660  0.1845
 3821SOL    HW114356   7.197   3.100   1.055  0.4823  0.7961  1.0722
 3821SOL    HW214357   7.222   3.208   0.952  0.4239  0.6411  0.8947
 3822SOL     OW14358   9.020   7.168   2.826  0.4160  0.9899  0.1280
 3822SOL    HW114359   9.059   7.193   2.742 -1.5897  1.4709 -0.7318
 3822SOL    HW214360   9.038   7.241   2.884  0.3285  1.4574 -0.4219
 3823SOL     OW14361   4.787   5.130   1.226  0.4455  0.1075  0.2025
 3823SOL    HW114362   4.749   5.050   1.261  1.3696 -0.6162 -0.4049
 3823SOL    HW214363   4.754   5.199   1.284  1.5525 -0.9791  2.2564
 3824SOL     OW14364   5.117   8.783   7.054 -0.3333 -0.0740  0.4123
 3824SOL    HW114365   5.128   8.756   6.962 -1.8303 -0.3627  0.2934
 3824SOL    HW214366   5.195   8.836   7.073 -0.7055  1.2516 -1.4778
 3825SOL     OW14367   6.010   5.821   7.926  0.6560  0.1040 -0.0045
 3825SOL    HW114368   6.093   5.788   7.961  0.2017  0.6556  1.6798
 3825SOL    HW214369   5.944   5.758   7.957  0.1717  0.9092  0.6427
 3826SOL     OW14370   7.325   8.657   5.123  0.6993 -0.6808  0.2259
 3826SOL    HW114371   7.235   8.663   5.155  0.7012  1.0469 -0.0226
 3826SOL    HW214372   7.317   8.618   5.036 -0.0424  1.1721 -0.5839
 3827SOL     OW14373   7.611   0.812   4.006  0.0174 -0.5862 -0.4402
 3827SOL    HW114374   7.682   0.812   3.941  0.1310 -0.8486 -0.3167
 3827SOL    HW214375   7.552   0.742   3.977 -0.4694 -0.0197 -0.8422
 3828SOL     OW14376   7.761   2.131   7.805 -0.6957 -0.1757 -0.7799
 3828SOL    HW114377   7.675   2.156   7.772 -1.4219 -1.1588  0.3014
 3828SOL    HW214378   7.798   2.076   7.736 -0.9953  0.1108 -1.1725
 3829SOL     OW14379   0.928   2.631   6.477  0.1918 -0.1078 -0.3952
 3829SOL    HW114380   0.878   2.707   6.507  1.0326 -0.1499  1.2441
 3829SOL    HW214381   0.861   2.563   6.462 -0.3259 -0.0261  1.3187
 3830SOL     OW14382   6.718   5.966   7.995  0.0713  0.2209 -0.0312
 3830SOL    HW114383   6.750   5.893   7.942  1.0764 -0.4939  1.4585
 3830SOL    HW214384   6.779   6.038   7.976 -0.0756  0.2392 -0.4483
 3831SOL     OW14385   5.694   2.826   2.958  0.4023  0.1226 -0.1618
 3831SOL    HW114386   5.615   2.859   3.000  0.1248 -0.6606 -0.0477
 3831SOL    HW214387   5.710   2.741   3.000  0.9624  0.0030 -0.6036
 3832SOL     OW14388   3.297   2.165   7.124 -0.1394  0.6748 -0.3401
 3832SOL    HW114389   3.390   2.168   7.105 -0.1765 -2.6515 -1.7880
 3832SOL    HW214390   3.275   2.072   7.124 -3.3289  1.2719  0.7594
 3833SOL     OW14391   3.326   1.479  10.019 -0.3438  0.3222 -0.2814
 3833SOL    HW114392   3.252   1.449  10.073 -0.3757  0.6149 -0.1620
 3833SOL    HW214393   3.320   1.574  10.021  0.3145  0.3641  0.1290
 3834SOL     OW14394   5.283   0.159   6.446 -0.1177 -0.2032  0.2183
 3834SOL    HW114395   5.205   0.196   6.486 -0.5355 -0.5563 -0.2581
 3834SOL    HW214396   5.282   0.192   6.356  0.4376  0.0261  0.2941
 3835SOL     OW14397   2.820   0.009   1.668 -0.4767  0.0279  0.0583
 3835SOL    HW114398   2.854   0.098   1.679 -0.1573  0.0313 -0.9032
 3835SOL    HW214399   2.726   0.018   1.686 -0.4200  0.5247  0.1414
 3836SOL     OW14400   3.289   6.027  10.054 -0.5522 -0.3583  0.0664
 3836SOL    HW114401   3.361   6.065  10.005 -0.7994 -0.9947 -0.8050
 3836SOL    HW214402   3.315   5.936  10.070 -2.3278 -1.4882 -2.7672
 3837SOL     OW14403   8.000   7.441  10.148  0.0873  0.1542 -0.0455
 3837SOL    HW114404   8.010   7.534  10.168  0.2564 -0.2483  1.9420
 3837SOL    HW214405   8.045   7.429  10.065  0.5380  1.7386 -0.0596
 3838SOL     OW14406  10.762  10.551   8.180  0.2489 -0.2765  0.2025
 3838SOL    HW114407  10.748  10.456   8.179 -0.0709 -0.2303  0.1745
 3838SOL    HW214408  10.850  10.562   8.216  1.4209 -0.7368 -2.3114
 3839SOL     OW14409   0.767   4.547   9.811 -0.2004 -0.2890  0.3765
 3839SOL    HW114410   0.723   4.471   9.848  0.5859 -0.0364  1.9236
 3839SOL    HW214411   0.702   4.588   9.754 -1.6207 -0.4733  1.8210
 3840SOL     OW14412   4.362   2.229   3.467  0.4197  0.1948  0.2586
 3840SOL    HW114413   4.336   2.181   3.546 -0.2494 -0.7087 -0.4859
 3840SOL    HW214414   4.376   2.319   3.497  0.2495 -0.1462  1.4140
 3841SOL     OW14415   9.637   3.272  10.438  0.2689  0.3765  0.2596
 3841SOL    HW114416   9.603   3.351  10.396  1.7677  1.9858  1.9256
 3841SOL    HW214417   9.558   3.223  10.462 -0.6816  0.9894 -1.4109
 3842SOL     OW14418   8.865   6.410   3.937  0.1709 -0.3940 -0.1572
 3842SOL    HW114419   8.846   6.444   4.024  1.5050 -2.4935  1.0523
 3842SOL    HW214420   8.943   6.355   3.950  0.6932 -0.3811 -2.7774
 3843SOL     OW14421   0.516   3.322   1.087 -0.2859  0.3541  0.2213
 3843SOL    HW114422   0.491   3.373   1.163 -1.1872 -0.7099  0.6676
 3843SOL    HW214423   0.439   3.268   1.068  0.3132 -0.1751 -0.7726
 3844SOL     OW14424   4.922   3.985   3.499 -0.3893 -0.4640  0.2254
 3844SOL    HW114425   4.838   3.942   3.486 -0.8307  0.9101 -1.9321
 3844SOL    HW214426   4.927   4.051   3.430  2.4069 -0.3957  0.3638
 3845SOL     OW14427   7.441   4.964   5.548 -0.3685 -0.1165  0.8598
 3845SOL    HW114428   7.356   4.985   5.587 -0.5086  1.8405 -0.3227
 3845SOL    HW214429   7.436   5.003   5.460  2.5390  2.1229  1.5319
 3846SOL     OW14430   3.560   1.049  10.238  0.2299  0.1370  0.1715
 3846SOL    HW114431   3.558   0.957  10.262  0.0998  0.1056  0.0387
 3846SOL    HW214432   3.646   1.080  10.267  0.8983 -0.3914 -1.1709
 3847SOL     OW14433   7.025   9.790   8.022  0.5752  0.4240  0.1777
 3847SOL    HW114434   6.972   9.867   8.000  1.3300  0.5729 -1.2650
 3847SOL    HW214435   6.998   9.766   8.110 -0.1369  1.9553  0.4022
 3848SOL     OW14436   3.254   8.867   9.959 -0.2364  0.2643 -0.0283
 3848SOL    HW114437   3.219   8.847   9.872 -1.5925  1.2103  0.2695
 3848SOL    HW214438   3.348   8.878   9.945 -0.4268  0.3578 -1.3700
 3849SOL     OW14439   2.816   7.133   8.893 -0.5031 -0.0478  0.0536
 3849SOL    HW114440   2.773   7.196   8.836 -0.5053 -0.2130 -0.1303
 3849SOL    HW214441   2.838   7.059   8.835  1.9781  0.9044 -0.3455
 3850SOL     OW14442   7.324  10.000   8.806 -0.0968  0.0238 -0.1763
 3850SOL    HW114443   7.381  10.025   8.733  0.2052  3.3044  0.9745
 3850SOL    HW214444   7.243   9.972   8.765  0.1465  1.5629 -1.8456
 3851SOL     OW14445   6.476   6.392   2.776  0.3505  0.7116 -0.0785
 3851SOL    HW114446   6.408   6.457   2.757 -0.4663  0.3290  1.3643
 3851SOL    HW214447   6.552   6.443   2.802 -0.3757  1.1301  1.3237
 3852SOL     OW14448   9.777   9.079   0.030 -0.6804 -0.1834 -0.3474
 3852SOL    HW114449   9.847   9.022   0.062 -0.8728 -0.4720 -0.4324
 3852SOL    HW214450   9.787   9.078  -0.065  0.7267  1.7490 -0.2777
 3853SOL     OW14451   1.189   3.410   4.871 -0.5697 -0.5113 -0.3268
 3853SOL    HW114452   1.173   3.425   4.965 -0.3371 -0.3674 -0.3091
 3853SOL    HW214453   1.232   3.490   4.841  1.0072 -1.2559 -0.1452
 3854SOL     OW14454   5.102   0.645   2.550  0.3017  0.2284  0.5637
 3854SOL    HW114455   5.166   0.593   2.598  0.4603 -0.8928 -0.8118
 3854SOL    HW214456   5.150   0.679   2.475 -0.5456 -0.0644 -0.1245
 3855SOL     OW14457   9.029   2.262   9.679 -0.3386 -0.4550 -0.1594
 3855SOL    HW114458   9.097   2.209   9.720  0.2483 -0.4169 -1.0763
 3855SOL    HW214459   9.016   2.335   9.740  0.2589 -0.5896  0.1352
 3856SOL     OW14460   6.426   0.876   3.990 -0.0757 -0.3341 -0.4120
 3856SOL    HW114461   6.359   0.835   4.045  0.7122  1.9135  2.4534
 3856SOL    HW214462   6.507   0.831   4.014  0.0693 -0.3159 -0.8551
 3857SOL     OW14463   4.323   2.263   0.086  0.1079 -0.1179  0.5875
 3857SOL    HW114464   4.248   2.236   0.140 -0.7473  0.1882 -0.4280
 3857SOL    HW214465   4.303   2.228  -0.001  0.5254  1.0569  0.0095
 3858SOL     OW14466   5.705   0.534   6.742 -0.1740 -0.1374 -0.0378
 3858SOL    HW114467   5.792   0.498   6.761 -0.4421 -0.9503 -0.2976
 3858SOL    HW214468   5.644   0.466   6.770 -0.6545 -0.5129 -1.8389
 3859SOL     OW14469   4.220  10.512   5.320 -0.0727 -0.6501  0.1970
 3859SOL    HW114470   4.133  10.525   5.357  0.7486 -1.2501  2.5385
 3859SOL    HW214471   4.271  10.586   5.352  0.5368 -0.8537 -0.2793
 3860SOL     OW14472   3.796   1.991  10.072  0.1492  1.1053 -0.1624
 3860SOL    HW114473   3.888   1.983  10.046 -0.2664  0.2669 -1.4655
 3860SOL    HW214474   3.781   1.917  10.131  0.5686  1.8562  0.9164
 3861SOL     OW14475   3.694   1.977   6.446 -0.0579 -0.3810 -0.1299
 3861SOL    HW114476   3.627   1.910   6.431  1.2217 -1.6197 -0.4834
 3861SOL    HW214477   3.700   2.024   6.364 -0.6762 -0.0792 -0.0087
 3862SOL     OW14478   7.747   0.473   4.071 -0.1427  0.0181  0.3325
 3862SOL    HW114479   7.839   0.497   4.085  0.2360 -1.1786  0.0257
 3862SOL    HW214480   7.711   0.464   4.160  0.3979 -0.7661  0.4864
 3863SOL     OW14481   5.663   8.648   6.374  0.0949  0.4352  0.1871
 3863SOL    HW114482   5.744   8.637   6.425  0.1497 -0.2764 -0.0486
 3863SOL    HW214483   5.687   8.711   6.306  0.7264 -0.4738 -0.4512
 3864SOL     OW14484   6.513   6.841   5.290  0.1104 -0.3304  0.5191
 3864SOL    HW114485   6.446   6.776   5.311  1.3040 -3.0320 -3.0457
 3864SOL    HW214486   6.466   6.913   5.249 -0.7477 -2.0364 -1.6330
 3865SOL     OW14487   7.027   9.852   9.007 -0.2735 -0.8077 -0.1275
 3865SOL    HW114488   7.003   9.765   8.975 -0.2760 -0.5496 -0.8240
 3865SOL    HW214489   7.037   9.905   8.929  0.0442 -0.2546  0.2808
 3866SOL     OW14490   3.135   7.336   6.794 -0.1610  0.3588  0.7256
 3866SOL    HW114491   3.107   7.384   6.716  1.1796  0.6966  0.4241
 3866SOL    HW214492   3.131   7.244   6.768 -0.7000  0.4151  0.5989
 3867SOL     OW14493   1.018   5.781   0.266  0.1209  0.1167 -0.4342
 3867SOL    HW114494   0.979   5.720   0.329  2.5736 -0.2878  0.8260
 3867SOL    HW214495   0.944   5.819   0.221 -2.0399  1.7784  3.8974
 3868SOL     OW14496   6.586   4.878   9.237 -0.0314 -0.0696  0.7479
 3868SOL    HW114497   6.639   4.954   9.213 -1.3468  0.6564  0.0197
 3868SOL    HW214498   6.626   4.844   9.317  3.2716 -1.3254 -1.2621
 3869SOL     OW14499   7.729   0.104   1.864  0.5776 -0.3772 -0.3106
 3869SOL    HW114500   7.636   0.119   1.847  0.7120  0.8120 -0.0974
 3869SOL    HW214501   7.730   0.034   1.930 -0.1952  0.1231  0.2541
 3870SOL     OW14502   6.893   0.659   8.516  0.4088 -0.0610  0.3788
 3870SOL    HW114503   6.938   0.740   8.539  0.5594  0.1537 -0.6109
 3870SOL    HW214504   6.963   0.601   8.483 -0.1262  0.7040 -2.3276
 3871SOL     OW14505   4.745   0.455   5.698  0.4663  0.7557  0.2467
 3871SOL    HW114506   4.652   0.475   5.692  0.3163  0.2294  0.8400
 3871SOL    HW214507   4.779   0.516   5.764  0.2246 -0.1541  1.2268
 3872SOL     OW14508   0.251   9.235   8.186  0.3066  0.2781  0.1204
 3872SOL    HW114509   0.186   9.204   8.123  0.3370 -2.8135  1.4539
 3872SOL    HW214510   0.334   9.232   8.140  0.0744  0.0116 -0.2833
 3873SOL     OW14511   0.405   9.689   4.693  0.3402 -0.2665  0.1131
 3873SOL    HW114512   0.470   9.627   4.660  1.0766  1.6205 -2.3096
 3873SOL    HW214513   0.447   9.775   4.683 -1.7798  0.8707  0.4073
 3874SOL     OW14514   4.459  10.165   0.824 -0.3131 -0.1553  0.3438
 3874SOL    HW114515   4.446  10.161   0.918  1.7525  1.3451  0.7623
 3874SOL    HW214516   4.440  10.255   0.800  0.3386 -0.2190 -0.4659
 3875SOL     OW14517   0.698   5.817   4.141 -0.2319  0.0835  0.3413
 3875SOL    HW114518   0.667   5.744   4.196  1.4902 -2.2106 -1.5087
 3875SOL    HW214519   0.776   5.782   4.097 -0.3270  2.4879 -1.9639
 3876SOL     OW14520   3.343   9.334   2.501  0.3158  0.8494  0.1501
 3876SOL    HW114521   3.339   9.294   2.588 -0.5455  0.1301 -0.2101
 3876SOL    HW214522   3.425   9.301   2.463 -0.1844 -0.2615  0.0153
 3877SOL     OW14523   3.413   2.169   0.386 -0.2800 -0.1187  0.1750
 3877SOL    HW114524   3.492   2.219   0.409 -0.2920  0.2027 -0.4437
 3877SOL    HW214525   3.346   2.200   0.446 -0.1682  0.2940  0.0920
 3878SOL     OW14526   6.764   5.972   0.533  0.4072 -0.3897  0.4387
 3878SOL    HW114527   6.797   6.018   0.610 -0.6096  1.5503 -0.2297
 3878SOL    HW214528   6.673   5.950   0.556  0.1656  0.0125 -0.1130
 3879SOL     OW14529   4.729   0.762   8.122  0.5855 -0.5805 -0.1823
 3879SOL    HW114530   4.744   0.669   8.136 -1.2561 -1.2231 -1.8838
 3879SOL    HW214531   4.634   0.773   8.130  0.6638  0.9820 -0.8653
 3880SOL     OW14532   7.978  10.105   6.017 -0.4091 -0.0746  0.6669
 3880SOL    HW114533   7.971  10.111   5.922 -1.1038  2.6687  0.7906
 3880SOL    HW214534   7.891  10.128   6.049  0.2432  0.7220  1.9725
 3881SOL     OW14535  10.420   5.986   7.482 -0.3754 -0.3880  0.6407
 3881SOL    HW114536  10.444   5.913   7.425 -1.8937 -0.6849  0.3254
 3881SOL    HW214537  10.393   6.056   7.422  2.4166  1.0139  0.8847
 3882SOL     OW14538   2.617   1.002   5.590  0.1589  0.3921  0.0896
 3882SOL    HW114539   2.676   1.067   5.629 -0.1163  1.5473 -1.3681
 3882SOL    HW214540   2.537   1.008   5.642  0.6432  0.1326  0.8990
 3883SOL     OW14541   0.008   2.534   0.319 -0.1249  0.1511 -0.3632
 3883SOL    HW114542   0.016   2.458   0.378  3.0158  0.3391 -0.4156
 3883SOL    HW214543  -0.047   2.502   0.248 -0.0257 -1.6468  0.2928
 3884SOL     OW14544   2.895   0.519   7.617  0.4853  0.5963  0.4761
 3884SOL    HW114545   2.945   0.576   7.675  1.5502  1.9483 -1.6387
 3884SOL    HW214546   2.959   0.457   7.582  0.3687  1.1685 -0.8425
 3885SOL     OW14547   6.415   3.512   2.647  0.3849 -0.2541  0.3518
 3885SOL    HW114548   6.369   3.501   2.730  1.2977  0.8465  1.0407
 3885SOL    HW214549   6.358   3.472   2.582 -1.1046  0.2624  1.2907
 3886SOL     OW14550   8.815   1.786   4.026  0.1532  0.1612  0.1301
 3886SOL    HW114551   8.721   1.785   4.048 -0.4365 -3.1684 -1.7953
 3886SOL    HW214552   8.830   1.874   3.991 -2.4226  0.6384 -0.0141
 3887SOL     OW14553   7.518   2.891   7.066 -0.7012  0.2542 -0.7124
 3887SOL    HW114554   7.524   2.987   7.059  1.9860  0.0925 -1.9743
 3887SOL    HW214555   7.454   2.866   7.000 -0.6193  1.1072 -1.1289
 3888SOL     OW14556   8.711   4.780   2.096 -0.3188 -0.7831  0.4588
 3888SOL    HW114557   8.659   4.825   2.164 -0.6573 -0.7719  0.1949
 3888SOL    HW214558   8.666   4.801   2.014  0.6500  0.0261  0.1173
 3889SOL     OW14559   9.595   6.568   0.444  0.1403  0.2613 -0.4162
 3889SOL    HW114560   9.541   6.590   0.520 -1.6588  0.0503 -1.5788
 3889SOL    HW214561   9.655   6.641   0.435  0.2470  0.3854  1.0760
 3890SOL     OW14562   4.155   9.749   0.202  0.3445  0.0569 -0.3775
 3890SOL    HW114563   4.212   9.724   0.275 -1.5624 -2.0411  0.5158
 3890SOL    HW214564   4.159   9.675   0.142  1.4828  1.5357 -2.2581
 3891SOL     OW14565   6.767   6.293   1.196  0.1181 -0.0448 -0.2765
 3891SOL    HW114566   6.715   6.370   1.219  0.1105  0.4416 -1.8237
 3891SOL    HW214567   6.858   6.325   1.196  0.3470 -0.5873  1.1717
 3892SOL     OW14568   0.746   7.688   3.713  0.5952 -0.4514 -0.0368
 3892SOL    HW114569   0.767   7.629   3.785  0.3388 -0.3940  0.0839
 3892SOL    HW214570   0.831   7.720   3.683  0.8307 -1.6740 -0.7753
 3893SOL     OW14571   7.230   2.123   6.628  0.3235  0.0841  0.6546
 3893SOL    HW114572   7.224   2.119   6.533 -0.2401 -0.3657  0.7069
 3893SOL    HW214573   7.315   2.164   6.645 -0.0114  1.1049 -0.0398
 3894SOL     OW14574   7.877   1.130   8.719  0.0984 -0.0141 -0.1005
 3894SOL    HW114575   7.879   1.225   8.713  0.7344  0.0603  1.0636
 3894SOL    HW214576   7.823   1.111   8.796 -0.1625 -0.6003 -0.4169
 3895SOL     OW14577   6.483   2.135   3.124  0.1539  0.0428 -0.1500
 3895SOL    HW114578   6.440   2.219   3.141 -0.7671 -0.3287 -0.5712
 3895SOL    HW214579   6.458   2.114   3.034 -0.9388 -1.4294  0.4653
 3896SOL     OW14580  10.243   7.010   3.791  0.3446 -0.1586  0.1224
 3896SOL    HW114581  10.205   6.934   3.748  1.1711 -0.3314 -0.3163
 3896SOL    HW214582  10.328   7.022   3.749 -0.3452  1.8624 -0.8241
 3897SOL     OW14583   7.045   3.021   5.211  0.0733 -0.1322  0.2013
 3897SOL    HW114584   7.030   2.927   5.208 -0.0484 -0.2301  2.2403
 3897SOL    HW214585   7.137   3.029   5.237 -0.2977  0.2572  1.4666
 3898SOL     OW14586   2.070   1.317  10.624 -0.2088  0.3813 -0.2291
 3898SOL    HW114587   2.002   1.317  10.691 -0.3377  1.1045 -0.3440
 3898SOL    HW214588   2.022   1.318  10.541 -0.0504 -0.7575 -0.3459
 3899SOL     OW14589   7.383   6.461   3.668  0.4701 -0.3999 -0.0786
 3899SOL    HW114590   7.320   6.391   3.652  2.5224 -2.9471  2.0420
 3899SOL    HW214591   7.387   6.470   3.763 -0.0821  3.1047 -0.2441
 3900SOL     OW14592   6.150   4.738   4.011  0.2223  0.3458  0.6966
 3900SOL    HW114593   6.212   4.760   3.941  0.8474 -2.2660  0.3140
 3900SOL    HW214594   6.083   4.806   4.005  2.0002  2.1297 -0.1872
 3901SOL     OW14595  10.068   6.214   9.033 -0.6724 -0.3421 -0.7203
 3901SOL    HW114596  10.056   6.289   8.975 -0.4117 -1.4519 -2.2834
 3901SOL    HW214597  10.148   6.171   9.001  0.5308 -0.0335  1.5930
 3902SOL     OW14598   5.252   4.236  10.441 -0.2646  0.1646  0.1978
 3902SOL    HW114599   5.308   4.278  10.376  0.4176  0.7426  1.1327
 3902SOL    HW214600   5.310   4.216  10.514 -1.5300  2.4380  1.9657
 3903SOL     OW14601   6.672   8.092   4.250 -0.2356  0.4666  0.3254
 3903SOL    HW114602   6.696   8.148   4.176  0.2785  1.5169  1.2433
 3903SOL    HW214603   6.755   8.059   4.283 -0.5184 -0.6410 -0.0317
 3904SOL     OW14604   4.701   9.261   7.155  0.5221  0.0949 -0.0547
 3904SOL    HW114605   4.635   9.288   7.218  1.4176  1.5983  0.2836
 3904SOL    HW214606   4.675   9.172   7.130 -1.1092  0.3171  0.7155
 3905SOL     OW14607  10.036   5.537   2.450 -0.0277 -0.5026  0.5058
 3905SOL    HW114608  10.002   5.624   2.472  0.7207 -0.1813  0.3905
 3905SOL    HW214609  10.102   5.552   2.383  0.0620 -1.1673  0.4350
 3906SOL     OW14610   8.196   2.463   0.355  0.6452  0.2519  0.4641
 3906SOL    HW114611   8.105   2.492   0.357  0.0065 -1.6371  0.6241
 3906SOL    HW214612   8.246   2.539   0.385 -0.8043  1.5076 -0.1456
 3907SOL     OW14613   7.916   5.600   8.709 -0.4069 -0.0764  0.0621
 3907SOL    HW114614   7.899   5.522   8.761  0.6698 -1.0842 -1.0206
 3907SOL    HW214615   7.982   5.648   8.759 -0.8537 -0.0108  0.5930
 3908SOL     OW14616   2.517   7.758   0.966  0.5926  0.0532 -0.5014
 3908SOL    HW114617   2.492   7.795   0.881  1.3609  0.3405 -0.6121
 3908SOL    HW214618   2.469   7.676   0.972  0.4784  0.0652 -1.1847
 3909SOL     OW14619   7.497   9.965   2.159  0.3552  0.1473  0.1666
 3909SOL    HW114620   7.420  10.022   2.151 -0.8201 -1.4667 -0.5353
 3909SOL    HW214621   7.554  10.011   2.221 -0.9320  1.6362  0.3243
 3910SOL     OW14622   9.537   8.279   8.437 -0.3832  0.3349 -0.4064
 3910SOL    HW114623   9.613   8.221   8.429 -0.7870 -0.5503  1.4809
 3910SOL    HW214624   9.464   8.228   8.401 -0.4272  0.3565 -0.3487
 3911SOL     OW14625   8.113   1.077   6.081 -0.2565  0.4239  0.5761
 3911SOL    HW114626   8.091   1.017   6.010  2.1142 -0.7036  0.6793
 3911SOL    HW214627   8.160   1.149   6.039 -1.6484  1.4163  0.6584
 3912SOL     OW14628   2.680   1.193   5.031  0.1845  0.4251  0.1785
 3912SOL    HW114629   2.692   1.213   5.123 -0.3888 -1.8647  0.8017
 3912SOL    HW214630   2.747   1.245   4.986  0.7995  1.1828  1.9030
 3913SOL     OW14631   8.228   8.842   1.396  0.4072  0.0763 -0.1493
 3913SOL    HW114632   8.250   8.750   1.408 -1.1192 -0.5522 -1.7127
 3913SOL    HW214633   8.132   8.844   1.399  0.3185  1.2895 -1.9943
 3914SOL     OW14634   6.320   1.394   4.499  0.0012 -0.2488 -0.3680
 3914SOL    HW114635   6.343   1.486   4.486  0.7521 -0.4226 -0.2999
 3914SOL    HW214636   6.378   1.365   4.569 -0.3693 -0.7239 -0.2583
 3915SOL     OW14637   8.591   0.217   6.077 -0.3942  0.6296  0.3962
 3915SOL    HW114638   8.629   0.304   6.062  1.2219 -0.4269 -2.2738
 3915SOL    HW214639   8.547   0.195   5.995 -0.2799 -1.2870  0.7939
 3916SOL     OW14640   6.704   4.443   6.955  0.2295 -0.6844 -0.3083
 3916SOL    HW114641   6.659   4.523   6.983 -0.1434 -0.4751 -1.4589
 3916SOL    HW214642   6.795   4.469   6.943  0.5304 -0.9236  1.2648
 3917SOL     OW14643   7.616   5.390   7.242  0.5539  0.0936  0.4074
 3917SOL    HW114644   7.540   5.395   7.185 -0.2349  1.8384  1.5283
 3917SOL    HW214645   7.603   5.310   7.293 -0.5314  0.3421  0.5477
 3918SOL     OW14646   3.719   3.479   5.877  0.2302  0.5436  0.0320
 3918SOL    HW114647   3.639   3.518   5.912  1.2178  2.6886  0.0860
 3918SOL    HW214648   3.691   3.435   5.797 -1.0572  0.9904  0.2173
 3919SOL     OW14649  10.757   5.446   6.883  0.1390  0.2493  0.6452
 3919SOL    HW114650  10.691   5.473   6.819  1.1800  1.1215 -0.1117
 3919SOL    HW214651  10.810   5.380   6.838 -0.9968 -1.4596  1.7124
 3920SOL     OW14652   1.719   7.222   4.346 -0.0738 -0.1112  0.0985
 3920SOL    HW114653   1.796   7.167   4.360 -0.8975 -1.1005  0.9407
 3920SOL    HW214654   1.651   7.181   4.399 -1.0717  0.9850 -0.2974
 3921SOL     OW14655   4.964   0.023   5.515  0.5817 -0.4942  0.5630
 3921SOL    HW114656   4.967   0.102   5.569 -0.8054 -1.9285  2.8754
 3921SOL    HW214657   4.893   0.040   5.452 -0.3477 -0.2233  1.6498
 3922SOL     OW14658   2.365   8.200   2.322 -0.1733  0.2871 -0.2219
 3922SOL    HW114659   2.426   8.146   2.372 -1.0863 -0.4968  0.0760
 3922SOL    HW214660   2.331   8.263   2.386  0.1499  0.5833 -0.3369
 3923SOL     OW14661  10.256   2.057   5.985 -0.0740  0.0271 -0.2674
 3923SOL    HW114662  10.306   2.113   5.926 -0.0122  0.5675  0.2940
 3923SOL    HW214663  10.208   2.117   6.041 -1.4031 -0.4876 -0.8249
 3924SOL     OW14664   7.351   9.396   4.036 -0.3477 -0.2933  0.2302
 3924SOL    HW114665   7.324   9.321   3.982  0.1040 -0.7388  0.6187
 3924SOL    HW214666   7.400   9.357   4.108 -0.9955  0.2939  1.0053
 3925SOL     OW14667   0.002   9.674   6.023  0.0059  0.2663  0.2653
 3925SOL    HW114668   0.089   9.665   5.985 -0.0569  1.8022 -0.3124
 3925SOL    HW214669   0.015   9.665   6.117  1.1081  2.2246  0.3552
 3926SOL     OW14670   3.500   6.910   6.730  0.0530  0.3016  0.1336
 3926SOL    HW114671   3.525   6.968   6.658 -1.0900  1.2932  0.4876
 3926SOL    HW214672   3.497   6.968   6.807 -1.4164 -0.1459  0.4424
 3927SOL     OW14673   7.127   3.355   6.908 -0.2028 -0.3604 -0.3023
 3927SOL    HW114674   7.146   3.298   6.983 -0.4674  0.3594  0.3235
 3927SOL    HW214675   7.154   3.304   6.832 -0.9813 -1.5582  0.1977
 3928SOL     OW14676   1.721   3.154   4.801  0.5724 -0.1572  0.0267
 3928SOL    HW114677   1.793   3.115   4.849 -0.2003 -0.6783  0.7999
 3928SOL    HW214678   1.697   3.089   4.735  2.0214  0.7986 -1.5453
 3929SOL     OW14679   6.314   0.376   8.420 -0.0727  0.2531 -0.5050
 3929SOL    HW114680   6.229   0.391   8.379  0.0292  0.0229 -0.7997
 3929SOL    HW214681   6.316   0.282   8.438 -0.0577  0.3305 -0.1049
 3930SOL     OW14682  10.349   2.027   1.579  0.4112  0.0203  0.2438
 3930SOL    HW114683  10.414   1.979   1.630  0.0679 -1.1794 -0.3980
 3930SOL    HW214684  10.310   2.089   1.640  2.3667  0.9843  0.5663
 3931SOL     OW14685   9.146   7.916   0.195  0.2522 -0.1603 -0.2622
 3931SOL    HW114686   9.176   7.970   0.268 -0.4573 -0.4366  0.2506
 3931SOL    HW214687   9.053   7.902   0.213 -0.2285  0.7711 -1.8697
 3932SOL     OW14688   7.331   7.266   5.437 -0.3092  0.7889  0.4215
 3932SOL    HW114689   7.403   7.300   5.490 -1.0518  0.5840  1.5957
 3932SOL    HW214690   7.343   7.308   5.352  0.7261  1.3807  0.8324
 3933SOL     OW14691   1.469  10.505   8.393 -0.9100  0.1311  0.2845
 3933SOL    HW114692   1.550  10.496   8.343 -0.8169 -2.7102  0.7659
 3933SOL    HW214693   1.415  10.563   8.340  0.7431  0.5848 -0.9844
 3934SOL     OW14694   1.550   3.932   1.418  0.2020 -0.2995 -0.0290
 3934SOL    HW114695   1.603   3.866   1.464  1.1843 -0.7427 -1.6907
 3934SOL    HW214696   1.491   3.881   1.362  1.6221  0.1180 -2.0580
 3935SOL     OW14697   8.525   7.054  10.441 -0.3731 -0.7013 -0.5735
 3935SOL    HW114698   8.604   7.080  10.393  0.2617  0.7136  1.0975
 3935SOL    HW214699   8.543   6.965  10.471  0.1639 -0.7669 -1.0661
 3936SOL     OW14700   9.553   1.995   8.542 -0.0728  0.6128 -0.2021
 3936SOL    HW114701   9.485   1.937   8.575 -0.0069  0.3165 -0.5721
 3936SOL    HW214702   9.559   2.065   8.607  0.8011 -0.5049  0.9918
 3937SOL     OW14703  10.224  10.780   4.184  0.1979 -0.0506  0.6282
 3937SOL    HW114704  10.159  10.842   4.149 -1.9685 -1.3523  2.1000
 3937SOL    HW214705  10.176  10.698   4.192  2.6137 -1.6264  0.0121
 3938SOL     OW14706   0.920   4.894   0.004 -0.1081  0.1884  1.2257
 3938SOL    HW114707   0.833   4.853   0.006  0.9173 -2.2787 -0.6464
 3938SOL    HW214708   0.902   4.986  -0.016 -2.2522 -0.7499 -1.8649
 3939SOL     OW14709   2.723   2.139  10.416 -0.0646  0.1739 -0.5312
 3939SOL    HW114710   2.741   2.179  10.331 -1.2586  1.0558 -0.4030
 3939SOL    HW214711   2.632   2.163  10.434  0.1343 -0.1136  0.9315
 3940SOL     OW14712   3.306   2.156   2.978  0.1718 -0.1599  0.1966
 3940SOL    HW114713   3.288   2.077   3.030 -0.9020 -1.1704 -1.6270
 3940SOL    HW214714   3.324   2.124   2.890  0.0190  1.6170 -0.5218
 3941SOL     OW14715   2.019   2.740   6.639 -0.2944  0.4597  0.5364
 3941SOL    HW114716   2.044   2.667   6.697  1.4481  1.8070  1.5821
 3941SOL    HW214717   2.004   2.698   6.554 -0.0117 -1.2067  1.2540
 3942SOL     OW14718   9.979   6.527   6.564  0.6409  0.0547 -0.3663
 3942SOL    HW114719   9.971   6.588   6.490  0.0211 -0.6040 -0.8512
 3942SOL    HW214720   9.956   6.580   6.641 -1.0298  0.1715 -0.9105
 3943SOL     OW14721  10.049   0.968   6.780  0.0260  0.4260  0.1505
 3943SOL    HW114722  10.119   1.034   6.773  1.0293 -0.5714  0.5922
 3943SOL    HW214723  10.042   0.950   6.873 -1.1643  0.8500  0.1604
 3944SOL     OW14724   4.614   1.759   1.087  0.1335  0.3453 -0.4500
 3944SOL    HW114725   4.612   1.840   1.138  3.0841 -1.1738  2.3534
 3944SOL    HW214726   4.535   1.712   1.113  0.1920  0.8091  0.5877
 3945SOL     OW14727   4.282   1.411   0.277 -0.0212  0.4786 -0.6529
 3945SOL    HW114728   4.341   1.404   0.352  0.3714 -2.5274 -1.1318
 3945SOL    HW214729   4.328   1.469   0.216  0.2687  1.8821  0.8161
 3946SOL     OW14730   7.804   1.757   1.093 -0.0515  0.6921  0.4556
 3946SOL    HW114731   7.792   1.843   1.132 -2.3743  0.3283  0.7210
 3946SOL    HW214732   7.725   1.709   1.117 -0.9460 -0.0686 -3.3047
 3947SOL     OW14733   1.154   4.257   8.721  0.4880  0.9312  0.0066
 3947SOL    HW114734   1.198   4.262   8.636  1.7409  2.5088  0.6775
 3947SOL    HW214735   1.225   4.238   8.783 -0.8303 -4.1685  0.4505
 3948SOL     OW14736   1.808   0.939   6.320  0.4946  0.4639  0.2650
 3948SOL    HW114737   1.875   0.907   6.380  0.4700 -1.7350 -0.7704
 3948SOL    HW214738   1.834   1.028   6.300  1.8560  0.4129  1.6055
 3949SOL     OW14739  10.309   1.542   6.288  0.7908  0.0840 -0.0457
 3949SOL    HW114740  10.404   1.555   6.296  0.7875 -0.3931  0.8599
 3949SOL    HW214741  10.293   1.456   6.327 -0.1103  0.4737  0.4722
 3950SOL     OW14742   6.406   1.599  10.556 -0.4553  0.5983 -0.0124
 3950SOL    HW114743   6.321   1.587  10.598  0.7071  0.4560  2.4363
 3950SOL    HW214744   6.439   1.511  10.542 -0.4223  0.6626 -0.3385
 3951SOL     OW14745  10.714   2.015   1.238 -0.1289 -0.2350 -0.0151
 3951SOL    HW114746  10.750   2.099   1.211 -1.0904 -0.5102 -2.3864
 3951SOL    HW214747  10.638   2.038   1.292  1.0914  0.3478  1.5342
 3952SOL     OW14748   8.761   4.846   5.490  0.4239 -0.8146  0.1636
 3952SOL    HW114749   8.710   4.894   5.555  0.7557 -0.7893  0.4055
 3952SOL    HW214750   8.757   4.900   5.412 -0.6401 -1.2244 -0.0854
 3953SOL     OW14751   1.691   4.470   5.745  0.1584  0.4521 -0.2115
 3953SOL    HW114752   1.720   4.389   5.788 -2.1395 -0.1196  0.4340
 3953SOL    HW214753   1.695   4.450   5.651 -0.8491 -0.6439 -0.0497
 3954SOL     OW14754   8.933   6.152   6.688 -0.6970  0.0785 -0.2774
 3954SOL    HW114755   9.010   6.161   6.744 -0.3984 -1.4119 -0.4103
 3954SOL    HW214756   8.951   6.075   6.635 -0.6394  1.8039 -2.9822
 3955SOL     OW14757   9.228  10.254   5.900  0.2479  0.6504  0.0716
 3955SOL    HW114758   9.184  10.231   5.981  0.2271 -0.3580 -0.2008
 3955SOL    HW214759   9.163  10.300   5.848  0.0701  0.7463  0.3840
 3956SOL     OW14760   6.118   8.419   2.784 -0.5254 -0.6027  0.1119
 3956SOL    HW114761   6.071   8.441   2.864  0.4101 -0.4920  0.6467
 3956SOL    HW214762   6.207   8.400   2.813 -0.2971 -1.0422 -0.8474
 3957SOL     OW14763   1.322   2.266   0.442 -0.2715  0.1532  0.0076
 3957SOL    HW114764   1.344   2.351   0.406  1.4752 -0.4077 -0.3410
 3957SOL    HW214765   1.226   2.263   0.440 -0.3473  1.8570 -0.5007
 3958SOL     OW14766   7.761  10.441   3.497  0.3278  0.1676 -0.0936
 3958SOL    HW114767   7.785  10.410   3.584 -0.2318  1.2122  0.4599
 3958SOL    HW214768   7.670  10.414   3.486  0.2354  0.4923 -0.1362
 3959SOL     OW14769   4.110   8.825   3.154 -0.1961 -0.2077 -0.5645
 3959SOL    HW114770   4.102   8.905   3.102 -1.8380 -0.8563 -1.4157
 3959SOL    HW214771   4.093   8.852   3.244 -0.4826  0.4497 -0.8114
 3960SOL     OW14772  10.600  10.758   4.585 -0.0068  0.1137 -0.4900
 3960SOL    HW114773  10.548  10.771   4.664  0.4399  1.0382 -0.3359
 3960SOL    HW214774  10.545  10.789   4.514 -0.3891 -0.6701 -0.5522
 3961SOL     OW14775   4.761   4.648   9.751  0.0807 -0.1438  0.3791
 3961SOL    HW114776   4.743   4.600   9.832 -0.9991 -1.5796 -0.6818
 3961SOL    HW214777   4.765   4.740   9.779  0.5750 -0.6674  2.1900
 3962SOL     OW14778   0.660   3.824   1.625  0.0359 -0.3268 -0.4584
 3962SOL    HW114779   0.654   3.763   1.698 -0.4490  0.0515 -0.1778
 3962SOL    HW214780   0.649   3.910   1.664  1.2510 -0.0089 -0.7756
 3963SOL     OW14781   8.524   5.048   7.945 -0.2444  0.5395  0.1632
 3963SOL    HW114782   8.482   5.111   7.886 -0.6825  2.2392  2.1630
 3963SOL    HW214783   8.547   5.100   8.022  3.2304 -0.8852  0.2437
 3964SOL     OW14784   7.565   6.573   1.974 -0.1272 -0.0019 -0.0731
 3964SOL    HW114785   7.554   6.510   1.903 -2.4295 -0.0363  0.2392
 3964SOL    HW214786   7.550   6.521   2.053  0.4775  0.4412  0.3359
 3965SOL     OW14787   1.638  10.008   1.286  0.2389  0.0511 -0.2814
 3965SOL    HW114788   1.647   9.920   1.322 -0.8295  0.5968  1.4413
 3965SOL    HW214789   1.678  10.065   1.352 -0.0744  0.9595 -0.8585
 3966SOL     OW14790   6.102   9.520   1.778  0.0274 -0.2011  0.2572
 3966SOL    HW114791   6.174   9.557   1.828  1.5445 -0.0309 -1.9294
 3966SOL    HW214792   6.107   9.426   1.793  2.6351 -0.5498 -2.1106
 3967SOL     OW14793   2.704   6.841   4.588 -0.2991  0.0341  0.1447
 3967SOL    HW114794   2.781   6.871   4.540 -0.1449 -1.1166 -0.3598
 3967SOL    HW214795   2.737   6.772   4.646 -0.7694  0.2797  0.7126
 3968SOL     OW14796  10.503   1.307   2.222 -0.0092 -0.1831 -0.5983
 3968SOL    HW114797  10.523   1.229   2.273  0.4987  0.1223 -0.3303
 3968SOL    HW214798  10.557   1.376   2.260 -1.4183  0.6252  0.0391
 3969SOL     OW14799  10.411   5.740   7.779 -0.2348 -0.0576 -0.6402
 3969SOL    HW114800  10.364   5.751   7.697  0.0054 -0.1170 -0.7888
 3969SOL    HW214801  10.487   5.797   7.772 -1.6405  2.1069  0.6905
 3970SOL     OW14802   6.505   2.387   0.664  0.4128  0.3130  0.2540
 3970SOL    HW114803   6.501   2.305   0.714  0.6818  0.6508  0.8423
 3970SOL    HW214804   6.500   2.456   0.731  1.1409  0.7753 -0.1559
 3971SOL     OW14805   4.693   5.469   2.220 -0.3066  0.2975  0.3410
 3971SOL    HW114806   4.601   5.471   2.192 -0.4412  0.8695  0.8134
 3971SOL    HW214807   4.728   5.390   2.179 -1.5735 -1.1681  1.9454
 3972SOL     OW14808   0.739   1.069   0.518 -0.1984  0.8481  0.1537
 3972SOL    HW114809   0.826   1.095   0.488 -0.1723  1.5741  0.8295
 3972SOL    HW214810   0.755   1.010   0.591 -0.2414  2.2837  1.3777
 3973SOL     OW14811   1.741   6.677   8.639 -0.4499  0.0766 -0.1866
 3973SOL    HW114812   1.734   6.653   8.547  0.1810  2.5655 -0.9648
 3973SOL    HW214813   1.692   6.609   8.685  1.5357 -2.8462 -2.0256
 3974SOL     OW14814   1.918   4.191   2.991  0.4207  0.3748  0.1818
 3974SOL    HW114815   1.917   4.183   2.895 -0.2639 -0.3521  0.2433
 3974SOL    HW214816   2.011   4.206   3.011  0.8424 -1.0229 -0.4971
 3975SOL     OW14817   6.280   9.271  10.081  0.3207  0.5803 -0.2592
 3975SOL    HW114818   6.228   9.199  10.117 -0.2711  0.7178 -0.8075
 3975SOL    HW214819   6.363   9.231  10.057  0.7135  0.4860  1.2077
 3976SOL     OW14820   1.623   9.694   3.671  0.3541 -0.4524 -0.1090
 3976SOL    HW114821   1.685   9.708   3.742 -0.1508  1.5074  0.0111
 3976SOL    HW214822   1.549   9.650   3.712  0.7888 -0.9052  0.1939
 3977SOL     OW14823  10.063   7.223   8.399 -0.0326  0.0533 -0.0912
 3977SOL    HW114824  10.118   7.155   8.362  0.1546  1.4026 -2.5263
 3977SOL    HW214825   9.979   7.215   8.353 -0.0066  1.4131 -0.4310
 3978SOL     OW14826   2.868   0.486   6.481  0.1537  0.5735 -0.2169
 3978SOL    HW114827   2.809   0.465   6.554 -0.6439 -0.0890 -1.0300
 3978SOL    HW214828   2.879   0.402   6.435 -1.3110  1.4449 -2.2748
 3979SOL     OW14829   4.170   4.945   9.931  0.4021 -0.4511  0.1063
 3979SOL    HW114830   4.230   4.960   9.857  0.1655  1.2924  0.2338
 3979SOL    HW214831   4.122   4.866   9.907  1.4435 -0.8157 -0.8655
 3980SOL     OW14832   7.381   6.991   8.391  0.3249  0.3172 -0.1292
 3980SOL    HW114833   7.449   6.995   8.325  0.7493  0.8433  0.3323
 3980SOL    HW214834   7.404   6.915   8.444  2.4019  2.2299  1.9594
 3981SOL     OW14835   5.255   1.651   2.845 -0.2489 -0.2169 -0.2441
 3981SOL    HW114836   5.348   1.628   2.846 -0.0853  0.4445  0.3499
 3981SOL    HW214837   5.252   1.741   2.812 -0.6166  0.0021  0.3606
 3982SOL     OW14838   0.243   2.021  10.217  0.2465  0.8622  0.5616
 3982SOL    HW114839   0.242   2.094  10.154  0.9080 -0.0237 -0.5129
 3982SOL    HW214840   0.167   1.968  10.193  0.5311  0.4953  0.4525
 3983SOL     OW14841   7.636  10.341   2.593 -0.1577 -0.0142 -0.6584
 3983SOL    HW114842   7.604  10.390   2.669  0.2473 -0.0496 -0.4591
 3983SOL    HW214843   7.631  10.402   2.520 -0.6677 -0.0160 -0.6298
 3984SOL     OW14844   2.785   6.515   6.543 -0.2158  0.7997  0.3238
 3984SOL    HW114845   2.810   6.487   6.631 -0.4619  0.2737  0.2324
 3984SOL    HW214846   2.785   6.434   6.492  1.3445  1.2906 -0.5157
 3985SOL     OW14847   7.897   0.507   0.026  0.5368 -0.5260  0.2123
 3985SOL    HW114848   7.978   0.521   0.075 -0.3612  3.2479  0.9015
 3985SOL    HW214849   7.869   0.594   0.000 -3.1860 -1.7027 -0.2629
 3986SOL     OW14850   9.268   9.162   9.002 -0.0220  0.1755 -0.1944
 3986SOL    HW114851   9.207   9.194   8.936 -1.4185 -0.5301  0.6868
 3986SOL    HW214852   9.311   9.240   9.036  0.0592  0.6188 -1.2998
 3987SOL     OW14853   0.519   1.282   3.082  0.0535  0.1198  0.1051
 3987SOL    HW114854   0.556   1.207   3.127  0.9321 -0.3695 -1.3772
 3987SOL    HW214855   0.429   1.257   3.062  0.0121 -0.1032  0.5765
 3988SOL     OW14856   3.664  10.651   0.572 -0.2348  0.2784  0.3244
 3988SOL    HW114857   3.741  10.709   0.571  1.9647 -2.2266  3.3136
 3988SOL    HW214858   3.638  10.649   0.665 -0.6770 -2.8382  0.2221
 3989SOL     OW14859   2.593   4.771   2.884  0.1662 -0.3278 -0.4163
 3989SOL    HW114860   2.572   4.802   2.796 -0.9070  0.6220  0.1381
 3989SOL    HW214861   2.671   4.717   2.873 -0.0362 -0.3503 -1.9641
 3990SOL     OW14862   4.713   0.915   9.294  0.3036  0.0165 -0.2801
 3990SOL    HW114863   4.719   0.958   9.380 -1.7407  1.5533 -0.8399
 3990SOL    HW214864   4.671   0.980   9.238  0.7109 -1.3279 -2.2209
 3991SOL     OW14865   1.845   3.383   5.583  0.2113  0.2637 -0.0984
 3991SOL    HW114866   1.929   3.414   5.616  0.5813 -0.0012 -0.7586
 3991SOL    HW214867   1.843   3.412   5.492  0.0548 -0.6339 -0.3953
 3992SOL     OW14868   2.216   4.201   4.240  0.1968  0.0012 -0.0491
 3992SOL    HW114869   2.211   4.212   4.335 -1.7899  0.2962 -0.1314
 3992SOL    HW214870   2.225   4.291   4.207  0.7955 -0.0939 -0.1506
 3993SOL     OW14871   8.269   8.014   8.548 -0.1792  0.1762  0.3837
 3993SOL    HW114872   8.294   7.932   8.592  0.7145  0.9346  1.3380
 3993SOL    HW214873   8.211   7.986   8.477 -0.3822 -1.2318  1.0626
 3994SOL     OW14874   9.423   6.238   4.920  0.8123 -0.2980  0.1997
 3994SOL    HW114875   9.445   6.330   4.934  2.6012 -0.3622 -1.6672
 3994SOL    HW214876   9.503   6.191   4.945 -0.0263 -1.3439  0.9733
 3995SOL     OW14877   7.370   3.108   7.345 -0.1947 -0.1294 -0.7043
 3995SOL    HW114878   7.382   3.137   7.436 -0.2849  0.6961 -0.9489
 3995SOL    HW214879   7.307   3.037   7.351  1.8313 -1.9610  0.1959
 3996SOL     OW14880   5.962   8.272   6.731  0.2110 -0.4163 -0.6269
 3996SOL    HW114881   6.022   8.334   6.773 -2.1543  2.6475 -1.3914
 3996SOL    HW214882   6.019   8.207   6.690  2.8271  0.5364  1.2293
 3997SOL     OW14883   1.889   2.981   5.501 -0.1480 -0.4192 -0.5493
 3997SOL    HW114884   1.813   3.021   5.545  0.5309  0.3041 -0.0008
 3997SOL    HW214885   1.877   3.001   5.409 -0.0251  0.7387 -0.3279
 3998SOL     OW14886   8.383   4.427   9.010  0.2371  0.5594 -0.0024
 3998SOL    HW114887   8.326   4.496   9.044 -0.2571  0.1286  0.0545
 3998SOL    HW214888   8.470   4.468   9.005  0.0406  1.0500  0.4548
 3999SOL     OW14889   5.857   4.910   6.427  0.0269 -0.4908 -0.4454
 3999SOL    HW114890   5.770   4.941   6.452  0.4169  0.2846 -0.0388
 3999SOL    HW214891   5.912   4.926   6.503  0.8204  0.2323 -1.1450
 4000SOL     OW14892   8.028   5.864   1.191 -0.1308  0.2665  0.0417
 4000SOL    HW114893   8.034   5.769   1.199  0.0238  0.2578 -0.1589
 4000SOL    HW214894   8.094   5.898   1.251 -0.1916  0.2454  0.1188
 4001SOL     OW14895   8.038   1.061  10.184  0.5319  0.7300  0.5261
 4001SOL    HW114896   8.074   1.019  10.105 -0.3489 -0.5271  0.7588
 4001SOL    HW214897   7.992   1.138  10.151 -1.0539 -0.5486 -0.4123
 4002SOL     OW14898   0.439   5.024   0.967  0.5229  0.0100 -0.5855
 4002SOL    HW114899   0.414   4.993   1.054 -0.0929  0.7054 -0.4963
 4002SOL    HW214900   0.534   5.018   0.965  0.4110 -3.3256 -1.1504
 4003SOL     OW14901   2.063   5.908   8.172 -0.0034  0.0238 -0.3046
 4003SOL    HW114902   2.061   5.961   8.092 -1.8208  1.7125  0.7540
 4003SOL    HW214903   2.058   5.818   8.142  0.3514  0.5761 -2.1153
 4004SOL     OW14904   1.660   1.067   4.044  0.5908  0.2143  0.2630
 4004SOL    HW114905   1.648   1.160   4.064  0.9064 -0.1291  2.2159
 4004SOL    HW214906   1.630   1.058   3.953  2.3683  2.5807 -0.6641
 4005SOL     OW14907   8.708   0.058   7.064 -0.3739 -0.8181 -0.2460
 4005SOL    HW114908   8.760   0.026   7.138 -0.6632 -2.1430 -0.5859
 4005SOL    HW214909   8.644  -0.012   7.047 -1.5324  0.2900 -0.5625
 4006SOL     OW14910   5.596   3.810  10.679 -0.6763  0.1106 -0.3208
 4006SOL    HW114911   5.592   3.897  10.717  1.3315  1.3952 -2.7014
 4006SOL    HW214912   5.641   3.757  10.744  2.9980  2.2838 -0.7680
 4007SOL     OW14913   4.723   8.631   4.609  0.1923 -0.5423  0.2342
 4007SOL    HW114914   4.685   8.607   4.524 -0.2780  2.3437 -0.4704
 4007SOL    HW214915   4.811   8.663   4.589  0.5676 -1.0276  1.0317
 4008SOL     OW14916  10.687   1.332   9.553 -0.3513 -0.8017 -0.5090
 4008SOL    HW114917  10.645   1.272   9.492  0.2694 -0.2942 -1.4515
 4008SOL    HW214918  10.615   1.370   9.603 -0.9109 -0.8024 -1.3066
 4009SOL     OW14919   2.842   3.187   6.850  0.5629  0.3383 -0.0584
 4009SOL    HW114920   2.785   3.113   6.827  0.5553  0.1324  0.6193
 4009SOL    HW214921   2.825   3.203   6.942  0.0324  1.6640 -0.3666
 4010SOL     OW14922   2.907   0.616   0.112 -0.0442 -0.0648  0.6055
 4010SOL    HW114923   2.850   0.541   0.128 -0.5761  0.2237  0.0761
 4010SOL    HW214924   2.966   0.617   0.188  1.3245 -2.2211 -0.3021
 4011SOL     OW14925   9.956   8.084   0.756  0.1114  0.1470 -0.1921
 4011SOL    HW114926   9.992   8.173   0.750  0.2833 -0.0155 -2.1432
 4011SOL    HW214927   9.984   8.053   0.843  1.3886  1.4204 -0.1041
 4012SOL     OW14928   6.385   3.274   0.202  0.2788 -0.0259  0.7315
 4012SOL    HW114929   6.407   3.218   0.277  0.7431 -0.6582  0.1341
 4012SOL    HW214930   6.465   3.324   0.185  0.3230 -0.2142  0.3766
 4013SOL     OW14931   3.672   4.255   7.207 -0.1226 -0.2808  1.1415
 4013SOL    HW114932   3.674   4.250   7.112  0.3243  0.9716  1.0672
 4013SOL    HW214933   3.718   4.176   7.236  1.0987  0.0826  0.2771
 4014SOL     OW14934   2.410   1.832   0.067  0.1564 -0.3011  0.0498
 4014SOL    HW114935   2.384   1.922   0.086  0.2586 -0.4395  0.9053
 4014SOL    HW214936   2.333   1.780   0.089  0.9264 -0.6613  2.0903
 4015SOL     OW14937  10.173   0.093   9.097  0.2382  0.1273 -0.7050
 4015SOL    HW114938  10.258   0.057   9.073  0.4467  0.4544 -0.4616
 4015SOL    HW214939  10.141   0.036   9.166  0.9394  0.8818  0.2693
 4016SOL     OW14940   1.845   3.935   1.583  0.2915  0.7645  0.2949
 4016SOL    HW114941   1.834   3.937   1.678  0.5841 -1.3793  0.4039
 4016SOL    HW214942   1.803   3.854   1.555  0.5020  1.1916 -1.3860
 4017SOL     OW14943   4.443   8.009   2.607  0.3777  0.2050  0.1810
 4017SOL    HW114944   4.529   8.035   2.638  1.0236  0.3102 -1.5981
 4017SOL    HW214945   4.402   8.090   2.578  0.1028  0.0141  0.0275
 4018SOL     OW14946   8.073   6.151   3.661 -0.0270  0.0816  0.1253
 4018SOL    HW114947   8.027   6.067   3.664 -0.7054  0.4686  1.2063
 4018SOL    HW214948   8.166   6.127   3.664 -0.2202 -0.6173  0.8868
 4019SOL     OW14949  10.361   3.983   2.413 -0.4204 -0.0319  0.0808
 4019SOL    HW114950  10.307   3.904   2.405 -2.9070  1.5044  0.7496
 4019SOL    HW214951  10.306   4.045   2.461  1.7454  1.8760  0.2563
 4020SOL     OW14952   6.786   4.642  10.475  0.3999 -0.0740 -0.1220
 4020SOL    HW114953   6.829   4.722  10.506  2.2468 -1.5168  1.3000
 4020SOL    HW214954   6.743   4.606  10.553 -1.3421  0.0345 -0.9861
 4021SOL     OW14955   3.132   6.981   3.273  0.6730 -0.2056  0.4630
 4021SOL    HW114956   3.112   6.888   3.289  2.1134 -0.5487  0.3885
 4021SOL    HW214957   3.144   7.018   3.361  1.7863 -0.4958  0.4414
 4022SOL     OW14958   3.611   8.138   4.930  0.3980 -0.6065  0.7929
 4022SOL    HW114959   3.548   8.144   5.002  1.3388  1.9297  1.5115
 4022SOL    HW214960   3.591   8.212   4.873  2.1950 -0.1863  0.6366
 4023SOL     OW14961   4.696   8.695   7.466  0.3144 -0.4551 -0.4746
 4023SOL    HW114962   4.619   8.682   7.522  0.0091 -3.6949 -1.4487
 4023SOL    HW214963   4.659   8.717   7.380  0.5453 -0.7833 -0.6571
 4024SOL     OW14964   5.142   4.837   7.634 -0.9585 -0.0386 -0.2655
 4024SOL    HW114965   5.229   4.822   7.670 -0.4061  0.8578 -1.1758
 4024SOL    HW214966   5.096   4.887   7.701  0.0260  1.5337 -0.7216
 4025SOL     OW14967   0.690   6.864   0.527 -0.4085 -0.1198  0.4864
 4025SOL    HW114968   0.635   6.889   0.453 -1.1302 -0.6316  0.8340
 4025SOL    HW214969   0.629   6.858   0.601  0.1891 -0.2573  0.9785
 4026SOL     OW14970   4.210   7.813   2.918  0.5642 -0.0554 -0.7100
 4026SOL    HW114971   4.158   7.829   2.840 -2.0168 -0.5064  0.7746
 4026SOL    HW214972   4.248   7.726   2.904  1.6909  0.6414 -2.1916
 4027SOL     OW14973   3.376   2.677   4.935  0.4250  0.0277  0.4442
 4027SOL    HW114974   3.281   2.673   4.927  0.3252  1.9782  0.4001
 4027SOL    HW214975   3.392   2.715   5.021  1.1237  0.7916 -0.0071
 4028SOL     OW14976  10.409   2.173   0.529 -0.0071  0.3473 -0.5707
 4028SOL    HW114977  10.414   2.262   0.563  2.0149 -0.2046  0.7787
 4028SOL    HW214978  10.329   2.172   0.476 -1.4673  2.2367  1.4177
 4029SOL     OW14979   5.773   8.473   1.643 -0.1884 -0.5184 -0.2077
 4029SOL    HW114980   5.759   8.567   1.641 -1.1427 -0.6238 -2.6781
 4029SOL    HW214981   5.868   8.462   1.649  0.2296  0.7335 -3.0599
 4030SOL     OW14982   2.939   4.880   3.628 -0.1863 -0.2885  0.1552
 4030SOL    HW114983   3.025   4.921   3.618 -0.1053 -0.6903 -0.8576
 4030SOL    HW214984   2.952   4.789   3.603 -1.0820 -0.1683 -0.8351
 4031SOL     OW14985   4.109  10.609   2.822 -0.2234 -0.3336  0.8705
 4031SOL    HW114986   4.147  10.689   2.787  1.4115 -0.6783  1.7900
 4031SOL    HW214987   4.026  10.636   2.861  0.1233  0.8310  0.8118
 4032SOL     OW14988   6.459   1.094   5.314  0.2563  0.0476  0.1052
 4032SOL    HW114989   6.385   1.134   5.268  0.4959  0.6817  0.2569
 4032SOL    HW214990   6.487   1.022   5.258  0.0005  0.2737 -0.3176
 4033SOL     OW14991   8.956   6.662   3.015  0.0926  0.1321 -0.6523
 4033SOL    HW114992   9.023   6.596   3.035  0.5656  0.8132  0.0276
 4033SOL    HW214993   8.908   6.624   2.941  0.7090 -0.7281 -0.6347
 4034SOL     OW14994   1.480   3.110   5.033 -0.1625 -0.1997 -0.3397
 4034SOL    HW114995   1.389   3.133   5.053 -0.2410 -1.3435  0.7801
 4034SOL    HW214996   1.474   3.025   4.988  0.4118 -1.4110  1.7399
 4035SOL     OW14997   2.428   6.277   9.986 -0.3234 -0.3616  0.2874
 4035SOL    HW114998   2.452   6.326  10.065  2.2414  0.6546 -0.9971
 4035SOL    HW214999   2.402   6.191  10.018  0.4457  0.0833  2.2670
 4036SOL     OW15000   6.286   4.853   4.471  0.5497 -0.2276 -0.3411
 4036SOL    HW115001   6.340   4.841   4.549  0.2330 -1.1139 -0.2406
 4036SOL    HW215002   6.196   4.843   4.503  0.3227  1.0091 -0.5443
 4037SOL     OW15003   5.484   2.634   8.037 -0.3647  0.5601  0.1122
 4037SOL    HW115004   5.398   2.628   8.078 -0.1510 -0.0449  0.4756
 4037SOL    HW215005   5.508   2.727   8.044 -0.6867  0.6062  0.6186
 4038SOL     OW15006   9.122   4.150   0.635  0.1060  0.3625 -0.1314
 4038SOL    HW115007   9.092   4.240   0.626  1.7641  0.8203 -1.9677
 4038SOL    HW215008   9.209   4.157   0.673  0.2341 -0.4468 -0.2522
 4039SOL     OW15009   2.355   2.449   2.664  0.0123  0.3788 -0.1203
 4039SOL    HW115010   2.330   2.385   2.598 -1.4590  2.0068 -1.2574
 4039SOL    HW215011   2.278   2.457   2.720  1.0381 -0.5574  1.5193
 4040SOL     OW15012   8.813   5.154   9.571 -0.0539 -0.5343  0.7600
 4040SOL    HW115013   8.872   5.192   9.507  0.3886 -0.6324  1.1045
 4040SOL    HW215014   8.759   5.092   9.521  1.4567 -1.9142  0.7732
 4041SOL     OW15015   5.328   9.231   8.295 -0.0794 -0.1063  0.5637
 4041SOL    HW115016   5.249   9.244   8.346 -0.6957 -1.0808 -0.0970
 4041SOL    HW215017   5.393   9.199   8.358  0.0331  1.3813  1.2446
 4042SOL     OW15018   1.386   0.232   7.608 -0.2111  0.1786  0.5522
 4042SOL    HW115019   1.450   0.264   7.671  0.0475  1.1564 -0.1751
 4042SOL    HW215020   1.322   0.303   7.600 -1.8083 -1.0579  1.7891
 4043SOL     OW15021   7.119   1.029   7.496  0.0523 -0.3960  0.7786
 4043SOL    HW115022   7.122   0.955   7.435  0.2605 -0.0943  0.4217
 4043SOL    HW215023   7.173   1.096   7.455 -0.0861 -0.0657  1.1332
 4044SOL     OW15024   8.809   4.252   4.035 -0.1189 -0.2273 -0.4150
 4044SOL    HW115025   8.742   4.219   4.094  0.1132  2.2193  1.3860
 4044SOL    HW215026   8.818   4.184   3.968 -1.5741 -2.3823  1.4351
 4045SOL     OW15027   3.259   6.398   6.882 -0.0127 -0.3796  0.3911
 4045SOL    HW115028   3.175   6.382   6.838  1.0923  0.0840 -2.0538
 4045SOL    HW215029   3.300   6.467   6.830  1.6572 -0.1789  1.8888
 4046SOL     OW15030   8.745   4.532   6.723 -0.0688  0.5880 -0.5816
 4046SOL    HW115031   8.837   4.505   6.726  0.1868  1.4650 -0.4572
 4046SOL    HW215032   8.714   4.520   6.813 -0.5899 -1.4126 -0.9811
 4047SOL     OW15033  10.132   7.052   1.115  0.2094  0.1937  0.4047
 4047SOL    HW115034  10.101   7.143   1.118 -0.7541 -0.1256  0.5909
 4047SOL    HW215035  10.067   7.007   1.061  0.7861 -0.3506  0.1517
 4048SOL     OW15036  10.357   4.589  10.416  0.3665 -0.3988  0.7176
 4048SOL    HW115037  10.444   4.552  10.434  0.9288  0.0468 -0.9184
 4048SOL    HW215038  10.296   4.528  10.458  1.4346 -1.1137  1.2765
 4049SOL     OW15039   7.468   4.918   8.544 -0.4530 -0.2625 -0.0701
 4049SOL    HW115040   7.503   5.002   8.573 -2.1922  0.1782  0.8782
 4049SOL    HW215041   7.447   4.931   8.452 -0.7418  0.3649  0.0827
 4050SOL     OW15042   9.400  10.222   9.641  0.1797 -0.5094  0.4769
 4050SOL    HW115043   9.382  10.291   9.577  2.1478 -0.1340  0.2400
 4050SOL    HW215044   9.317  10.177   9.654 -0.9391  1.3125 -0.0865
 4051SOL     OW15045   9.068   8.476   4.271  0.1358 -0.5564 -0.3893
 4051SOL    HW115046   9.012   8.399   4.284 -1.0823  0.5250  1.1115
 4051SOL    HW215047   9.115   8.486   4.354  0.1360  0.4005 -0.4903
 4052SOL     OW15048   4.038   3.937   6.035 -0.0547 -0.0067 -0.2519
 4052SOL    HW115049   4.103   4.007   6.029  0.7626 -0.8407 -2.0375
 4052SOL    HW215050   3.990   3.943   5.952 -0.7896 -0.8051  0.1004
 4053SOL     OW15051   7.623   4.503   4.328  0.1472  0.1546 -0.1602
 4053SOL    HW115052   7.707   4.543   4.307  0.3911  0.7075  1.6754
 4053SOL    HW215053   7.642   4.411   4.342  0.6141  0.4237  1.0452
 4054SOL     OW15054   2.606   3.888   1.495  0.7256  0.4061 -0.2661
 4054SOL    HW115055   2.634   3.967   1.449 -0.1126  0.7325 -0.2411
 4054SOL    HW215056   2.511   3.896   1.500  0.7105 -0.1722  0.5365
 4055SOL     OW15057   0.267   0.432   3.874  0.2614  0.1402  0.6494
 4055SOL    HW115058   0.315   0.514   3.864  0.0276  0.0448 -1.7582
 4055SOL    HW215059   0.334   0.366   3.890  0.9045  0.1885 -1.5584
 4056SOL     OW15060   1.955   4.130   4.177  0.5720 -0.2272  0.8399
 4056SOL    HW115061   2.049   4.141   4.194  0.4766 -0.4489  1.5660
 4056SOL    HW215062   1.941   4.169   4.091  1.4833 -0.9630  0.3446
 4057SOL     OW15063   9.767   2.236   4.585 -0.0976  0.2278 -0.4963
 4057SOL    HW115064   9.801   2.224   4.674  1.4981  0.4001 -1.0509
 4057SOL    HW215065   9.815   2.171   4.533 -1.9386 -0.7670 -1.0390
 4058SOL     OW15066   7.738   3.817   3.974  0.0702  0.1522 -0.3599
 4058SOL    HW115067   7.692   3.787   3.896  1.2916  1.2302 -1.5382
 4058SOL    HW215068   7.734   3.743   4.034 -1.7670 -0.3407 -1.0388
 4059SOL     OW15069   0.116   3.211   5.526 -0.0430  0.1971  0.2386
 4059SOL    HW115070   0.046   3.257   5.480 -0.0249  0.8025  0.8122
 4059SOL    HW215071   0.121   3.126   5.483  0.9330  1.2332 -1.8261
 4060SOL     OW15072   6.844   6.588   5.834  0.2831 -0.5327 -0.2365
 4060SOL    HW115073   6.794   6.665   5.861 -0.7596 -1.6798  1.3472
 4060SOL    HW215074   6.935   6.615   5.842 -0.0596  0.9036 -0.9169
 4061SOL     OW15075   7.930   7.358   3.838 -0.1110  0.7094  0.2445
 4061SOL    HW115076   7.919   7.333   3.930 -1.5224 -0.5845 -0.2354
 4061SOL    HW215077   7.919   7.276   3.789  2.4595  1.0016 -1.0240
 4062SOL     OW15078   6.916   9.205   3.571 -0.1309 -0.4972  0.1942
 4062SOL    HW115079   6.882   9.255   3.646  1.1383  0.4358  0.1747
 4062SOL    HW215080   6.988   9.154   3.607  0.0081 -0.6068 -0.2384
 4063SOL     OW15081   7.539   1.447   6.621 -0.1989 -0.2216  0.5564
 4063SOL    HW115082   7.486   1.454   6.700 -0.6470  0.6814  0.1774
 4063SOL    HW215083   7.558   1.353   6.614  0.5459 -0.2369  2.1765
 4064SOL     OW15084   0.990   2.120   7.699  0.0795  0.2135 -0.1134
 4064SOL    HW115085   0.942   2.118   7.616 -0.8029  0.1282  0.3781
 4064SOL    HW215086   0.945   2.188   7.750 -0.8402 -1.2439  1.1105
 4065SOL     OW15087   6.153   5.802   1.835  0.2604 -0.2589 -0.0636
 4065SOL    HW115088   6.116   5.890   1.842  0.3192 -0.3572  3.7035
 4065SOL    HW215089   6.077   5.745   1.825 -0.5587 -0.1329  3.7365
 4066SOL     OW15090   9.377   0.844   1.571 -0.6097  0.3880  0.0396
 4066SOL    HW115091   9.368   0.846   1.667 -0.6002  0.4815  0.0387
 4066SOL    HW215092   9.441   0.912   1.552 -1.1791  0.8989 -0.0984
 4067SOL     OW15093   9.121   6.967   5.527  0.6976  0.1502  0.3088
 4067SOL    HW115094   9.184   6.920   5.582  0.5926 -1.5449 -0.9471
 4067SOL    HW215095   9.043   6.912   5.528 -0.0255  1.1484  0.1155
 4068SOL     OW15096   0.913   0.498   0.440 -0.0589 -0.0369  0.3442
 4068SOL    HW115097   0.861   0.482   0.519 -1.7004 -1.5918 -0.9947
 4068SOL    HW215098   0.940   0.411   0.410 -0.8723  0.3585 -1.7025
 4069SOL     OW15099   6.725   8.196   5.671  0.0377  0.7531 -0.6464
 4069SOL    HW115100   6.687   8.254   5.736 -1.8774 -0.4544 -0.6088
 4069SOL    HW215101   6.713   8.108   5.707  0.4708  0.1718 -1.8693
 4070SOL     OW15102  10.379   2.403   3.047  0.4528 -0.1547  0.2349
 4070SOL    HW115103  10.396   2.309   3.051  1.3180 -0.0525 -0.6303
 4070SOL    HW215104  10.294   2.410   3.004  0.9648 -0.5109 -0.8606
 4071SOL     OW15105   1.823  10.481   4.826  0.3385  0.2551 -0.2951
 4071SOL    HW115106   1.777  10.448   4.748  3.0837 -0.4861 -1.7503
 4071SOL    HW215107   1.839  10.403   4.879  0.6354  0.3672 -0.2173
 4072SOL     OW15108   2.251   4.907   8.238 -0.3734 -0.3268  0.1743
 4072SOL    HW115109   2.209   4.824   8.261 -0.0720  0.1636  2.7861
 4072SOL    HW215110   2.182   4.956   8.194 -1.1243 -1.2476  0.2748
 4073SOL     OW15111   4.003   2.042   6.013 -0.2387 -0.0337  0.2690
 4073SOL    HW115112   4.072   2.062   6.077 -0.3831  0.8815  0.1418
 4073SOL    HW215113   4.041   2.064   5.928 -1.2034  2.0285  0.3061
 4074SOL     OW15114   6.277   3.241   6.728 -0.4393 -0.1355 -0.9540
 4074SOL    HW115115   6.342   3.172   6.747 -1.1210 -0.9010 -1.3388
 4074SOL    HW215116   6.296   3.267   6.637 -0.4132 -0.0707 -0.9300
 4075SOL     OW15117   5.115   8.081  10.724 -0.1354 -0.5136  0.9828
 4075SOL    HW115118   5.039   8.138  10.717  0.2718  0.3724  3.1291
 4075SOL    HW215119   5.079   7.995  10.746 -0.6278 -0.7196 -0.5016
 4076SOL     OW15120   4.069   6.422   1.433  0.3231  0.1627  0.0997
 4076SOL    HW115121   3.998   6.483   1.411  0.8358  0.6868 -0.1066
 4076SOL    HW215122   4.039   6.380   1.515 -0.5354 -0.1302 -0.3481
 4077SOL     OW15123   1.187   6.105   3.106 -0.8943  0.1374  0.0479
 4077SOL    HW115124   1.159   6.077   3.019 -2.9137 -0.1035  0.7230
 4077SOL    HW215125   1.158   6.196   3.113  0.6615  0.6780 -0.0647
 4078SOL     OW15126   1.009   4.612   1.096  0.0493  0.0153  0.2445
 4078SOL    HW115127   0.918   4.600   1.069 -0.0029 -1.0217  0.8457
 4078SOL    HW215128   1.059   4.554   1.038 -0.1173 -2.6903  2.5822
 4079SOL     OW15129   7.502   6.357   9.546 -0.0746  0.8609  0.2561
 4079SOL    HW115130   7.541   6.440   9.519 -0.4858  0.6419 -1.0841
 4079SOL    HW215131   7.488   6.366   9.640  2.0040  1.4158  0.5502
 4080SOL     OW15132   5.012   9.316  10.503 -0.4895  0.6091  0.4072
 4080SOL    HW115133   5.071   9.283  10.436  0.4044 -0.7941  1.8431
 4080SOL    HW215134   5.067   9.368  10.561 -1.4087  2.5374 -0.3374
 4081SOL     OW15135   0.211   2.825   4.413 -0.4233  0.6942 -0.0965
 4081SOL    HW115136   0.225   2.757   4.479  0.8809  0.8290 -0.2048
 4081SOL    HW215137   0.251   2.903   4.450  0.0321  0.8560 -0.8932
 4082SOL     OW15138   1.958   7.980   2.929  0.1456 -0.3623 -0.1910
 4082SOL    HW115139   2.037   7.940   2.891 -0.0929 -1.1105  0.0826
 4082SOL    HW215140   1.923   8.034   2.859  0.5648 -0.5083 -0.5217
 4083SOL     OW15141  10.756   0.216   3.299 -0.1783  0.0785 -0.1704
 4083SOL    HW115142  10.714   0.197   3.383 -0.4025 -0.1689 -0.3346
 4083SOL    HW215143  10.849   0.200   3.314 -0.3014 -0.6694 -0.1632
 4084SOL     OW15144   6.769   5.638   5.221  0.1807  0.4957 -0.1752
 4084SOL    HW115145   6.701   5.704   5.237  0.5391  0.3986  2.1334
 4084SOL    HW215146   6.734   5.584   5.150 -1.8208  0.9159  0.4287
 4085SOL     OW15147   5.228  10.687   0.519  0.2611  0.0842 -0.2969
 4085SOL    HW115148   5.232  10.763   0.577 -0.9622  0.9894 -1.3325
 4085SOL    HW215149   5.259  10.614   0.573 -3.6165  0.2267  2.6224
 4086SOL     OW15150   8.920   0.653   1.955  0.1632  0.2711 -0.3802
 4086SOL    HW115151   8.998   0.620   1.910 -0.2955  0.4066 -1.3014
 4086SOL    HW215152   8.853   0.658   1.887 -0.6209  0.2772  0.3710
 4087SOL     OW15153   3.614   1.416   5.857 -0.2667 -0.2735 -0.3454
 4087SOL    HW115154   3.524   1.411   5.824 -0.1835 -0.4622 -0.5366
 4087SOL    HW215155   3.651   1.330   5.842  0.5774  0.3458 -2.0528
 4088SOL     OW15156   8.843   5.893   4.876 -0.1457  0.2971  0.0124
 4088SOL    HW115157   8.881   5.980   4.868  1.7985 -0.2752  1.9420
 4088SOL    HW215158   8.776   5.902   4.944 -1.4137  0.6707 -1.2472
 4089SOL     OW15159   7.996   6.538  10.043 -0.1676 -0.3193  0.5309
 4089SOL    HW115160   7.972   6.545  10.135 -0.8662  0.6136  0.2969
 4089SOL    HW215161   8.021   6.626  10.017  0.7174 -0.7088 -0.0010
 4090SOL     OW15162   0.791   9.587   1.902  0.3547 -0.0864  0.2495
 4090SOL    HW115163   0.790   9.683   1.905 -0.0578 -0.0680 -0.2746
 4090SOL    HW215164   0.786   9.566   1.808 -1.1583 -0.6293  0.4242
 4091SOL     OW15165   8.039   7.532   7.893  0.0866 -0.7073 -0.4404
 4091SOL    HW115166   8.033   7.471   7.820  3.1814 -1.0320 -0.5694
 4091SOL    HW215167   8.024   7.618   7.853 -0.6131 -1.0546 -0.9608
 4092SOL     OW15168   0.163   4.415   9.421  0.3329 -0.1466  0.4710
 4092SOL    HW115169   0.095   4.360   9.382  1.1761 -0.5707 -0.4425
 4092SOL    HW215170   0.132   4.431   9.510 -1.8517  1.1734 -0.4388
 4093SOL     OW15171  10.242   6.858   2.454  0.0442  0.0053 -0.1076
 4093SOL    HW115172  10.180   6.881   2.385 -0.7276 -1.4542  0.0611
 4093SOL    HW215173  10.313   6.812   2.408 -0.4361 -0.9048  0.0396
 4094SOL     OW15174  10.262   9.181   9.266 -0.0014 -0.3207  0.3033
 4094SOL    HW115175  10.306   9.151   9.345 -0.0011 -0.6430  0.1839
 4094SOL    HW215176  10.190   9.119   9.253  0.0504 -0.3243  0.0060
 4095SOL     OW15177   4.962   0.493  10.552  0.5166 -0.0183 -0.2270
 4095SOL    HW115178   4.945   0.526  10.640  1.9129  3.3163 -1.0560
 4095SOL    HW215179   5.056   0.472  10.552  0.3310 -0.9354 -0.7039
 4096SOL     OW15180   7.349   7.551   9.284  0.7083 -0.1223  0.4159
 4096SOL    HW115181   7.429   7.497   9.284  1.4005  0.5929 -3.6436
 4096SOL    HW215182   7.320   7.550   9.193 -2.4409  1.8704  1.2733
 4097SOL     OW15183   5.512   5.300   6.259  0.2084 -0.1303 -0.5181
 4097SOL    HW115184   5.592   5.319   6.210 -0.9876  2.4843 -1.6550
 4097SOL    HW215185   5.519   5.352   6.339  0.8230 -2.0927  0.7810
 4098SOL     OW15186   2.649   2.860   2.161 -0.2307 -0.6912 -0.2166
 4098SOL    HW115187   2.579   2.866   2.096  1.3646 -1.5466 -2.1196
 4098SOL    HW215188   2.725   2.900   2.118  0.4149  0.4908  1.9031
 4099SOL     OW15189   3.217   7.442   8.396  0.4197 -0.1306 -0.2185
 4099SOL    HW115190   3.272   7.439   8.318  0.9866  2.1893  0.0188
 4099SOL    HW215191   3.268   7.398   8.463  0.0623 -1.8602 -1.0375
 4100SOL     OW15192   6.781   5.236   3.384 -0.6203  0.1558 -0.6937
 4100SOL    HW115193   6.797   5.260   3.476 -0.5640 -0.5002 -0.5300
 4100SOL    HW215194   6.789   5.141   3.382  0.5617  0.2491 -1.6039
 4101SOL     OW15195   7.893   7.727   5.486 -0.5937  0.2703  0.0347
 4101SOL    HW115196   7.977   7.750   5.526  0.4361 -2.0688 -0.6025
 4101SOL    HW215197   7.913   7.651   5.430 -3.3180 -1.0792  0.7216
 4102SOL     OW15198   5.906   3.551  10.126 -0.5296 -0.2758 -0.4819
 4102SOL    HW115199   5.990   3.577  10.089 -0.2769 -1.4375 -0.7499
 4102SOL    HW215200   5.861   3.506  10.055 -1.1860 -0.0773 -0.1981
 4103SOL     OW15201   1.458   2.273   9.759 -0.0796 -0.0705  0.1831
 4103SOL    HW115202   1.439   2.315   9.843 -0.4950 -1.1807  0.6619
 4103SOL    HW215203   1.484   2.184   9.782  1.8468  0.2205 -0.7413
 4104SOL     OW15204   4.598   2.164   7.221  0.1596 -0.0700 -0.3560
 4104SOL    HW115205   4.609   2.184   7.128  0.2053 -1.8249 -0.7606
 4104SOL    HW215206   4.517   2.208   7.245 -0.1886 -0.0994 -1.4071
 4105SOL     OW15207   6.136   3.504   7.624  0.4726  0.3651  0.1541
 4105SOL    HW115208   6.198   3.435   7.601  0.9322  0.5605  0.7544
 4105SOL    HW215209   6.190   3.568   7.671 -0.1040  0.7528  0.2903
 4106SOL     OW15210   7.549   8.151   8.744  0.2625  0.2912 -0.4238
 4106SOL    HW115211   7.643   8.132   8.750  0.5585  1.6829 -0.2614
 4106SOL    HW215212   7.536   8.182   8.654 -0.0403  0.1611 -0.4274
 4107SOL     OW15213   1.309   8.082  10.115  0.0444 -0.0705 -0.4649
 4107SOL    HW115214   1.305   8.152  10.180  0.5198  0.9586 -1.4956
 4107SOL    HW215215   1.308   8.001  10.166  1.7800  0.7045  0.9145
 4108SOL     OW15216   6.966   2.308   1.918 -0.0875  0.0478 -0.0652
 4108SOL    HW115217   6.961   2.258   1.836  1.3941 -0.8620  0.3691
 4108SOL    HW215218   6.947   2.398   1.892  0.4803 -0.2008 -1.4418
 4109SOL     OW15219   0.925   5.424   1.492  0.1231 -0.1280  0.6195
 4109SOL    HW115220   0.884   5.490   1.547 -0.1827 -0.0844  0.3460
 4109SOL    HW215221   1.016   5.420   1.521  0.2658  0.7596  0.3165
 4110SOL     OW15222   2.268   9.154   8.312 -0.1715 -0.6195  0.2666
 4110SOL    HW115223   2.175   9.175   8.311  0.2504  1.8626  2.2792
 4110SOL    HW215224   2.280   9.099   8.389  0.2319  0.4969  1.0255
 4111SOL     OW15225   4.823   3.705   6.767  0.5485  0.7053 -0.1159
 4111SOL    HW115226   4.765   3.704   6.690  0.3400  1.3344  0.0290
 4111SOL    HW215227   4.763   3.696   6.842  0.6116  1.5165  0.0429
 4112SOL     OW15228  10.372   6.654   2.325  0.4510  0.2673 -0.8618
 4112SOL    HW115229  10.395   6.627   2.236  1.0985 -0.1240 -0.5890
 4112SOL    HW215230  10.454   6.645   2.374 -0.4109 -1.9380  0.3491
 4113SOL     OW15231   8.353   5.347   0.535 -0.0059  0.2971  0.0790
 4113SOL    HW115232   8.306   5.267   0.556 -0.1520  0.0939 -0.9511
 4113SOL    HW215233   8.432   5.344   0.589 -0.4493 -0.0978  0.7070
 4114SOL     OW15234   1.585   7.445   9.377  0.1114 -0.0062  0.0112
 4114SOL    HW115235   1.636   7.425   9.455 -1.0662  0.0907  0.8320
 4114SOL    HW215236   1.517   7.378   9.375 -1.2362  1.2988  0.3549
 4115SOL     OW15237   3.012   6.545   5.344  0.1352 -0.5743  0.2312
 4115SOL    HW115238   3.050   6.457   5.352 -2.3224 -1.7805 -0.1620
 4115SOL    HW215239   3.021   6.566   5.251 -1.1950 -1.4474 -0.1382
 4116SOL     OW15240   4.182   0.170   5.623  0.1073  0.3375 -0.1945
 4116SOL    HW115241   4.247   0.102   5.604 -1.0913 -0.7080 -0.7037
 4116SOL    HW215242   4.218   0.249   5.583  2.1445  0.3617  1.5074
 4117SOL     OW15243   7.694   9.968   5.492 -0.1466  0.0337  0.0169
 4117SOL    HW115244   7.757  10.005   5.431  0.8938  0.1388  1.1081
 4117SOL    HW215245   7.725   9.879   5.509  0.3570  0.4417  1.3826
 4118SOL     OW15246  10.267   9.890   8.375  0.2607  0.6438  0.4402
 4118SOL    HW115247  10.309   9.891   8.461 -0.7088  1.2383  0.9193
 4118SOL    HW215248  10.271   9.981   8.346 -2.2472  1.1144  1.3016
 4119SOL     OW15249   6.596   3.601   9.336 -0.1788 -0.3418  0.3008
 4119SOL    HW115250   6.563   3.680   9.293 -1.7796  0.0323  2.1160
 4119SOL    HW215251   6.691   3.606   9.325 -0.3072  1.4087 -0.3162
 4120SOL     OW15252   2.634   9.389   2.931 -0.3994 -0.5509 -0.2120
 4120SOL    HW115253   2.600   9.402   3.020  0.4954 -0.7041  0.1632
 4120SOL    HW215254   2.701   9.322   2.940 -1.0060 -1.3291 -1.1929
 4121SOL     OW15255   3.781   2.414   1.752 -0.1060 -0.2922 -0.6978
 4121SOL    HW115256   3.864   2.452   1.725 -0.3141  1.7154  1.2083
 4121SOL    HW215257   3.728   2.413   1.672  1.3430 -0.5446 -1.6917
 4122SOL     OW15258   9.706   6.622   3.151 -0.0591 -0.3864  0.5501
 4122SOL    HW115259   9.761   6.673   3.210  1.5070 -1.1432 -0.1910
 4122SOL    HW215260   9.661   6.688   3.099 -1.0997  0.2791  2.2181
 4123SOL     OW15261   9.897   5.074   5.338  0.0658  0.0325  0.3848
 4123SOL    HW115262   9.937   5.034   5.416  1.0328 -0.5020 -0.3568
 4123SOL    HW215263   9.817   5.115   5.370  1.1852  1.1183  1.9456
 4124SOL     OW15264   4.262   0.962   6.551  0.1697  0.1472 -0.6874
 4124SOL    HW115265   4.315   1.033   6.589  2.5237 -1.8232 -0.0217
 4124SOL    HW215266   4.173   0.998   6.547  1.1305  2.8751  0.2211
 4125SOL     OW15267   4.167   0.359   0.868 -0.0875  0.3260 -0.4161
 4125SOL    HW115268   4.189   0.288   0.929  1.3186 -0.3086 -1.6165
 4125SOL    HW215269   4.104   0.413   0.917  1.0634 -0.0817  1.6444
 4126SOL     OW15270   1.590   4.891   9.545  0.2208 -0.0806  0.2368
 4126SOL    HW115271   1.576   4.813   9.599  0.8777 -0.0185  0.5061
 4126SOL    HW215272   1.684   4.891   9.527  0.1163  0.2745 -0.3402
 4127SOL     OW15273   1.560   7.061   7.370 -0.1429  0.1529  0.1263
 4127SOL    HW115274   1.494   7.114   7.416  2.5098  4.0194 -0.0205
 4127SOL    HW215275   1.532   7.064   7.278 -0.7892  0.0323  0.3107
 4128SOL     OW15276   3.597   6.797   5.724  0.0709  0.0889  0.4364
 4128SOL    HW115277   3.544   6.835   5.655 -0.5299 -1.6640 -0.1055
 4128SOL    HW215278   3.534   6.762   5.787  0.5908 -0.2054  0.8074
 4129SOL     OW15279   0.466   2.899  10.030  0.0452 -0.6935 -0.0390
 4129SOL    HW115280   0.439   2.925   9.941  0.0168  0.4037  0.2789
 4129SOL    HW215281   0.555   2.935  10.039 -1.5399  3.3468  1.9692
 4130SOL     OW15282   3.134   0.977   0.164  0.2636  0.3073  0.0291
 4130SOL    HW115283   3.205   1.037   0.189  0.0027  0.3956  0.5909
 4130SOL    HW215284   3.061   1.002   0.221 -0.2985  0.3752 -0.6990
 4131SOL     OW15285   1.796   9.957   2.839 -0.9118 -0.1725  0.0648
 4131SOL    HW115286   1.860   9.995   2.779 -1.2311 -1.0886 -0.8976
 4131SOL    HW215287   1.833   9.872   2.862 -1.8437 -0.7971 -0.6587
 4132SOL     OW15288   3.121   1.850   9.013 -0.3294  0.2809 -0.6296
 4132SOL    HW115289   3.087   1.858   9.101 -1.8192 -0.3004 -1.1204
 4132SOL    HW215290   3.142   1.940   8.986 -1.9931  0.7441 -0.4778
 4133SOL     OW15291   2.406   8.625   7.396 -0.1923  0.0971 -0.2193
 4133SOL    HW115292   2.422   8.592   7.308 -3.8759 -2.2664 -0.2089
 4133SOL    HW215293   2.471   8.581   7.451  1.6047  0.9705 -1.5582
 4134SOL     OW15294   0.399   4.620   5.121 -0.0479 -0.1642  0.4004
 4134SOL    HW115295   0.306   4.597   5.129 -0.0229 -0.3625  0.1401
 4134SOL    HW215296   0.419   4.606   5.028  0.7263 -1.9888  0.7977
 4135SOL     OW15297   8.324   2.579   3.492 -0.0218 -0.4498  0.2217
 4135SOL    HW115298   8.283   2.493   3.488  0.0009 -0.4044 -1.8919
 4135SOL    HW215299   8.416   2.562   3.512 -0.1464 -0.8592  0.4419
 4136SOL     OW15300   0.291  10.276   8.784 -0.4532 -0.3549 -0.5292
 4136SOL    HW115301   0.291  10.353   8.727  0.0012  0.5303  0.6251
 4136SOL    HW215302   0.328  10.307   8.867  2.9094 -2.5520 -1.0030
 4137SOL     OW15303   7.079   2.224   8.004  0.2293 -0.5429 -0.1120
 4137SOL    HW115304   7.117   2.141   7.976  1.2643 -0.1719  0.1503
 4137SOL    HW215305   7.146   2.263   8.060 -1.2001 -0.6403  1.7643
 4138SOL     OW15306   1.733   9.396   0.472 -0.0452 -0.5362  0.5141
 4138SOL    HW115307   1.664   9.343   0.432  0.4446 -1.2230  0.5490
 4138SOL    HW215308   1.730   9.374   0.565 -0.8517  0.6795  0.7945
 4139SOL     OW15309   2.701   9.145   1.561 -0.1052 -0.2819 -0.1853
 4139SOL    HW115310   2.684   9.080   1.494  1.1952 -0.1208 -0.6887
 4139SOL    HW215311   2.637   9.214   1.545 -0.2626 -0.5741 -0.8080
 4140SOL     OW15312  10.565   4.378   5.753  0.1888 -0.1652 -0.0855
 4140SOL    HW115313  10.645   4.372   5.702  0.9987  0.6540  1.0556
 4140SOL    HW215314  10.559   4.470   5.780 -0.2978 -0.5231  1.1368
 4141SOL     OW15315   5.473   1.163   6.358 -0.3425 -0.3472  0.1358
 4141SOL    HW115316   5.478   1.104   6.434  0.2141  1.3843  1.5256
 4141SOL    HW215317   5.381   1.188   6.352 -0.5114 -1.0482 -0.2138
 4142SOL     OW15318   5.234   8.428   3.834 -0.1281 -0.2813 -0.4358
 4142SOL    HW115319   5.187   8.345   3.827 -0.9259 -0.0772  1.7299
 4142SOL    HW215320   5.322   8.409   3.800 -0.4778 -1.8459 -0.5319
 4143SOL     OW15321   6.115   1.554   1.959  0.1587  0.1386 -0.0914
 4143SOL    HW115322   6.026   1.565   1.927  0.5681  0.8741 -1.0255
 4143SOL    HW215323   6.169   1.552   1.880  1.0563  0.6226  0.4878
 4144SOL     OW15324   2.278   4.066   0.447  0.3086  0.3330  0.4674
 4144SOL    HW115325   2.234   4.042   0.529  1.6662 -1.5361  0.7208
 4144SOL    HW215326   2.354   4.116   0.475  1.1672 -0.9204  0.4333
 4145SOL     OW15327   2.361   6.828   5.351  0.2262 -0.3244 -0.5740
 4145SOL    HW115328   2.320   6.791   5.429 -2.5154 -0.4217 -1.9469
 4145SOL    HW215329   2.454   6.831   5.372 -0.3712 -0.5953  2.5723
 4146SOL     OW15330   6.192   0.140   3.378 -0.1948 -0.2349  0.5971
 4146SOL    HW115331   6.189   0.173   3.288  0.0325  1.0956  1.0642
 4146SOL    HW215332   6.220   0.049   3.369 -1.7935 -0.6361 -0.7985
 4147SOL     OW15333   5.825   4.362   2.458 -0.1342 -0.8861 -0.1620
 4147SOL    HW115334   5.758   4.419   2.496  1.5829  0.5622  0.8852
 4147SOL    HW215335   5.776   4.299   2.405 -2.3612 -0.4494  1.2370
 4148SOL     OW15336   2.317   1.999   1.453 -0.1686  0.4478 -0.1487
 4148SOL    HW115337   2.405   2.027   1.426  0.9351 -0.7575  1.9263
 4148SOL    HW215338   2.271   2.081   1.472  0.8173  1.0843 -0.3872
 4149SOL     OW15339   7.654   9.197   4.168  0.3783 -0.1329 -0.3536
 4149SOL    HW115340   7.584   9.247   4.211  1.1842  0.5360  0.2343
 4149SOL    HW215341   7.631   9.198   4.075  0.1855  1.0580 -0.3136
 4150SOL     OW15342   4.833   7.616   9.380 -0.7896 -0.2773  0.4422
 4150SOL    HW115343   4.812   7.527   9.406 -1.0823  0.0718  1.4211
 4150SOL    HW215344   4.788   7.672   9.443  0.6543  0.5336  0.8175
 4151SOL     OW15345   1.991   7.889   0.246 -0.2405  0.4987  0.0167
 4151SOL    HW115346   1.986   7.959   0.181  0.2626 -0.8617 -1.5476
 4151SOL    HW215347   2.038   7.819   0.202 -0.7526 -0.8513  1.5289
 4152SOL     OW15348  10.167   5.952   1.457  0.8226 -0.1112  0.4035
 4152SOL    HW115349  10.257   5.929   1.432  0.8998 -1.6863  1.9378
 4152SOL    HW215350  10.150   5.900   1.535 -2.1614 -1.4356 -0.9851
 4153SOL     OW15351   3.112   0.589   0.341 -0.4285  0.7807  0.1176
 4153SOL    HW115352   3.062   0.665   0.371  0.3632  0.8276  1.3486
 4153SOL    HW215353   3.052   0.515   0.351 -0.7160  1.0335  0.2544
 4154SOL     OW15354   9.928   7.817   0.916  0.1712  0.1436 -0.0222
 4154SOL    HW115355  10.017   7.837   0.888  0.0769  1.6955  0.6374
 4154SOL    HW215356   9.936   7.738   0.970  1.2565  0.6256  0.5453
 4155SOL     OW15357   5.872  10.649   6.749 -0.1156 -0.3598  0.0437
 4155SOL    HW115358   5.946  10.651   6.809  2.0897 -2.5440 -2.3513
 4155SOL    HW215359   5.819  10.576   6.780  0.3887 -0.7377  0.0343
 4156SOL     OW15360   2.188   3.149   8.158 -0.2454  0.2039 -0.4266
 4156SOL    HW115361   2.279   3.160   8.132 -0.6492 -0.9058 -2.5427
 4156SOL    HW215362   2.158   3.072   8.109 -1.8898 -0.4606  1.4509
 4157SOL     OW15363   9.064   6.008   0.737  0.0392 -0.6268  0.0891
 4157SOL    HW115364   9.154   6.008   0.772  0.2466 -1.4854 -0.4123
 4157SOL    HW215365   9.015   6.065   0.797  0.6899 -0.9716  0.9767
 4158SOL     OW15366   7.457   7.956   0.633 -0.0880 -0.3703  0.0709
 4158SOL    HW115367   7.475   8.022   0.700 -1.2936 -0.8180  0.8543
 4158SOL    HW215368   7.479   7.872   0.675 -0.5831 -0.6361 -0.1936
 4159SOL     OW15369   7.572   3.998   5.268  0.0587 -0.0827  0.1333
 4159SOL    HW115370   7.510   3.925   5.261  0.8340 -0.6492 -0.9885
 4159SOL    HW215371   7.533   4.067   5.214  1.1842 -1.0290 -2.0028
 4160SOL     OW15372   3.811  10.657  10.660 -0.7181  0.6081 -0.2730
 4160SOL    HW115373   3.786  10.742  10.697 -1.5094  0.1094  0.3706
 4160SOL    HW215374   3.737  10.600  10.679  0.3013 -0.5556  0.4034
 4161SOL     OW15375   2.897   4.310   5.533  0.1353  0.1277  0.4145
 4161SOL    HW115376   2.865   4.262   5.609 -2.6278 -0.8459 -1.1785
 4161SOL    HW215377   2.866   4.400   5.547 -0.3707 -0.0508  0.4814
 4162SOL     OW15378   7.530   6.652   9.829 -0.1708  0.0115 -0.3768
 4162SOL    HW115379   7.446   6.612   9.849  0.9789 -1.7866  1.2146
 4162SOL    HW215380   7.587   6.578   9.808  1.3632  1.0689 -0.0992
 4163SOL     OW15381   6.977   8.431   2.244  0.1608  0.6059 -0.5281
 4163SOL    HW115382   7.026   8.432   2.326 -0.4806 -0.3017 -0.1258
 4163SOL    HW215383   6.893   8.472   2.266 -0.4245 -0.6011 -0.4494
 4164SOL     OW15384   6.912  10.392   9.661 -0.2963 -0.2357 -0.0062
 4164SOL    HW115385   6.919  10.372   9.568  0.8144 -1.0451  0.2331
 4164SOL    HW215386   6.844  10.333   9.694 -0.6991  0.0599 -0.2876
 4165SOL     OW15387   4.730  10.155   9.428 -0.4287  0.5133  0.3046
 4165SOL    HW115388   4.791  10.086   9.401 -1.5135 -0.1915 -0.4329
 4165SOL    HW215389   4.766  10.235   9.390  1.0882  0.4728  1.5419
 4166SOL     OW15390   5.656   7.949   8.927 -0.8102 -0.0391 -0.4093
 4166SOL    HW115391   5.644   8.035   8.968  1.9648  1.1138 -1.7733
 4166SOL    HW215392   5.603   7.890   8.980 -1.7177  2.2727  1.4377
 4167SOL     OW15393   7.597   8.453   7.097 -0.2180 -0.6849  0.2788
 4167SOL    HW115394   7.661   8.432   7.029  0.7687 -0.4490  1.1098
 4167SOL    HW215395   7.576   8.369   7.137  0.0022 -0.6948  0.3748
 4168SOL     OW15396   9.070   5.694   4.112 -0.3970 -0.0038 -0.0507
 4168SOL    HW115397   9.038   5.619   4.162  0.5550 -0.5257 -0.1935
 4168SOL    HW215398   8.996   5.754   4.108 -0.3929  0.2410  2.3522
 4169SOL     OW15399   1.716   9.796  10.368  0.4417  0.1174  0.0733
 4169SOL    HW115400   1.776   9.860  10.332  3.0424 -1.9130  0.4676
 4169SOL    HW215401   1.698   9.826  10.457  1.5457  0.3680  0.2158
 4170SOL     OW15402   4.846   4.064   3.234 -0.1968 -0.1788  0.0311
 4170SOL    HW115403   4.935   4.046   3.203  0.0655 -0.1007  0.7129
 4170SOL    HW215404   4.790   4.007   3.182  0.4160 -1.4477  0.7072
 4171SOL     OW15405   8.364   0.382   2.454  0.4465  0.5525  0.3173
 4171SOL    HW115406   8.300   0.427   2.398 -2.1728 -2.6094  0.4939
 4171SOL    HW215407   8.419   0.334   2.393 -0.3491 -0.3616  0.3052
 4172SOL     OW15408   6.747  10.485   2.028 -0.5057  0.2492  0.7627
 4172SOL    HW115409   6.719  10.394   2.015  0.2289  0.1509 -0.2517
 4172SOL    HW215410   6.765  10.491   2.122  0.0326 -0.8415  0.7467
 4173SOL     OW15411   7.122   3.679   9.174  0.2431 -0.4561  0.1301
 4173SOL    HW115412   7.199   3.710   9.222  1.1420 -1.4537 -0.6156
 4173SOL    HW215413   7.059   3.655   9.242  0.6091  0.3139  0.7520
 4174SOL     OW15414  10.737   5.227   3.848  0.6626  0.0424 -0.2141
 4174SOL    HW115415  10.758   5.319   3.862 -1.0346  0.4432 -0.0768
 4174SOL    HW215416  10.660   5.211   3.902  1.8144 -1.8882  0.9722
 4175SOL     OW15417   5.624   4.433  10.499 -0.1324 -0.4190 -0.1890
 4175SOL    HW115418   5.589   4.413  10.412  1.8804  1.7710 -1.6292
 4175SOL    HW215419   5.613   4.527  10.508  1.3840 -0.3161  1.1009
 4176SOL     OW15420   9.897   9.558   4.944  0.0138  0.1883  0.2809
 4176SOL    HW115421   9.927   9.532   4.856 -0.4135 -1.9321  0.6979
 4176SOL    HW215422   9.805   9.530   4.947 -0.3041  1.2578  1.0384
 4177SOL     OW15423   9.118   7.715   6.025 -0.1668  0.0216 -0.1886
 4177SOL    HW115424   9.176   7.775   6.072 -0.1137 -0.6659  0.6508
 4177SOL    HW215425   9.033   7.726   6.069 -0.5202  0.5316 -0.9742
 4178SOL     OW15426   8.847   5.061   6.156 -0.2713 -0.0905 -0.9229
 4178SOL    HW115427   8.852   5.037   6.063  0.3540  1.3204 -1.2792
 4178SOL    HW215428   8.845   5.157   6.156 -3.3429 -0.0280  0.3794
 4179SOL     OW15429   2.227   2.075   9.346  0.1786  0.3249 -0.0984
 4179SOL    HW115430   2.153   2.058   9.404  0.7201  2.0158  1.1559
 4179SOL    HW215431   2.298   2.102   9.404  1.3557  0.1413 -1.3932
 4180SOL     OW15432   9.964  10.712   0.918  0.4975 -0.5763 -0.2746
 4180SOL    HW115433  10.019  10.783   0.951  1.3145 -0.9806 -0.7373
 4180SOL    HW215434  10.010  10.681   0.840 -0.3944 -0.9263 -0.6700
 4181SOL     OW15435   8.531   4.298   0.290  0.1320 -0.0601  0.8268
 4181SOL    HW115436   8.560   4.385   0.317 -0.4485  0.3849  0.0570
 4181SOL    HW215437   8.471   4.314   0.218  0.4039 -1.1310  0.3374
 4182SOL     OW15438   5.107   3.684   4.851 -0.0459  0.0793 -0.3487
 4182SOL    HW115439   5.188   3.709   4.896 -0.3017  0.0771  0.1227
 4182SOL    HW215440   5.115   3.724   4.764  2.6790 -3.8458 -2.2122
 4183SOL     OW15441   5.701   1.330   9.056  0.4572  0.6180  0.1899
 4183SOL    HW115442   5.657   1.393   9.112  0.9110  1.4420 -0.3608
 4183SOL    HW215443   5.630   1.284   9.010  0.1114  3.1499 -2.0379
 4184SOL     OW15444   6.602   9.810   3.340 -0.2909 -0.6872  0.1854
 4184SOL    HW115445   6.554   9.853   3.411  0.5478 -0.8848  0.8820
 4184SOL    HW215446   6.535   9.761   3.293 -1.3809  1.6504 -0.8888
 4185SOL     OW15447   5.444   9.929   8.960 -0.0147  0.1000  0.3488
 4185SOL    HW115448   5.420   9.900   9.048 -1.5845  1.9092  0.5778
 4185SOL    HW215449   5.401  10.014   8.950  0.0896 -0.0673 -2.1868
 4186SOL     OW15450   0.357   8.513   9.953 -0.6935  0.2243 -1.0079
 4186SOL    HW115451   0.270   8.479   9.930 -0.9430  0.3349 -0.2623
 4186SOL    HW215452   0.383   8.461  10.029  0.1035 -0.1260 -1.5143
 4187SOL     OW15453   3.446   8.206   0.073 -0.2248 -0.1167 -0.2490
 4187SOL    HW115454   3.518   8.268   0.075 -0.0485 -0.3328  0.2644
 4187SOL    HW215455   3.384   8.238   0.139 -0.3187 -0.2619 -0.2661
 4188SOL     OW15456   1.460   5.125  10.428 -0.1368 -0.2611  0.1011
 4188SOL    HW115457   1.466   5.155  10.338 -0.8596  1.0944  0.4727
 4188SOL    HW215458   1.400   5.187  10.470  0.8084 -0.3667  1.7093
 4189SOL     OW15459   7.928   0.400  10.517  0.0982 -0.0477 -0.2010
 4189SOL    HW115460   7.945   0.377  10.609 -0.3438 -2.3773 -0.6570
 4189SOL    HW215461   7.947   0.494  10.513 -0.6588  0.3149  2.4504
 4190SOL     OW15462   4.672   3.444   1.817 -1.0611 -0.1396 -0.0222
 4190SOL    HW115463   4.746   3.385   1.805 -1.0406  0.0606 -0.9296
 4190SOL    HW215464   4.640   3.461   1.729 -1.2261  1.0143  0.2389
 4191SOL     OW15465   9.535   6.218   4.528 -0.7080 -0.0527 -0.2318
 4191SOL    HW115466   9.449   6.219   4.569 -0.3250 -3.0374  0.8478
 4191SOL    HW215467   9.583   6.288   4.572 -2.7470  2.3591 -1.5430
 4192SOL     OW15468   1.743   0.051   0.729  0.2322  0.3532  0.3358
 4192SOL    HW115469   1.690  -0.028   0.719 -0.2739  0.7084  0.1672
 4192SOL    HW215470   1.685   0.113   0.772  0.2699  0.9892 -0.5074
 4193SOL     OW15471   1.773   6.757   6.006 -0.4047 -0.5643 -0.1843
 4193SOL    HW115472   1.678   6.752   5.993 -0.4947 -0.9321  0.5346
 4193SOL    HW215473   1.805   6.807   5.931 -1.1639 -0.4490 -0.4433
 4194SOL     OW15474   7.142   5.091  10.409  0.7292 -0.1496  0.2518
 4194SOL    HW115475   7.158   5.178  10.373  1.0495  0.1962  1.1909
 4194SOL    HW215476   7.224   5.044  10.398  1.0013  0.1338  0.9856
 4195SOL     OW15477   9.424   9.517   6.798 -0.1624  0.5219 -0.4388
 4195SOL    HW115478   9.392   9.498   6.710 -1.8639  1.4895 -0.0735
 4195SOL    HW215479   9.365   9.468   6.855  1.1704 -0.4170  0.1868
 4196SOL     OW15480   4.350   3.749   7.912  0.5768  0.2708  0.0092
 4196SOL    HW115481   4.365   3.654   7.911 -1.3771 -0.0751 -0.9231
 4196SOL    HW215482   4.382   3.778   7.826 -0.5362  0.1285 -0.4685
 4197SOL     OW15483   8.293   6.732   8.998 -0.1785  0.3102  0.6389
 4197SOL    HW115484   8.239   6.709   8.924  0.4350 -1.3580  0.6760
 4197SOL    HW215485   8.383   6.712   8.970  0.0202 -0.7545  1.9611
 4198SOL     OW15486   6.704   7.227   8.862  0.7033 -0.1753  0.3728
 4198SOL    HW115487   6.638   7.194   8.801 -1.1333  0.5893  1.8661
 4198SOL    HW215488   6.788   7.204   8.821 -0.4104  0.4978 -2.5589
 4199SOL     OW15489   7.475   4.622   2.120 -0.1351 -0.5467 -0.2900
 4199SOL    HW115490   7.405   4.615   2.055 -0.0863  0.9324 -0.5340
 4199SOL    HW215491   7.545   4.566   2.085  0.7993  1.9283 -2.7686
 4200SOL     OW15492   1.551   6.963   1.197 -0.1731  0.6465 -0.6617
 4200SOL    HW115493   1.557   7.004   1.111  0.3861  2.2217  0.1032
 4200SOL    HW215494   1.482   7.011   1.242 -0.1182  0.1607 -0.0395
 4201SOL     OW15495   2.080  10.479   5.680  0.2791  0.0854 -0.5572
 4201SOL    HW115496   2.085  10.403   5.622  0.9717 -0.8947  0.7408
 4201SOL    HW215497   2.171  10.507   5.689  0.3394 -0.5412  1.0120
 4202SOL     OW15498   6.178   6.704   9.517  0.2935 -0.5333 -0.1149
 4202SOL    HW115499   6.142   6.726   9.603  2.7823 -0.1539  0.9040
 4202SOL    HW215500   6.184   6.788   9.472 -1.0313 -0.7351 -0.7141
 4203SOL     OW15501   3.451   9.432  10.796  0.0585  0.3291 -0.4202
 4203SOL    HW115502   3.523   9.442  10.858 -0.3450  1.6991 -0.1424
 4203SOL    HW215503   3.492   9.445  10.710  0.3258  0.0519 -0.3348
 4204SOL     OW15504   8.819   1.818   4.461  0.0249 -0.6329  0.1985
 4204SOL    HW115505   8.866   1.795   4.541 -0.3701 -0.0281  0.6138
 4204SOL    HW215506   8.735   1.851   4.492  1.3120  3.5259 -0.1418
 4205SOL     OW15507   5.998   2.099   5.719  0.3033 -0.0280 -0.5952
 4205SOL    HW115508   6.006   2.041   5.643  0.4566 -0.3917 -0.3063
 4205SOL    HW215509   5.908   2.131   5.715  0.1824 -0.3704 -0.7035
 4206SOL     OW15510   2.305   0.567   0.757 -0.2939  0.2203 -0.8172
 4206SOL    HW115511   2.328   0.487   0.710  0.4121  1.0118 -1.8729
 4206SOL    HW215512   2.381   0.585   0.813 -1.2290 -0.8496  0.8781
 4207SOL     OW15513   9.516   8.663   4.359 -0.4425  0.0214 -0.0194
 4207SOL    HW115514   9.439   8.631   4.311 -0.4020  1.1556 -0.8912
 4207SOL    HW215515   9.570   8.705   4.292  0.6609 -0.2431  0.6838
 4208SOL     OW15516   9.780   8.682   0.026 -0.3741  0.0969  0.1489
 4208SOL    HW115517   9.756   8.700   0.116 -0.3295  0.9156  0.0001
 4208SOL    HW215518   9.868   8.718   0.016 -0.0948 -0.6019 -0.0328
 4209SOL     OW15519   5.722   0.877   3.417 -0.2814  0.0331 -0.2927
 4209SOL    HW115520   5.766   0.822   3.352 -0.9476  0.8968 -1.5187
 4209SOL    HW215521   5.739   0.834   3.501  0.8922 -0.9210 -0.9953
 4210SOL     OW15522   6.360   4.380   2.582 -0.1241  0.0676  0.3352
 4210SOL    HW115523   6.403   4.414   2.504 -1.0954  0.4269 -0.0547
 4210SOL    HW215524   6.395   4.292   2.593  1.8879  0.8873  0.9456
 4211SOL     OW15525   3.865   6.829   5.488  0.0332  0.3280  0.2212
 4211SOL    HW115526   3.792   6.774   5.518 -0.1110  0.0916 -0.5336
 4211SOL    HW215527   3.917   6.845   5.566  0.6026 -1.6654  0.3211
 4212SOL     OW15528   9.355   3.693   8.477 -0.3267 -0.4133  0.1363
 4212SOL    HW115529   9.358   3.615   8.422  0.7152 -0.2974 -0.0024
 4212SOL    HW215530   9.403   3.759   8.427 -1.6363  0.4808  0.0235
 4213SOL     OW15531   6.661   8.333   2.543  0.1960 -0.1979 -0.0950
 4213SOL    HW115532   6.755   8.314   2.537 -0.1128 -1.4465 -1.7927
 4213SOL    HW215533   6.652   8.382   2.624  2.4253  0.6614 -0.2895
 4214SOL     OW15534   0.922   0.184   3.157 -0.3780  0.4552  0.3966
 4214SOL    HW115535   0.861   0.254   3.134 -1.2858 -0.9928 -2.0104
 4214SOL    HW215536   0.986   0.184   3.086  0.1136 -0.5906  0.8251
 4215SOL     OW15537   6.140   2.785   9.611 -0.5817 -0.1223  0.0295
 4215SOL    HW115538   6.086   2.787   9.532  1.5090 -1.5128 -1.5572
 4215SOL    HW215539   6.149   2.877   9.637  0.6874  0.7205 -2.8928
 4216SOL     OW15540   7.006   9.899   9.411  0.0448 -0.7126  0.5869
 4216SOL    HW115541   6.924   9.881   9.365  0.6777 -0.3459 -0.7349
 4216SOL    HW215542   7.020   9.993   9.399  0.3710 -0.6611  1.3107
 4217SOL     OW15543   3.536   8.468   3.476 -0.7352  0.0261  0.1786
 4217SOL    HW115544   3.498   8.501   3.395 -0.9780 -1.6351 -0.4316
 4217SOL    HW215545   3.493   8.518   3.545 -0.7267  1.2748 -0.6878
 4218SOL     OW15546   8.361  10.775   7.434  0.6914  0.6360  0.0493
 4218SOL    HW115547   8.281  10.780   7.486  0.2582 -0.1311 -0.5232
 4218SOL    HW215548   8.331  10.782   7.343  1.2931  0.6058 -0.1558
 4219SOL     OW15549   0.387   2.712   0.078  0.8160 -0.7619 -0.1878
 4219SOL    HW115550   0.326   2.706   0.151 -0.4413  0.4817 -1.0867
 4219SOL    HW215551   0.409   2.805   0.073 -0.5185 -0.4926 -2.4455
 4220SOL     OW15552   9.871   1.791   2.961 -0.8540 -0.2460 -0.6469
 4220SOL    HW115553   9.812   1.732   2.914  0.0380 -1.2413 -0.5655
 4220SOL    HW215554   9.948   1.797   2.904 -0.0748 -0.8632  0.3154
 4221SOL     OW15555   2.487   7.428   9.973  0.5556  0.2676  0.2982
 4221SOL    HW115556   2.451   7.513   9.996  1.3311  0.7353 -0.1752
 4221SOL    HW215557   2.413   7.379   9.938  0.5759  1.5986 -1.7437
 4222SOL     OW15558   7.742   1.573   8.890  0.2596  0.3805 -0.0596
 4222SOL    HW115559   7.726   1.663   8.918 -2.9814 -0.3836  0.9588
 4222SOL    HW215560   7.690   1.563   8.810 -0.8902 -1.0621  0.8298
 4223SOL     OW15561   6.666   2.362   5.227  0.1852 -0.2680 -0.6961
 4223SOL    HW115562   6.644   2.440   5.278  3.3957  1.2014 -1.3221
 4223SOL    HW215563   6.623   2.376   5.142 -1.6305 -0.6581  0.1151
 4224SOL     OW15564   0.218   2.523   8.995 -0.2440 -0.0637 -0.0731
 4224SOL    HW115565   0.280   2.505   8.924 -0.9474  0.9467 -0.9854
 4224SOL    HW215566   0.267   2.505   9.075  0.7663 -0.6461 -0.8046
 4225SOL     OW15567   6.384   7.108   7.879 -0.5642 -0.1824 -0.5763
 4225SOL    HW115568   6.331   7.046   7.829  0.2908 -1.5021  0.0906
 4225SOL    HW215569   6.446   7.053   7.927  1.0532  1.2513 -0.8997
 4226SOL     OW15570   8.934   6.539   9.446  0.2235 -0.0983  0.1070
 4226SOL    HW115571   8.987   6.517   9.369  3.0947 -0.1530  1.9207
 4226SOL    HW215572   8.997   6.539   9.518 -2.0306  1.5050  2.2291
 4227SOL     OW15573   9.716   5.422   2.910  0.5975  0.0289 -0.3699
 4227SOL    HW115574   9.725   5.472   2.991 -0.4202  0.7810 -0.6919
 4227SOL    HW215575   9.649   5.469   2.860  1.7651  0.0550 -2.0125
 4228SOL     OW15576   2.789   8.296   8.699  0.1226 -0.0221  0.4427
 4228SOL    HW115577   2.735   8.334   8.629 -1.7731 -1.7523  0.8817
 4228SOL    HW215578   2.879   8.320   8.674 -0.7479  3.1310 -0.2181
 4229SOL     OW15579   0.200   6.382  10.524 -0.0216  0.3835  0.3326
 4229SOL    HW115580   0.226   6.469  10.553  1.7801  0.4208 -1.2291
 4229SOL    HW215581   0.119   6.396  10.475 -0.5706  0.9355  1.3585
 4230SOL     OW15582   5.012  10.491   8.684 -1.0014 -0.0759 -0.7658
 4230SOL    HW115583   4.953  10.435   8.734 -1.1098  0.8835  0.2088
 4230SOL    HW215584   4.996  10.579   8.718 -0.3444  0.4573 -1.7944
 4231SOL     OW15585   8.022  10.684   0.696 -0.1987  0.1919 -0.5309
 4231SOL    HW115586   8.092  10.630   0.734 -0.3245  0.2088 -0.2767
 4231SOL    HW215587   8.027  10.665   0.602  0.8453  1.0018 -0.6624
 4232SOL     OW15588   0.264   4.326   7.549  0.2396  0.5650 -0.1486
 4232SOL    HW115589   0.180   4.322   7.503  1.0132  0.0651 -1.5717
 4232SOL    HW215590   0.260   4.254   7.612 -0.7429  1.1125  0.4413
 4233SOL     OW15591   8.057   0.506   9.787 -0.5752 -0.2811  0.3218
 4233SOL    HW115592   8.012   0.579   9.744  1.8726 -0.4711 -2.9290
 4233SOL    HW215593   8.051   0.434   9.724  0.2487 -1.7801  1.8617
 4234SOL     OW15594   3.933   2.422   2.832 -0.1763 -0.1620  0.0572
 4234SOL    HW115595   3.959   2.462   2.749  0.4107  0.0312  0.3276
 4234SOL    HW215596   3.854   2.372   2.811 -0.4060  0.4109 -0.4803
 4235SOL     OW15597   6.582  10.561  10.559  0.3724  0.0545  0.5086
 4235SOL    HW115598   6.662  10.513  10.538  0.3649 -0.3532  1.3709
 4235SOL    HW215599   6.587  10.575  10.654 -0.7806 -0.3507  0.6418
 4236SOL     OW15600   7.473  10.585   0.208 -0.4366 -0.4783 -0.0898
 4236SOL    HW115601   7.477  10.493   0.233  0.5596 -0.6360 -0.7824
 4236SOL    HW215602   7.401  10.590   0.145  0.0495 -0.9439 -0.6898
 4237SOL     OW15603   1.945   2.881   9.141  0.2473  0.0792 -0.1596
 4237SOL    HW115604   2.008   2.939   9.099  0.0610  0.7433  0.4354
 4237SOL    HW215605   1.915   2.931   9.218  1.0127 -1.3119  1.0942
 4238SOL     OW15606   3.919   5.402  10.055 -0.5608  0.2374  0.3241
 4238SOL    HW115607   3.981   5.418  10.126 -2.0473 -0.0090  1.7586
 4238SOL    HW215608   3.968   5.350   9.991  0.7601  0.2441  1.2900
 4239SOL     OW15609   1.885   3.561   8.988  0.4083  0.0798  0.6231
 4239SOL    HW115610   1.876   3.518   8.903 -0.3812 -0.8530  1.1681
 4239SOL    HW215611   1.946   3.506   9.037 -1.2418 -0.9477  1.6208
 4240SOL     OW15612   7.071   6.676   9.991  0.5167  0.2421 -0.0720
 4240SOL    HW115613   7.116   6.760   9.983 -0.3799  0.7583  0.1732
 4240SOL    HW215614   7.014   6.686  10.067  0.2217 -0.5065 -0.1846
 4241SOL     OW15615   8.997   8.098   0.934  0.2141 -0.1374 -0.4217
 4241SOL    HW115616   8.986   8.129   0.844  0.2449  0.8962 -0.0857
 4241SOL    HW215617   9.053   8.164   0.975  1.8587 -1.6175 -0.1758
 4242SOL     OW15618   2.941   2.545   7.118  0.0382  0.5972  0.1071
 4242SOL    HW115619   2.902   2.566   7.033 -0.1939  0.6752  0.2311
 4242SOL    HW215620   2.873   2.496   7.165  0.4497 -0.1266 -0.0433
 4243SOL     OW15621   9.626   8.063   7.396 -0.5765 -0.1685 -0.0026
 4243SOL    HW115622   9.581   8.012   7.328  0.7459 -0.1908 -0.8837
 4243SOL    HW215623   9.596   8.024   7.478 -0.3594 -1.7228 -0.6274
 4244SOL     OW15624  10.692   1.225   8.854 -0.4658  0.1505 -0.2389
 4244SOL    HW115625  10.766   1.164   8.847 -0.9848 -0.3982 -1.0453
 4244SOL    HW215626  10.720   1.289   8.920  0.3352 -0.6024  0.1691
 4245SOL     OW15627   2.689   6.675   7.293 -0.0429 -0.3340  0.5486
 4245SOL    HW115628   2.677   6.757   7.341 -0.5738 -0.8218  1.2674
 4245SOL    HW215629   2.654   6.608   7.352  1.1537 -1.1725  0.3230
 4246SOL     OW15630   3.561   3.261   9.058 -0.1990  0.0597  0.0547
 4246SOL    HW115631   3.651   3.233   9.074  0.1215  1.1175  0.1859
 4246SOL    HW215632   3.529   3.202   8.990  0.8460  0.1351 -0.5335
 4247SOL     OW15633   2.450   9.042   7.735  0.0964 -0.0256 -0.5999
 4247SOL    HW115634   2.468   8.960   7.689  1.2932 -0.5017  0.6375
 4247SOL    HW215635   2.417   9.015   7.820  0.6841  0.7639 -0.1038
 4248SOL     OW15636   5.014   3.840   6.984 -0.0437 -0.5830 -0.3113
 4248SOL    HW115637   5.019   3.928   6.946  0.3276  0.2427  1.5194
 4248SOL    HW215638   5.051   3.783   6.917  2.2048  1.0112 -0.5447
 4249SOL     OW15639   1.953   3.257   1.992 -0.1121  0.6520 -0.0727
 4249SOL    HW115640   1.980   3.280   1.903  0.0238  0.5505 -0.0588
 4249SOL    HW215641   2.035   3.248   2.040 -0.1276 -0.4790 -0.2341
 4250SOL     OW15642   1.441   2.812   7.137  0.0105 -0.4286  0.9912
 4250SOL    HW115643   1.443   2.818   7.233  0.0953 -1.2547  1.0412
 4250SOL    HW215644   1.445   2.719   7.118 -1.1333 -0.3400  0.2081
 4251SOL     OW15645   5.435   1.885   4.311 -0.4800 -0.3142  0.3691
 4251SOL    HW115646   5.471   1.969   4.281 -2.5381 -0.0127 -1.4916
 4251SOL    HW215647   5.471   1.874   4.399 -0.0696  2.4684  0.6464
 4252SOL     OW15648   8.429   7.623   7.811 -0.3222 -0.7088  0.6592
 4252SOL    HW115649   8.397   7.640   7.899  0.8932  0.9020  0.8187
 4252SOL    HW215650   8.496   7.555   7.822 -0.3225 -0.6626  0.9482
 4253SOL     OW15651   2.741   2.450   1.051 -0.0191 -0.5143  0.1210
 4253SOL    HW115652   2.753   2.389   1.124 -0.5680  0.3809  0.9913
 4253SOL    HW215653   2.827   2.488   1.037  0.0997 -0.7280  0.2648
 4254SOL     OW15654   0.397   7.882   4.895  0.5522 -0.4681 -0.2234
 4254SOL    HW115655   0.394   7.961   4.948  1.7423 -0.2690 -0.4318
 4254SOL    HW215656   0.361   7.908   4.810  0.2902 -0.3392 -0.0746
 4255SOL     OW15657   5.560   5.148   1.878 -0.1179  0.4524  0.0888
 4255SOL    HW115658   5.478   5.157   1.829 -0.2241 -2.3379 -0.4187
 4255SOL    HW215659   5.628   5.179   1.817 -0.5758  0.5030 -0.3960
 4256SOL     OW15660   0.168   0.588   9.074 -0.4664 -0.2008 -0.7462
 4256SOL    HW115661   0.140   0.498   9.062  0.3279 -0.7448  1.2198
 4256SOL    HW215662   0.086   0.638   9.080 -0.9045 -0.7304 -1.9523
 4257SOL     OW15663   7.303   3.350   0.480 -0.3310 -0.1509 -0.1145
 4257SOL    HW115664   7.316   3.416   0.412  0.2568 -0.5719 -0.4253
 4257SOL    HW215665   7.391   3.315   0.497 -0.3499  0.4723  1.4093
 4258SOL     OW15666   7.713   3.697   2.704  0.2509 -0.1777  0.1917
 4258SOL    HW115667   7.686   3.641   2.777 -0.0165  0.8021  0.8673
 4258SOL    HW215668   7.807   3.709   2.716  0.2046 -0.0067  0.3867
 4259SOL     OW15669   0.883   6.358   7.177  0.1210  0.0575  0.2622
 4259SOL    HW115670   0.897   6.271   7.139  0.2229 -0.2846  1.0702
 4259SOL    HW215671   0.849   6.411   7.104  1.6312 -0.2065 -0.6791
 4260SOL     OW15672   4.171   8.674   7.546 -0.3295  0.1535  0.6842
 4260SOL    HW115673   4.121   8.613   7.600 -2.2043  0.4595 -0.6245
 4260SOL    HW215674   4.166   8.638   7.457 -1.9077  2.3875 -0.2184
 4261SOL     OW15675   4.211   7.590   7.614  0.3162 -0.4241 -0.0996
 4261SOL    HW115676   4.301   7.567   7.592  0.6810 -2.0760  2.6260
 4261SOL    HW215677   4.216   7.627   7.702 -1.7837 -2.6898  1.1208
 4262SOL     OW15678  10.064   5.315   5.583 -0.6143  0.0373  0.6361
 4262SOL    HW115679  10.121   5.301   5.658 -0.1719  0.9237  0.4772
 4262SOL    HW215680   9.976   5.302   5.618 -0.5503  2.3252  1.8066
 4263SOL     OW15681   1.937   3.701  10.439  0.2838  0.6841  0.0213
 4263SOL    HW115682   1.861   3.672  10.489 -0.2566  0.4996 -0.8852
 4263SOL    HW215683   1.997   3.626  10.442 -0.0484  0.4091 -0.2084
 4264SOL     OW15684   2.106   3.567   8.659 -0.9044  0.0352 -0.0390
 4264SOL    HW115685   2.152   3.590   8.739 -0.5152 -2.6920  0.6375
 4264SOL    HW215686   2.013   3.575   8.681 -0.8723 -2.6424  1.4678
 4265SOL     OW15687   0.540   1.635   2.849  0.5278 -0.2714  0.3914
 4265SOL    HW115688   0.575   1.554   2.811  0.7946 -0.0324  0.1324
 4265SOL    HW215689   0.617   1.683   2.879  0.3817 -0.0200  0.3669
 4266SOL     OW15690   4.145   2.924   5.259  0.4615  0.2073  0.0178
 4266SOL    HW115691   4.240   2.929   5.258  0.4893 -0.0974  0.4253
 4266SOL    HW215692   4.115   3.001   5.211  0.9259 -0.2059 -0.9751
 4267SOL     OW15693   6.440   2.204   0.317 -0.3342  0.1715 -0.2957
 4267SOL    HW115694   6.432   2.226   0.224  0.9030  0.4076 -0.3682
 4267SOL    HW215695   6.401   2.279   0.362 -2.8278 -0.8462 -0.6018
 4268SOL     OW15696   5.320   2.412   2.667 -0.5089  0.2817  0.4309
 4268SOL    HW115697   5.371   2.389   2.589  1.1212  0.3696  1.4229
 4268SOL    HW215698   5.234   2.438   2.633 -0.5320 -1.6338 -1.1782
 4269SOL     OW15699   6.783   7.925  10.764 -0.0129 -0.3095  0.3273
 4269SOL    HW115700   6.839   7.887  10.831  0.4681 -0.6119 -0.2274
 4269SOL    HW215701   6.841   7.987  10.717 -0.1845 -0.4949 -0.1382
 4270SOL     OW15702   5.821   6.911   1.531 -0.1005 -0.5166 -0.0164
 4270SOL    HW115703   5.808   6.901   1.625 -1.3391  1.7219  0.1233
 4270SOL    HW215704   5.898   6.967   1.522  0.2478 -1.0460 -0.3424
 4271SOL     OW15705   7.200   9.449   8.373 -0.3179 -0.2551  0.3686
 4271SOL    HW115706   7.207   9.360   8.409 -1.2483  0.2110  1.7876
 4271SOL    HW215707   7.291   9.475   8.359 -0.0492 -2.0993 -1.9269
 4272SOL     OW15708   7.379  10.441   2.616  0.1047 -0.6864 -0.2165
 4272SOL    HW115709   7.343  10.518   2.570  0.8790 -0.1030  0.1368
 4272SOL    HW215710   7.422  10.477   2.693 -0.0084 -1.5381  0.2561
 4273SOL     OW15711   0.244   0.018   0.641 -0.2626  0.3700  0.3206
 4273SOL    HW115712   0.215  -0.073   0.639 -2.2122  0.9519  0.5763
 4273SOL    HW215713   0.256   0.037   0.734  0.1599  0.3953  0.2659
 4274SOL     OW15714   1.498   5.240   1.463  0.1813 -0.3240  0.2280
 4274SOL    HW115715   1.571   5.208   1.409  0.7214 -0.3560  0.9616
 4274SOL    HW215716   1.427   5.255   1.400  0.4331 -1.4106 -0.3572
 4275SOL     OW15717   6.709   2.641   5.897  0.0365 -0.1303 -0.0826
 4275SOL    HW115718   6.686   2.630   5.989 -1.4270  0.5455 -0.3340
 4275SOL    HW215719   6.794   2.598   5.888  0.5177  0.3580  1.7156
 4276SOL     OW15720   5.860  10.415   5.765 -0.4543  0.2619  0.0639
 4276SOL    HW115721   5.870  10.356   5.690 -1.5242  0.6269 -0.3864
 4276SOL    HW215722   5.897  10.498   5.737  0.0615  0.1147  0.3052
 4277SOL     OW15723   1.964  10.614   9.190  0.3733 -0.4291 -0.5483
 4277SOL    HW115724   1.878  10.651   9.211 -0.0367 -1.1643 -0.8725
 4277SOL    HW215725   2.026  10.676   9.225 -0.2922  0.5138 -0.9912
 4278SOL     OW15726   6.315   6.548   7.407 -0.0708 -0.2813 -0.1257
 4278SOL    HW115727   6.244   6.486   7.388 -0.1767 -0.6534  1.3603
 4278SOL    HW215728   6.274   6.634   7.400 -0.2747 -0.4207 -0.7776
 4279SOL     OW15729  10.795   5.884   5.394 -0.1939  0.4974 -0.1153
 4279SOL    HW115730  10.775   5.818   5.460  0.6500  0.4134  0.0727
 4279SOL    HW215731  10.713   5.897   5.346 -0.7699  0.4487  0.8431
 4280SOL     OW15732   8.436   2.185   4.764  0.1237  0.2696  1.1064
 4280SOL    HW115733   8.497   2.249   4.729 -0.0607 -0.6408 -1.0350
 4280SOL    HW215734   8.469   2.165   4.851  1.1963  1.9090  1.1214
 4281SOL     OW15735   6.674   1.261   5.297  0.6030 -0.0549  0.0345
 4281SOL    HW115736   6.598   1.203   5.305 -0.8398  1.4499 -1.8060
 4281SOL    HW215737   6.678   1.307   5.381 -0.3718 -0.3322  0.2463
 4282SOL     OW15738   6.145   2.473   2.907 -0.3032 -0.6486 -0.6719
 4282SOL    HW115739   6.201   2.496   2.981  0.3811 -1.9423 -0.7610
 4282SOL    HW215740   6.060   2.453   2.946  0.0793 -1.4132 -0.2051
 4283SOL     OW15741   3.232  10.706   2.068  0.3214 -0.2697  0.3789
 4283SOL    HW115742   3.290  10.674   1.999 -0.1678 -2.7929  1.0335
 4283SOL    HW215743   3.145  10.681   2.040 -0.2668  1.4890  0.4818
 4284SOL     OW15744   5.999   4.880   3.602  0.2342  1.0012  0.3130
 4284SOL    HW115745   6.048   4.797   3.602  0.4516  1.1002  2.0798
 4284SOL    HW215746   6.066   4.947   3.588  0.1515  0.9331 -0.4371
 4285SOL     OW15747   6.441   0.579   7.098 -1.0357  0.2197  0.5091
 4285SOL    HW115748   6.434   0.664   7.142 -1.1102  0.6628 -0.3378
 4285SOL    HW215749   6.505   0.530   7.150  0.0412  1.2968  0.2338
 4286SOL     OW15750   1.613   5.691   6.626  0.4249 -0.3556 -0.3694
 4286SOL    HW115751   1.569   5.702   6.542 -0.7065 -1.0197  0.1284
 4286SOL    HW215752   1.662   5.609   6.617 -1.5515 -1.6869  0.3756
 4287SOL     OW15753   4.643   2.453   6.917 -0.2770  0.0129 -0.4219
 4287SOL    HW115754   4.668   2.528   6.864 -0.2387  0.9114  0.8056
 4287SOL    HW215755   4.557   2.477   6.954  0.5036  0.2380  1.3484
 4288SOL     OW15756   6.071   0.441   1.189  0.2288 -0.1727  0.4555
 4288SOL    HW115757   5.993   0.388   1.198 -0.3599  0.6231  0.1600
 4288SOL    HW215758   6.105   0.420   1.102 -0.3294  0.3489  0.1035
 4289SOL     OW15759   1.240   9.729   4.299  0.5987  0.5860 -0.4740
 4289SOL    HW115760   1.311   9.783   4.334  1.8511 -1.3021  0.0304
 4289SOL    HW215761   1.241   9.747   4.204 -0.0786  2.5821 -0.1651
 4290SOL     OW15762   0.030   7.615   9.188 -0.1105 -0.9328 -0.4277
 4290SOL    HW115763   0.073   7.559   9.122  1.0418 -0.8979  0.2568
 4290SOL    HW215764   0.093   7.619   9.260 -0.2734  1.0312 -0.3382
 4291SOL     OW15765   6.236   6.466   8.546  0.4198  0.0182  1.0054
 4291SOL    HW115766   6.202   6.386   8.588 -0.0382 -0.3531 -0.0358
 4291SOL    HW215767   6.239   6.444   8.453 -3.1230  2.3309  0.1450
 4292SOL     OW15768   8.032   5.398   6.336  0.2379  0.8025 -0.3616
 4292SOL    HW115769   8.044   5.320   6.390  1.0415 -0.5443 -2.3344
 4292SOL    HW215770   8.121   5.426   6.315 -0.0541  1.6457 -0.5006
 4293SOL     OW15771   3.558   5.127   9.081  0.1602 -0.2963  0.2389
 4293SOL    HW115772   3.496   5.179   9.131 -0.4939 -1.7161  0.9748
 4293SOL    HW215773   3.642   5.139   9.126 -0.0416 -0.1001  0.5681
 4294SOL     OW15774   9.169   7.090   7.930  0.1477 -0.5734 -0.9370
 4294SOL    HW115775   9.136   7.164   7.981  1.1971 -0.7362  0.0211
 4294SOL    HW215776   9.196   7.128   7.846  1.1818  0.2577 -0.2614
 4295SOL     OW15777   0.087   5.222   7.286  0.1984 -0.2644  0.4652
 4295SOL    HW115778   0.099   5.317   7.286  0.8343 -0.3410  0.6544
 4295SOL    HW215779   0.174   5.187   7.268 -0.1731 -0.7965 -0.3473
 4296SOL     OW15780  10.698   9.096   9.604  0.0045  0.5702  0.6113
 4296SOL    HW115781  10.703   9.026   9.670  1.1634  0.8762  0.8696
 4296SOL    HW215782  10.721   9.052   9.522  0.3796  0.5606  0.7166
 4297SOL     OW15783   7.463   6.893   3.146  0.1684  0.3508  0.2155
 4297SOL    HW115784   7.495   6.803   3.144  0.1460  0.3205  1.0717
 4297SOL    HW215785   7.536   6.945   3.112  0.7571  0.1689  1.1632
 4298SOL     OW15786   6.517   9.535   3.052  0.8130 -0.2266  0.0532
 4298SOL    HW115787   6.610   9.527   3.032  0.8893  0.1419  0.2574
 4298SOL    HW215788   6.473   9.514   2.970  1.0102 -2.1953  0.4031
 4299SOL     OW15789   9.979   3.226   8.025  0.2279 -0.0349  0.1246
 4299SOL    HW115790  10.051   3.231   8.089  0.3548  0.1785 -0.0353
 4299SOL    HW215791   9.901   3.247   8.076  0.2749 -0.2726  0.3015
 4300SOL     OW15792   5.777   9.872   2.231  0.3472  0.2500  0.2000
 4300SOL    HW115793   5.684   9.848   2.236 -0.8097  3.2618 -2.7258
 4300SOL    HW215794   5.810   9.823   2.156  0.9101 -0.1538  0.7073
 4301SOL     OW15795   9.951   0.026   7.112 -0.1913  0.0944 -0.2733
 4301SOL    HW115796   9.925  -0.065   7.098  0.8198  0.0192 -1.9388
 4301SOL    HW215797  10.031   0.036   7.061  2.0170  0.8565  3.0078
 4302SOL     OW15798   7.634   4.936  10.622 -0.2638 -0.5679 -0.1479
 4302SOL    HW115799   7.691   4.987  10.565 -1.0617  0.6511  0.1128
 4302SOL    HW215800   7.672   4.945  10.710  1.0093 -2.5075 -0.4490
 4303SOL     OW15801  10.770   3.038   8.351 -0.4450 -0.0407  0.3570
 4303SOL    HW115802  10.732   3.015   8.436  0.3624  0.8481  0.9945
 4303SOL    HW215803  10.799   2.955   8.314  0.6244 -0.2994  1.6946
 4304SOL     OW15804   3.659   5.834   9.236  0.0350  0.2149  0.5827
 4304SOL    HW115805   3.608   5.914   9.249 -1.4364 -0.4380 -0.8457
 4304SOL    HW215806   3.674   5.830   9.142 -0.3586 -1.4399  0.5610
 4305SOL     OW15807   3.450   9.419   6.482 -0.4286  0.2934  0.6786
 4305SOL    HW115808   3.394   9.392   6.555  0.3061 -0.3511  1.0196
 4305SOL    HW215809   3.536   9.382   6.503  0.0657  1.0527  0.0408
 4306SOL     OW15810  10.076   0.281  10.760  0.9134 -0.0569  0.3022
 4306SOL    HW115811  10.011   0.219  10.726  1.0910 -0.0174 -0.1171
 4306SOL    HW215812  10.106   0.329  10.683  0.8817  0.4544  0.6056
 4307SOL     OW15813   5.481   5.545   3.605  0.1146 -0.4181  0.1601
 4307SOL    HW115814   5.565   5.580   3.577 -1.0015  1.7306 -0.7885
 4307SOL    HW215815   5.451   5.606   3.673 -0.9105 -0.7984  0.0738
 4308SOL     OW15816   4.214  10.538   0.791 -0.0049 -0.0729  0.5968
 4308SOL    HW115817   4.297  10.583   0.805  0.5397 -1.3683  1.7579
 4308SOL    HW215818   4.229  10.482   0.715  0.5249 -1.0265  1.3837
 4309SOL     OW15819   4.297   3.652   4.597  0.4314  0.2189 -0.3219
 4309SOL    HW115820   4.364   3.720   4.604 -0.2139  0.7636  0.7959
 4309SOL    HW215821   4.214   3.698   4.609  0.0488 -0.9453  2.1522
 4310SOL     OW15822   0.478   4.273   2.814 -0.2971 -0.5306 -0.0190
 4310SOL    HW115823   0.551   4.220   2.846 -0.3797 -0.2944  0.5753
 4310SOL    HW215824   0.401   4.219   2.828 -0.5826  0.2939  2.0458
 4311SOL     OW15825   3.878   8.580   8.737 -0.6687  0.4792  0.1469
 4311SOL    HW115826   3.919   8.631   8.806  0.0696  0.9949 -0.6567
 4311SOL    HW215827   3.787   8.570   8.765 -0.1204 -0.3181  1.7451
 4312SOL     OW15828   9.696   0.471   5.486 -0.0695  0.2842  0.5762
 4312SOL    HW115829   9.604   0.458   5.462 -1.2185 -3.6416  5.3208
 4312SOL    HW215830   9.742   0.403   5.437  0.5314  2.4138 -1.9962
 4313SOL     OW15831   8.506   6.351   2.795  0.7616 -0.2229  0.3586
 4313SOL    HW115832   8.556   6.352   2.713  0.0443 -1.2261 -0.1140
 4313SOL    HW215833   8.423   6.392   2.772  0.9620  0.4986  0.8795
 4314SOL     OW15834   4.230   8.314   6.376 -0.0613  0.5213  0.3294
 4314SOL    HW115835   4.208   8.319   6.283  0.9701  2.6407  0.1351
 4314SOL    HW215836   4.216   8.222   6.400  0.3133 -0.2056 -2.0656
 4315SOL     OW15837   5.939   6.404   8.110  0.0216  0.0391 -0.1087
 4315SOL    HW115838   5.911   6.319   8.144  0.2239  0.0053 -0.0224
 4315SOL    HW215839   6.023   6.386   8.066 -0.3899  0.0278 -0.9048
 4316SOL     OW15840   1.051  10.024   5.194 -0.0272  0.2974 -0.2552
 4316SOL    HW115841   1.111  10.007   5.121 -1.4017 -1.6462 -1.0394
 4316SOL    HW215842   0.974  10.063   5.153 -1.2043 -1.6797 -0.0819
 4317SOL     OW15843   2.538   5.116   5.368 -0.5469  0.0198  0.2755
 4317SOL    HW115844   2.469   5.181   5.356 -1.1102 -0.3723  1.2910
 4317SOL    HW215845   2.503   5.036   5.327 -0.5375 -0.0814  0.4662
 4318SOL     OW15846   9.403   8.837   6.556  0.0550 -0.1426  0.6137
 4318SOL    HW115847   9.341   8.800   6.494  0.6706 -0.0363 -0.0836
 4318SOL    HW215848   9.379   8.799   6.640 -1.3287  0.3596  0.4759
 4319SOL     OW15849   8.227   8.517   1.823 -0.0537 -0.2339 -0.1485
 4319SOL    HW115850   8.217   8.602   1.780 -1.3276  0.0839  0.7038
 4319SOL    HW215851   8.275   8.537   1.903 -1.5162 -0.0535  0.7208
 4320SOL     OW15852   9.648   9.881   4.217 -0.1750  0.0363 -0.3019
 4320SOL    HW115853   9.701   9.931   4.279 -1.4351 -0.7809  1.5042
 4320SOL    HW215854   9.651   9.932   4.136  1.2948  1.2736  0.4885
 4321SOL     OW15855   3.061   7.100   2.101 -0.0755 -0.5861 -0.3354
 4321SOL    HW115856   3.056   7.132   2.011  0.1561  0.6709  0.0775
 4321SOL    HW215857   3.079   7.007   2.092 -0.1735 -0.5037 -1.5940
 4322SOL     OW15858   9.578   3.296   6.022 -0.1313 -0.0826  0.0786
 4322SOL    HW115859   9.642   3.264   6.085 -1.1988 -0.7434  0.8633
 4322SOL    HW215860   9.535   3.217   5.989 -1.5498  0.4208  0.6655
 4323SOL     OW15861   9.409   1.431   6.813  0.6745  0.2031 -0.0182
 4323SOL    HW115862   9.342   1.472   6.757  2.2218  0.6514 -1.6275
 4323SOL    HW215863   9.359   1.381   6.877 -1.2065  0.3082 -1.3244
 4324SOL     OW15864   5.341   5.332   3.537 -0.0380  0.0514 -0.3557
 4324SOL    HW115865   5.407   5.268   3.564  1.1618  0.6117 -1.8393
 4324SOL    HW215866   5.383   5.417   3.551 -1.1177  0.4901  0.3211
 4325SOL     OW15867   0.660   4.449   0.032 -0.0786  0.5263  0.0043
 4325SOL    HW115868   0.621   4.361   0.039  1.1282  0.1065  2.0962
 4325SOL    HW215869   0.607   4.503   0.090  0.1677  0.8018 -0.0275
 4326SOL     OW15870  10.577   1.655   6.240  0.4561  0.2979  0.1136
 4326SOL    HW115871  10.552   1.744   6.216  0.8950  0.8333  1.5125
 4326SOL    HW215872  10.658   1.639   6.192 -0.2310  0.1897 -1.0502
 4327SOL     OW15873   4.903   3.235   2.754  0.3648 -0.2064 -0.4219
 4327SOL    HW115874   4.911   3.180   2.832  0.5074  0.3823 -0.0070
 4327SOL    HW215875   4.927   3.179   2.681 -0.4465 -0.9701 -0.1218
 4328SOL     OW15876   5.716  10.243   6.125 -0.1065 -0.1188 -0.3307
 4328SOL    HW115877   5.775  10.213   6.194  0.2185  0.5258 -0.3254
 4328SOL    HW215878   5.629  10.215   6.154  0.2097 -1.2553 -0.4369
 4329SOL     OW15879   5.333   6.925   7.362 -0.2544  0.0071  0.0307
 4329SOL    HW115880   5.401   6.867   7.397 -0.3362  0.5472  1.1259
 4329SOL    HW215881   5.290   6.961   7.440 -1.4965  0.0355 -0.6342
 4330SOL     OW15882   4.295   3.351   4.777 -0.5503 -0.4343  0.1380
 4330SOL    HW115883   4.350   3.398   4.840 -0.3251 -2.3622  1.4817
 4330SOL    HW215884   4.290   3.409   4.702  0.6132  1.2229  1.2609
 4331SOL     OW15885   8.580   5.745   4.415 -0.1593  0.0980 -0.6764
 4331SOL    HW115886   8.539   5.825   4.450 -0.8132 -0.3983 -0.2940
 4331SOL    HW215887   8.622   5.705   4.491 -0.3327 -0.2264 -0.7532
 4332SOL     OW15888   7.675   0.320   1.024  0.1230 -0.1166  0.1574
 4332SOL    HW115889   7.756   0.279   0.993  0.4623  0.2256  0.5795
 4332SOL    HW215890   7.699   0.364   1.106 -0.6242 -0.4956  0.5942
 4333SOL     OW15891   4.313   0.721   0.743  0.3897 -0.1691  0.1715
 4333SOL    HW115892   4.408   0.729   0.748  0.3373  0.1593  0.8713
 4333SOL    HW215893   4.281   0.788   0.804 -0.2137 -3.0947  3.3922
 4334SOL     OW15894  10.256   3.306   0.229  1.3910  0.5040 -0.6792
 4334SOL    HW115895  10.174   3.335   0.188  0.1980  0.2987  1.4233
 4334SOL    HW215896  10.289   3.385   0.272  1.3225  0.1851 -0.0251
 4335SOL     OW15897   7.064   1.554   3.387  0.3163 -0.4643  0.2299
 4335SOL    HW115898   7.122   1.500   3.441  2.9223  0.7259 -1.1618
 4335SOL    HW215899   7.013   1.491   3.336  1.2800 -1.5986  0.6197
 4336SOL     OW15900   4.527   8.547   5.687  0.3780  0.2565 -0.0326
 4336SOL    HW115901   4.543   8.555   5.593 -0.3113  0.5553 -0.1266
 4336SOL    HW215902   4.458   8.481   5.694  1.2197 -0.6084  0.3368
 4337SOL     OW15903   1.147   6.213   7.266 -0.2524 -0.0248  0.5976
 4337SOL    HW115904   1.093   6.270   7.211 -0.0434 -0.7959 -0.4523
 4337SOL    HW215905   1.206   6.169   7.204  0.9722  0.1246  1.6027
 4338SOL     OW15906   0.714   7.559   5.167 -0.1757 -0.0830 -0.1111
 4338SOL    HW115907   0.738   7.496   5.100  0.4237 -1.1908  1.0895
 4338SOL    HW215908   0.675   7.632   5.119 -1.7140 -1.7246 -1.4975
 4339SOL     OW15909   2.351   5.648  10.118  0.1106 -0.1057 -0.6802
 4339SOL    HW115910   2.316   5.722  10.069 -0.2718 -0.7079 -1.3300
 4339SOL    HW215911   2.293   5.640  10.194  0.0671  0.1769 -0.6844
 4340SOL     OW15912   6.102   7.929   1.436  0.2248  0.5008  0.5992
 4340SOL    HW115913   6.141   7.883   1.511  0.7969  2.0183  1.2768
 4340SOL    HW215914   6.177   7.950   1.380 -0.0083  0.6990  0.3644
 4341SOL     OW15915   7.241   4.802  10.357 -0.0324  0.4962  0.3584
 4341SOL    HW115916   7.166   4.749  10.383 -0.8606 -0.2544 -3.0138
 4341SOL    HW215917   7.317   4.749  10.379 -0.6681 -0.3275  0.6221
 4342SOL     OW15918   8.031   7.919   8.827 -0.4649 -0.0339  0.0094
 4342SOL    HW115919   8.059   7.913   8.918 -1.0944 -2.1190  0.1271
 4342SOL    HW215920   8.112   7.924   8.777 -0.1067  0.8979  0.6621
 4343SOL     OW15921   0.794   3.528   6.536 -0.1820 -0.1131 -0.2363
 4343SOL    HW115922   0.825   3.563   6.620  0.6714  0.3945 -0.7523
 4343SOL    HW215923   0.700   3.549   6.535 -0.3633 -0.7869  0.9026
 4344SOL     OW15924   4.587  10.175   5.160 -0.0409  0.5388  0.1167
 4344SOL    HW115925   4.656  10.192   5.095  0.1615  0.3708  0.2847
 4344SOL    HW215926   4.560  10.085   5.143 -1.0190  0.9631 -0.6856
 4345SOL     OW15927  10.392   9.259   5.142 -0.1066  0.0435 -0.3707
 4345SOL    HW115928  10.314   9.303   5.109 -0.6947 -0.8306 -0.2020
 4345SOL    HW215929  10.372   9.242   5.235 -0.4503 -1.6630 -0.7127
 4346SOL     OW15930   4.048   5.452   6.512  0.0142 -0.3682  0.2604
 4346SOL    HW115931   3.980   5.494   6.460  1.0955  0.8768 -0.2144
 4346SOL    HW215932   4.065   5.370   6.467 -1.3266 -0.8190  0.5332
 4347SOL     OW15933   9.856   7.019   7.862  0.6999  0.4568  0.1743
 4347SOL    HW115934   9.774   6.975   7.881  1.2013 -0.8993 -0.6983
 4347SOL    HW215935   9.883   7.056   7.946  1.5366 -3.1124  1.6567
 4348SOL     OW15936   4.755   2.651   6.766 -0.2025 -0.4834 -0.0454
 4348SOL    HW115937   4.822   2.635   6.700  1.1544 -0.0230  1.1709
 4348SOL    HW215938   4.695   2.713   6.724  2.2107  2.1379  0.0798
 4349SOL     OW15939   8.848  10.113   6.486 -0.1265 -0.0897 -0.2128
 4349SOL    HW115940   8.827  10.173   6.558  1.0759 -1.6235  1.5258
 4349SOL    HW215941   8.933  10.144   6.454  0.0730 -0.3039  0.0952
 4350SOL     OW15942   6.304   5.151   9.178  0.1449  0.0724 -0.1804
 4350SOL    HW115943   6.358   5.203   9.118 -2.4365  0.2424 -2.5688
 4350SOL    HW215944   6.273   5.213   9.244  2.3906  0.0496  1.0020
 4351SOL     OW15945   6.713   6.404   1.844 -0.0430 -0.0662  0.0522
 4351SOL    HW115946   6.724   6.352   1.765  2.4438 -0.7106  0.7200
 4351SOL    HW215947   6.768   6.481   1.830  1.1184 -0.5973  1.4333
 4352SOL     OW15948   9.346   3.920  10.615 -0.1112  0.3299  0.1237
 4352SOL    HW115949   9.284   3.921  10.689  0.5094  1.0601  0.6526
 4352SOL    HW215950   9.360   4.012  10.594  0.0645  0.1377 -0.6150
 4353SOL     OW15951   5.020   9.688   9.127 -0.1649  0.4244  0.2969
 4353SOL    HW115952   4.974   9.658   9.049 -0.2760  1.0699  0.1167
 4353SOL    HW215953   5.008   9.616   9.190  0.5242 -0.4194 -0.4994
 4354SOL     OW15954  10.670   7.054   8.933 -0.6516 -0.1077 -0.2950
 4354SOL    HW115955  10.582   7.091   8.926 -0.2041  0.9975 -0.2651
 4354SOL    HW215956  10.656   6.960   8.946 -1.8348  0.1353  0.2737
 4355SOL     OW15957   1.404   7.354   6.143 -0.7722 -0.6347 -0.2126
 4355SOL    HW115958   1.429   7.359   6.051  0.7390 -0.4110  0.1922
 4355SOL    HW215959   1.449   7.276   6.177 -1.3113 -0.7176  0.3430
 4356SOL     OW15960   1.098   0.367   0.737 -0.3964  0.1842 -0.0145
 4356SOL    HW115961   1.096   0.344   0.830  0.5484  3.7777  1.0173
 4356SOL    HW215962   1.005   0.377   0.713 -0.6059  0.7515  0.9833
 4357SOL     OW15963   7.276  10.106   8.260  0.0625 -0.0537 -0.7053
 4357SOL    HW115964   7.231  10.178   8.215  0.1720  0.1440 -0.4969
 4357SOL    HW215965   7.310  10.145   8.340 -1.4347 -0.7368  0.3217
 4358SOL     OW15966   7.866   5.298   6.153  0.4816  0.2632 -0.1458
 4358SOL    HW115967   7.922   5.339   6.219  0.6096 -0.0518 -0.0577
 4358SOL    HW215968   7.777   5.309   6.186  0.3426  2.0763 -0.9888
 4359SOL     OW15969   8.368   1.901   7.695  0.0725 -0.1112 -0.3814
 4359SOL    HW115970   8.342   1.809   7.702  2.9242 -1.0286 -0.5462
 4359SOL    HW215971   8.367   1.933   7.785 -0.4612 -0.4159 -0.2706
 4360SOL     OW15972  10.046   7.830   9.232  0.0178  1.0438  0.1898
 4360SOL    HW115973   9.982   7.788   9.175  0.5845  0.4986 -0.0657
 4360SOL    HW215974  10.020   7.805   9.321  0.5922 -0.2563  0.0253
 4361SOL     OW15975   1.843   5.024   3.674 -0.0075  0.0864  0.0794
 4361SOL    HW115976   1.838   5.115   3.644 -2.0922  0.2490  0.7647
 4361SOL    HW215977   1.929   4.994   3.644  0.1809  1.8519 -1.3346
 4362SOL     OW15978   4.713   6.081   8.472  0.1774  0.0382  0.0521
 4362SOL    HW115979   4.674   6.129   8.545  0.4728  0.3261  0.0256
 4362SOL    HW215980   4.767   6.146   8.427 -1.5142  0.3931 -1.5989
 4363SOL     OW15981   0.180   6.455   1.479 -0.0388  0.6341  0.8269
 4363SOL    HW115982   0.085   6.458   1.471  0.0061 -0.6531 -0.4530
 4363SOL    HW215983   0.195   6.420   1.567 -0.7834 -0.4245  0.5586
 4364SOL     OW15984   0.365   1.891   3.072 -0.1329  0.1848  0.4466
 4364SOL    HW115985   0.304   1.957   3.039 -1.7395 -1.2618  0.3265
 4364SOL    HW215986   0.434   1.886   3.005 -0.0374  1.6081  0.4043
 4365SOL     OW15987   9.356   7.888   1.313 -0.5680  0.0913  0.0428
 4365SOL    HW115988   9.349   7.913   1.221 -1.0636  3.2534  0.8134
 4365SOL    HW215989   9.450   7.884   1.329 -0.4756 -0.9650 -0.6979
 4366SOL     OW15990   5.541   9.390   6.546 -0.5890  0.2444  0.2083
 4366SOL    HW115991   5.490   9.316   6.578  0.0252 -0.4779 -0.4601
 4366SOL    HW215992   5.480   9.437   6.488 -0.1070 -1.4221 -1.7342
 4367SOL     OW15993   5.050   5.280   7.864  0.0471 -0.1174 -0.0890
 4367SOL    HW115994   5.003   5.277   7.780 -0.3590  0.1339  0.1325
 4367SOL    HW215995   5.133   5.235   7.845 -0.5245 -1.1109 -0.3248
 4368SOL     OW15996   9.898   7.891   5.571 -0.0021 -0.4805 -0.6840
 4368SOL    HW115997   9.991   7.913   5.571  0.2494 -1.4820 -0.2081
 4368SOL    HW215998   9.862   7.941   5.498  0.3037  2.2640  0.8774
 4369SOL     OW15999   3.268  10.005   3.895  0.1151 -0.6671  0.2770
 4369SOL    HW116000   3.276  10.008   3.800  1.6929  0.4060  0.4114
 4369SOL    HW216001   3.288   9.914   3.918  2.5330 -0.3379 -0.2509
 4370SOL     OW16002   8.130   8.984   0.525 -0.6374 -0.3138 -0.2100
 4370SOL    HW116003   8.114   8.935   0.445 -1.7481  0.3755 -0.4418
 4370SOL    HW216004   8.197   9.048   0.501  0.1088 -1.0805 -0.1737
 4371SOL     OW16005   7.573   8.434   3.514 -0.2747  0.2762  0.2096
 4371SOL    HW116006   7.579   8.392   3.428  0.5711  1.7523 -0.5086
 4371SOL    HW216007   7.482   8.421   3.541 -0.6909  0.1731 -1.1359
 4372SOL     OW16008   8.337   2.606   6.011 -0.1790  0.0604  0.4238
 4372SOL    HW116009   8.359   2.513   6.020  1.6036  0.5259  1.3630
 4372SOL    HW216010   8.422   2.651   6.013 -0.9652  1.6849 -0.5140
 4373SOL     OW16011   1.988   7.016   8.762  0.4304  0.4176  0.2752
 4373SOL    HW116012   1.990   7.057   8.848  3.0803  0.3865  0.3314
 4373SOL    HW216013   1.983   6.922   8.780 -1.1209  0.4815  0.2887
 4374SOL     OW16014   2.796   0.922   0.094 -0.2378 -0.5033  0.0504
 4374SOL    HW116015   2.822   1.012   0.078 -0.5383 -0.5921 -0.9965
 4374SOL    HW216016   2.870   0.883   0.142 -0.0861  0.2679  0.4583
 4375SOL     OW16017   1.355   0.777   7.455 -0.5044  0.1387  0.3041
 4375SOL    HW116018   1.266   0.745   7.445 -0.9587  1.8034 -1.3296
 4375SOL    HW216019   1.380   0.748   7.543 -2.3221 -1.0758  0.4848
 4376SOL     OW16020   4.714   3.031   3.961  0.8170  0.1997  0.2852
 4376SOL    HW116021   4.728   3.124   3.980  0.7916  0.3603 -0.4795
 4376SOL    HW216022   4.671   2.997   4.039  3.7866  0.0852  2.0582
 4377SOL     OW16023   9.349   7.470   0.054 -0.7108  0.4112 -0.2145
 4377SOL    HW116024   9.442   7.481   0.075 -0.2864 -2.1424 -0.4134
 4377SOL    HW216025   9.304   7.531   0.112  1.0476  1.1658  0.4274
 4378SOL     OW16026   5.390   5.331   1.333 -0.3192  0.2714 -0.4970
 4378SOL    HW116027   5.356   5.311   1.246 -0.1547 -1.1851 -0.2483
 4378SOL    HW216028   5.315   5.321   1.392 -0.3221  0.8049 -0.3995
 4379SOL     OW16029   6.850   9.592   6.430  0.5149  0.3658  0.3814
 4379SOL    HW116030   6.843   9.502   6.395 -0.5919 -0.1075  1.7526
 4379SOL    HW216031   6.939   9.618   6.409  0.4037 -0.4873 -1.3696
 4380SOL     OW16032   2.661   8.626   8.095  0.1512 -0.2264  0.4494
 4380SOL    HW116033   2.756   8.632   8.104  0.5639 -1.1589 -2.3153
 4380SOL    HW216034   2.641   8.533   8.105 -0.5080 -0.0208  1.1493
 4381SOL     OW16035   9.374   1.499   1.076  0.4182  0.2584  0.5205
 4381SOL    HW116036   9.350   1.413   1.113 -2.4146 -0.0605 -1.7030
 4381SOL    HW216037   9.335   1.562   1.137 -2.9965 -0.2365 -0.9104
 4382SOL     OW16038   5.641   9.815   7.326  0.0302 -0.0113  0.5117
 4382SOL    HW116039   5.657   9.859   7.409  0.5448  0.6750  0.0546
 4382SOL    HW216040   5.724   9.773   7.304 -0.2218 -0.5431  0.5386
 4383SOL     OW16041   9.279   8.598   0.042 -0.1946  0.7360 -0.2760
 4383SOL    HW116042   9.189   8.575   0.063 -0.3619  1.7200  0.1703
 4383SOL    HW216043   9.271   8.662  -0.030  0.2417 -0.4551 -1.4313
 4384SOL     OW16044   2.421   0.641   2.069  0.3997  0.0807  0.4218
 4384SOL    HW116045   2.345   0.689   2.037  0.0689 -0.5824  0.2020
 4384SOL    HW216046   2.433   0.570   2.005  0.6830 -0.3274  0.9228
 4385SOL     OW16047   2.398   2.238   8.188 -0.0759  0.2158  0.3698
 4385SOL    HW116048   2.425   2.317   8.142  1.1464 -0.2609  0.2206
 4385SOL    HW216049   2.306   2.253   8.211  0.1095  1.6282  0.2671
 4386SOL     OW16050   2.786   2.269   5.342  0.3970  0.3219 -0.2211
 4386SOL    HW116051   2.865   2.216   5.345 -0.3600 -0.9114 -1.3357
 4386SOL    HW216052   2.785   2.315   5.427  1.7140 -0.4797  0.2544
 4387SOL     OW16053   7.868   2.895  10.174 -0.4802  0.3082  0.4158
 4387SOL    HW116054   7.825   2.882  10.258  0.1551 -1.4177  0.5221
 4387SOL    HW216055   7.960   2.872  10.189  0.1102  2.0408 -0.2681
 4388SOL     OW16056   4.544   0.352   0.076  0.4121 -0.1290 -0.0604
 4388SOL    HW116057   4.636   0.345   0.102  0.0127 -1.1219  1.2127
 4388SOL    HW216058   4.495   0.330   0.155 -0.9102 -0.7514 -1.0076
 4389SOL     OW16059   5.378   5.390   5.592 -0.2118  0.7946  0.1616
 4389SOL    HW116060   5.474   5.385   5.593 -0.2571 -0.6191 -0.0187
 4389SOL    HW216061   5.350   5.306   5.628 -1.3703 -0.5736 -3.4596
 4390SOL     OW16062   9.962   9.335   9.141  0.2822  0.0212  0.3048
 4390SOL    HW116063   9.982   9.382   9.060  0.0231  0.3116  0.4090
 4390SOL    HW216064   9.927   9.401   9.200 -1.7474 -0.5911 -0.1396
 4391SOL     OW16065   5.504   5.235   7.191 -0.3742 -0.2689 -0.2938
 4391SOL    HW116066   5.499   5.330   7.201 -0.1077 -0.3473  0.6565
 4391SOL    HW216067   5.442   5.201   7.254 -1.1722 -0.7191 -1.2931
 4392SOL     OW16068   9.448   9.028   2.766 -0.6111  0.2043  0.5244
 4392SOL    HW116069   9.518   8.971   2.800 -1.1190 -1.4726 -1.0697
 4392SOL    HW216070   9.402   8.974   2.702 -0.8473  2.5880 -1.4635
 4393SOL     OW16071   9.088   9.494   4.932 -0.5626  0.1987  0.5504
 4393SOL    HW116072   9.082   9.511   4.838 -0.0581 -1.2291  0.2231
 4393SOL    HW216073   9.112   9.578   4.971  0.9055  0.4513 -0.8104
 4394SOL     OW16074   7.639   2.004   4.136  0.1615 -0.4330 -0.2569
 4394SOL    HW116075   7.585   1.995   4.057  0.6842 -1.8005 -0.4941
 4394SOL    HW216076   7.655   2.098   4.145 -2.0785  0.0105 -0.2927
 4395SOL     OW16077   0.141   2.897   6.246 -0.0686  0.1041 -0.2106
 4395SOL    HW116078   0.218   2.901   6.302  0.3331  0.8786 -0.7990
 4395SOL    HW216079   0.068   2.919   6.304  0.4186  1.5473 -0.1106
 4396SOL     OW16080   4.832   0.750   1.839 -0.4376 -0.1547 -0.7501
 4396SOL    HW116081   4.751   0.764   1.790 -0.1494  0.6493 -1.0168
 4396SOL    HW216082   4.902   0.760   1.774  0.0990  3.4210  0.1786
 4397SOL     OW16083  10.364   8.623  10.748 -0.8107 -0.6074 -0.0098
 4397SOL    HW116084  10.275   8.606  10.780 -1.3714 -0.1626 -1.2421
 4397SOL    HW216085  10.418   8.628  10.827 -1.8196 -1.2111  0.7462
 4398SOL     OW16086  10.790   6.989   6.643  0.2206 -0.2387  0.2987
 4398SOL    HW116087  10.696   6.986   6.660  0.3668  1.0040  1.5164
 4398SOL    HW216088  10.810   7.082   6.638  0.9265 -0.4275 -2.9830
 4399SOL     OW16089   7.568   8.074   8.189  0.2288 -0.1266 -0.1488
 4399SOL    HW116090   7.613   7.999   8.150  1.1895 -1.2624  2.8529
 4399SOL    HW216091   7.483   8.076   8.145  1.0321 -1.5319 -1.9034
 4400SOL     OW16092   1.886   7.454   4.387  0.1801 -0.3479 -0.0482
 4400SOL    HW116093   1.956   7.418   4.333 -0.6930  1.1318 -2.3330
 4400SOL    HW216094   1.810   7.399   4.367 -0.2224  0.3891 -0.5600
 4401SOL     OW16095   4.166   9.819  10.037  0.0019  0.0065 -0.2512
 4401SOL    HW116096   4.177   9.850   9.947 -0.1183  0.1507 -0.2160
 4401SOL    HW216097   4.249   9.841  10.079  0.2668 -0.5621 -0.4702
 4402SOL     OW16098   8.221   4.122   6.929  0.2531  0.1211  0.2942
 4402SOL    HW116099   8.139   4.095   6.887  0.0148  0.0730  0.7788
 4402SOL    HW216100   8.197   4.200   6.979 -0.4427 -1.9355  3.4932
 4403SOL     OW16101   2.005   6.231   2.755 -0.3102 -0.3906 -0.2439
 4403SOL    HW116102   2.002   6.151   2.702  0.0136  0.5964 -1.8095
 4403SOL    HW216103   2.054   6.293   2.702 -0.5545  0.8624  0.9454
 4404SOL     OW16104   9.907   3.643   6.783 -0.5273 -0.3893  0.0631
 4404SOL    HW116105   9.915   3.692   6.865 -0.7505  0.3163 -0.3197
 4404SOL    HW216106   9.981   3.673   6.730 -1.3720  0.5040 -0.6516
 4405SOL     OW16107   4.997   4.227  10.105  0.5373 -0.0030  0.0291
 4405SOL    HW116108   4.945   4.249  10.028  0.8665 -0.8600 -0.4473
 4405SOL    HW216109   4.962   4.283  10.175  0.6714  1.2865 -0.8878
 4406SOL     OW16110   3.287  10.435   5.041  0.2588 -0.5541  0.5301
 4406SOL    HW116111   3.213  10.495   5.038  0.8711  0.1855 -0.2627
 4406SOL    HW216112   3.310  10.428   5.133  0.2903  0.5719  0.6138
 4407SOL     OW16113   4.395   6.829   0.582  0.4718  0.0307 -0.8311
 4407SOL    HW116114   4.486   6.802   0.577  0.1165 -1.5983  0.4404
 4407SOL    HW216115   4.348   6.766   0.527 -0.1175 -0.6100  0.3585
 4408SOL     OW16116   5.887   4.846   9.634 -0.2260 -0.5520  0.1050
 4408SOL    HW116117   5.805   4.858   9.586 -0.4006  0.6560  0.6726
 4408SOL    HW216118   5.947   4.810   9.569 -1.0883 -1.1134 -0.4181
 4409SOL     OW16119   3.916   0.837   1.690  0.8433  0.3235  0.1883
 4409SOL    HW116120   3.890   0.832   1.782 -1.3675  0.1282 -0.3986
 4409SOL    HW216121   3.982   0.906   1.687  0.6271  0.6418  1.8467
 4410SOL     OW16122   4.503   2.881   2.972 -0.0306  0.1804 -0.2059
 4410SOL    HW116123   4.545   2.952   2.924  0.8082 -0.9738 -1.2602
 4410SOL    HW216124   4.561   2.806   2.960 -0.6367 -0.5868  1.2716
 4411SOL     OW16125   2.719   7.769   6.057  0.0195 -0.3505 -0.0701
 4411SOL    HW116126   2.799   7.718   6.068 -1.0342 -1.9518  0.5471
 4411SOL    HW216127   2.665   7.716   5.998 -0.3089  1.0604 -1.0843
 4412SOL     OW16128   4.220   3.677   6.541 -0.5787 -0.0831 -0.2306
 4412SOL    HW116129   4.195   3.584   6.539 -0.9097 -0.0100  0.2335
 4412SOL    HW216130   4.265   3.692   6.458 -2.3907 -0.1476 -1.2929
 4413SOL     OW16131   9.683   2.521   1.914  0.2028  0.1488  1.1790
 4413SOL    HW116132   9.692   2.616   1.910  0.4145  0.1147 -2.4994
 4413SOL    HW216133   9.696   2.492   1.824  0.6919 -3.4537  2.2543
 4414SOL     OW16134   0.562   1.206   7.027  0.0208 -0.4330  0.2464
 4414SOL    HW116135   0.468   1.189   7.018 -0.5859 -0.3297  4.2616
 4414SOL    HW216136   0.569   1.301   7.027  0.5893 -0.3951 -2.4404
 4415SOL     OW16137   7.204   0.869   4.946  0.3761  0.5570  0.5238
 4415SOL    HW116138   7.134   0.924   4.982 -1.0291 -0.7846 -0.0329
 4415SOL    HW216139   7.269   0.864   5.016 -1.7412 -1.0329  2.5655
 4416SOL     OW16140   6.458   3.236   3.151 -0.1913  0.1168  0.0178
 4416SOL    HW116141   6.543   3.192   3.142 -0.5291 -0.7223  0.7135
 4416SOL    HW216142   6.479   3.328   3.166  0.5257  0.3328 -2.0437
 4417SOL     OW16143   5.406   2.128   0.387  0.6089  0.3464  0.4908
 4417SOL    HW116144   5.465   2.187   0.341  2.3127 -0.2855  1.7817
 4417SOL    HW216145   5.381   2.063   0.321  1.0234  0.8522 -0.1809
 4418SOL     OW16146  10.213   3.769   3.248 -0.5668  0.0135  0.6368
 4418SOL    HW116147  10.166   3.686   3.240  2.4754 -1.7240 -0.7435
 4418SOL    HW216148  10.262   3.761   3.330  0.5166 -0.0342  0.0027
 4419SOL     OW16149   7.658   7.778   9.456  0.0150  0.4035 -0.4219
 4419SOL    HW116150   7.690   7.822   9.377 -0.5794 -1.7445 -1.9606
 4419SOL    HW216151   7.738   7.749   9.501  0.3461  1.0210 -0.5908
 4420SOL     OW16152   8.327   8.923   4.542 -0.2950  1.0533  0.3907
 4420SOL    HW116153   8.397   8.892   4.599 -0.6677  0.7010  0.6668
 4420SOL    HW216154   8.247   8.893   4.584 -0.5264 -1.3631 -1.4915
 4421SOL     OW16155   6.097   7.772   7.935 -0.0058 -0.3945  0.9851
 4421SOL    HW116156   6.135   7.725   7.861 -1.5572  0.2854 -0.3022
 4421SOL    HW216157   6.081   7.704   8.001  2.2530 -0.8699  1.1287
 4422SOL     OW16158   1.341   1.633  10.702 -0.2287  0.3575 -0.0277
 4422SOL    HW116159   1.297   1.712  10.669  0.2410  0.9352  0.7002
 4422SOL    HW216160   1.397   1.664  10.773  1.7698 -0.2820 -1.2632
 4423SOL     OW16161   0.093   7.857   2.345 -0.8057 -0.1767  0.3945
 4423SOL    HW116162   0.040   7.866   2.425  0.0727  0.7044  0.8928
 4423SOL    HW216163   0.174   7.904   2.364 -0.3363 -0.4613 -0.8097
 4424SOL     OW16164   8.142   8.347   2.205  0.2508  0.1777  0.0212
 4424SOL    HW116165   8.168   8.268   2.158 -0.5380 -0.7237  1.0174
 4424SOL    HW216166   8.129   8.413   2.137  0.2680 -0.7470 -0.9067
 4425SOL     OW16167   7.909   6.566   1.676  0.5116 -0.5593  0.2292
 4425SOL    HW116168   7.850   6.551   1.750 -0.5660 -2.0252 -0.8654
 4425SOL    HW216169   7.850   6.587   1.603  1.5181  0.3742 -0.3503
 4426SOL     OW16170   8.980   2.826   2.765  0.8013  0.3661 -0.0325
 4426SOL    HW116171   8.915   2.866   2.707 -1.0348  0.1764  1.7953
 4426SOL    HW216172   9.060   2.876   2.749 -0.1123  1.4704 -1.4161
 4427SOL     OW16173   5.479   9.586   4.295 -0.2222 -0.2663 -0.0597
 4427SOL    HW116174   5.524   9.568   4.212  0.2609 -2.3228  0.5823
 4427SOL    HW216175   5.467   9.499   4.335  0.0450  0.7083  2.2780
 4428SOL     OW16176  10.077   5.055   1.939  0.1351 -0.3779 -0.0429
 4428SOL    HW116177  10.075   4.972   1.987  0.6531  1.2785  3.0301
 4428SOL    HW216178  10.165   5.089   1.953 -0.7884  1.7996  0.7765
 4429SOL     OW16179   0.372   1.874   7.509  0.5111 -0.8620 -0.0185
 4429SOL    HW116180   0.432   1.926   7.457  2.2597 -2.1940  0.5899
 4429SOL    HW216181   0.344   1.933   7.579  0.0997  0.1520 -1.0081
 4430SOL     OW16182   2.775   4.889   4.322  0.4843 -0.0502  0.3530
 4430SOL    HW116183   2.706   4.824   4.310 -0.0217  0.2876  1.3273
 4430SOL    HW216184   2.805   4.909   4.234 -1.0168  0.1809 -0.1363
 4431SOL     OW16185   7.639   6.460   7.006 -0.2469 -0.0345  0.1832
 4431SOL    HW116186   7.657   6.434   7.096  0.6266 -1.3668 -0.3417
 4431SOL    HW216187   7.591   6.387   6.969 -1.6418  0.9970 -0.1332
 4432SOL     OW16188   6.014   7.182   8.173  0.0271 -0.4484 -0.4949
 4432SOL    HW116189   6.107   7.194   8.190 -0.0204  1.0152 -1.1405
 4432SOL    HW216190   5.971   7.213   8.253  0.0738 -1.5708 -0.0032
 4433SOL     OW16191   5.968   7.045   6.031  0.5098 -0.0137 -0.5556
 4433SOL    HW116192   6.031   7.114   6.051  0.4468 -0.4984  1.5588
 4433SOL    HW216193   5.920   7.078   5.955  1.1451  1.8280 -0.2197
 4434SOL     OW16194   2.212   8.604   6.667  0.3797  0.7196  0.2935
 4434SOL    HW116195   2.305   8.614   6.648  0.2986  1.2574  0.1453
 4434SOL    HW216196   2.201   8.644   6.754  0.2016  1.1456  0.0806
 4435SOL     OW16197   3.210   3.398   6.712  0.0830 -0.0949  0.5156
 4435SOL    HW116198   3.144   3.358   6.655  0.7979 -0.2082 -0.2553
 4435SOL    HW216199   3.212   3.343   6.790 -1.7485  0.7228  1.2097
 4436SOL     OW16200   5.715   5.302   2.720  0.1851  0.2984 -0.1717
 4436SOL    HW116201   5.659   5.373   2.688  0.2803 -0.0819 -1.2313
 4436SOL    HW216202   5.662   5.223   2.710  0.1208  0.1910  0.8938
 4437SOL     OW16203   3.271   1.940   1.267 -0.5838  0.3834  0.5274
 4437SOL    HW116204   3.270   1.913   1.359  1.8175  0.6727  0.6974
 4437SOL    HW216205   3.217   1.875   1.222  1.5524 -2.2544  1.5600
 4438SOL     OW16206   1.191   6.025   7.896 -0.1284  0.0739 -0.8526
 4438SOL    HW116207   1.107   6.031   7.852 -0.1369 -1.4367 -1.1044
 4438SOL    HW216208   1.186   6.088   7.968 -2.1500 -1.1711  0.1792
 4439SOL     OW16209   4.689   1.494   4.459  0.2686  0.1766  0.0877
 4439SOL    HW116210   4.782   1.495   4.440  0.2709  1.6470  0.0609
 4439SOL    HW216211   4.675   1.568   4.518 -0.5050 -1.4553  2.0886
 4440SOL     OW16212   0.668   6.274   2.394  0.5780 -0.9329 -0.4599
 4440SOL    HW116213   0.586   6.238   2.430  0.4104  0.4584  0.6469
 4440SOL    HW216214   0.709   6.200   2.350 -0.6929 -1.9687  0.0213
 4441SOL     OW16215   3.730   1.602   9.431 -0.3166  0.1632 -0.7220
 4441SOL    HW116216   3.662   1.536   9.415  0.4778 -0.8274 -0.1227
 4441SOL    HW216217   3.684   1.686   9.424 -1.6884 -0.4942  0.0861
 4442SOL     OW16218   3.084   6.359   8.522 -0.4196  0.1382 -0.3662
 4442SOL    HW116219   3.095   6.393   8.611 -1.0472  1.9757 -0.9492
 4442SOL    HW216220   3.027   6.283   8.532  0.0856 -0.1068  0.8670
 4443SOL     OW16221   6.595   6.071   8.855  0.2617  0.5028 -0.1379
 4443SOL    HW116222   6.644   6.152   8.866  0.5582  0.1528  1.3724
 4443SOL    HW216223   6.663   6.005   8.837  0.1327  0.4129 -0.2899
 4444SOL     OW16224   9.271   9.736   1.223 -0.2493 -0.2756 -0.8151
 4444SOL    HW116225   9.324   9.765   1.149  0.6032 -0.2784 -0.2166
 4444SOL    HW216226   9.228   9.656   1.191  0.8231 -0.7902 -1.0103
 4445SOL     OW16227   5.509   3.298   5.119 -0.0256  0.3555  0.0116
 4445SOL    HW116228   5.414   3.286   5.116 -0.0357  0.5509 -0.4840
 4445SOL    HW216229   5.539   3.232   5.182 -0.5569  0.7261  0.6604
 4446SOL     OW16230  10.593   2.825   7.463 -0.0140  0.3644  0.1337
 4446SOL    HW116231  10.589   2.793   7.554  0.6554 -2.8832 -0.8416
 4446SOL    HW216232  10.504   2.813   7.430 -0.3062  1.7349  0.3627
 4447SOL     OW16233   3.259   1.036   0.586 -0.3084 -0.6202  0.0905
 4447SOL    HW116234   3.281   0.958   0.537  0.7438 -1.6496  2.0725
 4447SOL    HW216235   3.252   1.007   0.677 -1.1046  1.3705  0.7398
 4448SOL     OW16236   7.699   5.090   1.957 -0.2368  0.0122  0.5249
 4448SOL    HW116237   7.791   5.108   1.939 -0.0744 -0.2399  1.1044
 4448SOL    HW216238   7.662   5.175   1.982  0.2026 -0.1611  1.8322
 4449SOL     OW16239   1.950   4.271   5.601  0.0958 -0.2300  0.2519
 4449SOL    HW116240   1.903   4.252   5.520  0.1295 -1.2382  0.4566
 4449SOL    HW216241   1.994   4.354   5.584 -0.6630  0.0562 -0.4213
 4450SOL     OW16242   9.958   3.329   0.134 -0.0394  0.4993  0.1030
 4450SOL    HW116243   9.900   3.396   0.171 -0.8337  0.6323 -1.3461
 4450SOL    HW216244   9.901   3.256   0.112  0.4208  0.3981 -0.8053
 4451SOL     OW16245   9.786   6.257   8.291 -0.0604  0.1670 -0.1497
 4451SOL    HW116246   9.769   6.170   8.327 -1.6676  1.0213  1.3035
 4451SOL    HW216247   9.814   6.309   8.366  0.5028  1.0138 -0.9329
 4452SOL     OW16248   9.366   9.435   9.108 -0.0291 -0.4021  0.0988
 4452SOL    HW116249   9.420   9.431   9.187 -1.6270 -1.1289  1.2116
 4452SOL    HW216250   9.300   9.502   9.128 -1.7187 -2.0346  0.2767
 4453SOL     OW16251   7.330   3.068   9.077 -0.4487 -0.4141 -0.2261
 4453SOL    HW116252   7.424   3.057   9.089 -0.2334  1.0533 -0.3682
 4453SOL    HW216253   7.294   2.979   9.081  0.7003 -0.8491  1.9072
 4454SOL     OW16254   2.769   7.458   1.908 -0.1717 -0.4153 -0.2062
 4454SOL    HW116255   2.863   7.462   1.921 -0.1265  0.5187 -0.7284
 4454SOL    HW216256   2.732   7.465   1.996  0.2451 -1.3969  0.0590
 4455SOL     OW16257   3.175   2.170   2.377 -0.3791 -0.4827  0.3847
 4455SOL    HW116258   3.222   2.253   2.379 -2.7304  0.8991  1.1138
 4455SOL    HW216259   3.203   2.124   2.456  0.1945  0.0464  0.4921
 4456SOL     OW16260  10.460   9.639   1.488  0.1002 -0.4317 -0.1743
 4456SOL    HW116261  10.379   9.650   1.537  1.0287 -1.9476  1.8842
 4456SOL    HW216262  10.519   9.705   1.524  0.0019  0.2351 -1.2023
 4457SOL     OW16263   4.924   3.353   5.483  0.1295  0.3110 -0.3535
 4457SOL    HW116264   4.892   3.441   5.504  1.3336  0.8370 -0.6827
 4457SOL    HW216265   5.019   3.362   5.480  0.3957 -1.3896  1.3877
 4458SOL     OW16266   3.933   7.253   6.698 -0.0952  0.0216  0.2999
 4458SOL    HW116267   3.951   7.346   6.696  1.0107 -0.1982 -0.6999
 4458SOL    HW216268   3.844   7.244   6.664 -0.3312  0.7261  0.7219
 4459SOL     OW16269   3.159   4.472   7.367  0.5899 -0.2405 -0.5328
 4459SOL    HW116270   3.163   4.489   7.461  1.0182  0.1543 -0.6227
 4459SOL    HW216271   3.248   4.451   7.342  0.2310 -1.8662 -0.5816
 4460SOL     OW16272   1.531   1.659   7.019 -0.1017 -0.2524 -0.4054
 4460SOL    HW116273   1.495   1.589   6.964 -0.2593  0.3313 -1.0528
 4460SOL    HW216274   1.456   1.715   7.039  0.2181  0.3492 -0.8320
 4461SOL     OW16275   6.863   4.658   0.345 -0.4409  0.5989 -0.7827
 4461SOL    HW116276   6.861   4.747   0.310 -0.2869  0.1158 -2.0584
 4461SOL    HW216277   6.778   4.621   0.319 -0.7823  0.5779  0.3236
 4462SOL     OW16278   9.732   3.094  10.213  0.0238 -0.0253 -0.3305
 4462SOL    HW116279   9.727   3.114  10.306  1.0609 -1.3306  0.0445
 4462SOL    HW216280   9.681   3.013  10.203 -1.0323  0.7125 -1.1234
 4463SOL     OW16281   8.802   9.985   2.312 -0.0883 -0.2537  0.2430
 4463SOL    HW116282   8.817   9.927   2.388 -0.6146 -0.3260  0.2959
 4463SOL    HW216283   8.810  10.073   2.348  2.0770 -0.2545 -0.1006
 4464SOL     OW16284   2.469   9.418   5.222 -0.5157 -0.0711  0.2934
 4464SOL    HW116285   2.437   9.485   5.282  3.0636  0.9744  1.2837
 4464SOL    HW216286   2.497   9.466   5.145 -3.5072 -1.2334 -1.7036
 4465SOL     OW16287   3.313   3.377   7.472 -0.6163  0.0925 -0.1375
 4465SOL    HW116288   3.308   3.320   7.548 -0.7958  0.4935  0.1588
 4465SOL    HW216289   3.405   3.404   7.467 -0.4300 -0.5985 -0.5664
 4466SOL     OW16290   4.335   9.511  10.172 -0.0233 -0.1054  0.5941
 4466SOL    HW116291   4.297   9.555  10.249  1.7210 -0.4966  1.7523
 4466SOL    HW216292   4.381   9.580  10.125  0.6377 -0.2134  1.0606
 4467SOL     OW16293   2.443   8.707   8.246 -0.0458 -0.2941  0.0114
 4467SOL    HW116294   2.467   8.799   8.249  0.6192 -0.4076 -1.3430
 4467SOL    HW216295   2.520   8.663   8.210  0.5248 -1.7170  2.6540
 4468SOL     OW16296   0.900   4.574   1.365 -0.0348 -0.4305 -0.0319
 4468SOL    HW116297   0.847   4.508   1.321  0.2896 -0.6871 -0.0428
 4468SOL    HW216298   0.971   4.593   1.303  0.9256 -1.4403  0.7323
 4469SOL     OW16299   6.831   5.066   4.383  0.4042 -0.6621 -0.4934
 4469SOL    HW116300   6.796   5.153   4.400  2.3993  0.0953 -0.0793
 4469SOL    HW216301   6.774   5.008   4.434 -0.0964  0.5341  0.3644
 4470SOL     OW16302   6.198   1.163   7.471 -0.0174 -0.2197 -0.1517
 4470SOL    HW116303   6.255   1.150   7.546 -0.2196 -0.9148 -0.1180
 4470SOL    HW216304   6.115   1.193   7.508  1.0797  3.5893 -0.3308
 4471SOL     OW16305   1.028  10.529   6.606  0.7575 -0.0345 -0.0640
 4471SOL    HW116306   1.032  10.555   6.699 -1.4195  1.4008 -0.2959
 4471SOL    HW216307   1.107  10.566   6.568 -0.4210  3.3442  0.4160
 4472SOL     OW16308   0.144   7.441   6.639 -0.2726 -0.0805 -0.0594
 4472SOL    HW116309   0.080   7.382   6.599 -0.7675  1.0872 -1.0705
 4472SOL    HW216310   0.118   7.528   6.608  2.1667  0.3853 -1.0154
 4473SOL     OW16311   1.243   0.807   7.829  0.3427  0.3068 -0.0484
 4473SOL    HW116312   1.330   0.768   7.824  0.0351 -0.7925  1.9609
 4473SOL    HW216313   1.183   0.733   7.819 -0.4221  1.1360 -2.0667
 4474SOL     OW16314   8.734   8.868   8.863  0.4314 -0.1645  0.0084
 4474SOL    HW116315   8.659   8.810   8.848  0.3596  0.2082 -1.1278
 4474SOL    HW216316   8.742   8.872   8.959 -0.8601 -0.3757  0.1380
 4475SOL     OW16317   7.833   2.968   4.383  0.6142  0.2045  0.5147
 4475SOL    HW116318   7.859   2.878   4.398  0.8070  0.2892  0.6960
 4475SOL    HW216319   7.906   3.006   4.334  0.9042  0.4868  1.1647
 4476SOL     OW16320   5.521   4.331   7.941  0.0515  0.5815 -0.6941
 4476SOL    HW116321   5.562   4.410   7.978 -1.2656  0.8380  0.2780
 4476SOL    HW216322   5.591   4.289   7.892  1.0554  1.8329 -0.3923
 4477SOL     OW16323   8.650   1.479   0.347 -0.3570 -0.0990  0.0784
 4477SOL    HW116324   8.737   1.473   0.308 -0.6629 -1.5940 -0.4237
 4477SOL    HW216325   8.659   1.438   0.433 -0.4260  0.3380  0.3001
 4478SOL     OW16326   3.286   8.018   5.887 -0.6142 -0.1660  0.2951
 4478SOL    HW116327   3.328   8.037   5.803 -2.5045  3.7388  0.0383
 4478SOL    HW216328   3.324   8.080   5.948 -2.9912  0.7366  0.9840
 4479SOL     OW16329   0.866   2.014   1.223 -0.1913 -0.4802  0.4773
 4479SOL    HW116330   0.951   2.058   1.222 -0.3693 -0.1514 -0.5949
 4479SOL    HW216331   0.814   2.063   1.286 -0.7743  1.6294 -1.5313
 4480SOL     OW16332   8.691   1.568   0.808  0.0152  0.1651  0.2494
 4480SOL    HW116333   8.756   1.620   0.855 -0.7357  2.3732 -1.0295
 4480SOL    HW216334   8.619   1.629   0.792 -1.5454 -1.6794 -0.0929
 4481SOL     OW16335   7.309   1.589   9.349  0.1383  0.2479  0.0187
 4481SOL    HW116336   7.332   1.564   9.439  1.4607 -0.6357 -0.5390
 4481SOL    HW216337   7.280   1.680   9.356  2.8669  1.1386  0.9539
 4482SOL     OW16338   0.265   8.107   8.879 -0.0736 -0.0235  0.1622
 4482SOL    HW116339   0.297   8.178   8.934  1.3057 -0.1001 -0.4867
 4482SOL    HW216340   0.245   8.036   8.940 -1.6949  0.9712  0.8345
 4483SOL     OW16341  10.387   9.025  10.343  0.3338 -0.1411  0.0821
 4483SOL    HW116342  10.449   8.953  10.329 -2.7196 -2.7950 -0.9474
 4483SOL    HW216343  10.400   9.083  10.268  0.3263 -1.6856 -1.1680
 4484SOL     OW16344   9.710   7.775   2.533 -0.0913  0.3955 -1.0539
 4484SOL    HW116345   9.712   7.691   2.488 -0.5269 -0.1971 -0.0094
 4484SOL    HW216346   9.761   7.760   2.613 -1.0017  0.8270 -0.3756
 4485SOL     OW16347   3.254   3.817   7.598  0.1389 -0.0714 -0.0704
 4485SOL    HW116348   3.331   3.835   7.543  0.1454  0.7774  0.2064
 4485SOL    HW216349   3.204   3.898   7.597 -0.9609 -0.7189 -0.5454
 4486SOL     OW16350   8.487   6.804   0.966  0.0913  0.4867  0.6448
 4486SOL    HW116351   8.521   6.893   0.962  0.0126  0.5248  0.8132
 4486SOL    HW216352   8.516   6.771   1.051 -1.0309  0.8267  1.1913
 4487SOL     OW16353   4.586   9.499   0.081 -0.1912 -0.0007  0.4224
 4487SOL    HW116354   4.638   9.556   0.139  1.4547  0.3791 -1.3245
 4487SOL    HW216355   4.632   9.502  -0.003 -3.3918  0.8712 -1.4940
 4488SOL     OW16356  10.138   7.145   5.771  0.4033  0.2062  0.7582
 4488SOL    HW116357  10.184   7.119   5.690 -2.6110 -0.8072 -0.7749
 4488SOL    HW216358  10.158   7.075   5.833  0.1399 -0.7388 -0.2006
 4489SOL     OW16359   5.378   5.879   1.917 -0.5189  0.1035  0.5243
 4489SOL    HW116360   5.387   5.919   1.830  1.4857 -3.0611 -0.9177
 4489SOL    HW216361   5.351   5.789   1.899  0.8197 -0.9100  3.1013
 4490SOL     OW16362   4.702   3.110   3.134  0.0213 -0.1122  0.0810
 4490SOL    HW116363   4.727   3.058   3.211 -0.5532  0.8454  0.9248
 4490SOL    HW216364   4.609   3.127   3.146 -0.0034  0.3014 -0.6848
 4491SOL     OW16365   8.043  10.166   5.521 -0.1180  0.5717 -0.0972
 4491SOL    HW116366   7.980  10.146   5.452  0.2493 -1.1785  0.0245
 4491SOL    HW216367   8.127  10.173   5.475 -0.1331  1.2341 -0.0403
 4492SOL     OW16368   1.744   1.164   1.612  0.1063 -0.3945 -0.3704
 4492SOL    HW116369   1.788   1.239   1.572 -0.2149  0.6945  1.2354
 4492SOL    HW216370   1.655   1.196   1.630  0.8465  0.0128  3.2695
 4493SOL     OW16371   1.623   2.098  10.462  0.7890 -0.2573  0.1911
 4493SOL    HW116372   1.537   2.060  10.444  0.7169 -0.3297  0.6734
 4493SOL    HW216373   1.604   2.184  10.498  0.9112 -0.3157  0.4002
 4494SOL     OW16374   6.174  10.743   6.458 -0.1785 -0.5137 -0.2330
 4494SOL    HW116375   6.083  10.768   6.470 -0.3392 -1.5399  0.8883
 4494SOL    HW216376   6.217  10.766   6.541  0.3260 -1.0365 -0.3336
 4495SOL     OW16377   1.351   7.601   9.334  0.2657  0.3327  0.1226
 4495SOL    HW116378   1.429   7.546   9.336 -0.3737 -0.6451 -0.8725
 4495SOL    HW216379   1.373   7.671   9.273  0.6158  0.4603  0.3919
 4496SOL     OW16380   8.595   4.948   3.805  0.1710 -0.0152  0.1112
 4496SOL    HW116381   8.549   4.975   3.725  0.1092  0.2159  0.2237
 4496SOL    HW216382   8.557   4.863   3.827  0.6700 -0.4027 -0.4889
 4497SOL     OW16383   0.482   6.393   2.177 -0.1141 -0.2727  0.4979
 4497SOL    HW116384   0.498   6.472   2.125 -1.2626  0.2553  0.8983
 4497SOL    HW216385   0.546   6.398   2.248  0.6387 -0.3555 -0.1625
 4498SOL     OW16386   4.046   7.245   0.226  0.3728  0.2445  0.0893
 4498SOL    HW116387   4.077   7.268   0.138  1.0456  0.7240  0.4494
 4498SOL    HW216388   4.001   7.323   0.257 -3.0511 -1.0045 -1.1755
 4499SOL     OW16389   2.891   1.964  10.590  0.1597 -0.0861 -0.8953
 4499SOL    HW116390   2.822   1.964  10.656 -0.3893 -0.2511 -1.4531
 4499SOL    HW216391   2.878   2.045  10.541  1.1317  0.4809 -0.2324
 4500SOL     OW16392   6.120   4.082   7.918  1.1598  0.2285  0.6273
 4500SOL    HW116393   6.068   4.153   7.882 -0.5290 -0.4215  1.7010
 4500SOL    HW216394   6.102   4.007   7.861  0.0305 -0.2808  1.6194
 4501SOL     OW16395   7.645   4.735   5.548 -0.0863 -0.0278  0.4365
 4501SOL    HW116396   7.582   4.807   5.548 -0.0373  0.0153  0.4305
 4501SOL    HW216397   7.629   4.689   5.630 -0.2249 -0.1034  0.3683
 4502SOL     OW16398   9.169   0.154   0.806 -0.6669  0.3849  0.1591
 4502SOL    HW116399   9.248   0.106   0.782 -0.8417  1.2341 -2.4700
 4502SOL    HW216400   9.200   0.243   0.825 -0.6144 -0.1158  2.8463
 4503SOL     OW16401   9.848   6.697   2.830 -0.4008 -0.4745  0.5785
 4503SOL    HW116402   9.783   6.753   2.872 -0.5392  0.3805 -0.7208
 4503SOL    HW216403   9.928   6.750   2.826  0.1030 -1.1590  1.2706
 4504SOL     OW16404   8.499   0.391   3.770  0.2188  0.4400  0.1197
 4504SOL    HW116405   8.525   0.302   3.792 -1.0497 -0.1816 -0.7417
 4504SOL    HW216406   8.415   0.403   3.814  0.1789  1.0466 -0.1168
 4505SOL     OW16407  10.003   1.694   9.119  0.3523  0.5591  0.5183
 4505SOL    HW116408  10.010   1.779   9.162  0.7214  0.9256 -0.2318
 4505SOL    HW216409   9.945   1.710   9.044 -0.7490 -0.2022  1.1962
 4506SOL     OW16410   3.877   7.548   8.165  0.1914 -0.0090  0.1922
 4506SOL    HW116411   3.902   7.543   8.073 -0.6999  1.4408 -0.1528
 4506SOL    HW216412   3.843   7.461   8.185  0.6806 -0.4386 -0.7451
 4507SOL     OW16413   6.941   8.377   0.610  0.4145 -0.2334  0.3343
 4507SOL    HW116414   6.882   8.425   0.551  1.4387  3.2636  1.8966
 4507SOL    HW216415   7.019   8.361   0.558  1.0555  2.2254  0.4365
 4508SOL     OW16416  10.473  10.556   8.836  0.2168  0.4287  0.2173
 4508SOL    HW116417  10.384  10.521   8.833  1.1047 -2.2501  1.7699
 4508SOL    HW216418  10.494  10.576   8.745 -2.1487  1.7568 -0.1207
 4509SOL     OW16419   8.973   8.910   2.513  0.0392 -0.6863 -0.0401
 4509SOL    HW116420   8.932   8.824   2.522 -1.1036 -0.0849  0.9152
 4509SOL    HW216421   8.973   8.927   2.419 -0.6324 -1.3250 -0.1641
 4510SOL     OW16422   6.749   5.282   0.179  0.5579 -0.5046 -0.5181
 4510SOL    HW116423   6.789   5.328   0.253 -1.0458 -1.4041  0.9988
 4510SOL    HW216424   6.813   5.288   0.109  1.9179  0.8669  0.7774
 4511SOL     OW16425   1.992   1.627   4.785  0.1399  0.9258 -0.0263
 4511SOL    HW116426   2.036   1.601   4.704 -0.8201 -1.7309  0.2153
 4511SOL    HW216427   2.063   1.631   4.850  0.5132 -0.0163 -0.3532
 4512SOL     OW16428   6.979   9.697   2.813 -0.8659 -0.3129  0.2120
 4512SOL    HW116429   7.074   9.689   2.822 -0.8173  0.2477  0.1961
 4512SOL    HW216430   6.946   9.675   2.900 -0.6838  0.0971  0.3890
 4513SOL     OW16431   8.522   7.575   2.534  0.1692  0.2887 -0.2227
 4513SOL    HW116432   8.549   7.595   2.623 -1.1045  2.7737 -0.3169
 4513SOL    HW216433   8.430   7.549   2.543  0.1104  0.2977 -0.7832
 4514SOL     OW16434   2.594   3.125   1.981 -0.0463 -0.0708  0.1589
 4514SOL    HW116435   2.578   3.056   1.916  0.4715 -0.3705  0.3377
 4514SOL    HW216436   2.684   3.109   2.011  0.9538  2.0936 -1.4715
 4515SOL     OW16437   1.814   0.909   7.910  0.1218  0.0549 -0.5323
 4515SOL    HW116438   1.753   0.863   7.967  1.1662  0.2746  0.8011
 4515SOL    HW216439   1.900   0.889   7.945  0.6367  3.2698  0.3424
 4516SOL     OW16440   7.421   8.935   3.283  0.4274  0.5329 -0.0390
 4516SOL    HW116441   7.444   8.883   3.205 -1.2846 -1.0005  0.3802
 4516SOL    HW216442   7.448   9.024   3.262 -1.3610  0.5090 -3.1096
 4517SOL     OW16443   8.550   2.948   7.457 -0.5427  0.1617  0.9310
 4517SOL    HW116444   8.577   2.872   7.507  1.5715 -0.3193 -0.7847
 4517SOL    HW216445   8.616   3.015   7.476  0.8888 -0.3350 -1.7610
 4518SOL     OW16446   1.545   5.550   7.777 -0.4739 -0.2991 -0.0941
 4518SOL    HW116447   1.497   5.542   7.860 -2.0239  1.4300 -0.7548
 4518SOL    HW216448   1.610   5.618   7.794  1.1545 -1.9149  0.4845
 4519SOL     OW16449   4.711   8.180   4.630  0.1667 -0.3759  0.2791
 4519SOL    HW116450   4.783   8.218   4.680 -0.6689 -1.6893  2.6126
 4519SOL    HW216451   4.638   8.240   4.645  0.0974 -0.3809 -0.0262
 4520SOL     OW16452   2.038   8.728   4.498  0.2111 -0.3712 -0.4879
 4520SOL    HW116453   2.048   8.651   4.554 -1.9956 -0.7689 -0.5603
 4520SOL    HW216454   1.944   8.747   4.499  0.7585  3.0055  0.3755
 4521SOL     OW16455   5.406   8.075   7.017 -0.4370 -0.1369 -0.4651
 4521SOL    HW116456   5.364   8.062   6.932 -0.2555  1.0579 -0.7594
 4521SOL    HW216457   5.380   8.164   7.043 -0.3915 -0.4425  0.6716
 4522SOL     OW16458   4.246   6.977   0.986  0.2465  0.1060 -0.0002
 4522SOL    HW116459   4.283   6.941   1.067  0.6760  3.2808  1.3663
 4522SOL    HW216460   4.315   6.966   0.921  0.6549 -0.7577  0.5552
 4523SOL     OW16461   1.631  10.359   9.163  1.0780 -0.0838  0.1206
 4523SOL    HW116462   1.658  10.272   9.191 -0.2072 -1.2235 -1.9583
 4523SOL    HW216463   1.542  10.368   9.198  1.1790  0.3837  0.2651
 4524SOL     OW16464   4.930   8.779   1.227 -0.5192  0.8389  0.0164
 4524SOL    HW116465   4.915   8.695   1.183  0.0968  0.9722 -0.4644
 4524SOL    HW216466   4.955   8.755   1.316  0.8576  0.4384 -0.4453
 4525SOL     OW16467   8.184   5.419   1.719 -0.2129 -0.2204 -0.2697
 4525SOL    HW116468   8.240   5.361   1.666 -0.0523  1.3936 -1.9712
 4525SOL    HW216469   8.242   5.454   1.786  0.6894  0.8183 -1.5323
 4526SOL     OW16470   5.175   6.321   8.945 -0.2919 -0.0957  0.2770
 4526SOL    HW116471   5.229   6.248   8.977  2.7596  2.2159  0.9355
 4526SOL    HW216472   5.180   6.386   9.015 -4.0636  0.3460  0.3266
 4527SOL     OW16473  10.086   3.661   0.655 -0.6408  0.5646 -0.2950
 4527SOL    HW116474  10.167   3.610   0.656  0.7761  2.6433  1.8211
 4527SOL    HW216475  10.018   3.597   0.673  0.6408 -1.0690 -0.9564
 4528SOL     OW16476   5.611   7.778  10.151 -0.3444  0.1037  0.2920
 4528SOL    HW116477   5.617   7.861  10.198  1.0952 -0.0325  0.3909
 4528SOL    HW216478   5.538   7.791  10.090 -0.6656  1.1417  0.8646
 4529SOL     OW16479   4.634   4.856   3.752 -0.1279 -0.3679 -0.0949
 4529SOL    HW116480   4.638   4.891   3.662 -1.3903  1.7454  0.5919
 4529SOL    HW216481   4.677   4.923   3.805  1.1161 -1.8643  0.8379
 4530SOL     OW16482   2.540   3.178   5.118  0.4690  0.2783  0.2758
 4530SOL    HW116483   2.575   3.155   5.204 -1.4768  2.4021  1.7672
 4530SOL    HW216484   2.468   3.116   5.105  1.1974 -0.4840 -0.1581
 4531SOL     OW16485   5.232   6.087   8.176  0.0494 -0.6715 -0.4938
 4531SOL    HW116486   5.323   6.112   8.191  0.1664 -0.4798 -1.4751
 4531SOL    HW216487   5.192   6.090   8.263  0.2574  2.0881 -0.4134
 4532SOL     OW16488   6.884   5.017   8.763 -0.0536  0.1265 -0.1613
 4532SOL    HW116489   6.812   5.051   8.817  0.4381  0.0142  0.5905
 4532SOL    HW216490   6.857   5.034   8.673 -0.7295  0.6667  0.1319
 4533SOL     OW16491   9.295   0.975   4.835  0.0617 -0.0531  0.1326
 4533SOL    HW116492   9.309   0.902   4.896  0.7198 -0.7668 -0.8360
 4533SOL    HW216493   9.356   0.957   4.763  0.3910  1.5775 -0.0250
 4534SOL     OW16494   9.404   1.153   4.416 -0.3683  0.4544 -0.1751
 4534SOL    HW116495   9.408   1.137   4.322 -0.5844  2.2323 -0.5293
 4534SOL    HW216496   9.367   1.241   4.423  0.1648  0.5712  1.5600
 4535SOL     OW16497   2.842   4.466   0.777 -0.1584 -0.2568 -0.5181
 4535SOL    HW116498   2.846   4.479   0.872 -0.1243 -1.4689 -0.3454
 4535SOL    HW216499   2.790   4.540   0.745 -0.8083 -0.2403  0.5296
 4536SOL     OW16500   4.782  10.054   6.405  0.3409  0.7860 -0.2820
 4536SOL    HW116501   4.842  10.046   6.331  0.4226  1.1478 -0.2577
 4536SOL    HW216502   4.768  10.148   6.414 -0.2895  0.6969 -0.3326
 4537SOL     OW16503   1.434   9.826   8.451  0.0383 -0.2245 -0.4447
 4537SOL    HW116504   1.434   9.731   8.463 -2.7609 -0.4198 -1.1852
 4537SOL    HW216505   1.457   9.839   8.359 -0.1576 -0.2460 -0.4985
 4538SOL     OW16506   7.338   7.720   1.453 -0.3822  0.2324  0.2761
 4538SOL    HW116507   7.361   7.643   1.506  0.1552 -1.2618 -2.0010
 4538SOL    HW216508   7.243   7.722   1.453 -0.3905  0.3283  1.3663
 4539SOL     OW16509   7.526   4.266   8.067 -0.6981 -0.7836 -0.9318
 4539SOL    HW116510   7.601   4.220   8.106  0.8965  1.9646 -0.5083
 4539SOL    HW216511   7.547   4.270   7.974 -0.1042  0.2875 -0.7643
 4540SOL     OW16512   8.199   7.364   5.577  0.1022 -0.0293  0.3162
 4540SOL    HW116513   8.193   7.268   5.584 -0.1245  0.0469  1.4121
 4540SOL    HW216514   8.227   7.380   5.487  0.9694 -1.1599  0.3620
 4541SOL     OW16515   4.191   0.456   1.257 -0.2879  0.3700 -0.6113
 4541SOL    HW116516   4.195   0.528   1.319 -2.1946  0.0726 -0.0834
 4541SOL    HW216517   4.190   0.499   1.171  1.0820  0.8296 -0.4291
 4542SOL     OW16518   3.052   7.835  10.453  0.0064 -0.5095 -0.5940
 4542SOL    HW116519   3.069   7.754  10.404  0.6360 -1.7089  1.4863
 4542SOL    HW216520   3.138   7.865  10.482 -0.3931 -0.3444  0.4961
 4543SOL     OW16521   7.392   9.626   6.430  0.6430 -0.1236 -0.0630
 4543SOL    HW116522   7.448   9.704   6.428  1.2204 -0.4301  1.9133
 4543SOL    HW216523   7.396   9.596   6.520 -3.6867  0.4891  0.5508
 4544SOL     OW16524   8.563   9.061   9.789 -0.4971  0.5495  0.3908
 4544SOL    HW116525   8.542   9.024   9.874 -0.0587  1.0732  0.7351
 4544SOL    HW216526   8.482   9.102   9.760 -1.2558 -1.3866 -0.4023
 4545SOL     OW16527   6.774   9.314   8.454  0.2697 -0.0951  0.4231
 4545SOL    HW116528   6.776   9.228   8.410  2.5361 -0.6754  1.4915
 4545SOL    HW216529   6.803   9.375   8.386  1.7575 -0.6905  0.4719
 4546SOL     OW16530   4.245   5.500   0.748  0.1823  0.5842  0.0358
 4546SOL    HW116531   4.290   5.505   0.832 -2.9046  0.2221  1.8306
 4546SOL    HW216532   4.236   5.592   0.721 -1.2983  0.9501  1.5968
 4547SOL     OW16533   4.697   3.758   2.876  0.3694 -0.4388 -0.1307
 4547SOL    HW116534   4.603   3.766   2.892  0.6725  0.4831  1.3684
 4547SOL    HW216535   4.703   3.734   2.783 -1.3556 -1.2834 -0.0710
 4548SOL     OW16536   6.103   6.078   8.451 -0.3500  0.3460  0.0329
 4548SOL    HW116537   6.078   6.132   8.526  0.4953 -0.4161  0.9088
 4548SOL    HW216538   6.052   5.998   8.461  0.4274 -0.1317  0.3410
 4549SOL     OW16539   7.975   7.305   0.081  0.1849  0.5086 -0.0129
 4549SOL    HW116540   7.922   7.233   0.116 -2.0475  1.2975 -1.5562
 4549SOL    HW216541   8.066   7.278   0.098 -0.5604 -2.3510  0.0181
 4550SOL     OW16542   1.321   8.903   9.927  0.2293  0.3060  0.0537
 4550SOL    HW116543   1.411   8.922   9.902  0.6160  0.6887  1.6365
 4550SOL    HW216544   1.325   8.887  10.021 -0.7955 -3.2175 -0.3666
 4551SOL     OW16545   4.790   4.036   5.981  0.3317 -0.2657  0.3205
 4551SOL    HW116546   4.737   3.960   5.960  0.3936 -0.8426  2.1426
 4551SOL    HW216547   4.879   4.010   5.957  0.2461 -0.4861  0.2407
 4552SOL     OW16548  10.699   4.277   3.120 -0.1479 -0.5899  0.1186
 4552SOL    HW116549  10.737   4.365   3.117 -1.7815  0.2217  1.1252
 4552SOL    HW216550  10.691   4.258   3.214  0.4321 -1.9454 -0.0830
 4553SOL     OW16551   1.889   0.558   8.548 -0.4971 -0.6379 -0.0414
 4553SOL    HW116552   1.861   0.467   8.553  0.0870 -0.7648  2.0974
 4553SOL    HW216553   1.909   0.582   8.639  0.8035  1.1671 -0.7365
 4554SOL     OW16554   2.357   2.131   7.078  0.0889  0.3454  0.0269
 4554SOL    HW116555   2.376   2.224   7.066  0.3700  0.2005 -0.7347
 4554SOL    HW216556   2.376   2.092   6.992 -1.3517 -0.1949 -0.0655
 4555SOL     OW16557   4.546  10.566   3.904 -0.3779  0.4360  0.2448
 4555SOL    HW116558   4.518  10.657   3.888  0.1825  0.5043 -0.3898
 4555SOL    HW216559   4.469  10.525   3.943 -0.6636  1.1693  0.4859
 4556SOL     OW16560   1.358   6.451   7.982  0.2158 -0.0488 -0.2737
 4556SOL    HW116561   1.354   6.506   7.903 -1.6608  1.3220  0.6756
 4556SOL    HW216562   1.381   6.364   7.950  0.3301  0.6479 -2.2255
 4557SOL     OW16563   9.601   3.346   5.405 -0.1207 -0.2743 -0.2085
 4557SOL    HW116564   9.506   3.357   5.404 -0.2510 -1.3145 -0.5575
 4557SOL    HW216565   9.620   3.299   5.324  0.6750 -0.2390 -0.0459
 4558SOL     OW16566   2.446   1.091   6.517  0.6579  0.3388  0.1400
 4558SOL    HW116567   2.422   1.008   6.475 -0.2158  0.0998  1.0782
 4558SOL    HW216568   2.517   1.068   6.577  0.2210  0.2095  0.6112
 4559SOL     OW16569   3.446   3.295   0.807  0.2758 -0.1207  0.0208
 4559SOL    HW116570   3.532   3.266   0.835  0.9032 -0.3001 -1.9778
 4559SOL    HW216571   3.397   3.213   0.791 -0.0275 -0.0213  0.4164
 4560SOL     OW16572   0.810   9.221  10.178 -0.0020  0.2149 -0.6304
 4560SOL    HW116573   0.800   9.227  10.273  0.0071  1.3512 -0.6817
 4560SOL    HW216574   0.872   9.150  10.164 -0.5408 -0.4274  0.1716
 4561SOL     OW16575   1.871   3.350   2.578  0.5270  0.2033 -0.1698
 4561SOL    HW116576   1.802   3.284   2.582  0.6218  0.0245 -1.2618
 4561SOL    HW216577   1.832   3.423   2.530 -0.0548  1.5731  2.1980
 4562SOL     OW16578   0.941   0.459   2.709 -0.1667  0.1547 -0.1422
 4562SOL    HW116579   0.916   0.451   2.617  0.8598 -3.3493 -0.2418
 4562SOL    HW216580   0.858   0.474   2.755 -1.5349 -3.1936 -1.2383
 4563SOL     OW16581   6.994  10.444   6.528  0.1936  0.0206  0.0419
 4563SOL    HW116582   6.997  10.478   6.618  3.9822 -0.3087  0.2021
 4563SOL    HW216583   7.031  10.356   6.536 -0.0209 -0.2604 -1.7781
 4564SOL     OW16584   4.713   4.662   7.589  0.2079 -0.3472  0.2623
 4564SOL    HW116585   4.643   4.712   7.631 -0.6365 -0.5259 -0.8848
 4564SOL    HW216586   4.734   4.593   7.652 -0.9053 -0.5000  0.4919
 4565SOL     OW16587   6.343   6.101   6.442 -0.1220 -0.4079 -0.0798
 4565SOL    HW116588   6.295   6.056   6.372 -2.9724  0.1486  1.3917
 4565SOL    HW216589   6.391   6.171   6.396 -1.8246 -0.1099 -1.5353
 4566SOL     OW16590   0.033   2.037   5.820  0.4189 -0.7914 -0.2725
 4566SOL    HW116591   0.101   1.988   5.867  1.7466  0.0658 -1.2320
 4566SOL    HW216592   0.080   2.083   5.751 -1.2411 -0.6167 -1.3392
 4567SOL     OW16593   2.281   5.050   7.164  0.2512  0.4696 -0.1025
 4567SOL    HW116594   2.283   5.144   7.144 -0.9305  0.4692 -0.2464
 4567SOL    HW216595   2.342   5.012   7.100 -1.0385  0.8693 -1.6393
 4568SOL     OW16596   7.355   0.936   8.707 -0.0317  0.2379  0.0827
 4568SOL    HW116597   7.449   0.943   8.689  0.2260  0.3867  1.3973
 4568SOL    HW216598   7.341   0.994   8.782 -1.0839 -0.2037  0.2406
 4569SOL     OW16599   6.601   8.378   4.733 -0.4020 -0.2929 -0.1185
 4569SOL    HW116600   6.509   8.356   4.718 -0.7132  1.5131 -1.2297
 4569SOL    HW216601   6.626   8.327   4.810 -2.5228 -0.3671  0.5858
 4570SOL     OW16602   4.688  10.029  10.403 -0.4171  0.0334 -0.0332
 4570SOL    HW116603   4.728  10.023  10.490  0.3761 -1.5747 -0.4764
 4570SOL    HW216604   4.755  10.070  10.349  0.7512 -2.6018 -0.7595
 4571SOL     OW16605   7.918   9.586   8.798 -0.3086  0.1061 -0.4352
 4571SOL    HW116606   7.950   9.639   8.872 -0.7650 -0.1773 -0.0243
 4571SOL    HW216607   7.823   9.600   8.798 -0.4295 -0.6611 -0.3559
 4572SOL     OW16608   4.463   8.215   3.813 -0.0202 -0.3592  0.5974
 4572SOL    HW116609   4.489   8.150   3.878 -0.0896  0.9758  2.0281
 4572SOL    HW216610   4.539   8.225   3.756  0.0423 -1.5509  0.4503
 4573SOL     OW16611   2.029   8.491   4.605  0.6427  0.1865  0.0957
 4573SOL    HW116612   2.005   8.402   4.580 -0.4576  0.5478 -0.1790
 4573SOL    HW216613   2.116   8.482   4.645  1.3924 -0.7479 -1.6291
 4574SOL     OW16614   2.140   8.025   8.927  0.0964 -0.2456  0.2789
 4574SOL    HW116615   2.094   8.008   9.009 -0.4405 -1.3490 -0.2207
 4574SOL    HW216616   2.087   8.091   8.883  0.1660  0.0560  0.6477
 4575SOL     OW16617   4.741   4.783   7.094 -0.4941  0.2421 -0.0628
 4575SOL    HW116618   4.806   4.848   7.068 -1.7208  1.2680 -0.6325
 4575SOL    HW216619   4.730   4.797   7.188  1.1241 -0.9131  0.3521
 4576SOL     OW16620   1.111   0.838   2.975  0.0123 -0.0763  0.5700
 4576SOL    HW116621   1.196   0.841   2.931 -0.4208 -0.1342 -0.3071
 4576SOL    HW216622   1.080   0.748   2.962 -0.7052  0.2607 -0.1745
 4577SOL     OW16623   7.770   3.574   7.963 -0.3744 -0.1677 -0.3406
 4577SOL    HW116624   7.789   3.621   7.881  0.2473  0.5024  0.1740
 4577SOL    HW216625   7.686   3.531   7.947  0.2664 -0.9885 -1.7383
 4578SOL     OW16626   0.554   4.152   6.327 -0.4548 -0.7858 -0.6182
 4578SOL    HW116627   0.561   4.102   6.408 -1.6909  2.2526  1.5290
 4578SOL    HW216628   0.464   4.139   6.298 -0.7064 -0.0137 -0.1891
 4579SOL     OW16629   3.178   9.984   7.506  0.4131  0.6834  0.5771
 4579SOL    HW116630   3.090   9.970   7.541  0.5541 -0.3200  0.5497
 4579SOL    HW216631   3.234   9.924   7.555  0.3936 -1.9414 -2.2893
 4580SOL     OW16632   3.050   3.524   1.271  0.1996 -0.1938  0.8715
 4580SOL    HW116633   3.043   3.575   1.191 -0.2455  0.9942  1.6316
 4580SOL    HW216634   3.046   3.433   1.243 -2.2615  0.2099 -0.2600
 4581SOL     OW16635   7.563   7.001   0.843  0.5063  0.3424 -0.1067
 4581SOL    HW116636   7.563   7.073   0.780  2.0567 -1.0068 -1.7482
 4581SOL    HW216637   7.644   7.011   0.892 -0.1125  0.6805  0.8820
 4582SOL     OW16638   1.337   7.611   6.563  0.4081 -0.2597  0.2965
 4582SOL    HW116639   1.306   7.701   6.560  2.4710  0.4667 -1.1911
 4582SOL    HW216640   1.295   7.568   6.489 -1.2631 -0.8119  1.5159
 4583SOL     OW16641   2.191   2.305   1.946 -0.2910 -0.1748  0.0443
 4583SOL    HW116642   2.243   2.224   1.945  0.1982  0.1350 -0.0675
 4583SOL    HW216643   2.255   2.374   1.963 -0.8762  0.0762  1.3278
 4584SOL     OW16644   3.711   0.338   7.433  0.8781  0.1904  0.1628
 4584SOL    HW116645   3.626   0.341   7.390  0.9362 -0.7314 -0.0483
 4584SOL    HW216646   3.759   0.413   7.397  0.1526  0.7241  0.3015
 4585SOL     OW16647   6.524  10.750   4.751  0.5170  0.5024  0.0116
 4585SOL    HW116648   6.516  10.678   4.688 -1.3989 -0.0124  0.7703
 4585SOL    HW216649   6.491  10.827   4.703 -0.1448  0.2796  0.1011
 4586SOL     OW16650   4.755   8.521  10.600 -0.3859 -0.8223 -0.4185
 4586SOL    HW116651   4.713   8.597  10.640 -0.5808 -0.3141 -1.5532
 4586SOL    HW216652   4.846   8.547  10.588 -0.2579 -1.0867 -0.0263
 4587SOL     OW16653   9.540   7.144   0.121  0.2065 -0.2752  0.3843
 4587SOL    HW116654   9.465   7.183   0.167 -0.0328  0.0165 -0.2529
 4587SOL    HW216655   9.509   7.130   0.032  1.0583  0.2712 -0.0098
 4588SOL     OW16656   0.086   3.725   1.583 -0.6741 -0.3272  0.1876
 4588SOL    HW116657   0.051   3.759   1.500  0.0415 -0.0199  0.0084
 4588SOL    HW216658   0.070   3.795   1.646  2.5340  1.2850 -0.5707
 4589SOL     OW16659  10.153   2.278   7.567  0.2848  0.4568  0.5055
 4589SOL    HW116660  10.231   2.247   7.521  0.0313  0.1219  0.2927
 4589SOL    HW216661  10.185   2.312   7.650  0.5442 -0.5593  0.8218
 4590SOL     OW16662   6.083   7.265   6.122 -0.0595  0.0217  0.0306
 4590SOL    HW116663   6.045   7.226   6.201 -0.4382  1.5684  0.6457
 4590SOL    HW216664   6.073   7.360   6.134 -0.5240  0.2928 -2.0758
 4591SOL     OW16665   8.724   8.167   8.240 -0.5791 -0.6380  0.7974
 4591SOL    HW116666   8.758   8.239   8.293  0.5742 -1.4381  1.1681
 4591SOL    HW216667   8.747   8.088   8.289 -0.2510 -1.3552 -0.4717
 4592SOL     OW16668   7.873   5.889   5.756  0.1389 -0.0576 -0.1292
 4592SOL    HW116669   7.876   5.808   5.706 -0.7434 -0.2461  0.1217
 4592SOL    HW216670   7.781   5.914   5.757  0.1965  0.1462  1.0768
 4593SOL     OW16671   0.910   2.989   9.088  0.3914  0.0306  0.0250
 4593SOL    HW116672   0.935   3.036   9.167 -0.8651  0.6619  0.0706
 4593SOL    HW216673   0.814   2.986   9.091  0.3933 -2.4476 -0.0273
 4594SOL     OW16674   5.673   9.356   3.530 -0.1872 -0.2527  0.6628
 4594SOL    HW116675   5.596   9.402   3.564  0.9435  1.3542  1.1995
 4594SOL    HW216676   5.707   9.308   3.605  0.9459  1.3885  1.2721
 4595SOL     OW16677   1.939   9.373   5.113  0.0030 -0.2972  0.4070
 4595SOL    HW116678   1.864   9.432   5.111  0.2127 -0.0322  0.3516
 4595SOL    HW216679   1.999   9.412   5.176  0.3571 -0.1837  0.0102
 4596SOL     OW16680   7.782   1.009   6.027 -0.1604 -1.0902 -0.5482
 4596SOL    HW116681   7.846   0.993   5.957 -1.4155 -0.2805 -1.9418
 4596SOL    HW216682   7.701   0.969   5.995 -0.3387 -2.3907  1.3271
 4597SOL     OW16683   6.213   2.682   0.540 -0.3136  0.6065  0.2052
 4597SOL    HW116684   6.131   2.712   0.500 -0.6887 -0.3564  0.2082
 4597SOL    HW216685   6.189   2.664   0.631 -0.8762 -2.3854 -0.4266
 4598SOL     OW16686   8.359   2.304   6.362 -0.8588 -0.2503  0.3400
 4598SOL    HW116687   8.391   2.298   6.272  1.5051 -0.4540  1.1375
 4598SOL    HW216688   8.381   2.220   6.402  0.0767  0.5851  1.6834
 4599SOL     OW16689   6.146   9.034   0.478 -0.2334  0.2232  0.2561
 4599SOL    HW116690   6.070   9.018   0.421 -0.5588 -1.0772  1.0033
 4599SOL    HW216691   6.185   9.114   0.444 -1.5342  0.5357 -0.5904
 4600SOL     OW16692   9.263   6.429   6.342  0.1303  0.4138 -0.9311
 4600SOL    HW116693   9.242   6.360   6.406 -0.5604  0.3615 -1.2105
 4600SOL    HW216694   9.178   6.465   6.316  0.5089  2.1464  0.0408
 4601SOL     OW16695   9.688   5.159   3.350 -0.0108  0.0286 -0.1329
 4601SOL    HW116696   9.641   5.196   3.275 -0.9411  0.1628  0.4949
 4601SOL    HW216697   9.701   5.233   3.409 -0.1572 -0.2674  0.2738
 4602SOL     OW16698   4.925   3.650   2.390 -0.0390 -0.2708  0.4164
 4602SOL    HW116699   4.914   3.588   2.462  1.2476  0.2845  1.1310
 4602SOL    HW216700   4.970   3.599   2.322 -0.6418 -0.6103  0.2666
 4603SOL     OW16701   3.379   4.426   7.839  0.8312  0.1057 -0.7370
 4603SOL    HW116702   3.466   4.404   7.872  0.7388  1.2942  0.3410
 4603SOL    HW216703   3.395   4.487   7.767  0.8778  0.5138 -0.3800
 4604SOL     OW16704   8.404   5.005   3.586 -0.2351 -1.0441 -0.1808
 4604SOL    HW116705   8.390   4.910   3.595 -2.4334 -0.6270  1.7235
 4604SOL    HW216706   8.332   5.033   3.529 -1.5844 -0.1573  1.8391
 4605SOL     OW16707   7.108   5.824   4.299  0.0844 -0.3041 -0.2769
 4605SOL    HW116708   7.148   5.892   4.245  2.1724  0.9899  2.5912
 4605SOL    HW216709   7.044   5.871   4.353  0.2181 -0.9469  0.4575
 4606SOL     OW16710   0.285   2.610   8.418  0.1527 -1.1633  0.3711
 4606SOL    HW116711   0.271   2.536   8.477 -1.3463  0.1587  1.8083
 4606SOL    HW216712   0.369   2.648   8.446  0.2313 -1.4949  0.5862
 4607SOL     OW16713   9.701   7.133   7.068  0.2521  0.0303  0.7601
 4607SOL    HW116714   9.743   7.183   7.137 -0.6613  0.1299  1.2521
 4607SOL    HW216715   9.669   7.054   7.111  1.0560 -0.6657  0.1314
 4608SOL     OW16716   0.006   2.142   2.904 -0.0677 -0.6316 -0.0858
 4608SOL    HW116717  -0.048   2.221   2.901  0.2613 -0.3931  0.1728
 4608SOL    HW216718   0.093   2.174   2.928  0.2908 -0.9590 -0.9038
 4609SOL     OW16719   9.822   0.757   9.308  0.0086 -0.1558  0.7132
 4609SOL    HW116720   9.803   0.820   9.238 -0.1958 -1.8071 -0.8014
 4609SOL    HW216721   9.916   0.765   9.323  0.2422 -0.4612 -0.4915
 4610SOL     OW16722   2.422  10.488  10.409  0.2355 -0.1631 -0.2374
 4610SOL    HW116723   2.499  10.475  10.354 -0.5770  0.8318 -1.7079
 4610SOL    HW216724   2.404  10.582  10.403 -1.1388 -0.3860 -0.0042
 4611SOL     OW16725   5.024   2.360   7.256 -0.2364 -0.3277  0.0207
 4611SOL    HW116726   4.947   2.315   7.291 -0.3115 -0.8564 -0.8190
 4611SOL    HW216727   4.989   2.422   7.191 -0.2308  1.6411  1.7647
 4612SOL     OW16728   0.498   1.589   4.309 -0.0095 -0.2392 -0.1896
 4612SOL    HW116729   0.433   1.586   4.238  0.4501  0.3601 -0.6526
 4612SOL    HW216730   0.553   1.665   4.287  1.1040 -0.9776 -0.0472
 4613SOL     OW16731   3.375   7.466   5.829  0.3346 -0.4045  0.1895
 4613SOL    HW116732   3.447   7.468   5.892  0.7064  0.6698 -0.2510
 4613SOL    HW216733   3.413   7.500   5.748 -0.3671 -0.9454 -0.3746
 4614SOL     OW16734   7.532   8.713   7.162 -0.2207 -0.4439  0.2348
 4614SOL    HW116735   7.546   8.618   7.164 -0.0808 -0.4242  0.2107
 4614SOL    HW216736   7.606   8.749   7.211  0.2156 -0.2944 -0.5174
 4615SOL     OW16737   7.770   4.331   5.473 -0.3432  0.4195 -0.0207
 4615SOL    HW116738   7.680   4.363   5.480 -0.2968  0.2377  2.0059
 4615SOL    HW216739   7.808   4.382   5.402 -1.4120  2.1166  0.5686
 4616SOL     OW16740   9.444   1.578   6.133  0.1485  0.3025 -0.6070
 4616SOL    HW116741   9.425   1.567   6.040 -1.7983 -0.7280 -0.1480
 4616SOL    HW216742   9.423   1.493   6.172  1.9710  0.3723  0.6506
 4617SOL     OW16743   6.868  10.383   7.901  0.2782 -0.1795 -0.5033
 4617SOL    HW116744   6.826  10.386   7.815 -1.9161  0.2976  0.5282
 4617SOL    HW216745   6.811  10.327   7.954 -0.9078  2.9312  1.8060
 4618SOL     OW16746   0.841   6.186   3.565 -0.2332 -0.0564 -0.7228
 4618SOL    HW116747   0.910   6.148   3.620 -0.7417 -1.6234 -1.1245
 4618SOL    HW216748   0.878   6.270   3.536  1.1052 -0.4047 -0.1243
 4619SOL     OW16749   9.044  10.504   0.052  0.0285  0.2737 -0.2415
 4619SOL    HW116750   8.954  10.482   0.075  0.5499 -0.8700  0.8091
 4619SOL    HW216751   9.048  10.599   0.056 -0.6329  0.2558  1.7020
 4620SOL     OW16752   6.857   1.985   5.363 -0.3423  0.0840  0.8280
 4620SOL    HW116753   6.881   2.014   5.275 -0.8155 -0.6598  0.4486
 4620SOL    HW216754   6.828   2.065   5.407 -1.5097  0.2359 -0.1683
 4621SOL     OW16755   6.857   4.687   4.223  0.2350 -0.2811 -0.4088
 4621SOL    HW116756   6.886   4.611   4.174  1.5560  0.3410 -0.6477
 4621SOL    HW216757   6.846   4.755   4.157  0.7148  0.1905 -0.0150
 4622SOL     OW16758   9.671   5.926   0.028  0.2366  0.5281  0.0871
 4622SOL    HW116759   9.716   5.915   0.112 -1.1510 -0.8368  0.6981
 4622SOL    HW216760   9.697   5.849  -0.023  0.9503  1.2731 -0.6941
 4623SOL     OW16761   5.696   9.676   0.440 -0.3657 -0.2628 -0.4769
 4623SOL    HW116762   5.766   9.669   0.505 -1.7235 -1.4023  0.9208
 4623SOL    HW216763   5.729   9.627   0.364  1.2998  1.2153 -0.7585
 4624SOL     OW16764   9.303   0.291   5.355 -0.4159 -0.2764  0.0424
 4624SOL    HW116765   9.344   0.290   5.268 -0.0125 -0.9427  0.2344
 4624SOL    HW216766   9.231   0.228   5.348 -2.2321  1.7461 -0.6599
 4625SOL     OW16767   4.541   4.104   8.423  0.1685  0.2122  0.1621
 4625SOL    HW116768   4.560   4.150   8.505 -0.2786  2.5068 -0.9271
 4625SOL    HW216769   4.620   4.118   8.370  0.3694 -1.0769  0.0840
 4626SOL     OW16770   2.080  10.729   2.312 -0.2171 -0.3190  0.3044
 4626SOL    HW116771   1.987  10.751   2.322  0.1447  1.1513  0.7125
 4626SOL    HW216772   2.100  10.751   2.221  0.0544  0.7690  0.6098
 4627SOL     OW16773   2.811   2.558   2.934  0.2913  0.1174 -0.3417
 4627SOL    HW116774   2.815   2.483   2.876 -0.2748  1.0488 -1.6486
 4627SOL    HW216775   2.719   2.564   2.960  0.6457 -0.6590  1.1955
 4628SOL     OW16776   2.288   7.724   4.265 -0.1180  0.2136 -0.1761
 4628SOL    HW116777   2.216   7.766   4.218  0.6477  0.8453 -0.7923
 4628SOL    HW216778   2.250   7.702   4.351 -0.8495  1.1498 -0.2425
 4629SOL     OW16779  10.399   7.513   5.915  0.1042  0.0769 -0.5567
 4629SOL    HW116780  10.324   7.569   5.894 -1.1798 -1.4297 -0.2163
 4629SOL    HW216781  10.417   7.466   5.833  0.7549  0.4844 -0.6596
 4630SOL     OW16782   6.769  10.041   5.659  0.0884 -0.7054  0.5985
 4630SOL    HW116783   6.734  10.124   5.692  0.9966  0.7402 -1.7963
 4630SOL    HW216784   6.860  10.061   5.636 -0.7090 -1.1443 -3.6867
 4631SOL     OW16785   8.733   3.718   2.037  0.6637 -0.5306 -0.3216
 4631SOL    HW116786   8.770   3.787   1.982 -0.0017  0.8515  0.8929
 4631SOL    HW216787   8.805   3.656   2.049  1.6348  0.5224 -0.5357
 4632SOL     OW16788   1.240   0.295   0.045 -0.4448 -0.0539  0.3519
 4632SOL    HW116789   1.154   0.316   0.008 -0.0652  2.1308  0.5851
 4632SOL    HW216790   1.275   0.379   0.074  1.8656 -0.8598  0.1162
 4633SOL     OW16791   0.266   9.710  10.489 -0.3464 -0.0685  0.3888
 4633SOL    HW116792   0.237   9.716  10.397  0.9116 -0.4715 -0.0542
 4633SOL    HW216793   0.332   9.641  10.489 -0.1373  0.1142  1.5585
 4634SOL     OW16794   4.059  10.453   1.738  0.0394 -0.1247  0.0614
 4634SOL    HW116795   4.069  10.515   1.810  2.0034  0.6308 -0.8013
 4634SOL    HW216796   3.992  10.492   1.682  0.9585  1.0220 -0.2575
 4635SOL     OW16797   7.260   6.551   3.019 -0.1121 -0.3971 -0.5220
 4635SOL    HW116798   7.325   6.483   3.037  0.8151  0.2087 -1.4601
 4635SOL    HW216799   7.175   6.506   3.024  0.2640 -0.9713  1.8466
 4636SOL     OW16800   8.397   9.491   5.591 -0.2233 -0.4205 -0.5031
 4636SOL    HW116801   8.317   9.510   5.542  0.2894  1.3382 -0.7136
 4636SOL    HW216802   8.400   9.557   5.660  1.0399 -0.4533 -0.4992
 4637SOL     OW16803   6.252   8.365   6.812 -0.3948  0.0126 -0.0099
 4637SOL    HW116804   6.201   8.296   6.855 -2.0448  0.4220 -1.1782
 4637SOL    HW216805   6.233   8.443   6.863 -1.6055  0.3144 -0.8765
 4638SOL     OW16806   1.454   6.554   8.626  0.3439 -0.1301 -0.1180
 4638SOL    HW116807   1.376   6.522   8.579 -2.4899  1.1689  3.2327
 4638SOL    HW216808   1.453   6.648   8.613  0.9122 -0.0182  0.5774
 4639SOL     OW16809   2.413   9.666   7.620 -0.1399 -0.1673  0.1336
 4639SOL    HW116810   2.441   9.719   7.695  0.6874  0.6526 -0.7261
 4639SOL    HW216811   2.364   9.727   7.565 -1.3403 -0.9397  0.3145
 4640SOL     OW16812   7.966   6.225   1.722  0.0678  0.1359 -0.1908
 4640SOL    HW116813   8.044   6.272   1.752 -0.1432  0.1821  0.2909
 4640SOL    HW216814   7.924   6.284   1.660  0.4720  0.0703 -0.5277
 4641SOL     OW16815   1.838   3.226   3.408 -0.2201  0.0067 -0.0102
 4641SOL    HW116816   1.904   3.157   3.415  0.3681  0.6540  1.1507
 4641SOL    HW216817   1.764   3.184   3.363  0.1014 -1.4026  0.7160
 4642SOL     OW16818   0.701   9.446   8.167  0.4303  0.3018 -0.0892
 4642SOL    HW116819   0.645   9.368   8.167  0.0649  0.5109 -1.9771
 4642SOL    HW216820   0.641   9.519   8.150  0.7166  1.0824  2.0057
 4643SOL     OW16821   0.280   6.722   3.972 -0.8532 -0.5468 -0.5936
 4643SOL    HW116822   0.305   6.807   3.936  0.8303 -1.2039 -1.0888
 4643SOL    HW216823   0.196   6.702   3.931 -0.5485  0.2084 -1.6402
 4644SOL     OW16824   8.491  10.691   9.623  0.1118 -0.1064 -0.2353
 4644SOL    HW116825   8.511  10.643   9.703  0.4053 -0.8580 -0.7569
 4644SOL    HW216826   8.562  10.754   9.614  0.3151 -0.3195 -0.1365
 4645SOL     OW16827   7.276   0.177   2.280  0.8371 -0.2218  0.1951
 4645SOL    HW116828   7.184   0.169   2.306 -0.1144 -0.9580 -3.0441
 4645SOL    HW216829   7.275   0.239   2.208  2.5925 -1.5694 -1.0652
 4646SOL     OW16830   6.782   0.404   3.888 -0.1455  0.2003  0.0908
 4646SOL    HW116831   6.797   0.351   3.810 -0.0022 -1.5182  1.2421
 4646SOL    HW216832   6.720   0.354   3.940 -2.6164  2.7066 -0.1965
 4647SOL     OW16833   5.879   4.780   5.087 -0.4914  0.0610 -0.2509
 4647SOL    HW116834   5.960   4.832   5.083  1.0192 -2.1573 -0.4906
 4647SOL    HW216835   5.870   4.759   5.180  0.3219 -1.2661 -0.4485
 4648SOL     OW16836   5.953   7.954   9.646  0.2155  0.4496 -0.3363
 4648SOL    HW116837   6.018   7.908   9.593  1.8240 -0.2602  2.1285
 4648SOL    HW216838   5.956   8.045   9.615  0.7092 -0.0273 -1.7658
 4649SOL     OW16839   9.237   0.981   6.428 -0.0934  0.0206 -0.2250
 4649SOL    HW116840   9.268   0.972   6.518 -0.6629 -1.9989 -0.1865
 4649SOL    HW216841   9.316   0.973   6.375  0.1715  0.6472  0.0650
 4650SOL     OW16842   1.021   0.430   6.398 -0.3777  0.2596 -0.4006
 4650SOL    HW116843   0.978   0.491   6.338  0.2145  0.1455 -0.9504
 4650SOL    HW216844   1.051   0.358   6.343 -1.6463 -0.8764  0.3349
 4651SOL     OW16845   7.529   8.409   9.360  0.6238  0.3354  0.0996
 4651SOL    HW116846   7.534   8.319   9.393  1.5485 -0.1821 -1.3787
 4651SOL    HW216847   7.436   8.432   9.367  0.3479 -0.7924  0.3498
 4652SOL     OW16848   3.764   9.483   7.002  0.4851 -0.8790 -0.1720
 4652SOL    HW116849   3.836   9.525   6.954  0.4783 -0.7967 -0.1114
 4652SOL    HW216850   3.686   9.504   6.952  0.1032  1.4436  1.2394
 4653SOL     OW16851   2.076   1.335   9.999  0.0730 -0.6412  0.3541
 4653SOL    HW116852   2.138   1.271  10.034  2.3645 -1.0449 -3.7878
 4653SOL    HW216853   2.006   1.282   9.961 -0.0531 -0.4713  0.3483
 4654SOL     OW16854   6.343   9.476   1.575 -0.3466  0.2817 -0.0739
 4654SOL    HW116855   6.248   9.489   1.583 -0.2757  0.9586 -0.2039
 4654SOL    HW216856   6.353   9.396   1.523 -0.8635  0.8069 -1.0084
 4655SOL     OW16857   0.475   0.094   3.716  0.5300  0.2725  0.0689
 4655SOL    HW116858   0.393   0.044   3.711  0.6615  0.1743 -1.7951
 4655SOL    HW216859   0.461   0.154   3.789 -2.2459  1.9720 -1.6491
 4656SOL     OW16860   7.094   3.096   6.331 -0.3742 -0.5275 -0.1290
 4656SOL    HW116861   7.144   3.057   6.259  2.4791 -0.0187  1.4293
 4656SOL    HW216862   7.121   3.187   6.333 -0.9005 -0.3783  1.1636
 4657SOL     OW16863   6.672   8.841   8.019  0.4695 -0.1776  0.4901
 4657SOL    HW116864   6.662   8.868   7.928  1.8746  0.4209  0.4967
 4657SOL    HW216865   6.582   8.839   8.053 -0.0477 -0.1454 -0.8225
 4658SOL     OW16866   2.752   7.517  10.370  0.6719 -0.3869  0.1391
 4658SOL    HW116867   2.738   7.586  10.305  1.4698  0.2630  0.6233
 4658SOL    HW216868   2.734   7.560  10.454 -1.5716 -1.5488  0.3153
 4659SOL     OW16869   0.303   1.216   7.245  0.0387 -0.1666  0.1076
 4659SOL    HW116870   0.346   1.143   7.289  1.2349  0.8509  0.6974
 4659SOL    HW216871   0.355   1.292   7.268 -0.5629  0.7362 -1.3479
 4660SOL     OW16872   3.360   9.778   4.269 -0.2806 -0.6195  0.0869
 4660SOL    HW116873   3.320   9.864   4.258 -0.9937 -0.7579  1.4935
 4660SOL    HW216874   3.307   9.720   4.214 -0.9309 -0.4873  0.5719
 4661SOL     OW16875   1.916   9.601   9.292 -0.3002  0.4392  0.1771
 4661SOL    HW116876   1.918   9.696   9.282  1.0795  0.3392 -0.6898
 4661SOL    HW216877   1.967   9.568   9.219 -1.5161 -1.0347 -0.0568
 4662SOL     OW16878   9.859   9.108   3.033  0.2704  0.1174  0.1280
 4662SOL    HW116879   9.767   9.090   3.055  0.0486 -0.4350 -1.1429
 4662SOL    HW216880   9.854   9.159   2.952  1.0705  1.2898  0.7868
 4663SOL     OW16881   9.160   3.727   6.660  0.5154 -0.0541  0.1644
 4663SOL    HW116882   9.128   3.817   6.655 -2.7314 -0.9526  1.6701
 4663SOL    HW216883   9.201   3.720   6.746 -0.2140 -0.2301  0.5108
 4664SOL     OW16884   7.049   5.181   1.338  0.1200  0.3164  0.0234
 4664SOL    HW116885   6.966   5.141   1.313  0.3020 -1.0266  1.3864
 4664SOL    HW216886   7.037   5.206   1.430  1.1638  0.2161  0.2059
 4665SOL     OW16887   0.723   5.691   5.715  0.2091  0.2157 -0.0704
 4665SOL    HW116888   0.776   5.726   5.787  0.4138  1.9353 -1.0190
 4665SOL    HW216889   0.635   5.722   5.732  0.0380 -0.2921 -0.0007
 4666SOL     OW16890   0.868   3.070  10.669 -0.2866 -0.2330  0.0877
 4666SOL    HW116891   0.806   3.057  10.741 -0.9071 -0.9996 -0.5687
 4666SOL    HW216892   0.837   3.150  10.625  0.1366  0.2786  0.6997
 4667SOL     OW16893  10.622  10.370   1.479  0.0247 -0.1143  0.5103
 4667SOL    HW116894  10.654  10.408   1.397  1.7993 -0.7452  0.8467
 4667SOL    HW216895  10.696  10.317   1.510 -1.5816 -2.0788  1.1511
 4668SOL     OW16896   8.104   2.461   1.225 -0.2388 -0.1786  0.1406
 4668SOL    HW116897   8.157   2.489   1.150 -0.2695 -0.7781 -0.1141
 4668SOL    HW216898   8.051   2.538   1.247  1.4502  0.7801  1.0622
 4669SOL     OW16899   3.579   8.014   7.634  0.3994 -0.5809  0.0053
 4669SOL    HW116900   3.668   7.979   7.638  0.6790  0.1850  0.8835
 4669SOL    HW216901   3.588   8.096   7.585 -0.0327 -1.0759 -0.9260
 4670SOL     OW16902   6.857   7.776   8.580  0.3408  0.2657 -0.7514
 4670SOL    HW116903   6.824   7.765   8.669 -0.7308 -3.0458 -1.4049
 4670SOL    HW216904   6.787   7.822   8.533 -0.8398 -1.3898 -0.7070
 4671SOL     OW16905   0.619   2.582   6.145 -0.5509  0.2769 -0.3229
 4671SOL    HW116906   0.534   2.595   6.102 -0.1340  1.1845 -0.8971
 4671SOL    HW216907   0.668   2.661   6.125  0.3606 -0.1467  0.1938
 4672SOL     OW16908   3.594   9.757   0.448 -0.0393 -0.2075 -0.0243
 4672SOL    HW116909   3.575   9.850   0.455 -0.7570 -0.2631 -0.9662
 4672SOL    HW216910   3.509   9.714   0.460  0.1859 -0.7035 -0.1621
 4673SOL     OW16911   6.792   5.798  10.686  0.1097  0.2159 -0.0114
 4673SOL    HW116912   6.839   5.737  10.630 -1.3427  0.9691 -2.1710
 4673SOL    HW216913   6.755   5.744  10.756  1.8818 -0.7567  0.2296
 4674SOL     OW16914  10.756  10.416   4.350 -0.0853 -0.7311  0.6462
 4674SOL    HW116915  10.822  10.480   4.322 -1.3438  0.6089  0.6237
 4674SOL    HW216916  10.756  10.422   4.446 -1.3826  0.6070  0.6023
 4675SOL     OW16917  10.411   0.222  10.487 -0.1915  0.5582  0.1393
 4675SOL    HW116918  10.483   0.285  10.488  0.3644  0.0356 -1.8916
 4675SOL    HW216919  10.449   0.142  10.523  0.5055  0.0908 -1.5259
 4676SOL     OW16920   4.242   6.485   7.284 -0.1891 -0.4068 -0.1305
 4676SOL    HW116921   4.226   6.574   7.253 -0.8754 -0.3204  0.4445
 4676SOL    HW216922   4.336   6.472   7.272  0.0882  0.7349  0.6229
 4677SOL     OW16923   1.606   4.638   4.371 -0.0795 -0.0807 -0.5000
 4677SOL    HW116924   1.556   4.718   4.391 -1.2556 -0.6611 -1.0483
 4677SOL    HW216925   1.671   4.633   4.441 -0.4421  0.9830 -0.0571
 4678SOL     OW16926   8.733   3.423   9.297 -0.5553 -0.6595 -0.4831
 4678SOL    HW116927   8.745   3.341   9.346 -1.3851 -1.2267 -1.2060
 4678SOL    HW216928   8.669   3.402   9.230  0.1186  0.2717 -1.4508
 4679SOL     OW16929   3.412   7.699   8.131  0.5554 -0.2774 -0.2454
 4679SOL    HW116930   3.383   7.607   8.138 -0.6747  0.1400  0.5665
 4679SOL    HW216931   3.330   7.749   8.134  1.3578  1.0368  3.0474
 4680SOL     OW16932   2.979   9.967   3.354 -0.1758  0.5257  0.0403
 4680SOL    HW116933   2.900  10.008   3.391 -1.4432 -0.8933 -0.9556
 4680SOL    HW216934   2.997  10.017   3.275 -0.6462  0.2967 -0.2172
 4681SOL     OW16935  10.420   2.147   3.016 -0.3924  0.1702  0.1753
 4681SOL    HW116936  10.412   2.085   2.944  0.0794  1.2259 -0.8114
 4681SOL    HW216937  10.409   2.094   3.095  1.4503 -1.4231 -0.5684
 4682SOL     OW16938   6.590   3.415   3.927 -0.1871 -0.4115 -0.3971
 4682SOL    HW116939   6.573   3.393   3.836 -0.5470 -2.5810  0.1343
 4682SOL    HW216940   6.521   3.370   3.976  0.7642 -0.3829  1.0295
 4683SOL     OW16941   2.445  10.514   3.882  0.2547  0.0014 -0.1701
 4683SOL    HW116942   2.402  10.473   3.957 -0.7427 -0.2837 -0.8767
 4683SOL    HW216943   2.393  10.487   3.806  1.4392 -0.0089 -1.0186
 4684SOL     OW16944   6.092   9.132   1.008  0.3801 -0.0612  0.5130
 4684SOL    HW116945   6.122   9.219   1.033 -3.0725  1.6713 -0.6429
 4684SOL    HW216946   5.997   9.134   1.022 -0.3990 -2.3080 -3.0346
 4685SOL     OW16947   3.758   7.354   9.489  0.0973 -0.1761  0.1523
 4685SOL    HW116948   3.735   7.396   9.407  0.7931 -0.8239 -0.3826
 4685SOL    HW216949   3.747   7.422   9.555 -0.9658  0.2092 -0.4003
 4686SOL     OW16950   2.653  10.381   5.336 -0.5338  0.4737  0.0963
 4686SOL    HW116951   2.672  10.386   5.429 -1.3600  2.7103  0.2279
 4686SOL    HW216952   2.559  10.402   5.330 -1.0044 -1.7182 -1.1060
 4687SOL     OW16953   5.922   3.927   3.270  0.5706 -0.2575  0.1349
 4687SOL    HW116954   5.896   3.844   3.230  1.7155 -0.1209 -0.9776
 4687SOL    HW216955   5.927   3.908   3.364 -3.5637 -0.2318  0.5332
 4688SOL     OW16956   1.635   3.285   2.335 -0.0928 -0.4095  0.0358
 4688SOL    HW116957   1.691   3.361   2.347 -0.5247 -0.3106  1.5638
 4688SOL    HW216958   1.548   3.315   2.359 -0.2526 -1.4038  0.7506
 4689SOL     OW16959   6.438   3.877   7.903 -0.3419  0.0709  0.0450
 4689SOL    HW116960   6.445   3.926   7.985 -0.1532  0.2956 -0.1050
 4689SOL    HW216961   6.454   3.941   7.834 -2.2579  0.2641 -0.2711
 4690SOL     OW16962   7.675   2.072  10.641  0.4669 -0.4825 -0.0209
 4690SOL    HW116963   7.603   2.125  10.675  1.8927  0.2364  2.1101
 4690SOL    HW216964   7.737   2.136  10.606  0.4835 -1.0502 -1.0933
 4691SOL     OW16965   0.152   5.898   8.878  0.4811  0.2168 -0.2846
 4691SOL    HW116966   0.216   5.954   8.921  1.7351  0.0240 -1.8400
 4691SOL    HW216967   0.074   5.903   8.935  1.1047  2.1844  0.4774
 4692SOL     OW16968   2.199   3.521   5.961  0.2447 -0.1223 -0.6321
 4692SOL    HW116969   2.202   3.602   6.012 -0.2233 -1.1230  1.0713
 4692SOL    HW216970   2.148   3.543   5.883 -1.0398  0.9028  0.4588
 4693SOL     OW16971   3.841   4.893  10.199 -0.0545  0.5443 -0.2273
 4693SOL    HW116972   3.809   4.950  10.128 -0.2007  0.3102 -0.3519
 4693SOL    HW216973   3.928   4.927  10.219  0.6578 -0.3557 -1.6174
 4694SOL     OW16974   1.561   7.829  10.125  1.1870  0.5918  0.2064
 4694SOL    HW116975   1.575   7.798  10.036  1.0592  0.6340  0.1712
 4694SOL    HW216976   1.552   7.924  10.116  0.3408  0.5139  0.1611
 4695SOL     OW16977   4.902   2.084   1.548 -0.0251 -0.2317  0.2564
 4695SOL    HW116978   4.809   2.075   1.524  0.6327 -0.1086 -2.7158
 4695SOL    HW216979   4.924   2.174   1.525  0.6463  0.0391  1.8411
 4696SOL     OW16980   9.052   4.420   2.775  0.3373  0.0762 -0.1515
 4696SOL    HW116981   9.005   4.499   2.800  1.5951  0.8319 -0.0549
 4696SOL    HW216982   9.144   4.446   2.778  0.7308 -1.1602 -0.9591
 4697SOL     OW16983   6.723   6.931   7.117 -0.4170 -0.1926 -0.0742
 4697SOL    HW116984   6.745   6.911   7.026 -3.4294  0.4077 -1.0600
 4697SOL    HW216985   6.691   7.021   7.115  0.3636  0.1741  1.7854
 4698SOL     OW16986   7.372  10.081   0.479  0.0346 -0.0574 -0.2723
 4698SOL    HW116987   7.327  10.109   0.558 -0.6683 -0.5335 -0.4935
 4698SOL    HW216988   7.334   9.995   0.458  0.4801 -0.1108 -0.9044
 4699SOL     OW16989   5.443  10.213   4.166 -0.0884 -0.9141 -0.5844
 4699SOL    HW116990   5.527  10.170   4.146 -1.2074 -2.0024 -3.6182
 4699SOL    HW216991   5.430  10.274   4.093 -1.5363 -0.0941  0.3091
 4700SOL     OW16992   2.712   0.277   8.993 -0.3112 -0.2644  0.0065
 4700SOL    HW116993   2.681   0.324   9.070 -2.8338  0.4694 -1.3267
 4700SOL    HW216994   2.766   0.341   8.946 -1.6744  0.5193 -0.5484
 4701SOL     OW16995   2.446   4.290   0.847 -0.3996  0.0372 -0.4975
 4701SOL    HW116996   2.476   4.366   0.897 -0.6174 -0.0695 -0.2008
 4701SOL    HW216997   2.405   4.234   0.912 -0.9266  0.0184 -0.8433
 4702SOL     OW16998   3.876   5.673   0.274  0.8052  0.2342  0.4053
 4702SOL    HW116999   3.952   5.656   0.329 -0.5371 -2.4801  1.5940
 4702SOL    HW217000   3.874   5.600   0.212  1.8022  2.7417 -2.9479
 4703SOL     OW17001   2.227   4.228   3.868 -0.6097 -0.0449 -0.2936
 4703SOL    HW117002   2.250   4.294   3.803  0.0294 -0.6261 -0.6794
 4703SOL    HW217003   2.134   4.243   3.886 -0.2331  1.6208  0.4250
 4704SOL     OW17004   0.758   8.623   1.270 -0.2661  0.2125 -0.2688
 4704SOL    HW117005   0.808   8.546   1.242  0.2086  0.3279  0.2450
 4704SOL    HW217006   0.746   8.674   1.190  1.1919  0.5983 -0.2627
 4705SOL     OW17007   6.926   4.794   7.320  0.5716 -0.2004  0.2921
 4705SOL    HW117008   6.995   4.860   7.314  0.9198 -0.3725  1.9385
 4705SOL    HW217009   6.894   4.802   7.410  0.1012 -1.7770  0.2852
 4706SOL     OW17010   1.908   9.416  10.557 -0.0850 -0.2847 -0.7731
 4706SOL    HW117011   1.988   9.427  10.506  0.0990 -2.2109 -0.9898
 4706SOL    HW217012   1.928   9.454  10.643  0.1275  1.5969 -1.6094
 4707SOL     OW17013   0.565   0.943   6.081 -0.2395 -0.2037 -0.1213
 4707SOL    HW117014   0.617   1.001   6.136  0.9720 -0.4592 -0.9545
 4707SOL    HW217015   0.620   0.926   6.005 -1.3886 -0.8215 -0.8542
 4708SOL     OW17016   7.462   0.407   9.855  0.1366  0.1289  0.4496
 4708SOL    HW117017   7.489   0.444   9.939 -0.3556  0.4647  0.4671
 4708SOL    HW217018   7.383   0.357   9.876  2.3945 -3.5851  1.0316
 4709SOL     OW17019   6.614   8.152   2.900  0.2449  0.0584 -0.7885
 4709SOL    HW117020   6.683   8.162   2.965  0.2989  0.7144 -0.9438
 4709SOL    HW217021   6.657   8.114   2.824  0.1822 -0.7126 -0.4591
 4710SOL     OW17022   6.544   7.767   2.271  0.1428 -0.6809 -0.2101
 4710SOL    HW117023   6.616   7.786   2.210 -0.9843  0.5021 -1.2194
 4710SOL    HW217024   6.468   7.752   2.215 -1.2276  1.7154  0.8668
 4711SOL     OW17025  10.781   3.530   6.573 -0.3696 -0.6212  0.5062
 4711SOL    HW117026  10.738   3.613   6.550  0.2983 -0.0577  1.2432
 4711SOL    HW217027  10.758   3.516   6.664 -1.8498 -2.1304 -0.0396
 4712SOL     OW17028   0.754   0.271   3.544 -0.4508 -0.3003 -0.3372
 4712SOL    HW117029   0.844   0.244   3.526  0.2872 -0.0285  2.5667
 4712SOL    HW217030   0.739   0.346   3.486  0.5856 -1.2812 -1.9753
 4713SOL     OW17031   4.443   0.674   7.936  0.0353  0.1765  1.3056
 4713SOL    HW117032   4.417   0.633   8.019 -1.4615 -1.7917 -0.0489
 4713SOL    HW217033   4.366   0.724   7.910 -0.1854 -0.6839  0.2541
 4714SOL     OW17034   9.988   5.967   0.614 -0.1247 -0.3015  0.1021
 4714SOL    HW117035   9.994   5.946   0.708  2.0371  0.7435  0.2550
 4714SOL    HW217036  10.000   6.062   0.610 -0.2231 -0.3330 -1.2346
 4715SOL     OW17037   4.109   6.405   9.061 -0.0635 -0.0334  0.0120
 4715SOL    HW117038   4.152   6.453   8.989 -1.6694  1.6361  0.0871
 4715SOL    HW217039   4.091   6.318   9.024  0.6157  0.2495 -1.0441
 4716SOL     OW17040   6.777   7.354   8.331  0.0181  0.0439 -0.0786
 4716SOL    HW117041   6.835   7.395   8.395 -1.1627  0.9626  0.4419
 4716SOL    HW217042   6.740   7.428   8.283 -1.7234 -0.4210  0.4876
 4717SOL     OW17043  10.559   8.623   6.963 -0.3618 -0.4355 -0.0058
 4717SOL    HW117044  10.500   8.642   6.890 -0.2131 -1.8686 -0.5170
 4717SOL    HW217045  10.516   8.553   7.011  0.4540 -0.8082  0.1906
 4718SOL     OW17046   9.707   8.388   2.330 -0.5947  0.8419 -0.1431
 4718SOL    HW117047   9.727   8.472   2.288 -0.3551 -0.0744 -1.9710
 4718SOL    HW217048   9.759   8.389   2.411  1.4236  1.4341 -1.3603
 4719SOL     OW17049   3.717   9.114   3.999  0.0058 -0.0003 -0.1424
 4719SOL    HW117050   3.702   9.164   3.919 -1.7304  0.6912  0.5563
 4719SOL    HW217051   3.764   9.174   4.056 -0.6657  0.2896  0.1177
 4720SOL     OW17052   2.446   1.378   6.946  0.0594  0.4649  0.0242
 4720SOL    HW117053   2.472   1.312   7.011 -2.6735 -0.8856 -0.1072
 4720SOL    HW217054   2.374   1.425   6.986  1.0464  2.5231 -0.4578
 4721SOL     OW17055   2.033  10.232  10.311 -0.4779 -0.0628  0.3681
 4721SOL    HW117056   2.124  10.260  10.312 -0.2865 -0.6716  1.2822
 4721SOL    HW217057   1.989  10.293  10.252  0.1468  1.4014  1.3704
 4722SOL     OW17058   8.545   1.218   8.521  0.2651 -0.2219 -0.2579
 4722SOL    HW117059   8.541   1.312   8.537  0.3370 -0.7802  4.1016
 4722SOL    HW217060   8.461   1.184   8.552  0.9261 -1.8025 -0.0740
 4723SOL     OW17061   1.554   9.420   5.368 -0.7271 -0.5453 -0.4569
 4723SOL    HW117062   1.533   9.474   5.445  0.8927 -0.2096 -0.2225
 4723SOL    HW217063   1.539   9.330   5.396  1.3524 -0.5448  0.8009
 4724SOL     OW17064   2.352   7.317   5.991  0.4290  0.0411 -0.0353
 4724SOL    HW117065   2.439   7.287   6.019  0.4947  0.0670 -0.2084
 4724SOL    HW217066   2.365   7.345   5.901  0.4473  0.9458  0.2409
 4725SOL     OW17067   6.742   0.890   1.778 -0.3105 -0.0170 -0.2369
 4725SOL    HW117068   6.785   0.969   1.747 -0.0640 -0.6529 -1.6080
 4725SOL    HW217069   6.709   0.913   1.865  1.4709  0.9548  0.2350
 4726SOL     OW17070   4.253   1.405   0.717 -0.2357 -0.7971 -0.6388
 4726SOL    HW117071   4.192   1.479   0.722 -1.1952 -1.6200  0.2636
 4726SOL    HW217072   4.312   1.418   0.790  1.2212  0.4205 -1.9602
 4727SOL     OW17073   0.887   3.933   8.811 -0.6333 -0.2043  0.1077
 4727SOL    HW117074   0.878   3.863   8.747 -0.9004 -0.7849  0.7725
 4727SOL    HW217075   0.806   3.983   8.803 -0.8847 -0.5715  0.3402
 4728SOL     OW17076   4.276   5.141   9.750  0.3733 -0.2308 -0.3477
 4728SOL    HW117077   4.363   5.179   9.762  1.5449 -2.7643 -0.0898
 4728SOL    HW217078   4.230   5.203   9.694  0.5666  3.6388  3.3442
 4729SOL     OW17079   6.779   8.757   3.956  0.8595 -0.2571  0.1385
 4729SOL    HW117080   6.775   8.793   3.867 -0.9675 -0.3275  0.1638
 4729SOL    HW217081   6.811   8.829   4.009  2.2000 -0.2806 -0.5901
 4730SOL     OW17082   4.646  10.642   7.739 -0.7455 -0.2585 -0.0786
 4730SOL    HW117083   4.605  10.689   7.667 -0.1077 -0.3901 -0.5403
 4730SOL    HW217084   4.682  10.562   7.698 -0.6911 -0.5078  0.4489
 4731SOL     OW17085  10.227  10.009   8.062 -0.0158  0.1324 -0.0675
 4731SOL    HW117086  10.284   9.952   8.113 -0.4427  0.2976  0.6233
 4731SOL    HW217087  10.258  10.002   7.972  1.6562  0.8997  0.4064
 4732SOL     OW17088  10.368   5.509   5.995 -0.6409 -0.3994 -0.5417
 4732SOL    HW117089  10.430   5.486   6.064 -0.7466 -1.9909 -0.9456
 4732SOL    HW217090  10.348   5.601   6.011  0.0419 -0.4857  0.9847
 4733SOL     OW17091   0.315   2.667  10.012  0.0501 -0.5299  0.0094
 4733SOL    HW117092   0.237   2.722  10.014  1.1241  1.1990 -1.7889
 4733SOL    HW217093   0.388   2.729  10.007  1.5024 -2.1034  0.7460
 4734SOL     OW17094   2.321   3.005   5.173 -0.6859  0.1201  0.1058
 4734SOL    HW117095   2.329   2.996   5.268  0.5068  0.5622  0.0595
 4734SOL    HW217096   2.314   2.916   5.140 -2.4531  0.0129  0.7035
 4735SOL     OW17097   2.096   6.611   9.284 -0.3824  0.2890 -0.0586
 4735SOL    HW117098   2.136   6.667   9.350 -1.5565 -0.0396  0.9641
 4735SOL    HW217099   2.169   6.585   9.227  0.8952 -0.4313  1.8316
 4736SOL     OW17100   9.840   3.360   2.839  0.3654  0.2948  0.1803
 4736SOL    HW117101   9.793   3.339   2.759 -1.8898 -0.4937  1.5962
 4736SOL    HW217102   9.824   3.453   2.853 -0.0953  0.2149  0.2091
 4737SOL     OW17103   0.196   7.064  10.616 -0.0281 -0.0299  0.6313
 4737SOL    HW117104   0.246   7.077  10.697  0.3660 -1.3671  0.6363
 4737SOL    HW217105   0.253   7.099  10.547 -0.7722  1.9937  0.9899
 4738SOL     OW17106   1.284  10.567   7.842  0.1293 -0.0065 -0.2224
 4738SOL    HW117107   1.347  10.535   7.778 -1.1449 -0.7476 -1.1480
 4738SOL    HW217108   1.335  10.623   7.900  1.4973 -0.0591 -1.3296
 4739SOL     OW17109   1.690   4.012   2.100 -0.0981  0.1034 -0.3347
 4739SOL    HW117110   1.606   3.983   2.135 -0.5698  2.6347  0.8739
 4739SOL    HW217111   1.755   3.971   2.156 -0.7694  2.0407  2.0505
 4740SOL     OW17112   9.965   2.329   2.248 -0.3449 -0.1708 -0.0343
 4740SOL    HW117113   9.922   2.408   2.281  0.4863  0.3403 -0.1345
 4740SOL    HW217114   9.894   2.269   2.228 -1.0035  0.6262 -0.1321
 4741SOL     OW17115   5.003   5.640  10.531 -0.0169  0.2172  0.1614
 4741SOL    HW117116   4.982   5.643  10.437 -1.1461 -1.7881  0.2870
 4741SOL    HW217117   5.043   5.725  10.549  2.3145 -0.1035 -2.6166
 4742SOL     OW17118   4.677  10.388   2.250 -0.4241  0.1317  0.1497
 4742SOL    HW117119   4.766  10.367   2.220 -1.3151 -1.9567 -1.1909
 4742SOL    HW217120   4.682  10.381   2.346  0.4533 -1.7836  0.0009
 4743SOL     OW17121   2.349  10.124   8.852  0.1603 -0.2978  0.3866
 4743SOL    HW117122   2.288  10.188   8.889  0.0171 -0.3837  0.2991
 4743SOL    HW217123   2.435  10.163   8.867  0.1409 -0.5850  1.3036
 4744SOL     OW17124   1.621   2.971   3.905  0.2422  0.1810 -0.1604
 4744SOL    HW117125   1.691   2.935   3.959  0.6771  2.5286  0.9969
 4744SOL    HW217126   1.548   2.911   3.917  1.2720 -0.9587  0.6322
 4745SOL     OW17127   1.333   8.310   1.052  0.3878 -0.0446 -0.3869
 4745SOL    HW117128   1.406   8.342   1.105 -1.3881  2.5318  0.6821
 4745SOL    HW217129   1.276   8.264   1.115 -0.7660  1.3294 -0.3751
 4746SOL     OW17130   9.800   7.825   9.087  0.0386  0.3820  0.2487
 4746SOL    HW117131   9.710   7.858   9.089 -0.2854 -0.0054 -2.7508
 4746SOL    HW217132   9.791   7.734   9.059  1.3440  0.2043  0.3379
 4747SOL     OW17133   3.673   1.136   8.346  0.2237  0.6421 -0.0481
 4747SOL    HW117134   3.762   1.102   8.355 -0.6474 -1.8888 -0.1440
 4747SOL    HW217135   3.672   1.178   8.260  1.1195 -0.0458 -0.4154
 4748SOL     OW17136   3.466   2.704   6.858 -0.7037 -0.1681 -0.0269
 4748SOL    HW117137   3.414   2.754   6.795 -0.4710  0.6824  0.4373
 4748SOL    HW217138   3.402   2.654   6.909 -0.8552 -1.4260 -1.3810
 4749SOL     OW17139   7.693   3.321   8.440  0.4025  0.1724  0.6646
 4749SOL    HW117140   7.673   3.409   8.471  2.4034  1.4171 -1.3106
 4749SOL    HW217141   7.651   3.316   8.354 -0.3375 -1.1381  1.0595
 4750SOL     OW17142   5.355  10.381   9.673 -0.2665  0.6729 -0.0704
 4750SOL    HW117143   5.359  10.301   9.620 -0.5721  1.2052 -0.9194
 4750SOL    HW217144   5.400  10.447   9.620  1.4322  0.7056  1.3362
 4751SOL     OW17145   2.356   1.198   6.079  0.0600 -0.5224  0.5150
 4751SOL    HW117146   2.290   1.239   6.023  0.1539 -1.8869 -0.6640
 4751SOL    HW217147   2.374   1.263   6.146 -1.7992  0.2582  0.3335
 4752SOL     OW17148   1.620   2.047   0.662 -0.3956 -0.1248  0.1633
 4752SOL    HW117149   1.671   2.112   0.709  0.0450 -0.0136 -0.4606
 4752SOL    HW217150   1.683   2.002   0.605 -0.7989 -0.6874  0.1457
 4753SOL     OW17151   3.918   3.506   1.173 -0.6063 -0.2508  0.1670
 4753SOL    HW117152   4.010   3.505   1.148 -0.4637 -1.2979  0.6897
 4753SOL    HW217153   3.896   3.599   1.181  0.1990  0.0252 -0.6620
 4754SOL     OW17154   8.379   9.713   0.387  0.3543 -0.1003  0.1734
 4754SOL    HW117155   8.407   9.646   0.451  1.9047 -0.1496 -0.5135
 4754SOL    HW217156   8.412   9.681   0.303 -1.3418  0.1512 -0.6374
 4755SOL     OW17157   1.657   9.266   1.873 -0.1930 -0.4647  0.3829
 4755SOL    HW117158   1.583   9.283   1.931 -1.1103 -0.3655 -0.8007
 4755SOL    HW217159   1.635   9.184   1.830 -0.5050  0.4943 -1.3435
 4756SOL     OW17160   9.357   0.493   7.557 -0.4035  0.2794  0.0493
 4756SOL    HW117161   9.448   0.465   7.562 -0.2021  1.1034  1.8579
 4756SOL    HW217162   9.334   0.485   7.464  0.6730 -2.4339 -0.0618
 4757SOL     OW17163   9.013   8.513   0.091  0.6260 -0.0970  0.1919
 4757SOL    HW117164   8.967   8.524   0.174  0.2724  0.7239 -0.1027
 4757SOL    HW217165   9.014   8.419   0.076 -1.0142 -0.1456  0.1883
 4758SOL     OW17166   6.893   3.065  10.201 -0.1834 -0.7857  0.2366
 4758SOL    HW117167   6.890   3.157  10.228 -0.7566 -0.8790  0.4923
 4758SOL    HW217168   6.930   3.068  10.112  1.0726 -0.4300  0.7501
 4759SOL     OW17169   9.264  10.495   4.567  0.6325 -0.6552  0.5936
 4759SOL    HW117170   9.316  10.490   4.487  0.2597  2.4724  0.0551
 4759SOL    HW217171   9.320  10.539   4.630 -0.2758 -0.0024  0.9682
 4760SOL     OW17172   7.415   0.317   1.205  0.0794 -0.1827  0.5723
 4760SOL    HW117173   7.348   0.375   1.169  0.1118 -0.0992  0.6453
 4760SOL    HW217174   7.370   0.273   1.278  0.5309  0.9838  1.5970
 4761SOL     OW17175   7.423  10.083   6.963  0.0850  0.4552  0.1281
 4761SOL    HW117176   7.430  10.031   7.043  0.9263 -0.2382 -0.3734
 4761SOL    HW217177   7.364  10.032   6.906  1.0379 -0.0771 -0.4261
 4762SOL     OW17178   5.779   9.265   5.148 -0.7442  0.5695  0.1122
 4762SOL    HW117179   5.701   9.320   5.143  0.2147  2.0003  0.4972
 4762SOL    HW217180   5.831   9.302   5.219 -0.3513 -1.2378  0.8365
 4763SOL     OW17181   6.980   0.923   4.714  0.0526 -0.1699 -0.0715
 4763SOL    HW117182   7.029   0.851   4.674  0.0841 -0.8094  1.0802
 4763SOL    HW217183   7.029   0.945   4.793 -1.1311 -0.3882  0.7609
 4764SOL     OW17184   0.619   2.017   3.788 -0.3156  0.1093  0.5323
 4764SOL    HW117185   0.587   1.979   3.706 -2.5770 -0.1087  1.4530
 4764SOL    HW217186   0.648   1.942   3.839  1.1403  0.2493 -0.0284
 4765SOL     OW17187   1.162   3.412   7.255  0.0741 -0.4740  1.0195
 4765SOL    HW117188   1.138   3.498   7.290 -0.8658 -0.1655 -0.3187
 4765SOL    HW217189   1.078   3.370   7.235  0.5530 -0.6065 -0.8852
 4766SOL     OW17190   9.521   3.925   2.090 -1.0425 -0.1352 -0.6602
 4766SOL    HW117191   9.429   3.904   2.070 -1.1415 -0.2340 -0.1156
 4766SOL    HW217192   9.560   3.841   2.115 -1.1407  0.1154  0.3830
 4767SOL     OW17193   0.952   7.136   8.074  0.1367  0.1515  0.5756
 4767SOL    HW117194   0.911   7.204   8.020 -0.7850 -0.8609 -0.0432
 4767SOL    HW217195   1.009   7.089   8.013 -0.0547 -0.2968  0.7409
 4768SOL     OW17196   6.398   1.198   2.275  0.0989 -0.0164  0.1692
 4768SOL    HW117197   6.310   1.206   2.312  0.0298  1.3433 -0.2154
 4768SOL    HW217198   6.451   1.165   2.347 -0.2343  1.5852  1.2028
 4769SOL     OW17199   1.138  10.365   8.187 -0.3238  0.3129  0.0330
 4769SOL    HW117200   1.097  10.340   8.270  0.5542  0.7314  0.6054
 4769SOL    HW217201   1.195  10.439   8.210 -1.0221  1.2534 -1.1726
 4770SOL     OW17202   1.491   7.510  10.036  0.0900  0.0453 -0.4332
 4770SOL    HW117203   1.564   7.452  10.013  1.1790  0.4433  1.7467
 4770SOL    HW217204   1.502   7.587   9.980  1.3943  0.1258 -0.0895
 4771SOL     OW17205   9.883  10.252  10.652 -0.1635 -0.2877 -0.3932
 4771SOL    HW117206   9.854  10.162  10.640 -0.2677 -0.1397 -1.3289
 4771SOL    HW217207   9.977  10.246  10.670 -0.0287 -0.5377 -1.1773
 4772SOL     OW17208   3.324   2.195   1.256  0.3232 -0.8601  0.3480
 4772SOL    HW117209   3.328   2.100   1.245  1.8654 -0.7376 -0.3959
 4772SOL    HW217210   3.242   2.221   1.214 -0.2996 -1.8887  0.8902
 4773SOL     OW17211   6.511   6.646   8.287 -0.0071  0.0284  0.7658
 4773SOL    HW117212   6.541   6.727   8.245 -1.2879  0.1545  0.0608
 4773SOL    HW217213   6.527   6.578   8.222 -0.0483 -0.1120  0.9022
 4774SOL     OW17214   8.982   8.029   1.791 -0.6388 -0.0816 -0.3895
 4774SOL    HW117215   9.074   8.039   1.814 -1.5262  0.8387  3.4698
 4774SOL    HW217216   8.961   7.939   1.816 -1.7031  1.0387  3.5682
 4775SOL     OW17217   9.819   8.036   5.356 -0.1297  0.3625 -0.1133
 4775SOL    HW117218   9.743   8.094   5.347 -0.8772 -0.5319  0.2161
 4775SOL    HW217219   9.829   7.996   5.269  1.3182  2.0519 -0.7798
 4776SOL     OW17220   1.229   5.651   2.783  0.6516 -0.1038  0.1669
 4776SOL    HW117221   1.287   5.681   2.713  1.7286  1.1857  1.5170
 4776SOL    HW217222   1.221   5.557   2.770  1.4347  0.0032 -1.2377
 4777SOL     OW17223   9.805   6.234   5.811  0.2851  0.3785 -0.2527
 4777SOL    HW117224   9.760   6.316   5.791  1.8045  1.1188 -0.6935
 4777SOL    HW217225   9.795   6.182   5.732  1.8791  1.3159 -1.1008
 4778SOL     OW17226   9.350   2.203   4.531  0.5054  0.6580  0.7053
 4778SOL    HW117227   9.260   2.171   4.528  0.6743  0.1608 -2.2253
 4778SOL    HW217228   9.344   2.296   4.508  0.8209 -0.0493 -2.9740
 4779SOL     OW17229   3.189   6.126   9.814 -0.1131  0.2249 -0.1219
 4779SOL    HW117230   3.167   6.069   9.740  0.0163 -0.2195  0.1765
 4779SOL    HW217231   3.218   6.066   9.883 -0.4141  0.6186  0.3546
 4780SOL     OW17232   3.658  10.712   2.956  0.2742  0.5988  0.2011
 4780SOL    HW117233   3.736  10.662   2.981  0.5827 -0.0178 -1.8091
 4780SOL    HW217234   3.585  10.663   2.994  0.5354 -1.7193 -2.0266
 4781SOL     OW17235   3.521   6.520   7.083 -0.2589  0.2795 -0.2094
 4781SOL    HW117236   3.576   6.450   7.118  0.4233  0.2911 -1.1890
 4781SOL    HW217237   3.432   6.488   7.090 -0.0470 -0.1747  0.4667
 4782SOL     OW17238   6.367   4.505   4.650  0.2193  0.6697  0.2247
 4782SOL    HW117239   6.323   4.493   4.566 -0.0080 -0.2465  0.4614
 4782SOL    HW217240   6.327   4.439   4.707  2.0412 -0.3710  0.3840
 4783SOL     OW17241   9.521   7.808   7.821 -0.0088 -0.2881  0.0108
 4783SOL    HW117242   9.567   7.806   7.905  0.2175  0.2797 -0.0944
 4783SOL    HW217243   9.473   7.726   7.818 -2.0958  0.7597  1.8260
 4784SOL     OW17244   9.565   2.368  10.554  0.2820  0.2133 -0.1375
 4784SOL    HW117245   9.565   2.336  10.463  1.4603  0.8592 -0.3829
 4784SOL    HW217246   9.472   2.380  10.574 -0.1127 -1.5600 -0.6505
 4785SOL     OW17247   1.181   4.397   7.505  0.6577 -0.2281  0.0571
 4785SOL    HW117248   1.234   4.318   7.515  0.9968 -0.1929 -1.3217
 4785SOL    HW217249   1.236   4.456   7.455  0.5460  1.0438  1.3723
 4786SOL     OW17250   8.726   2.954   6.959 -0.0875  0.0857 -0.0071
 4786SOL    HW117251   8.704   2.901   6.883 -0.0962  1.0246 -0.6829
 4786SOL    HW217252   8.821   2.948   6.967 -0.1958 -0.9695  0.6438
 4787SOL     OW17253   3.655   8.422   1.973  0.3465 -0.3064 -0.1627
 4787SOL    HW117254   3.600   8.345   1.985  2.6610 -1.9535  0.5205
 4787SOL    HW217255   3.663   8.432   1.878 -1.3795  0.2098 -0.2810
 4788SOL     OW17256  10.266   5.345   1.680 -0.1224 -0.0275  0.1544
 4788SOL    HW117257  10.354   5.357   1.646  0.6527 -1.3063  1.6134
 4788SOL    HW217258  10.251   5.422   1.735  0.6229 -0.4248  0.9417
 4789SOL     OW17259  10.417   9.096   9.497  0.6685  0.1300  0.5093
 4789SOL    HW117260  10.452   9.007   9.486  0.6820  0.0801  0.9407
 4789SOL    HW217261  10.481   9.141   9.551 -0.4484 -0.3025  2.2769
 4790SOL     OW17262   8.539  10.502   3.947  0.5469 -0.3962 -0.4544
 4790SOL    HW117263   8.607  10.570   3.944 -1.5733  1.8701 -0.6046
 4790SOL    HW217264   8.505  10.507   4.037  1.3802 -2.4495  0.0434
 4791SOL     OW17265   7.608   7.601   0.631  0.2045 -0.4910 -0.0364
 4791SOL    HW117266   7.588   7.631   0.542 -0.0434  0.4606  0.3320
 4791SOL    HW217267   7.537   7.636   0.685  1.5557  0.8983  0.9038
 4792SOL     OW17268   9.204   8.512   7.048  0.5371 -0.1309  0.5277
 4792SOL    HW117269   9.197   8.443   7.115  2.1347 -2.2028 -1.2980
 4792SOL    HW217270   9.166   8.473   6.970  0.1472  1.6587 -0.2233
 4793SOL     OW17271   9.061   5.538   1.358  0.1470  0.5110  0.5851
 4793SOL    HW117272   9.012   5.475   1.305  0.2792 -0.0823  1.1512
 4793SOL    HW217273   9.032   5.623   1.327  0.4308  0.1859 -0.6508
 4794SOL     OW17274   6.436   4.579   5.481 -0.3409  0.4222  0.2689
 4794SOL    HW117275   6.499   4.589   5.411 -0.4118  0.9783  0.2760
 4794SOL    HW217276   6.485   4.539   5.553 -0.4594 -0.8805 -0.3503
 4795SOL     OW17277   4.232  10.697   8.628 -0.8410  0.5678 -0.1679
 4795SOL    HW117278   4.139  10.677   8.622 -1.0527  1.7531 -1.2589
 4795SOL    HW217279   4.246  10.765   8.562  0.7499  0.5766  0.1494
 4796SOL     OW17280   4.098   0.933   7.570 -0.0982  0.1314  0.2635
 4796SOL    HW117281   4.139   1.001   7.517 -0.4306  0.3432  0.2807
 4796SOL    HW217282   4.060   0.872   7.507  2.1630 -1.2865  0.1683
 4797SOL     OW17283   6.013   3.471   6.069 -0.0946 -0.0600  0.1117
 4797SOL    HW117284   6.048   3.384   6.048 -0.1008 -0.1599  0.5050
 4797SOL    HW217285   6.053   3.529   6.004  1.2308 -0.0790  0.8726
 4798SOL     OW17286  10.045   6.648   5.280  0.3058  0.1663 -0.3585
 4798SOL    HW117287   9.996   6.642   5.198  0.7576 -1.2006 -0.5507
 4798SOL    HW217288   9.980   6.631   5.348  0.3105 -0.7209 -0.5611
 4799SOL     OW17289   6.466   0.972   1.579  0.2002 -0.4772  0.4070
 4799SOL    HW117290   6.382   1.010   1.607 -0.4741 -0.6176 -1.3264
 4799SOL    HW217291   6.518   0.967   1.660 -1.0456  0.6480  1.3198
 4800SOL     OW17292   7.536   5.901  10.540 -0.1907 -0.5819 -0.8417
 4800SOL    HW117293   7.495   5.988  10.536  0.6189 -0.1309  0.2206
 4800SOL    HW217294   7.610   5.912  10.600  0.2370 -1.8861 -1.1038
 4801SOL     OW17295   3.128   2.157   3.758 -0.1484  0.2529  0.8987
 4801SOL    HW117296   3.166   2.237   3.722 -0.2284  0.3660  1.0659
 4801SOL    HW217297   3.201   2.094   3.758  0.5789  1.0186  2.9847
 4802SOL     OW17298  10.320   6.134   9.702 -0.5389  0.6964  0.0278
 4802SOL    HW117299  10.274   6.176   9.775 -1.5222 -0.8085  0.3035
 4802SOL    HW217300  10.405   6.111   9.738 -0.7650  0.5796  0.4954
 4803SOL     OW17301   5.517   8.854   8.107  0.0594  0.3552  0.4222
 4803SOL    HW117302   5.437   8.895   8.138 -1.3468 -0.4532 -1.8732
 4803SOL    HW217303   5.507   8.761   8.127  0.7904  0.3441  0.7910
 4804SOL     OW17304   3.940  10.682   2.585 -0.3019  0.7335 -0.1256
 4804SOL    HW117305   3.972  10.619   2.650  1.0539  2.0866  0.5865
 4804SOL    HW217306   3.849  10.658   2.570 -0.2425 -0.4429  1.2782
 4805SOL     OW17307   9.929   8.667   3.285 -0.7821 -0.6041  0.2540
 4805SOL    HW117308   9.916   8.646   3.378 -1.7807  1.4409  0.6232
 4805SOL    HW217309   9.864   8.734   3.266 -0.1670 -0.5184 -1.7735
 4806SOL     OW17310   9.588   7.946   3.804 -0.8135  0.3825  0.0605
 4806SOL    HW117311   9.584   7.852   3.821  0.0640  0.3604  0.2060
 4806SOL    HW217312   9.675   7.972   3.834 -0.3771  0.9276 -1.5807
 4807SOL     OW17313   1.847   9.015   6.813  0.5853 -0.2762  0.3200
 4807SOL    HW117314   1.867   8.942   6.872 -0.8391 -1.9018 -1.1135
 4807SOL    HW217315   1.931   9.038   6.774  1.2278 -0.4230  1.5712
 4808SOL     OW17316   4.801   8.840   5.986 -0.8251 -0.1070 -0.4430
 4808SOL    HW117317   4.719   8.794   5.972 -0.8461 -0.3084  0.3393
 4808SOL    HW217318   4.839   8.801   6.064 -0.1315  0.1969 -0.6105
 4809SOL     OW17319   8.571   1.280   1.525 -0.4342 -0.8579 -0.4218
 4809SOL    HW117320   8.554   1.234   1.442 -0.0258 -1.3169 -0.2576
 4809SOL    HW217321   8.649   1.238   1.560 -0.1098 -0.0965 -0.2095
 4810SOL     OW17322   2.709   7.702  10.143 -0.3034  0.4294  0.6946
 4810SOL    HW117323   2.625   7.742  10.120 -0.9609 -1.3153 -0.1588
 4810SOL    HW217324   2.771   7.739  10.081 -1.3082 -1.3366 -1.5179
 4811SOL     OW17325   1.396   1.020   6.681 -0.0698  0.0454 -0.1491
 4811SOL    HW117326   1.422   1.046   6.769 -1.6188 -0.9467  0.6394
 4811SOL    HW217327   1.476   1.027   6.629  1.4357 -1.4349  1.8110
 4812SOL     OW17328   1.946   0.542   5.004  0.6255  0.9261 -0.1872
 4812SOL    HW117329   1.990   0.483   5.066  1.2100 -2.0175 -3.0991
 4812SOL    HW217330   2.017   0.574   4.947 -0.2785  0.3589 -1.6916
 4813SOL     OW17331   0.155   8.477   0.882  0.3114 -0.0692  0.3055
 4813SOL    HW117332   0.182   8.431   0.961 -1.5367 -1.4877  0.1771
 4813SOL    HW217333   0.071   8.437   0.857 -1.1855  2.9713 -0.1304
 4814SOL     OW17334   0.131   6.780   4.970  0.5448  0.1197  0.1582
 4814SOL    HW117335   0.135   6.727   4.891 -1.4503  0.1028  0.0276
 4814SOL    HW217336   0.195   6.740   5.029  0.1858 -1.4578 -0.4886
 4815SOL     OW17337   6.244   5.774   8.012 -0.3452 -0.0322  0.8338
 4815SOL    HW117338   6.293   5.692   8.007 -1.1559 -0.4553 -1.4603
 4815SOL    HW217339   6.288   5.824   8.081  2.7107 -0.7715 -0.3963
 4816SOL     OW17340   0.307   8.412   9.405  0.4170 -0.6852  0.3069
 4816SOL    HW117341   0.334   8.477   9.339  1.3641 -0.8953  0.4782
 4816SOL    HW217342   0.211   8.411   9.399  0.4993 -1.0845 -1.4546
 4817SOL     OW17343   0.711   1.385   0.421 -0.3077  0.0094 -0.2444
 4817SOL    HW117344   0.789   1.441   0.430 -0.5091  0.2679 -0.0872
 4817SOL    HW217345   0.731   1.327   0.348  0.5862 -0.8231  0.6280
 4818SOL     OW17346   4.392   5.039   8.118  0.9132  0.1333  0.1062
 4818SOL    HW117347   4.339   4.978   8.066  1.1445 -0.9554  1.0827
 4818SOL    HW217348   4.363   5.126   8.091  0.2370 -0.4114 -1.0035
 4819SOL     OW17349   2.874   1.209   9.724 -0.4164 -0.0597 -0.2289
 4819SOL    HW117350   2.942   1.228   9.659  0.6043  0.2153  0.8939
 4819SOL    HW217351   2.884   1.278   9.790 -0.5078 -1.1133  0.9235
 4820SOL     OW17352   9.162   5.411   7.303 -0.1580  0.6931  0.1788
 4820SOL    HW117353   9.224   5.434   7.233 -0.0702  0.8867  0.3183
 4820SOL    HW217354   9.104   5.486   7.309 -0.1276  0.7035  0.3547
 4821SOL     OW17355   3.562   6.594   1.985 -0.0419 -0.0173  0.0723
 4821SOL    HW117356   3.657   6.601   2.000 -0.0051 -0.7434  0.2063
 4821SOL    HW217357   3.525   6.580   2.072 -0.5249  2.5034  0.3508
 4822SOL     OW17358   1.982   9.222   6.211 -0.8051 -0.5287 -0.2741
 4822SOL    HW117359   1.954   9.311   6.233 -2.9497 -1.7739  2.7383
 4822SOL    HW217360   1.913   9.188   6.153 -1.8338 -1.2391  1.2967
 4823SOL     OW17361   9.226   0.659   1.479  0.0341 -0.4020 -0.2574
 4823SOL    HW117362   9.244   0.568   1.503 -0.1413  0.1348  2.1378
 4823SOL    HW217363   9.292   0.710   1.525 -1.1884  0.8204  0.2203
 4824SOL     OW17364   2.962   6.584   3.102  0.3662  0.1690 -0.1542
 4824SOL    HW117365   2.957   6.647   3.031  0.2376  0.5020  0.1471
 4824SOL    HW217366   2.958   6.498   3.059  1.5103  0.3465 -0.6473
 4825SOL     OW17367   0.394   7.147   6.084 -0.0985  0.0691  0.1154
 4825SOL    HW117368   0.419   7.232   6.121 -0.8035  0.0132  0.7478
 4825SOL    HW217369   0.299   7.154   6.070  0.3115  0.5579 -2.9598
 4826SOL     OW17370   2.938   9.797   5.511 -0.1540  0.1264  0.1802
 4826SOL    HW117371   2.977   9.875   5.549 -0.1514  0.1831  0.0622
 4826SOL    HW217372   2.943   9.811   5.416  0.1499 -0.1649  0.1498
 4827SOL     OW17373   7.049   6.931   7.513  0.3202 -0.0108 -0.0933
 4827SOL    HW117374   7.062   6.848   7.468 -1.6579 -0.2358 -0.3399
 4827SOL    HW217375   6.992   6.982   7.454 -0.1017  0.7380  0.9236
 4828SOL     OW17376   1.708   1.929  10.692  0.7246  0.1325 -0.0031
 4828SOL    HW117377   1.799   1.951  10.672  0.9603 -0.6981  0.0989
 4828SOL    HW217378   1.669   1.906  10.607 -0.7006  4.6886 -0.8754
 4829SOL     OW17379   8.242   0.256   7.688 -0.6002 -0.6494 -0.2203
 4829SOL    HW117380   8.232   0.275   7.781 -1.9186 -2.0705 -0.0204
 4829SOL    HW217381   8.334   0.234   7.677 -0.6743 -1.6766  1.0322
 4830SOL     OW17382   0.583   0.609   7.925  0.4440 -0.1447 -0.1046
 4830SOL    HW117383   0.563   0.627   8.017 -0.6986 -2.1235  0.0989
 4830SOL    HW217384   0.536   0.676   7.876 -0.0780  0.0964  0.7106
 4831SOL     OW17385   5.785   4.221   5.519 -0.7332 -0.0896  0.0599
 4831SOL    HW117386   5.812   4.140   5.563  1.2534  0.9303  0.8602
 4831SOL    HW217387   5.865   4.273   5.513 -1.9420  1.8398 -0.3896
 4832SOL     OW17388   5.380   8.203   9.758  0.5756  0.4403 -0.1182
 4832SOL    HW117389   5.465   8.229   9.723  0.3296  0.0677 -1.0278
 4832SOL    HW217390   5.331   8.171   9.682 -0.0436 -0.2374  0.5419
 4833SOL     OW17391   4.782  10.725   1.105 -0.2806 -0.1445 -0.2461
 4833SOL    HW117392   4.712  10.741   1.169 -0.1578 -0.5241 -0.0091
 4833SOL    HW217393   4.844  10.796   1.118 -2.3971  2.4918 -3.0542
 4834SOL     OW17394   1.340   0.352   5.842 -0.6002 -0.1885 -0.3426
 4834SOL    HW117395   1.300   0.424   5.793  0.9051  1.1301  0.2800
 4834SOL    HW217396   1.266   0.296   5.866 -1.8536  1.2279 -0.7167
 4835SOL     OW17397   6.003   3.213   6.894  0.3541  0.2688  0.2557
 4835SOL    HW117398   6.074   3.214   6.830 -0.5022  0.4768 -0.7067
 4835SOL    HW217399   5.967   3.302   6.892  0.3259  0.2784  1.0331
 4836SOL     OW17400   4.659   7.428   4.216 -0.3973  0.0416 -0.3864
 4836SOL    HW117401   4.673   7.351   4.161 -1.3995 -0.1155 -0.4525
 4836SOL    HW217402   4.745   7.469   4.224  0.4207 -1.7773  0.6874
 4837SOL     OW17403   7.853   6.690   0.550  0.0124 -0.5488  0.3194
 4837SOL    HW117404   7.799   6.769   0.561 -1.0557 -1.0567 -0.9921
 4837SOL    HW217405   7.841   6.642   0.632  0.6817  0.6398  1.1323
 4838SOL     OW17406   6.315   8.138  10.579  0.6054  0.8997 -0.0621
 4838SOL    HW117407   6.311   8.074  10.508  1.8945  1.7423 -0.9258
 4838SOL    HW217408   6.252   8.205  10.554  0.4775  0.8042  0.0002
 4839SOL     OW17409   3.184   6.725   9.527  0.2007  0.1609 -0.6937
 4839SOL    HW117410   3.181   6.819   9.506  1.9039  0.3802 -0.0384
 4839SOL    HW217411   3.235   6.720   9.607 -0.2281 -1.3158 -0.4923
 4840SOL     OW17412   5.006   3.795   1.722 -0.1147  0.6059 -0.1224
 4840SOL    HW117413   4.979   3.707   1.749  0.6209  0.5346  0.4090
 4840SOL    HW217414   5.091   3.782   1.681 -1.2935  0.6657 -2.8319
 4841SOL     OW17415   1.853   2.024   9.763 -0.2367 -0.6038  0.2483
 4841SOL    HW117416   1.775   2.048   9.712 -0.7329 -0.0187  1.2410
 4841SOL    HW217417   1.834   2.056   9.851  1.4021  0.1546  0.3688
 4842SOL     OW17418  10.134   6.178   5.692  0.1374  0.5845 -0.1148
 4842SOL    HW117419  10.077   6.241   5.647  0.7527  0.8443 -0.5386
 4842SOL    HW217420  10.098   6.092   5.669 -1.0501  0.7686  0.9203
 4843SOL     OW17421   4.207   1.832   1.025  0.2728  0.3316 -0.2431
 4843SOL    HW117422   4.197   1.891   0.951  0.1541  0.1638 -0.3622
 4843SOL    HW217423   4.120   1.828   1.065 -0.0394 -0.7090 -0.9601
 4844SOL     OW17424   6.582   0.245   5.247  0.0764  0.1038 -0.2458
 4844SOL    HW117425   6.589   0.175   5.313 -0.6687 -0.4490 -0.7293
 4844SOL    HW217426   6.671   0.277   5.237  0.0178  1.2489  2.1252
 4845SOL     OW17427   3.947   5.664   9.133 -0.0397  1.0024 -0.2302
 4845SOL    HW117428   3.961   5.694   9.223  3.5832 -0.7003 -0.0509
 4845SOL    HW217429   3.894   5.584   9.143  0.5537  0.6789  0.4699
 4846SOL     OW17430   0.516   5.679   9.911  0.8306  0.2006 -0.2926
 4846SOL    HW117431   0.439   5.645   9.955  0.8009  0.7661  0.0966
 4846SOL    HW217432   0.554   5.742   9.972 -0.4979  2.7618 -1.9057
 4847SOL     OW17433   5.259   9.538   5.909 -0.0131  0.1433  0.2843
 4847SOL    HW117434   5.335   9.487   5.881 -0.1569  0.5248 -0.8432
 4847SOL    HW217435   5.295   9.605   5.968  0.4586  0.0411  0.1110
 4848SOL     OW17436   9.108  10.613   6.179  0.2262 -0.1214 -0.0041
 4848SOL    HW117437   9.090  10.685   6.118 -0.1286 -0.5726 -0.4459
 4848SOL    HW217438   9.111  10.654   6.265 -4.3771 -0.1057  0.3934
 4849SOL     OW17439   1.287   1.315   7.100 -0.0305 -0.2858 -0.4723
 4849SOL    HW117440   1.314   1.370   7.174 -0.2832  0.0603 -0.6325
 4849SOL    HW217441   1.204   1.277   7.128 -2.3587  3.0868 -2.1015
 4850SOL     OW17442   6.755   1.254   4.933  0.1531 -0.2792  0.1282
 4850SOL    HW117443   6.697   1.184   4.903  1.4943 -1.5069  0.2524
 4850SOL    HW217444   6.735   1.328   4.876  0.1007 -1.4046 -1.3970
 4851SOL     OW17445   8.139   6.091   9.390 -0.2985 -0.1689 -0.4480
 4851SOL    HW117446   8.164   6.042   9.468  1.7413  0.0669 -0.9012
 4851SOL    HW217447   8.101   6.173   9.423 -0.4849 -0.5405  0.2728
 4852SOL     OW17448   0.663   2.351   3.175 -0.2474  0.8985  0.0259
 4852SOL    HW117449   0.742   2.378   3.128 -0.3106  1.3019  0.1531
 4852SOL    HW217450   0.638   2.427   3.227 -1.5820  1.3112 -1.1465
 4853SOL     OW17451   1.213   5.591   0.193  0.1294  0.4386  0.5018
 4853SOL    HW117452   1.181   5.679   0.213  1.9686  0.7787  2.3231
 4853SOL    HW217453   1.246   5.597   0.104  0.1756  1.5871  0.5811
 4854SOL     OW17454   5.772   5.888  10.597  0.4702  0.0708 -0.5037
 4854SOL    HW117455   5.862   5.872  10.625  0.7814 -0.4034 -1.6952
 4854SOL    HW217456   5.719   5.843  10.662  1.1611 -1.0781 -0.6991
 4855SOL     OW17457   3.949   8.748  10.298 -0.0834  0.2583  0.9376
 4855SOL    HW117458   3.939   8.811  10.370  0.5164 -0.5635  1.7730
 4855SOL    HW217459   3.998   8.675  10.337  1.5704  0.4320 -0.6960
 4856SOL     OW17460   4.827  10.185   7.551  0.2330  0.5242 -0.2462
 4856SOL    HW117461   4.892  10.176   7.621  0.2360  0.1337 -0.2967
 4856SOL    HW217462   4.743  10.185   7.596  0.1933 -0.5702 -0.3035
 4857SOL     OW17463  10.562   4.613   2.044  0.0023 -0.2666  0.4114
 4857SOL    HW117464  10.507   4.546   2.004 -1.0613  0.2959  0.8638
 4857SOL    HW217465  10.608   4.654   1.971 -0.6700 -0.3409 -0.0618
 4858SOL     OW17466   7.692   8.487  10.273 -0.3969  0.3798  0.0081
 4858SOL    HW117467   7.693   8.455  10.183  0.9813  0.1426  0.0972
 4858SOL    HW217468   7.762   8.552  10.277  1.8382 -1.9538  1.7183
 4859SOL     OW17469   8.168   8.172   4.700 -0.1448 -0.1535 -0.0641
 4859SOL    HW117470   8.090   8.174   4.755  1.0729 -1.4271  1.8194
 4859SOL    HW217471   8.240   8.160   4.761  1.5951  1.1935 -1.7190
 4860SOL     OW17472   9.279  10.043   8.894 -0.1432 -0.1398  0.1727
 4860SOL    HW117473   9.356  10.076   8.848 -1.1677  0.0264 -1.5100
 4860SOL    HW217474   9.270   9.953   8.863 -0.4628 -0.2568  0.5897
 4861SOL     OW17475   7.734   0.142   7.133  0.3694  0.6357 -0.2857
 4861SOL    HW117476   7.755   0.161   7.041  0.1926 -0.4985 -0.5809
 4861SOL    HW217477   7.638   0.144   7.137  0.3970  1.4488  0.0559
 4862SOL     OW17478   2.682   2.423   1.456 -0.0048  0.0562  0.0872
 4862SOL    HW117479   2.732   2.387   1.530 -0.5848  0.8407  0.8767
 4862SOL    HW217480   2.692   2.518   1.464 -0.5850  0.1744 -0.4936
 4863SOL     OW17481   7.907   9.026   8.491 -0.2445  0.2924  0.6352
 4863SOL    HW117482   7.923   9.008   8.398  0.8680  2.2902  0.3698
 4863SOL    HW217483   7.849   8.956   8.520 -1.2921  0.0748 -1.7687
 4864SOL     OW17484   0.762   0.075   8.845 -0.5279  0.2627 -0.2972
 4864SOL    HW117485   0.666   0.080   8.851 -0.5790  1.3785 -1.5607
 4864SOL    HW217486   0.785  -0.002   8.897 -2.1585 -0.3518 -0.4153
 4865SOL     OW17487   6.516   5.031   8.561 -0.3946 -0.2985  0.1711
 4865SOL    HW117488   6.601   5.049   8.522 -0.4797 -2.0644 -0.9427
 4865SOL    HW217489   6.504   4.936   8.550 -0.7426 -0.8176  3.9542
 4866SOL     OW17490  10.783   7.319   1.605  0.3125  0.3756  0.7913
 4866SOL    HW117491  10.702   7.332   1.654 -0.7403 -1.2519 -0.4050
 4866SOL    HW217492  10.852   7.320   1.672 -0.4304  3.4859  1.6417
 4867SOL     OW17493   4.507   2.006   2.817 -0.0411  0.0840  0.2669
 4867SOL    HW117494   4.481   2.085   2.865 -1.1301 -0.6844  0.9781
 4867SOL    HW217495   4.467   2.017   2.731  0.1663  0.4967  0.2180
 4868SOL     OW17496   6.793   5.592   2.367  0.2660 -0.2816  0.5911
 4868SOL    HW117497   6.744   5.664   2.408  0.5210  0.0967  0.2461
 4868SOL    HW217498   6.811   5.623   2.279 -0.4546 -1.1765  0.1124
 4869SOL     OW17499   2.018   8.736   9.284 -0.0585  0.0565  0.0057
 4869SOL    HW117500   1.979   8.723   9.370 -1.0757  0.7966 -0.3198
 4869SOL    HW217501   2.111   8.749   9.302 -0.0846 -0.8341  0.8879
 4870SOL     OW17502   4.955   1.629   5.312 -0.1150  0.0996 -0.3325
 4870SOL    HW117503   5.040   1.586   5.318 -0.4492 -0.6300 -0.6372
 4870SOL    HW217504   4.918   1.623   5.400 -1.2233 -2.5471 -0.8699
 4871SOL     OW17505   0.076   4.159   2.290  0.7442  0.1577  0.3812
 4871SOL    HW117506   0.088   4.248   2.257 -0.3074 -0.2443 -1.1454
 4871SOL    HW217507  -0.011   4.158   2.328  1.3263  0.1619  1.7945
 4872SOL     OW17508   5.175   5.634   3.686 -0.9166 -0.5825 -0.5556
 4872SOL    HW117509   5.221   5.718   3.684 -0.4634 -0.8281 -1.1240
 4872SOL    HW217510   5.233   5.575   3.637 -0.2859 -1.7030  1.4251
 4873SOL     OW17511   7.803   2.058   6.578  0.7491 -0.0278  0.4019
 4873SOL    HW117512   7.739   1.988   6.589  0.3809  0.2219 -0.0903
 4873SOL    HW217513   7.809   2.099   6.664  0.6735 -0.4200  0.5927
 4874SOL     OW17514   0.231   1.877   5.968  0.4360 -0.1045 -0.0008
 4874SOL    HW117515   0.271   1.872   6.055 -1.3011 -0.2586  0.8239
 4874SOL    HW217516   0.167   1.807   5.967 -0.3544  0.6041 -1.0007
 4875SOL     OW17517   0.389   4.472   7.844 -0.2339 -0.0982  0.2947
 4875SOL    HW117518   0.312   4.502   7.794 -0.7583 -1.5835  0.1608
 4875SOL    HW217519   0.456   4.458   7.777  0.5663  2.2146  0.5094
 4876SOL     OW17520   9.676   5.191   5.449 -0.2862  0.9145  0.1061
 4876SOL    HW117521   9.627   5.120   5.489  0.9890  0.2388  0.5164
 4876SOL    HW217522   9.664   5.265   5.509  2.8974 -0.4933  2.8107
 4877SOL     OW17523   8.594   4.743   6.650  0.5007  0.1541 -0.3341
 4877SOL    HW117524   8.646   4.681   6.701  0.4605  0.2908 -0.1214
 4877SOL    HW217525   8.566   4.694   6.573 -1.7538 -0.9536  1.0755
 4878SOL     OW17526   4.425   3.104  10.063 -0.0584 -0.3037  0.6538
 4878SOL    HW117527   4.481   3.118  10.139  0.5437 -0.2342  0.2108
 4878SOL    HW217528   4.470   3.036  10.013  0.1979  0.5092 -0.2506
 4879SOL     OW17529   6.463   0.565   8.896 -0.1309 -0.0827  0.0915
 4879SOL    HW117530   6.419   0.539   8.815 -0.0166 -1.1680  0.3599
 4879SOL    HW217531   6.544   0.607   8.867  0.6449 -1.7888 -0.3782
 4880SOL     OW17532   5.543   2.037   0.947 -0.0302  0.1884 -0.0977
 4880SOL    HW117533   5.593   2.116   0.928  0.3885  0.1652  0.8179
 4880SOL    HW217534   5.458   2.051   0.907 -0.4349  1.7010  1.2063
 4881SOL     OW17535   1.106   0.624   1.459  0.0532  0.5585 -0.0656
 4881SOL    HW117536   1.175   0.662   1.404  0.9844  0.6704  1.1500
 4881SOL    HW217537   1.060   0.564   1.400  0.4386  1.3302 -1.2093
 4882SOL     OW17538  10.299   6.481   0.980  0.3634  0.0632  0.0992
 4882SOL    HW117539  10.249   6.430   1.043  1.2501 -0.1351  0.6586
 4882SOL    HW217540  10.390   6.462   1.001  0.6992 -1.3639 -2.3327
 4883SOL     OW17541   1.860   8.397   2.904 -0.2199 -0.1155  0.1562
 4883SOL    HW117542   1.766   8.411   2.908 -0.0005  1.3271  2.7566
 4883SOL    HW217543   1.893   8.467   2.847 -0.5150  1.1730  1.5044
 4884SOL     OW17544   9.649   0.045  10.332 -0.0417  1.1234  0.0602
 4884SOL    HW117545   9.725  -0.011  10.318 -1.2715 -0.1790 -1.6968
 4884SOL    HW217546   9.641   0.050  10.428 -0.2948 -2.3218  0.3252
 4885SOL     OW17547   9.460   0.833   4.361  0.2393 -0.1616  0.4073
 4885SOL    HW117548   9.484   0.901   4.298 -0.6483 -1.2255 -1.1535
 4885SOL    HW217549   9.539   0.780   4.371  0.6217  0.4724  0.8366
 4886SOL     OW17550   7.726   4.593   2.821 -0.3827  0.1249 -0.5585
 4886SOL    HW117551   7.724   4.566   2.729 -0.2773 -1.6587 -0.0772
 4886SOL    HW217552   7.806   4.645   2.829 -0.7822  0.9301 -1.6182
 4887SOL     OW17553  10.524   1.197   3.963 -0.1491  0.1669 -0.0451
 4887SOL    HW117554  10.469   1.170   3.890 -0.4182  1.9636 -0.5524
 4887SOL    HW217555  10.543   1.289   3.947  2.5267 -0.1991  0.4234
 4888SOL     OW17556   9.973   1.501   3.346 -0.3414 -0.6332 -0.7566
 4888SOL    HW117557   9.953   1.481   3.437  2.3735 -0.3982 -0.0222
 4888SOL    HW217558   9.979   1.596   3.342  0.3149 -0.6713 -0.9583
 4889SOL     OW17559   2.669   8.682   3.340 -0.3168 -0.1114  0.8222
 4889SOL    HW117560   2.635   8.770   3.322 -0.7777 -0.1385  1.5128
 4889SOL    HW217561   2.752   8.697   3.385  0.4659 -0.0432 -0.5695
 4890SOL     OW17562   1.624   5.126   6.022 -0.3228 -0.6236  0.3590
 4890SOL    HW117563   1.549   5.148   6.076 -0.1833 -1.1389  0.7725
 4890SOL    HW217564   1.617   5.031   6.008  0.5486 -0.7804  0.8791
 4891SOL     OW17565   3.586   0.192   8.332 -0.6998 -0.0765  0.1939
 4891SOL    HW117566   3.615   0.283   8.341 -1.1688  0.3381 -1.9916
 4891SOL    HW217567   3.643   0.142   8.390  0.6037  1.4266  0.2445
 4892SOL     OW17568   1.868   1.131   2.439 -0.0314 -0.1979 -0.0485
 4892SOL    HW117569   1.923   1.121   2.518 -0.5110 -1.3347  0.1543
 4892SOL    HW217570   1.931   1.147   2.369  0.5880 -1.4576  0.1872
 4893SOL     OW17571   4.197   8.027   9.343 -0.1485 -0.3966 -0.2524
 4893SOL    HW117572   4.119   7.977   9.316 -1.5050  1.4149  0.1598
 4893SOL    HW217573   4.246   8.040   9.262 -1.6928  0.7668 -1.0559
 4894SOL     OW17574   2.170   5.741  10.304  0.5322 -0.8456 -0.2765
 4894SOL    HW117575   2.120   5.820  10.285  1.8101 -0.0761 -0.5803
 4894SOL    HW217576   2.143   5.716  10.393  0.5275  0.2761  0.0505
 4895SOL     OW17577   4.124   2.225   1.111  0.1964  0.1854  0.2506
 4895SOL    HW117578   4.085   2.309   1.135 -2.0562 -0.2894 -1.4262
 4895SOL    HW217579   4.160   2.240   1.023 -0.7897 -0.7449 -0.3315
 4896SOL     OW17580   6.887   1.570   3.696  0.6462  0.5122  0.1134
 4896SOL    HW117581   6.818   1.605   3.639  0.5369 -1.2814 -0.9097
 4896SOL    HW217582   6.853   1.584   3.785 -0.0434  1.6094 -0.2989
 4897SOL     OW17583   0.214   3.408   1.914 -0.2556 -0.2872  0.4060
 4897SOL    HW117584   0.169   3.449   1.841 -2.8906 -0.3066  1.8863
 4897SOL    HW217585   0.146   3.394   1.980  1.7373 -1.3888  2.3985
 4898SOL     OW17586   1.770   8.920   2.781  0.1138 -0.2585 -0.3339
 4898SOL    HW117587   1.702   8.908   2.847  0.6982  0.5185  0.4368
 4898SOL    HW217588   1.764   9.012   2.758  1.3546 -0.0050  0.2746
 4899SOL     OW17589   5.880   0.827   4.919 -0.4357 -0.0213 -0.3883
 4899SOL    HW117590   5.899   0.838   4.826 -0.1706  0.4406 -0.2863
 4899SOL    HW217591   5.805   0.885   4.935 -0.0723  0.4066 -0.1870
 4900SOL     OW17592   2.953   2.432   2.200  0.3664 -0.5141  0.0249
 4900SOL    HW117593   2.932   2.426   2.106  0.5761  0.5551 -0.1024
 4900SOL    HW217594   2.869   2.419   2.244  0.0531  0.1360 -0.3628
 4901SOL     OW17595   3.550   3.642   3.003  0.5111 -0.4087 -0.0948
 4901SOL    HW117596   3.480   3.707   3.010  0.3526 -0.3210 -1.9348
 4901SOL    HW217597   3.596   3.647   3.087  0.5838  2.1670 -0.2177
 4902SOL     OW17598   5.072   4.645   3.892  0.0950 -0.1518 -0.0170
 4902SOL    HW117599   5.053   4.697   3.814 -0.2444 -1.0349 -0.5403
 4902SOL    HW217600   5.022   4.688   3.962  0.6848  0.8575 -0.1978
 4903SOL     OW17601   7.332   3.682   2.921 -0.7487 -0.1159  0.1857
 4903SOL    HW117602   7.269   3.660   2.852 -0.3432  1.2841 -0.6829
 4903SOL    HW217603   7.363   3.598   2.954  0.4313 -0.9093 -2.6382
 4904SOL     OW17604   5.551   8.065   6.270 -0.2142 -0.3182 -0.5837
 4904SOL    HW117605   5.602   7.990   6.239 -0.3262 -0.6531  0.0437
 4904SOL    HW217606   5.610   8.140   6.257  0.7502 -0.7958  0.8483
 4905SOL     OW17607   9.893   2.352   1.065  0.1370 -0.0630 -0.2315
 4905SOL    HW117608   9.932   2.264   1.067  0.4480  0.0882  0.3355
 4905SOL    HW217609   9.835   2.350   0.989  0.1910 -0.7413 -0.2617
 4906SOL     OW17610   1.364   8.618   6.961  0.2506 -0.1872 -0.3816
 4906SOL    HW117611   1.422   8.672   7.016 -0.5645 -0.9770  1.3417
 4906SOL    HW217612   1.278   8.660   6.969 -0.7956 -2.4804  2.3423
 4907SOL     OW17613   0.728  10.275   2.722  0.0822  0.0694  0.0003
 4907SOL    HW117614   0.748  10.205   2.784  0.9903 -1.0173 -1.4425
 4907SOL    HW217615   0.634  10.264   2.704  0.1869 -0.7073 -0.1128
 4908SOL     OW17616   1.583   4.412   6.328  0.2400 -0.5423 -0.1702
 4908SOL    HW117617   1.506   4.415   6.384  0.2221  0.2182 -0.2265
 4908SOL    HW217618   1.657   4.427   6.387  0.3108 -0.8076 -0.1890
 4909SOL     OW17619   9.510   9.513   0.918  0.3104 -0.2954  0.1390
 4909SOL    HW117620   9.493   9.539   0.828 -1.2142 -0.2099  0.4214
 4909SOL    HW217621   9.606   9.513   0.926  0.4426  1.8574 -0.8262
 4910SOL     OW17622   7.399   5.694   3.753  0.1796  0.0003  0.5496
 4910SOL    HW117623   7.474   5.689   3.693 -1.7577 -0.6286 -1.9964
 4910SOL    HW217624   7.394   5.606   3.793 -0.1765 -0.5218 -0.6011
 4911SOL     OW17625   8.057   4.662   5.677 -0.2070 -0.8261  0.0787
 4911SOL    HW117626   8.118   4.734   5.693 -0.3083 -0.4848 -1.0252
 4911SOL    HW217627   7.990   4.699   5.619 -0.2151 -1.8253 -0.5731
 4912SOL     OW17628   0.150   7.600   2.120  0.3105 -0.0446  0.1742
 4912SOL    HW117629   0.218   7.629   2.058  1.7088  0.4294  1.8435
 4912SOL    HW217630   0.071   7.644   2.090  1.1665  0.9929 -0.6777
 4913SOL     OW17631   9.666   8.501   1.657  0.1189  0.1893  0.7184
 4913SOL    HW117632   9.602   8.572   1.660  1.0247  1.0005  1.7485
 4913SOL    HW217633   9.646   8.449   1.735  1.4891  1.1849  1.7835
 4914SOL     OW17634   1.141   3.402   6.452  0.2868 -0.0322  0.2973
 4914SOL    HW117635   1.095   3.330   6.410 -2.1639 -1.0862  4.2356
 4914SOL    HW217636   1.231   3.371   6.462 -0.1795 -1.5992 -0.1053
 4915SOL     OW17637   6.599   5.334   2.419 -0.3644  0.2821 -0.1267
 4915SOL    HW117638   6.573   5.426   2.416  0.7826  0.5982 -0.6773
 4915SOL    HW217639   6.692   5.336   2.441 -0.5468 -0.7926  0.8200
 4916SOL     OW17640   2.270   7.776   0.032 -0.4208  0.4740 -0.0821
 4916SOL    HW117641   2.236   7.742  -0.051  1.8271 -1.7892 -0.2067
 4916SOL    HW217642   2.327   7.848   0.008 -2.3892  2.1216 -0.1217
 4917SOL     OW17643   4.660  10.439   5.549 -0.0576 -0.3013 -0.2884
 4917SOL    HW117644   4.657  10.526   5.510  1.2997  0.2773  0.8412
 4917SOL    HW217645   4.682  10.381   5.476 -1.3257  0.2193 -1.1243
 4918SOL     OW17646  10.713   0.262   6.170  0.4407 -0.1276 -0.7326
 4918SOL    HW117647  10.665   0.209   6.106 -1.9383  3.2787 -2.0927
 4918SOL    HW217648  10.713   0.350   6.132  0.4227  1.7540  3.1806
 4919SOL     OW17649   1.599   6.464   4.253  0.5488 -0.5928 -0.0074
 4919SOL    HW117650   1.535   6.523   4.214  0.3603 -1.0668 -0.4313
 4919SOL    HW217651   1.675   6.519   4.272  0.5084 -0.2773 -0.7228
 4920SOL     OW17652   8.686   8.876   5.843  0.5090 -0.0401 -0.2312
 4920SOL    HW117653   8.668   8.932   5.768  1.9026  0.1412 -0.4459
 4920SOL    HW217654   8.776   8.897   5.869  0.6812 -1.3850  0.3750
 4921SOL     OW17655   0.056   9.402   8.592  0.2316  0.0865 -0.4612
 4921SOL    HW117656   0.046   9.329   8.653 -1.4860  0.9980  0.4444
 4921SOL    HW217657  -0.015   9.391   8.529 -1.4045  1.9771  0.8886
 4922SOL     OW17658   4.289   8.241  10.566  0.2506  0.3162 -0.0278
 4922SOL    HW117659   4.228   8.167  10.565  0.5943 -0.0021  1.3641
 4922SOL    HW217660   4.313   8.253  10.474 -1.9798  0.5319 -0.6251
 4923SOL     OW17661   8.401   3.313   4.160 -0.2751  0.1512  0.2978
 4923SOL    HW117662   8.487   3.332   4.123 -0.6822 -0.6868 -1.1656
 4923SOL    HW217663   8.419   3.253   4.233  0.4769  1.1439  0.9604
 4924SOL     OW17664   8.293   9.799   1.598 -0.5086  0.0120  0.2611
 4924SOL    HW117665   8.280   9.893   1.609 -2.1041 -0.3163  1.6198
 4924SOL    HW217666   8.215   9.759   1.637  0.9965 -1.9444  1.4432
 4925SOL     OW17667   1.146   4.161   8.992 -0.3241 -0.1047 -0.0224
 4925SOL    HW117668   1.184   4.101   9.056 -1.5949  0.5176  1.3697
 4925SOL    HW217669   1.088   4.107   8.939 -0.1653 -0.4156  0.1208
 4926SOL     OW17670   9.679   5.105   0.386  0.3129 -0.0345 -0.9036
 4926SOL    HW117671   9.768   5.099   0.421  0.0582 -3.3122 -0.5811
 4926SOL    HW217672   9.628   5.143   0.458  1.2663  1.2997 -0.8798
 4927SOL     OW17673   5.581   4.482   5.197  0.7079 -0.5495  0.1726
 4927SOL    HW117674   5.611   4.442   5.116 -2.2375 -2.2244 -0.2253
 4927SOL    HW217675   5.615   4.426   5.267  1.4987 -0.3011 -0.0058
 4928SOL     OW17676   4.056   4.400   0.598  0.0774 -0.0515 -0.0854
 4928SOL    HW117677   4.022   4.390   0.509 -1.3827 -0.6142  0.4983
 4928SOL    HW217678   4.135   4.454   0.588  0.9098 -1.5055 -1.8924
 4929SOL     OW17679  10.169   4.538   8.720 -0.1049  0.3641 -0.0284
 4929SOL    HW117680  10.161   4.492   8.804 -0.1455 -0.3887 -0.4319
 4929SOL    HW217681  10.080   4.568   8.700  0.1352  1.7160  0.8294
 4930SOL     OW17682   5.183   6.198   7.027 -0.1725  0.3055 -0.2855
 4930SOL    HW117683   5.266   6.225   6.989 -0.8166  1.5572 -0.8607
 4930SOL    HW217684   5.199   6.199   7.122  0.7715 -0.5658 -0.4170
 4931SOL     OW17685  10.188   6.457  10.179 -0.1677  0.2605  0.6086
 4931SOL    HW117686  10.143   6.373  10.188 -2.0072  1.1735  0.5449
 4931SOL    HW217687  10.117   6.521  10.174  1.1852  1.9706  2.0684
 4932SOL     OW17688  10.268   1.737   6.468  0.8049  0.9761  0.0523
 4932SOL    HW117689  10.236   1.675   6.403  1.5827  0.5999  0.0209
 4932SOL    HW217690  10.355   1.762   6.437  0.5278  2.0364  0.0994
 4933SOL     OW17691   3.305   8.994   2.895 -0.0069  0.1128 -0.3517
 4933SOL    HW117692   3.394   9.011   2.863 -0.7620 -0.8927 -3.2980
 4933SOL    HW217693   3.287   8.904   2.870 -0.9911 -0.6280  2.5829
 4934SOL     OW17694   7.697   5.566   9.702  0.7402  0.1184 -0.7891
 4934SOL    HW117695   7.784   5.585   9.667  1.0689 -1.7235 -1.0446
 4934SOL    HW217696   7.710   5.491   9.760 -0.5663  0.2700 -0.2546
 4935SOL     OW17697   5.993   3.684   8.766  0.2218  0.6404  0.2939
 4935SOL    HW117698   5.973   3.622   8.696  0.5155  0.0918  0.6873
 4935SOL    HW217699   6.018   3.764   8.720 -0.2268  0.4972 -0.2209
 4936SOL     OW17700  10.686   4.263   1.454 -0.2544  0.1500  0.0667
 4936SOL    HW117701  10.640   4.340   1.487  4.2792  2.7792  1.0108
 4936SOL    HW217702  10.689   4.203   1.529 -0.5902  0.6938  0.5170
 4937SOL     OW17703  10.612   6.687   2.863 -0.1904 -0.5843 -0.5086
 4937SOL    HW117704  10.658   6.770   2.855  1.1751 -1.3911 -1.3486
 4937SOL    HW217705  10.520   6.711   2.874  0.0604  1.0129 -1.6218
 4938SOL     OW17706   3.345   4.633   2.082  0.6573  0.4566 -0.3141
 4938SOL    HW117707   3.293   4.635   2.001 -0.6270 -1.1579  0.4111
 4938SOL    HW217708   3.341   4.542   2.111  0.5661  1.1055  1.8901
 4939SOL     OW17709   3.343   3.477   4.452 -0.6325  0.0342  0.5571
 4939SOL    HW117710   3.297   3.473   4.536 -1.7454  1.5613  0.0642
 4939SOL    HW217711   3.304   3.407   4.400  1.1374 -1.9562  1.7619
 4940SOL     OW17712   5.061   2.615   3.413  1.0054 -0.5471  0.0406
 4940SOL    HW117713   5.151   2.600   3.440  1.3925  1.3077 -0.0787
 4940SOL    HW217714   5.036   2.696   3.457 -0.4994 -0.8578 -0.1847
 4941SOL     OW17715   9.765  10.345   0.147  0.7536 -0.1014 -0.1788
 4941SOL    HW117716   9.841  10.295   0.176  0.1055 -1.2840 -0.4933
 4941SOL    HW217717   9.718  10.367   0.227 -0.0128 -1.7079 -0.1700
 4942SOL     OW17718   6.178   9.985   1.383 -0.2504 -0.0527 -0.1930
 4942SOL    HW117719   6.272   9.972   1.378 -0.2104 -0.8042  1.6820
 4942SOL    HW217720   6.166  10.047   1.455 -1.2024 -0.5492  0.1018
 4943SOL     OW17721   2.344   0.433   5.073  0.0576 -0.0306 -0.8369
 4943SOL    HW117722   2.410   0.381   5.119 -1.6422  0.3769  2.3970
 4943SOL    HW217723   2.348   0.519   5.116 -2.2350  0.1140 -0.8035
 4944SOL     OW17724   0.033   1.815   3.874 -0.3077 -0.5739  0.4374
 4944SOL    HW117725   0.126   1.836   3.874  0.1373 -2.3640  0.1888
 4944SOL    HW217726   0.003   1.834   3.963  0.0693  0.8088  0.2904
 4945SOL     OW17727   0.946   5.081   4.708 -0.0329 -1.1034 -0.5915
 4945SOL    HW117728   1.033   5.069   4.745 -0.9270 -0.6808  1.8785
 4945SOL    HW217729   0.907   5.151   4.761 -1.1152  0.3172 -3.0971
 4946SOL     OW17730   3.111   8.846   4.422 -0.7952 -0.1183 -0.5490
 4946SOL    HW117731   3.042   8.818   4.482 -0.4215  0.1561  0.0184
 4946SOL    HW217732   3.148   8.765   4.387 -1.3872 -0.2663 -0.8420
 4947SOL     OW17733   1.070   9.695   2.898  0.1666 -0.4620  0.5060
 4947SOL    HW117734   1.005   9.763   2.882 -0.5752 -0.7883  2.0320
 4947SOL    HW217735   1.151   9.743   2.913  0.8832 -0.0767 -3.3912
 4948SOL     OW17736   6.218   2.505   4.278  0.0753 -0.0382  0.3928
 4948SOL    HW117737   6.144   2.525   4.335 -0.9947 -0.0643 -0.9127
 4948SOL    HW217738   6.222   2.579   4.218 -0.7292 -1.2971 -1.3207
 4949SOL     OW17739  10.458   3.815   5.172  0.4816 -0.6908  0.9191
 4949SOL    HW117740  10.410   3.890   5.207  1.7844  0.6783 -0.0522
 4949SOL    HW217741  10.439   3.743   5.232 -2.7187 -0.2738  0.6021
 4950SOL     OW17742   7.368   3.421   2.752 -0.1355  0.2649  0.3255
 4950SOL    HW117743   7.300   3.485   2.771 -1.4536 -1.3225  1.2685
 4950SOL    HW217744   7.364   3.409   2.657  1.1599  2.5912 -0.1003
 4951SOL     OW17745   3.981   7.625   9.098 -0.5709  0.0867 -0.2826
 4951SOL    HW117746   3.945   7.693   9.040  1.8731  2.0461  0.3160
 4951SOL    HW217747   4.014   7.558   9.039  0.8520  1.5148 -1.1783
 4952SOL     OW17748   7.053   5.250   9.647  0.3604  0.3788 -0.0014
 4952SOL    HW117749   6.977   5.207   9.685  0.1890 -0.0951 -0.8700
 4952SOL    HW217750   7.108   5.272   9.723  0.7211 -1.8674  0.4658
 4953SOL     OW17751   8.589   6.290   7.952  0.0346 -0.1121  0.0690
 4953SOL    HW117752   8.684   6.284   7.960 -0.0081 -0.7356  0.1754
 4953SOL    HW217753   8.568   6.236   7.876 -0.2317  0.0742  0.0074
 4954SOL     OW17754   7.480   4.987  10.027  0.0958 -0.4403 -0.3359
 4954SOL    HW117755   7.440   4.956   9.946 -0.5780  2.2561 -1.1475
 4954SOL    HW217756   7.573   4.992  10.008  0.0309 -0.5138 -0.6765
 4955SOL     OW17757   3.948   8.837   2.130 -0.3634  0.3692 -0.1802
 4955SOL    HW117758   3.907   8.761   2.089  1.5565 -0.3048 -0.9887
 4955SOL    HW217759   4.008   8.871   2.063 -2.0345  3.3956 -0.3240
 4956SOL     OW17760  10.276   8.711   2.046 -0.5925 -0.1911 -0.4211
 4956SOL    HW117761  10.321   8.736   1.965 -0.8812  1.3253 -0.1329
 4956SOL    HW217762  10.196   8.764   2.046 -1.1630 -1.0199  0.3089
 4957SOL     OW17763  10.767   7.221   8.674 -0.3602  0.1657 -0.2616
 4957SOL    HW117764  10.796   7.224   8.765 -0.6982  2.2520 -0.1805
 4957SOL    HW217765  10.828   7.160   8.631 -0.5972 -1.3584  1.4433
 4958SOL     OW17766   0.755   7.333   2.581 -0.2492 -0.9475 -0.2713
 4958SOL    HW117767   0.767   7.367   2.670  0.1836 -1.6059 -0.0697
 4958SOL    HW217768   0.661   7.315   2.574  0.0650 -3.8053  1.1741
 4959SOL     OW17769   9.096   6.843   0.379  0.2667  0.1449 -0.0897
 4959SOL    HW117770   9.024   6.903   0.398 -0.7815 -0.4544 -1.8471
 4959SOL    HW217771   9.161   6.897   0.335  0.0396  0.3471 -0.1838
 4960SOL     OW17772   0.451   5.847   9.617 -0.0344  0.7254 -0.4436
 4960SOL    HW117773   0.527   5.903   9.632  1.3857 -0.7682 -1.6852
 4960SOL    HW217774   0.424   5.820   9.705  2.0692 -0.2152 -0.0332
 4961SOL     OW17775   5.887   8.476   9.485 -0.4295 -0.1140  0.2661
 4961SOL    HW117776   5.932   8.473   9.400 -0.0336  1.8285  0.3536
 4961SOL    HW217777   5.880   8.569   9.505 -1.2838 -0.5029  1.9835
 4962SOL     OW17778   0.620  10.279   6.145 -0.9938  0.1988  0.1064
 4962SOL    HW117779   0.590  10.201   6.097 -0.0228 -0.2957  0.2822
 4962SOL    HW217780   0.635  10.248   6.234  0.7354  0.2388 -0.1449
 4963SOL     OW17781   6.768  10.658   9.664  0.2858  0.4137  0.6445
 4963SOL    HW117782   6.840  10.669   9.603  0.4577 -0.5138  0.6602
 4963SOL    HW217783   6.779  10.569   9.698 -0.9185  0.2201  0.5753
 4964SOL     OW17784   3.612   0.277   0.205 -0.1545 -0.4056  0.2180
 4964SOL    HW117785   3.645   0.296   0.117  0.3369  0.4302  0.5721
 4964SOL    HW217786   3.532   0.226   0.190 -1.0699  1.2483 -0.7519
 4965SOL     OW17787   8.764   8.999   9.555 -0.1489 -0.2031  0.1074
 4965SOL    HW117788   8.725   8.974   9.471 -1.6394 -0.4636  0.8543
 4965SOL    HW217789   8.690   9.022   9.611  0.8833  1.3924  0.9283
 4966SOL     OW17790   1.613   3.622   7.506  0.4107  0.0211 -0.1496
 4966SOL    HW117791   1.671   3.605   7.431  0.9610 -0.0398  0.2816
 4966SOL    HW217792   1.531   3.651   7.467  0.0798 -1.7262 -0.8488
 4967SOL     OW17793   0.316  10.731  10.635  0.3919  0.5297 -0.0709
 4967SOL    HW117794   0.240  10.786  10.619 -0.4548 -0.1852  1.2860
 4967SOL    HW217795   0.295  10.684  10.716  1.2376 -1.4603 -0.9284
 4968SOL     OW17796   6.358   5.865   4.776 -0.6475 -0.6388  0.1159
 4968SOL    HW117797   6.363   5.939   4.836 -0.4780  0.2608 -0.9854
 4968SOL    HW217798   6.413   5.797   4.817  0.5175  0.4109  0.3469
 4969SOL     OW17799   6.598   6.295  10.332  0.2494  0.4019 -0.3487
 4969SOL    HW117800   6.620   6.386  10.311  1.1690  0.2581 -0.0592
 4969SOL    HW217801   6.588   6.295  10.428  0.5687  0.1407 -0.3140
 4970SOL     OW17802   1.139   0.297   7.950  0.1977 -0.0532  0.2576
 4970SOL    HW117803   1.105   0.366   8.007  1.4650  0.4616  0.4069
 4970SOL    HW217804   1.060   0.258   7.911 -0.5917  0.7599  0.9880
 4971SOL     OW17805   6.051   8.110   8.178  0.5844 -0.2993 -0.1124
 4971SOL    HW117806   6.042   8.088   8.270  1.0289  1.0974  0.2906
 4971SOL    HW217807   6.050   8.206   8.176 -0.7376 -0.3029 -1.6950
 4972SOL     OW17808   9.547   9.074   8.771  0.3431 -0.1072 -0.7149
 4972SOL    HW117809   9.569   9.110   8.857  1.1211  1.1645 -1.4087
 4972SOL    HW217810   9.461   9.034   8.783  0.9709 -1.0601  0.9464
 4973SOL     OW17811   4.115   5.847   0.179  0.1933  0.1578 -0.0573
 4973SOL    HW117812   4.123   5.801   0.263 -1.0585  2.1890  1.2690
 4973SOL    HW217813   4.178   5.918   0.185  2.1826 -1.3249 -2.1213
 4974SOL     OW17814   6.035   8.970   8.673  0.1097  0.0039  0.0524
 4974SOL    HW117815   5.998   8.954   8.760  1.2174 -0.4734  0.4555
 4974SOL    HW217816   6.127   8.945   8.681  0.3938  0.6144 -1.0723
 4975SOL     OW17817   6.849   8.146   3.086 -0.2903 -0.1263  0.1778
 4975SOL    HW117818   6.852   8.221   3.145 -0.4354 -0.9617  1.3074
 4975SOL    HW217819   6.940   8.115   3.081 -0.3066 -0.1642  0.1106
 4976SOL     OW17820   5.258   8.841   7.577  0.2445  0.2823 -0.2984
 4976SOL    HW117821   5.278   8.764   7.630 -1.4318  1.7777  2.7741
 4976SOL    HW217822   5.194   8.809   7.513  0.9419 -1.2305 -0.2959
 4977SOL     OW17823   0.724   9.958   3.496 -0.3000 -0.3868 -0.0690
 4977SOL    HW117824   0.760  10.046   3.503  0.9932 -0.9084  0.0509
 4977SOL    HW217825   0.743   9.918   3.581 -1.1005 -0.7090 -0.0316
 4978SOL     OW17826   7.217   1.779   8.052 -0.3006  0.5120  0.1547
 4978SOL    HW117827   7.295   1.729   8.027 -0.3070  0.5342  0.0894
 4978SOL    HW217828   7.166   1.718   8.106 -1.0278 -0.0686 -1.1515
 4979SOL     OW17829   5.304   3.651   7.729 -0.1451  0.8636  0.0323
 4979SOL    HW117830   5.256   3.721   7.774  1.1048  0.7080  1.6972
 4979SOL    HW217831   5.235   3.601   7.684 -1.4414  1.3094  1.4058
 4980SOL     OW17832   8.055   0.970   7.491  0.4726 -0.2260 -0.1416
 4980SOL    HW117833   8.085   0.927   7.411  0.0468  0.9731 -0.9554
 4980SOL    HW217834   8.096   1.056   7.489  1.5576 -0.6492  1.6250
 4981SOL     OW17835   4.852   3.939   9.995 -0.2858  0.0642 -0.0234
 4981SOL    HW117836   4.871   4.019  10.043  3.9826 -1.8698  2.1006
 4981SOL    HW217837   4.840   3.872  10.063 -1.4198 -1.5136 -1.6890
 4982SOL     OW17838   9.904   7.637   6.221 -0.2592 -0.2444  0.0527
 4982SOL    HW117839   9.832   7.605   6.275  0.5644  0.1019  1.3884
 4982SOL    HW217840   9.885   7.603   6.133 -0.5330 -2.6251  0.9641
 4983SOL     OW17841   4.006   5.857   9.357  0.1501  0.2568  0.6763
 4983SOL    HW117842   4.007   5.943   9.316 -2.6277  0.6085  1.1571
 4983SOL    HW217843   4.055   5.868   9.438  0.7930  1.0586  0.1980
 4984SOL     OW17844   1.886   7.431   2.708 -0.3386  0.1280 -0.3541
 4984SOL    HW117845   1.953   7.488   2.669  0.5092 -1.7330 -1.7503
 4984SOL    HW217846   1.858   7.375   2.636 -0.2479 -2.0507  1.2123
 4985SOL     OW17847  10.606  10.308   9.404  0.7642 -0.5117 -0.3445
 4985SOL    HW117848  10.566  10.337   9.323  1.4463  2.0817  0.1621
 4985SOL    HW217849  10.588  10.378   9.466 -0.5283 -2.7899  2.0837
 4986SOL     OW17850   8.625   6.790   9.214 -0.7267  0.1887  0.3202
 4986SOL    HW117851   8.572   6.864   9.244 -1.1197  0.2179 -0.4360
 4986SOL    HW217852   8.591   6.769   9.127  0.6080  0.3052 -0.2485
 4987SOL     OW17853   5.034   8.737  10.094 -0.0819 -0.6409 -0.1088
 4987SOL    HW117854   5.017   8.680  10.019 -1.6504 -0.8239  0.3544
 4987SOL    HW217855   5.014   8.683  10.170  1.6986 -0.5201  0.4776
 4988SOL     OW17856   3.438   5.386   6.298 -0.0896  0.7767 -0.1011
 4988SOL    HW117857   3.502   5.319   6.272  0.4686  1.1945  0.1736
 4988SOL    HW217858   3.490   5.466   6.309 -0.3539  0.7151  1.8973
 4989SOL     OW17859   5.821   7.376   1.473 -0.2443 -0.4951  0.1647
 4989SOL    HW117860   5.889   7.361   1.540 -2.3085 -0.8707  2.3257
 4989SOL    HW217861   5.740   7.380   1.523 -1.8134  0.2270 -2.2924
 4990SOL     OW17862   8.368   4.326   6.604  0.2563 -0.2536  0.1684
 4990SOL    HW117863   8.414   4.330   6.688  0.4740  1.1877  0.0095
 4990SOL    HW217864   8.276   4.316   6.628  0.0175  2.4394  0.7264
 4991SOL     OW17865   2.028   3.801   1.006  0.2774  0.1000  0.0991
 4991SOL    HW117866   2.097   3.805   0.940 -0.7179  1.7388 -0.9080
 4991SOL    HW217867   1.957   3.855   0.970 -0.9157 -0.2612  1.7978
 4992SOL     OW17868   1.717   2.272   7.616  0.2838  0.3259 -0.1550
 4992SOL    HW117869   1.767   2.341   7.574 -2.4192  1.8505 -1.1449
 4992SOL    HW217870   1.698   2.210   7.546  0.3582  0.0309  0.0825
 4993SOL     OW17871  10.074   5.764   4.246  0.2857 -0.3447 -0.6735
 4993SOL    HW117872  10.008   5.711   4.202 -1.2919 -0.9321  2.1280
 4993SOL    HW217873  10.065   5.851   4.208 -2.1459 -0.4310 -0.4267
 4994SOL     OW17874   9.869   1.941   7.066 -0.0938 -0.1223 -0.4441
 4994SOL    HW117875   9.869   2.037   7.073  0.8122 -0.0907 -0.7764
 4994SOL    HW217876   9.951   1.920   7.021 -0.1726 -1.0722 -0.1632
 4995SOL     OW17877   0.470   2.684   2.672 -0.1496  0.4636 -0.0618
 4995SOL    HW117878   0.438   2.770   2.644  0.6179  1.2172  1.2976
 4995SOL    HW217879   0.393   2.641   2.710  0.0302  1.6746  1.8040
 4996SOL     OW17880   9.875   5.876   5.717 -0.3854 -0.5361  0.4329
 4996SOL    HW117881   9.867   5.785   5.689 -1.7833 -0.0998 -0.6845
 4996SOL    HW217882   9.815   5.924   5.660  1.7956  1.3840 -0.4097
 4997SOL     OW17883   6.511   0.266   3.386  0.1670 -0.4903 -0.1050
 4997SOL    HW117884   6.452   0.254   3.312 -0.0693  1.2679 -0.2467
 4997SOL    HW217885   6.589   0.307   3.349  0.3462 -0.2521  0.5076
 4998SOL     OW17886   9.084   5.053   5.823  0.3924  0.1999 -0.2176
 4998SOL    HW117887   9.040   4.984   5.774  0.7150 -0.5556  0.5437
 4998SOL    HW217888   9.019   5.081   5.887  1.7746 -2.7854  2.7464
 4999SOL     OW17889   3.395   6.660   1.122 -0.3628 -0.1131  0.1653
 4999SOL    HW117890   3.452   6.589   1.093 -1.4983 -0.9693 -0.0438
 4999SOL    HW217891   3.378   6.640   1.214 -0.7357 -0.1576  0.0886
 5000SOL     OW17892   5.994   4.334   0.389  0.1399  0.3892 -0.1930
 5000SOL    HW117893   6.037   4.312   0.472  0.3574  0.5284 -0.2676
 5000SOL    HW217894   5.905   4.299   0.398  0.7883 -1.4898 -0.7468
 5001SOL     OW17895   2.725   2.222   3.848 -0.2148 -0.1624 -0.0166
 5001SOL    HW117896   2.656   2.271   3.803 -0.7416 -1.0229 -0.1659
 5001SOL    HW217897   2.772   2.178   3.778  0.7796  0.7582  0.0464
 5002SOL     OW17898   2.191   5.481   1.272  0.0294  0.0089  0.1283
 5002SOL    HW117899   2.255   5.540   1.312  1.3707  0.7455 -2.8529
 5002SOL    HW217900   2.118   5.537   1.246 -0.3801 -0.2947  0.5998
 5003SOL     OW17901   9.128   5.986  10.333 -0.1972 -0.3544  0.1280
 5003SOL    HW117902   9.180   6.001  10.412 -1.3432  1.0285  0.6872
 5003SOL    HW217903   9.177   6.031  10.264  2.1494 -3.7002 -0.6056
 5004SOL     OW17904   6.862   9.094   8.288  0.3125 -0.1998  0.5433
 5004SOL    HW117905   6.855   9.119   8.196  1.3312  1.1313  0.8119
 5004SOL    HW217906   6.952   9.064   8.298  0.6282  0.9857  1.4059
 5005SOL     OW17907   1.452   8.250   9.456  0.0243  0.2762 -0.6688
 5005SOL    HW117908   1.361   8.278   9.444 -0.1454  0.1021  0.1331
 5005SOL    HW217909   1.501   8.300   9.391 -0.4021  1.7185  0.0757
 5006SOL     OW17910   9.314   3.541   3.069  0.2997  0.0903  0.0285
 5006SOL    HW117911   9.288   3.603   3.001 -0.6068 -0.0379  0.2537
 5006SOL    HW217912   9.233   3.517   3.112  0.6848 -1.0081  0.1663
 5007SOL     OW17913   3.154   1.291   7.535  0.9959 -0.2955  0.0769
 5007SOL    HW117914   3.067   1.251   7.535  1.0767 -0.5822  2.3304
 5007SOL    HW217915   3.159   1.338   7.451 -1.5526  0.2377  0.1576
 5008SOL     OW17916   1.999   0.975   0.415  1.0697  0.1597  0.3322
 5008SOL    HW117917   2.078   0.962   0.363  0.8020 -1.5054  0.2862
 5008SOL    HW217918   1.967   0.886   0.432  0.1732  0.7393  1.8274
 5009SOL     OW17919   3.537   4.467   1.352  0.1405 -0.3913  0.2497
 5009SOL    HW117920   3.568   4.436   1.267 -0.5732 -0.8505  0.1515
 5009SOL    HW217921   3.580   4.410   1.415  2.5457  1.4059  0.3988
 5010SOL     OW17922   2.089   8.081   4.198 -0.8118  0.3534  0.3728
 5010SOL    HW117923   2.154   8.041   4.140 -2.2402 -0.8812 -0.4774
 5010SOL    HW217924   2.133   8.157   4.236  1.3708 -0.8931  0.4809
 5011SOL     OW17925   2.123   3.952   9.413  0.6814  0.4613  0.4507
 5011SOL    HW117926   2.090   3.882   9.356 -0.2597 -0.7302  2.3556
 5011SOL    HW217927   2.054   4.019   9.411  0.5355  0.3104  0.3980
 5012SOL     OW17928   3.404   7.622   6.275 -0.0198 -0.4815  0.4442
 5012SOL    HW117929   3.405   7.569   6.354 -0.4333 -0.8612  0.2033
 5012SOL    HW217930   3.312   7.647   6.265 -0.6928 -3.3236 -1.7939
 5013SOL     OW17931   8.598   8.223   0.267 -0.2877 -0.1529 -0.0859
 5013SOL    HW117932   8.547   8.189   0.341 -0.1577  0.0504  0.1005
 5013SOL    HW217933   8.676   8.168   0.264  0.2483  0.5350  0.6407
 5014SOL     OW17934   4.135   5.270   6.118 -0.5837 -0.2541  0.2696
 5014SOL    HW117935   4.184   5.270   6.200  1.8404 -1.1540 -1.0993
 5014SOL    HW217936   4.045   5.292   6.144  0.3096  0.5399  3.0024
 5015SOL     OW17937   4.527   4.988   4.890 -0.2815 -0.5976  0.5255
 5015SOL    HW117938   4.574   5.006   4.809  0.3491 -0.8165  0.8367
 5015SOL    HW217939   4.443   5.032   4.879  0.2799  0.4313  0.2656
 5016SOL     OW17940   0.383   0.178   4.268  0.5014  0.3798 -0.6518
 5016SOL    HW117941   0.349   0.258   4.228 -2.3850 -0.3014  0.2186
 5016SOL    HW217942   0.399   0.202   4.359  2.5223  0.6855 -1.0441
 5017SOL     OW17943   0.373   1.382   3.840  0.0940  0.1239  0.3740
 5017SOL    HW117944   0.374   1.414   3.930 -1.1821  0.7500  0.1952
 5017SOL    HW217945   0.281   1.359   3.824  0.4573 -0.8264 -0.4788
 5018SOL     OW17946   5.750   6.311   9.480  0.2429  0.4931  0.0339
 5018SOL    HW117947   5.787   6.393   9.513  0.2398  1.2824 -1.7990
 5018SOL    HW217948   5.825   6.252   9.471  0.9182  1.5660 -2.1521
 5019SOL     OW17949   0.014   0.655   2.055 -0.1881  0.3508  0.0506
 5019SOL    HW117950   0.049   0.661   2.144  2.5751  0.5361 -0.9444
 5019SOL    HW217951   0.027   0.743   2.019 -0.9943  0.2012 -0.6309
 5020SOL     OW17952   1.499   3.101  10.286 -0.0030 -0.4811 -0.5721
 5020SOL    HW117953   1.498   3.095  10.381  1.7080  2.9259 -0.2067
 5020SOL    HW217954   1.409   3.127  10.263  0.1477  0.9464  0.3725
 5021SOL     OW17955   6.838   6.530   8.483  0.7435 -0.3685  0.1136
 5021SOL    HW117956   6.841   6.459   8.547 -0.2475 -0.6681 -0.1456
 5021SOL    HW217957   6.765   6.585   8.512  2.2837  1.2823  1.0387
 5022SOL     OW17958   9.914   6.118   3.555 -0.1937 -0.7778  0.1280
 5022SOL    HW117959   9.902   6.034   3.511 -0.1228 -0.0002 -1.4261
 5022SOL    HW217960  10.000   6.149   3.527  1.4390 -1.7663  3.4857
 5023SOL     OW17961   5.625  10.022   8.583  0.3729 -0.4083 -0.0084
 5023SOL    HW117962   5.566   9.948   8.572 -0.1320  0.0429 -0.3854
 5023SOL    HW217963   5.710   9.988   8.556 -0.2120 -0.2989 -2.1768
 5024SOL     OW17964   1.857   9.578   5.735  0.0976 -0.0011  0.0591
 5024SOL    HW117965   1.776   9.620   5.708  0.5998  2.1807  1.6187
 5024SOL    HW217966   1.845   9.561   5.829  1.4161  0.3843  0.3278
 5025SOL     OW17967   1.937   6.925   6.260 -0.1853  0.2194  0.0319
 5025SOL    HW117968   1.855   6.890   6.225 -0.2214  1.5736 -1.3333
 5025SOL    HW217969   1.913   6.966   6.343 -0.6941 -0.2323  0.1118
 5026SOL     OW17970   2.018   6.016  10.206 -0.0299 -0.4393 -0.0235
 5026SOL    HW117971   1.960   6.091  10.197  1.4247  0.7210 -0.0529
 5026SOL    HW217972   2.065   6.011  10.123 -0.3346 -1.5912 -0.1445
 5027SOL     OW17973   9.967   0.677   1.774  0.0616  0.0882 -0.4847
 5027SOL    HW117974   9.982   0.674   1.869  1.3766  1.1142 -0.6383
 5027SOL    HW217975   9.927   0.592   1.753  1.3951 -0.8816  0.7087
 5028SOL     OW17976   0.283   5.700   5.593  0.3260 -0.7053  0.0378
 5028SOL    HW117977   0.291   5.769   5.527  1.5317  0.2486  1.1281
 5028SOL    HW217978   0.373   5.681   5.619 -0.1698  1.1046  3.5432
 5029SOL     OW17979   1.891   6.433   6.883 -0.3570  0.1756 -0.7836
 5029SOL    HW117980   1.906   6.399   6.794  2.3149  0.3467 -0.4677
 5029SOL    HW217981   1.942   6.514   6.886 -0.1940  0.0340  0.9864
 5030SOL     OW17982   8.048   2.575   6.323 -0.3347 -0.5252 -0.6324
 5030SOL    HW117983   7.992   2.506   6.287 -0.4412 -0.6923 -0.1472
 5030SOL    HW217984   8.106   2.598   6.250 -1.1777 -0.1901 -1.2172
 5031SOL     OW17985   0.702   2.281   2.777  0.1920 -0.2802 -0.1615
 5031SOL    HW117986   0.684   2.373   2.762 -0.1573 -0.4800 -1.0034
 5031SOL    HW217987   0.652   2.259   2.856 -0.4444  0.0298 -0.4750
 5032SOL     OW17988   5.902   1.239   3.467  0.3658 -1.0536  0.0303
 5032SOL    HW117989   5.984   1.190   3.475  1.4351  0.9156  2.6180
 5032SOL    HW217990   5.927   1.319   3.420 -1.0264 -2.1118 -2.7550
 5033SOL     OW17991   6.994  10.762   7.535 -0.4277  0.1783 -0.1619
 5033SOL    HW117992   7.049  10.716   7.472  1.4180  2.6568 -0.5162
 5033SOL    HW217993   7.038  10.749   7.619 -0.5852  0.2438 -0.0694
 5034SOL     OW17994   6.603   0.200   7.079 -0.2618 -0.0711  0.6415
 5034SOL    HW117995   6.665   0.128   7.067 -1.2487 -0.7602 -0.4681
 5034SOL    HW217996   6.638   0.249   7.154  0.3757 -1.7457  1.4956
 5035SOL     OW17997   6.764   2.188   9.640 -0.9043  0.4371 -0.1073
 5035SOL    HW117998   6.719   2.258   9.592  0.0562  2.3863  1.6704
 5035SOL    HW217999   6.697   2.153   9.699 -1.4116 -0.2591 -1.0606
 5036SOL     OW18000   3.218   0.325   4.240 -0.5240 -0.1296  0.2234
 5036SOL    HW118001   3.205   0.332   4.146 -0.6489 -0.5816  0.2060
 5036SOL    HW218002   3.290   0.385   4.259 -0.8448  0.3584 -0.0776
 5037SOL     OW18003   6.562   1.537   5.853 -0.6416 -0.2387 -0.4611
 5037SOL    HW118004   6.569   1.624   5.814  0.0878  0.8623  1.9291
 5037SOL    HW218005   6.641   1.527   5.906 -2.0604 -1.0984  1.6376
 5038SOL     OW18006   0.001   5.508   0.813  0.2845 -0.3907 -0.1076
 5038SOL    HW118007   0.044   5.478   0.734 -0.7458 -2.1472 -0.0394
 5038SOL    HW218008   0.070   5.511   0.879  1.0952  0.8439 -0.9699
 5039SOL     OW18009   9.660   0.292   4.947  0.3110  0.4064  0.0203
 5039SOL    HW118010   9.633   0.273   4.857  0.4958  0.8804 -0.1383
 5039SOL    HW218011   9.756   0.286   4.946  0.4358  1.9450 -0.1958
 5040SOL     OW18012   4.770   4.303   3.126  0.2226 -0.0253 -0.0539
 5040SOL    HW118013   4.800   4.213   3.140 -0.1338 -0.3080 -1.0155
 5040SOL    HW218014   4.674   4.298   3.132  0.1601  0.1600 -0.7390
 5041SOL     OW18015   5.865   1.855   9.476 -0.1565 -0.0591  0.1205
 5041SOL    HW118016   5.941   1.884   9.527 -1.5946  1.3438  1.5911
 5041SOL    HW218017   5.890   1.873   9.385  0.5146  2.4036  0.7125
 5042SOL     OW18018  10.618   7.808   6.854 -0.0132 -0.2448  0.3308
 5042SOL    HW118019  10.618   7.790   6.948 -0.0953 -0.3762  0.3058
 5042SOL    HW218020  10.587   7.899   6.847  1.9898  0.5189  0.5685
 5043SOL     OW18021   8.638   2.218   5.288  0.8250  0.0736 -0.2075
 5043SOL    HW118022   8.589   2.140   5.314  0.8270  0.6088  1.5345
 5043SOL    HW218023   8.730   2.195   5.305  0.7468  0.7871  1.3700
 5044SOL     OW18024  10.384   4.467   0.999 -0.2015 -0.1953 -0.2038
 5044SOL    HW118025  10.352   4.489   1.087 -0.9081 -2.2808  0.1073
 5044SOL    HW218026  10.334   4.524   0.941 -1.3553 -0.3421  0.6044
 5045SOL     OW18027   5.880   1.698   0.268  0.1002  0.0657 -0.3621
 5045SOL    HW118028   5.926   1.657   0.341  0.9154  0.3561 -0.6989
 5045SOL    HW218029   5.933   1.677   0.191 -0.9687 -0.5815 -0.9435
 5046SOL     OW18030   9.598   2.992   0.850  0.2776  0.3455 -0.4612
 5046SOL    HW118031   9.573   2.903   0.825 -2.0999  0.5430  0.8918
 5046SOL    HW218032   9.650   2.981   0.930 -1.4940  0.1807  0.7244
 5047SOL     OW18033  10.018   0.418   3.611 -0.0044 -0.2529  0.0054
 5047SOL    HW118034  10.010   0.495   3.666  0.8988  0.2417 -0.5252
 5047SOL    HW218035   9.929   0.400   3.580 -0.1793  0.7666 -0.1177
 5048SOL     OW18036   7.283   1.471   0.297  0.0008  0.2496  0.4776
 5048SOL    HW118037   7.339   1.515   0.233  0.6059  0.4908  1.1668
 5048SOL    HW218038   7.196   1.474   0.258  0.2493  0.9670 -0.0472
 5049SOL     OW18039   5.942   4.464   5.558 -0.1683  0.0959 -0.5710
 5049SOL    HW118040   5.917   4.548   5.598  0.8309  0.3079 -0.3630
 5049SOL    HW218041   6.005   4.488   5.491  0.6735 -0.5439 -0.0273
 5050SOL     OW18042   8.092   9.596   0.181 -0.3605 -0.2114  0.1028
 5050SOL    HW118043   8.128   9.560   0.262 -0.3075 -2.4367 -0.8524
 5050SOL    HW218044   8.150   9.670   0.161 -0.5101  0.5341  2.1670
 5051SOL     OW18045   6.182   8.725   8.621 -0.0354 -0.0827 -0.2666
 5051SOL    HW118046   6.247   8.774   8.570  0.1652  1.0635  1.0499
 5051SOL    HW218047   6.098   8.759   8.591 -0.0665 -1.3503 -1.7525
 5052SOL     OW18048  10.150   1.176   2.544 -0.2921  0.0246 -0.5362
 5052SOL    HW118049  10.176   1.130   2.624  0.7419  1.9681  0.3084
 5052SOL    HW218050  10.150   1.108   2.477  3.3978 -0.8861  0.1646
 5053SOL     OW18051   8.059   3.456  10.664  0.0623 -0.1793 -0.1804
 5053SOL    HW118052   8.081   3.413  10.747  0.2259  2.5894  1.3387
 5053SOL    HW218053   8.141   3.460  10.616  0.6142  0.7048  0.8063
 5054SOL     OW18054  10.655   1.909   4.135 -0.0036 -0.8798  0.1002
 5054SOL    HW118055  10.569   1.898   4.175  0.3362 -0.0326  1.1145
 5054SOL    HW218056  10.679   2.000   4.153 -0.1682 -0.1761 -2.7710
 5055SOL     OW18057  10.567   3.976   3.267 -0.2580 -0.0303 -0.1193
 5055SOL    HW118058  10.571   4.069   3.291  0.9830 -0.3923  1.2034
 5055SOL    HW218059  10.658   3.948   3.261 -0.5857 -0.8335 -1.9921
 5056SOL     OW18060   1.082   1.531   3.642  0.3445 -0.2165 -0.1981
 5056SOL    HW118061   1.064   1.454   3.588 -0.1763 -0.5532  0.4380
 5056SOL    HW218062   0.999   1.578   3.645  0.3842 -0.1777  0.2713
 5057SOL     OW18063   7.956   1.883  10.512 -0.6082 -0.7438  0.3235
 5057SOL    HW118064   7.908   1.843  10.439 -0.0849 -0.9914  0.1068
 5057SOL    HW218065   7.939   1.976  10.504 -0.7996 -0.7999  0.0613
 5058SOL     OW18066   0.961   9.884   6.381 -0.1628  0.4194 -0.0398
 5058SOL    HW118067   0.935   9.803   6.336  1.4983  0.0346 -0.3900
 5058SOL    HW218068   1.029   9.922   6.324 -0.5153  1.7713  0.4142
 5059SOL     OW18069   7.952   9.504   6.486  0.3227 -0.0446  0.3350
 5059SOL    HW118070   8.015   9.570   6.458 -0.4562  0.9551  0.8511
 5059SOL    HW218071   7.905   9.545   6.559 -0.1065 -1.2171  0.7474
 5060SOL     OW18072   4.387   9.180   5.063 -0.0268 -0.3474 -0.2527
 5060SOL    HW118073   4.312   9.196   5.005 -0.4580 -1.6632 -0.1061
 5060SOL    HW218074   4.407   9.266   5.101 -2.7051 -0.2141  1.1831
 5061SOL     OW18075   0.320   1.290   8.519 -0.5766  0.5791 -0.2497
 5061SOL    HW118076   0.348   1.275   8.429  0.6387 -2.1733  0.4958
 5061SOL    HW218077   0.269   1.213   8.541 -0.6801  1.1168  1.4911
 5062SOL     OW18078   7.421   1.583   9.900 -0.2187  0.5750 -0.1881
 5062SOL    HW118079   7.416   1.647   9.829 -0.3325 -0.0873 -0.7895
 5062SOL    HW218080   7.408   1.499   9.857  1.8540 -0.0416  0.2894
 5063SOL     OW18081   3.737   7.423   1.370 -0.1081 -0.0009 -0.3102
 5063SOL    HW118082   3.764   7.343   1.416 -1.3422 -0.0751  0.3523
 5063SOL    HW218083   3.690   7.473   1.437  0.5489  1.2418 -0.7503
 5064SOL     OW18084  10.032   2.713   8.824  0.0192 -0.3028  0.4950
 5064SOL    HW118085  10.041   2.749   8.736 -0.7390 -0.1939  0.4566
 5064SOL    HW218086  10.116   2.731   8.867  0.4353 -0.4691 -0.2453
 5065SOL     OW18087   3.385   5.678   6.620  0.4741  0.2871  0.0404
 5065SOL    HW118088   3.292   5.687   6.638  0.0082 -0.1124 -1.9728
 5065SOL    HW218089   3.409   5.759   6.575  1.2549  0.6228  1.0136
 5066SOL     OW18090   9.910   0.701   5.885 -0.0472 -0.0539  0.7627
 5066SOL    HW118091   9.908   0.796   5.900  0.4118  0.8437 -3.6209
 5066SOL    HW218092   9.818   0.676   5.878 -0.1466  0.7026 -0.9385
 5067SOL     OW18093   2.334   1.492   2.899  0.9007 -0.1774 -0.0710
 5067SOL    HW118094   2.349   1.426   2.831  1.2739  0.7331 -0.8937
 5067SOL    HW218095   2.368   1.451   2.979 -2.2178 -2.5014  0.2898
 5068SOL     OW18096   0.448   4.078   9.474 -0.1832  0.5983 -0.2500
 5068SOL    HW118097   0.498   4.075   9.393 -0.2373 -0.8904 -0.2421
 5068SOL    HW218098   0.506   4.038   9.540 -0.4457  1.0719  0.2786
 5069SOL     OW18099   8.199  10.459   8.882 -0.7093 -0.4736 -0.3961
 5069SOL    HW118100   8.241  10.496   8.960 -0.2632 -1.6569 -0.0592
 5069SOL    HW218101   8.196  10.532   8.821 -1.8858  0.7286  1.0210
 5070SOL     OW18102   4.190   3.804   4.128  0.5118 -0.1569  0.0440
 5070SOL    HW118103   4.152   3.848   4.204  1.3052 -0.3464  0.5621
 5070SOL    HW218104   4.119   3.803   4.063 -0.3710 -0.5286  0.9848
 5071SOL     OW18105   6.950   8.499   1.124  0.8648 -0.4346  0.3574
 5071SOL    HW118106   7.008   8.507   1.199  0.5946  2.7916  0.3842
 5071SOL    HW218107   6.862   8.515   1.159  0.5964 -0.0240 -0.4563
 5072SOL     OW18108  10.017  10.383   6.102 -0.2828 -0.1812  0.1335
 5072SOL    HW118109   9.971  10.378   6.185  2.3684  0.2828  1.7390
 5072SOL    HW218110  10.107  10.356   6.122  1.2011  2.6907 -1.9185
 5073SOL     OW18111   6.097   2.704   6.949 -0.3638  0.0849 -0.3958
 5073SOL    HW118112   6.036   2.760   6.996  1.0286 -0.0174  1.6334
 5073SOL    HW218113   6.153   2.666   7.017 -0.2060 -2.4961 -1.8407
 5074SOL     OW18114   5.991   8.706   6.892 -0.1543  0.6244 -0.4080
 5074SOL    HW118115   5.963   8.710   6.800  0.5220  0.2257 -0.6382
 5074SOL    HW218116   5.913   8.731   6.942 -0.8749 -0.3322 -1.0301
 5075SOL     OW18117   6.803  10.721   9.281  0.5512 -0.0121 -0.0528
 5075SOL    HW118118   6.728  10.683   9.234  1.3818 -1.4339 -0.2812
 5075SOL    HW218119   6.870  10.653   9.277  2.5003  1.8678 -1.3646
 5076SOL     OW18120   0.201   4.989  10.339  0.7536  0.3444  0.4937
 5076SOL    HW118121   0.145   4.986  10.261  0.5353 -0.6362  0.6667
 5076SOL    HW218122   0.229   5.080  10.346 -1.0923  0.9495  0.5789
 5077SOL     OW18123   4.982   6.750   6.180  0.7997 -0.4082  0.1765
 5077SOL    HW118124   4.925   6.673   6.173  0.7706 -0.2518 -2.5049
 5077SOL    HW218125   4.941   6.804   6.247 -1.5771 -0.8608 -0.7929
 5078SOL     OW18126   0.802   0.119   3.780 -0.2203  0.8604  0.5986
 5078SOL    HW118127   0.882   0.166   3.803 -0.5702  0.9120  1.7756
 5078SOL    HW218128   0.771   0.162   3.700  1.3429  0.3169 -0.3522
 5079SOL     OW18129   6.353   2.861   6.998 -0.1481  0.8463  0.0608
 5079SOL    HW118130   6.346   2.878   7.091 -0.5608  2.2542 -0.2038
 5079SOL    HW218131   6.407   2.782   6.992 -2.1175 -0.7104  1.5513
 5080SOL     OW18132   9.780   5.049  10.538 -0.5332 -0.4375 -0.4271
 5080SOL    HW118133   9.869   5.030  10.508 -0.5033 -0.6738 -0.1909
 5080SOL    HW218134   9.728   4.978  10.500 -0.5069 -0.6977  0.0245
 5081SOL     OW18135   9.083   6.767   9.788 -0.9574  0.4446 -0.5926
 5081SOL    HW118136   9.120   6.822   9.719  2.6189 -0.0170  0.7159
 5081SOL    HW218137   9.064   6.828   9.860 -1.1992  0.4894 -0.6946
 5082SOL     OW18138   1.055  10.795   3.503  0.4992  0.1187 -0.2322
 5082SOL    HW118139   1.102  10.729   3.451  3.2490 -0.3171  2.5049
 5082SOL    HW218140   0.966  10.760   3.512  0.8445 -1.3313 -1.9362
 5083SOL     OW18141   2.403   3.424   6.121  0.0443  0.0713 -0.2093
 5083SOL    HW118142   2.324   3.463   6.085  0.2174  1.8448  1.1426
 5083SOL    HW218143   2.402   3.450   6.213  1.1203 -1.7091  0.3582
 5084SOL     OW18144   2.456  10.035   5.108 -0.0492 -0.2651 -0.3450
 5084SOL    HW118145   2.373  10.066   5.143 -0.4030 -1.9126  0.3592
 5084SOL    HW218146   2.438   9.945   5.078  1.6333 -0.9376  0.5169
 5085SOL     OW18147   8.201  10.592   3.875 -0.4793 -0.6126 -0.1708
 5085SOL    HW118148   8.231  10.517   3.825 -0.0588 -0.9231  0.5346
 5085SOL    HW218149   8.279  10.645   3.890 -0.1838 -1.5506  1.8826
 5086SOL     OW18150   9.063   6.481   8.676  0.5310  0.0842 -0.0352
 5086SOL    HW118151   9.074   6.540   8.750  0.2902 -0.2723  0.2860
 5086SOL    HW218152   9.065   6.539   8.599  0.9874  0.4278  0.2332
 5087SOL     OW18153   7.848   4.018   3.509  0.4036 -0.2810  0.2641
 5087SOL    HW118154   7.901   3.989   3.435  0.7282  0.1998  0.3054
 5087SOL    HW218155   7.768   4.051   3.469  1.8090  2.9141 -0.1844
 5088SOL     OW18156   4.480   8.269   0.183 -0.1521  0.9980 -0.1691
 5088SOL    HW118157   4.514   8.255   0.095  1.0100  0.5421  0.3323
 5088SOL    HW218158   4.391   8.233   0.181  0.1382  0.2974 -0.9397
 5089SOL     OW18159   4.686   3.669   4.540 -0.0101  0.4639 -0.4793
 5089SOL    HW118160   4.655   3.587   4.579 -0.9754  0.6059 -0.9296
 5089SOL    HW218161   4.682   3.653   4.445 -1.5246  1.4941 -0.6065
 5090SOL     OW18162   1.449   1.132   6.336 -0.6197  0.0873  0.1812
 5090SOL    HW118163   1.486   1.044   6.342 -2.2284 -0.5900  0.9447
 5090SOL    HW218164   1.523   1.191   6.351  0.4865 -1.1257 -0.3068
 5091SOL     OW18165   2.424   4.211   1.928  0.0205  0.5854  0.3246
 5091SOL    HW118166   2.398   4.121   1.947  0.4541  0.2440 -0.6298
 5091SOL    HW218167   2.514   4.217   1.961  0.5023  0.2185 -0.8405
 5092SOL     OW18168   4.207   7.169   5.196 -0.0256  0.1221 -0.5251
 5092SOL    HW118169   4.255   7.144   5.274  0.1636  0.1096 -0.6436
 5092SOL    HW218170   4.199   7.264   5.202 -1.5231 -0.0375  0.3664
 5093SOL     OW18171   7.501  10.446   9.957  0.1706  1.1594 -0.4681
 5093SOL    HW118172   7.569  10.390   9.918  0.5188  2.0467 -1.1539
 5093SOL    HW218173   7.532  10.462  10.046 -1.6631 -2.6820  1.1240
 5094SOL     OW18174   9.918   7.154  10.338  0.1416 -0.4457 -0.1515
 5094SOL    HW118175   9.961   7.121  10.417  0.4476  0.3359  0.0223
 5094SOL    HW218176   9.830   7.181  10.368 -1.1623 -3.5810 -0.8279
 5095SOL     OW18177   3.562   4.103   5.699  0.1069 -0.0963 -0.1197
 5095SOL    HW118178   3.523   4.145   5.775  1.5203  0.1155  0.5204
 5095SOL    HW218179   3.557   4.169   5.630 -0.6976 -0.0984 -0.0731
 5096SOL     OW18180   1.814   7.538   8.433  0.8769  0.6747  0.6409
 5096SOL    HW118181   1.729   7.553   8.394  1.2112  0.8869 -0.0199
 5096SOL    HW218182   1.799   7.543   8.527 -0.0589 -0.4306  0.5783
 5097SOL     OW18183   6.540   9.988  10.042 -0.5336  0.2360 -0.5458
 5097SOL    HW118184   6.478   9.924  10.077  0.7004 -0.3084  0.7056
 5097SOL    HW218185   6.494  10.026   9.967 -0.6208 -3.4881 -2.6425
 5098SOL     OW18186   7.311   0.118   4.176 -0.2098 -0.1798  0.1758
 5098SOL    HW118187   7.352   0.169   4.105 -2.4840 -1.1678 -2.0213
 5098SOL    HW218188   7.346   0.030   4.166  1.4165  0.1867  2.0397
 5099SOL     OW18189   1.003   5.297   4.107  0.3440 -0.2507  0.2748
 5099SOL    HW118190   0.917   5.272   4.072 -0.4317  1.6328  0.7270
 5099SOL    HW218191   1.066   5.255   4.049 -0.8957  1.5224 -2.5253
 5100SOL     OW18192   5.254   3.818   4.657 -0.3780 -0.0308  0.2107
 5100SOL    HW118193   5.190   3.856   4.597  1.4651  1.4884 -0.8937
 5100SOL    HW218194   5.272   3.732   4.621 -0.0742  0.4563 -0.8270
 5101SOL     OW18195   1.221   0.642   6.457  0.1268  0.7424  0.4691
 5101SOL    HW118196   1.154   0.628   6.524 -0.4398  1.0030 -0.0252
 5101SOL    HW218197   1.205   0.731   6.425  0.6047  0.7456  0.2291
 5102SOL     OW18198   0.820  10.608   7.570 -0.2726 -0.3403  0.6633
 5102SOL    HW118199   0.872  10.599   7.490 -1.9119 -0.3461 -0.4471
 5102SOL    HW218200   0.884  10.598   7.641  1.3839  0.5637 -0.6224
 5103SOL     OW18201   1.088   8.620   7.689 -0.4020 -0.4872  0.5439
 5103SOL    HW118202   1.094   8.525   7.695  1.1846 -0.6552 -2.2545
 5103SOL    HW218203   1.037   8.636   7.610 -0.2511  0.9914  0.7216
 5104SOL     OW18204   1.130   0.169   2.505  0.1878  0.1628 -0.0596
 5104SOL    HW118205   1.189   0.236   2.540  0.8065 -0.3137 -0.1795
 5104SOL    HW218206   1.074   0.145   2.579  1.0503 -0.3639  0.4334
 5105SOL     OW18207   5.483   6.001   3.491 -0.2161  0.1561 -0.7286
 5105SOL    HW118208   5.549   6.045   3.546 -0.5206  1.9122 -1.7069
 5105SOL    HW218209   5.531   5.976   3.412 -0.3281 -0.2034 -0.6852
 5106SOL     OW18210   6.016   6.218   1.554 -0.4174  0.2500  0.7074
 5106SOL    HW118211   6.058   6.263   1.627 -0.6529 -1.9804  2.3597
 5106SOL    HW218212   6.052   6.129   1.557 -1.8371 -0.4318 -0.7019
 5107SOL     OW18213   1.569   8.018   0.919 -0.1676  0.6951  0.4817
 5107SOL    HW118214   1.599   8.086   0.859 -0.5051  1.0591  0.7231
 5107SOL    HW218215   1.572   8.058   1.005  1.7095 -0.2854  0.9202
 5108SOL     OW18216   1.624   0.585  10.326  0.1593  0.5153  0.1850
 5108SOL    HW118217   1.690   0.631  10.379  2.3573  0.8156 -2.5612
 5108SOL    HW218218   1.605   0.505  10.375  2.3371  0.5874  1.2847
 5109SOL     OW18219   4.024   4.099   5.689 -0.3649  0.7952  0.0085
 5109SOL    HW118220   4.052   4.190   5.677 -0.6490  0.7196 -1.3990
 5109SOL    HW218221   3.937   4.095   5.649 -1.9857  0.7183  3.1814
 5110SOL     OW18222   1.641   1.316   3.017  0.1925 -0.2286  0.3077
 5110SOL    HW118223   1.664   1.340   2.927 -0.9996  0.3085  0.1181
 5110SOL    HW218224   1.701   1.245   3.039  0.1742 -0.7199 -1.0986
 5111SOL     OW18225   5.158   8.812   4.898  0.1997 -0.5059 -0.0594
 5111SOL    HW118226   5.102   8.787   4.972  1.2197 -1.4993  0.4195
 5111SOL    HW218227   5.214   8.881   4.933  0.8043 -1.1000  0.1766
 5112SOL     OW18228  10.241   8.029   9.159 -0.2164 -0.6837  0.5436
 5112SOL    HW118229  10.155   7.987   9.160  0.2013 -1.6443 -0.8229
 5112SOL    HW218230  10.300   7.963   9.121  0.6732  0.7383 -0.6669
 5113SOL     OW18231  10.298   8.098   6.346 -0.0022  0.3465 -0.2904
 5113SOL    HW118232  10.278   8.006   6.362 -1.6007  0.5435 -0.9916
 5113SOL    HW218233  10.390   8.098   6.321  0.0057 -1.0724 -0.3390
 5114SOL     OW18234   9.338   3.901   4.821 -0.2114  0.2009  0.4257
 5114SOL    HW118235   9.382   3.985   4.830  0.7446 -0.3738  1.4613
 5114SOL    HW218236   9.369   3.866   4.738  3.3723 -1.2657  2.1443
 5115SOL     OW18237   0.993   7.933   7.764 -0.1746  0.3313 -0.6548
 5115SOL    HW118238   0.922   7.989   7.796  0.7807  1.1238  0.1434
 5115SOL    HW218239   1.045   7.914   7.842 -1.2072 -2.8826 -0.6104
 5116SOL     OW18240   4.691   8.569   3.082 -0.7914  0.1160  0.0386
 5116SOL    HW118241   4.667   8.649   3.035  1.2319  0.4449 -0.5143
 5116SOL    HW218242   4.610   8.541   3.125 -2.4356  0.5271 -2.5824
 5117SOL     OW18243   6.077   0.997   1.153 -0.3135 -0.5966  0.3776
 5117SOL    HW118244   6.100   1.037   1.236  0.6890 -1.3909  0.5104
 5117SOL    HW218245   6.060   0.905   1.175  2.3252 -1.4180 -0.5669
 5118SOL     OW18246   8.626   5.480  10.124 -0.3673 -0.0852 -0.2686
 5118SOL    HW118247   8.627   5.575  10.137 -2.5046 -0.3011  2.5942
 5118SOL    HW218248   8.716   5.459  10.100  1.0423  2.3845  2.1200
 5119SOL     OW18249   0.020   3.313   4.944  0.3477 -0.2868 -0.0148
 5119SOL    HW118250   0.006   3.266   4.862 -0.1062  0.2283 -0.2351
 5119SOL    HW218251   0.107   3.352   4.935  0.0196  0.3396 -0.5389
 5120SOL     OW18252   6.678   2.092   2.710  0.4247 -0.3158 -0.9195
 5120SOL    HW118253   6.766   2.092   2.748 -0.1682  0.1637  0.5486
 5120SOL    HW218254   6.692   2.094   2.616  1.9837 -0.7177 -0.7212
 5121SOL     OW18255   9.253   3.442   9.612 -0.1830  0.0145  0.9392
 5121SOL    HW118256   9.210   3.525   9.592 -0.4357 -0.5117 -0.9674
 5121SOL    HW218257   9.182   3.381   9.630 -0.1794 -0.3590 -0.1821
 5122SOL     OW18258   9.950   2.621   0.996 -0.1065 -0.0329  0.0808
 5122SOL    HW118259   9.867   2.664   0.975  0.1642  1.1778  1.3235
 5122SOL    HW218260   9.927   2.529   1.010 -1.0512  0.0861 -0.6112
 5123SOL     OW18261  10.771   8.285   0.823  0.0152 -0.0458  0.5206
 5123SOL    HW118262  10.792   8.192   0.815  0.0623  0.0496 -0.5432
 5123SOL    HW218263  10.687   8.294   0.778 -0.3399  0.3142  1.2318
 5124SOL     OW18264   8.890   2.294   0.575 -0.4581 -0.3284 -0.1088
 5124SOL    HW118265   8.913   2.235   0.503 -0.5752 -0.7944  0.2322
 5124SOL    HW218266   8.805   2.262   0.606 -0.4236 -0.1078  0.2162
 5125SOL     OW18267   1.111   6.107   4.442  0.5885  0.3317 -0.5150
 5125SOL    HW118268   1.039   6.105   4.505  2.0816 -2.4895  1.3639
 5125SOL    HW218269   1.070   6.126   4.358 -2.2629 -0.6229  0.5430
 5126SOL     OW18270   5.842   9.158   9.090 -0.3217 -0.5273  0.1134
 5126SOL    HW118271   5.826   9.086   9.029 -0.4281 -1.8662  1.6691
 5126SOL    HW218272   5.808   9.235   9.044 -0.1094 -1.4136 -1.6428
 5127SOL     OW18273   5.516   8.676   5.447  0.0102 -0.1696  0.0970
 5127SOL    HW118274   5.442   8.686   5.387 -0.1410  0.3042  0.3558
 5127SOL    HW218275   5.593   8.678   5.390 -0.1796 -0.7651 -0.1846
 5128SOL     OW18276   4.825   5.407  10.030  0.0732 -0.6758  0.0065
 5128SOL    HW118277   4.818   5.479   9.968  0.1476 -1.4677 -0.9512
 5128SOL    HW218278   4.734   5.391  10.058  0.2272  0.9212  1.6104
 5129SOL     OW18279   3.598  10.277   3.733 -0.3837 -0.0859  0.0282
 5129SOL    HW118280   3.558  10.290   3.820  0.6800  0.0447  0.5109
 5129SOL    HW218281   3.671  10.339   3.731 -1.1390  0.8266 -1.4677
 5130SOL     OW18282   8.368   4.979   5.438  0.1372 -0.3494 -0.1934
 5130SOL    HW118283   8.295   4.957   5.380  0.9612 -0.0069 -1.3906
 5130SOL    HW218284   8.411   5.053   5.396  0.5584  0.1348  1.0464
 5131SOL     OW18285   5.608   5.023   9.025  0.4244 -0.6036  0.1521
 5131SOL    HW118286   5.557   5.101   9.046 -0.3657 -1.0301 -0.1352
 5131SOL    HW218287   5.638   5.037   8.936 -0.8767 -1.2171 -0.4036
 5132SOL     OW18288   7.164   2.527   6.588  0.0969  0.4034 -0.1100
 5132SOL    HW118289   7.099   2.467   6.625  0.6911  0.1015  0.4651
 5132SOL    HW218290   7.116   2.575   6.520  0.1152 -2.1794 -2.1098
 5133SOL     OW18291   5.398  10.151   9.501 -0.5066  0.3918 -0.0769
 5133SOL    HW118292   5.431  10.064   9.524  0.6900  1.0275  0.6913
 5133SOL    HW218293   5.448  10.175   9.422 -3.1005 -0.8991 -2.2804
 5134SOL     OW18294   6.433   2.008  10.226  0.0964  0.4452  0.5782
 5134SOL    HW118295   6.387   1.937  10.181 -0.1678  0.3410  1.0071
 5134SOL    HW218296   6.370   2.041  10.290  0.0888  1.3234  0.1238
 5135SOL     OW18297   6.238   8.338   9.441  0.1439  0.2730 -0.3642
 5135SOL    HW118298   6.170   8.276   9.414  0.7968 -0.6568  0.0590
 5135SOL    HW218299   6.246   8.398   9.367  0.6706 -1.1701 -1.5285
 5136SOL     OW18300   2.775   7.713   8.457  0.4901 -0.3963  0.6392
 5136SOL    HW118301   2.753   7.720   8.550 -0.9172 -1.6481  0.4370
 5136SOL    HW218302   2.743   7.627   8.431  1.7463 -0.4655 -0.7926
 5137SOL     OW18303   2.540   9.039   5.591  0.6445  0.1787  0.0747
 5137SOL    HW118304   2.542   9.121   5.640  1.5758  1.0900 -1.4257
 5137SOL    HW218305   2.613   8.989   5.626 -0.5747 -0.5327  1.7601
 5138SOL     OW18306   3.597   1.568   2.344  0.0068  0.4439 -0.6663
 5138SOL    HW118307   3.557   1.638   2.292  0.1449  2.0586  1.2539
 5138SOL    HW218308   3.681   1.604   2.372 -0.0877 -0.3084  0.6912
 5139SOL     OW18309   7.964   1.969   4.644  0.0616 -0.3457 -0.0276
 5139SOL    HW118310   7.947   1.937   4.555 -0.3302 -1.1571  0.3345
 5139SOL    HW218311   7.886   2.019   4.667  0.0503 -0.3632 -0.0274
 5140SOL     OW18312   7.389   0.739   2.242  0.1211 -0.2145  0.5759
 5140SOL    HW118313   7.365   0.805   2.307  0.4298  0.5010 -0.0103
 5140SOL    HW218314   7.312   0.683   2.233 -0.3597  0.4271  0.6628
 5141SOL     OW18315   5.056   5.516   2.014 -0.1123 -1.0859  0.2438
 5141SOL    HW118316   5.087   5.563   1.937 -1.6687 -1.1082 -0.4384
 5141SOL    HW218317   5.076   5.424   1.995 -2.5746 -1.4242 -1.3210
 5142SOL     OW18318   5.553   5.324   2.106 -0.3185  0.0614 -0.9518
 5142SOL    HW118319   5.555   5.250   2.045 -0.7685 -1.2154  0.5152
 5142SOL    HW218320   5.624   5.306   2.167 -0.7608  0.5617 -0.2754
 5143SOL     OW18321   1.202   7.544   9.571  0.1505 -0.1531  0.2847
 5143SOL    HW118322   1.132   7.493   9.529  0.2131 -1.1408  1.3054
 5143SOL    HW218323   1.255   7.576   9.499 -1.8557  1.4088 -0.5760
 5144SOL     OW18324   7.418   6.549   8.206 -0.6825  0.4499 -0.6975
 5144SOL    HW118325   7.444   6.632   8.164 -0.0134  0.9115  0.5712
 5144SOL    HW218326   7.485   6.534   8.272 -0.6981 -1.2264 -1.0258
 5145SOL     OW18327   8.347   6.630   5.453  0.1380 -0.2314 -0.8094
 5145SOL    HW118328   8.393   6.689   5.393 -0.7595 -0.7595 -2.0683
 5145SOL    HW218329   8.273   6.682   5.485 -0.1150 -0.3488 -1.1871
 5146SOL     OW18330   8.025   0.933  10.422  0.4048  0.5787  0.0759
 5146SOL    HW118331   8.036   0.963  10.332 -0.6728  0.7708 -0.0125
 5146SOL    HW218332   7.975   1.003  10.465 -1.0538 -0.4807  0.2039
 5147SOL     OW18333   0.149   2.154   6.973 -0.2792 -0.4397 -0.2343
 5147SOL    HW118334   0.108   2.215   7.035  1.3188  1.1850 -0.6818
 5147SOL    HW218335   0.082   2.140   6.907 -1.3431 -0.6843  0.8471
 5148SOL     OW18336   8.948   8.202   5.412  0.2749 -0.6698 -0.0137
 5148SOL    HW118337   8.859   8.206   5.377 -0.1080 -1.6189  0.8057
 5148SOL    HW218338   8.968   8.109   5.417  1.3163 -0.4699 -0.1525
 5149SOL     OW18339   5.883  10.720   2.095 -0.0641 -0.6773 -0.0629
 5149SOL    HW118340   5.860  10.680   2.179  3.8018  0.0480  1.5775
 5149SOL    HW218341   5.942  10.657   2.054  0.6799  0.3624 -0.6412
 5150SOL     OW18342   9.773   0.582   4.081 -0.4926 -0.3770 -0.3327
 5150SOL    HW118343   9.841   0.516   4.088 -0.9090 -0.7842 -0.1354
 5150SOL    HW218344   9.784   0.617   3.992  0.3197 -0.0541 -0.1203
 5151SOL     OW18345   5.318   5.905   0.424  0.2777 -0.2972 -0.2763
 5151SOL    HW118346   5.381   5.834   0.412 -0.4503 -1.0620  0.3593
 5151SOL    HW218347   5.333   5.963   0.349  0.8503 -1.1381 -0.8290
 5152SOL     OW18348   1.312   8.144   7.719 -0.3263  0.6173 -0.0496
 5152SOL    HW118349   1.234   8.188   7.754 -0.3582 -0.7875  1.7961
 5152SOL    HW218350   1.296   8.140   7.625 -2.3401  0.7053  0.2285
 5153SOL     OW18351   9.655   4.106  10.503 -0.1336  0.0156  0.0797
 5153SOL    HW118352   9.658   4.173  10.572  0.5704  0.5488 -0.4476
 5153SOL    HW218353   9.709   4.143  10.433 -1.7194 -0.0204 -1.2075
 5154SOL     OW18354   9.140   0.505  10.147 -0.1554 -0.2701 -0.2520
 5154SOL    HW118355   9.110   0.418  10.121  0.0953 -0.6398  0.6678
 5154SOL    HW218356   9.231   0.508  10.119 -0.4573  0.1029 -1.2335
 5155SOL     OW18357   2.722   7.904   3.747 -0.3587 -1.1585 -0.0119
 5155SOL    HW118358   2.797   7.850   3.720 -0.7810 -2.2617  0.9184
 5155SOL    HW218359   2.693   7.945   3.666  1.4574 -0.4057 -0.3455
 5156SOL     OW18360   6.310   0.136   3.688  0.8739  0.0822 -0.1311
 5156SOL    HW118361   6.268   0.209   3.643  0.8150 -0.2415 -0.6122
 5156SOL    HW218362   6.397   0.131   3.648  1.1972  0.4386  0.5142
 5157SOL     OW18363   5.274   7.061   6.631  1.2844 -0.1508 -0.3153
 5157SOL    HW118364   5.229   7.026   6.709  1.0983 -1.3462 -0.9346
 5157SOL    HW218365   5.348   7.002   6.618  1.3393  0.0676 -1.0195
 5158SOL     OW18366   4.533   6.484   2.102  0.3837  0.2277 -0.5235
 5158SOL    HW118367   4.618   6.441   2.114  0.1054  0.0119  0.8277
 5158SOL    HW218368   4.493   6.483   2.189 -1.4065 -0.5106 -1.3071
 5159SOL     OW18369  10.314   2.415   6.694  0.0665 -0.2066 -0.2810
 5159SOL    HW118370  10.287   2.398   6.785  2.0657 -0.8852  0.2426
 5159SOL    HW218371  10.318   2.510   6.688 -0.2658 -0.1514  0.2931
 5160SOL     OW18372   6.346   2.540   7.894 -0.2834 -0.3400 -0.0514
 5160SOL    HW118373   6.442   2.545   7.890 -0.3077  0.5938  0.3181
 5160SOL    HW218374   6.327   2.446   7.893  0.6882 -0.5779  1.1300
 5161SOL     OW18375   0.789   6.153   1.929 -0.5987 -0.4201  0.3170
 5161SOL    HW118376   0.874   6.156   1.972 -0.9948  0.6343  1.0494
 5161SOL    HW218377   0.725   6.169   1.998 -1.3484 -0.3216 -0.3722
 5162SOL     OW18378   1.330   5.383  10.030 -0.8166 -0.5361 -0.3713
 5162SOL    HW118379   1.242   5.386  10.068  0.5139 -1.4028  3.2074
 5162SOL    HW218380   1.326   5.312   9.966 -2.4592 -1.3106  0.5120
 5163SOL     OW18381   6.587   5.831   2.467  0.4960 -0.4700 -0.1925
 5163SOL    HW118382   6.602   5.896   2.400 -0.2578 -0.0831  0.0059
 5163SOL    HW218383   6.492   5.830   2.480  0.5642 -1.0516  0.3486
 5164SOL     OW18384   3.903   5.055   0.455 -0.3194  0.5436 -0.0168
 5164SOL    HW118385   3.922   5.146   0.432 -0.5712  0.4065 -0.7898
 5164SOL    HW218386   3.837   5.062   0.525  0.9590  0.9736  1.1944
 5165SOL     OW18387  10.558   3.311   2.233  0.5960 -0.5138 -0.2279
 5165SOL    HW118388  10.510   3.295   2.315  1.1694 -0.0911  0.2016
 5165SOL    HW218389  10.502   3.274   2.165 -1.8508  2.5925 -0.1410
 5166SOL     OW18390   1.319   9.644   1.856  0.2926  0.3902  0.4974
 5166SOL    HW118391   1.280   9.730   1.842  0.8483  0.5865  0.1278
 5166SOL    HW218392   1.259   9.600   1.917 -0.0925  0.9651  0.5401
 5167SOL     OW18393   9.091   6.563   6.998  0.2071  0.0967 -0.2811
 5167SOL    HW118394   9.004   6.528   7.015 -0.6967  1.3411 -2.0348
 5167SOL    HW218395   9.077   6.656   6.983  2.1875  0.8043  1.7443
 5168SOL     OW18396   4.610   7.266   4.785  0.1326 -0.6221  0.9089
 5168SOL    HW118397   4.584   7.333   4.847  0.0641  1.6495 -1.4080
 5168SOL    HW218398   4.528   7.241   4.741  0.5150 -0.2175 -0.0665
 5169SOL     OW18399   6.700   4.656   1.948  0.0598  0.5643  0.5141
 5169SOL    HW118400   6.636   4.590   1.920 -0.6298  2.0756 -1.7742
 5169SOL    HW218401   6.746   4.616   2.022 -1.5399 -1.7284  0.3587
 5170SOL     OW18402   1.331   0.150   8.481  0.6179 -0.2150  0.2414
 5170SOL    HW118403   1.397   0.128   8.415  1.5806  1.7305  0.4844
 5170SOL    HW218404   1.248   0.148   8.434  1.0212 -1.1281 -0.4538
 5171SOL     OW18405   5.336   8.199   8.815  0.3942 -0.3305  0.2609
 5171SOL    HW118406   5.284   8.132   8.771 -2.5583  3.5028 -2.8638
 5171SOL    HW218407   5.294   8.210   8.900 -0.7791 -0.7030 -0.2471
 5172SOL     OW18408   1.646   4.620   8.418  0.0869 -0.4327  0.4223
 5172SOL    HW118409   1.725   4.565   8.414 -0.0487 -0.7638 -4.9196
 5172SOL    HW218410   1.679   4.707   8.439  2.2582 -0.3353 -2.6745
 5173SOL     OW18411   7.054   0.317   8.586 -0.1639  0.1123  0.3247
 5173SOL    HW118412   7.000   0.362   8.651  0.1301 -0.2870  0.8574
 5173SOL    HW218413   7.006   0.236   8.567 -0.8326  0.7594 -0.8416
 5174SOL     OW18414   9.526   8.417   0.607  0.2876 -0.0975  0.2756
 5174SOL    HW118415   9.454   8.379   0.659  0.4534  0.2918  0.8040
 5174SOL    HW218416   9.577   8.467   0.671  2.1823 -1.9577  0.3323
 5175SOL     OW18417   0.208   8.495   4.092 -0.1621 -0.5345  0.3314
 5175SOL    HW118418   0.117   8.518   4.111 -0.6970 -0.1234 -2.2802
 5175SOL    HW218419   0.205   8.401   4.072 -0.1705 -0.3945 -0.3751
 5176SOL     OW18420  10.057   9.572   3.729  0.2241 -0.0143  0.2452
 5176SOL    HW118421  10.055   9.478   3.713  2.2356 -0.0151 -0.1574
 5176SOL    HW218422  10.022   9.611   3.649  0.3658 -0.3820  0.0027
 5177SOL     OW18423   7.306   4.862   8.782 -0.4767 -0.1394  0.1025
 5177SOL    HW118424   7.370   4.872   8.711 -0.8834 -1.7140 -0.5163
 5177SOL    HW218425   7.261   4.947   8.785  1.0508  0.7216  0.0042
 5178SOL     OW18426   9.552   7.280  10.494 -0.0714 -0.4080 -0.1576
 5178SOL    HW118427   9.572   7.245  10.408 -0.0320 -2.7808  0.7583
 5178SOL    HW218428   9.464   7.248  10.514 -0.1552  0.2512  0.6297
 5179SOL     OW18429   2.959   8.782   2.650  0.7001  0.2519  0.2376
 5179SOL    HW118430   2.933   8.700   2.608  1.2609  0.4387 -0.4927
 5179SOL    HW218431   2.878   8.818   2.685  0.4940 -0.7816  0.8661
 5180SOL     OW18432   4.361   3.056   0.436  0.5210 -0.1629  0.1995
 5180SOL    HW118433   4.315   2.979   0.468 -0.3764  1.1859  2.3954
 5180SOL    HW218434   4.441   3.021   0.397 -0.3358 -2.2604  0.2002
 5181SOL     OW18435   3.294   6.845   4.602  0.4603  0.0779 -0.0204
 5181SOL    HW118436   3.307   6.907   4.530  0.1992 -0.3195 -0.4152
 5181SOL    HW218437   3.199   6.846   4.617  0.7131  2.3933  2.3308
 5182SOL     OW18438   2.184   1.111   7.599 -0.1859 -0.0822 -0.0615
 5182SOL    HW118439   2.157   1.048   7.533  0.2746 -0.9299  0.5416
 5182SOL    HW218440   2.119   1.182   7.592 -0.6017 -0.5265 -0.8707
 5183SOL     OW18441   6.002  10.781   1.591 -0.2016 -0.0640 -0.1963
 5183SOL    HW118442   5.912  10.814   1.593 -0.2553 -0.1264 -1.0370
 5183SOL    HW218443   5.992  10.685   1.592 -0.0982 -0.0699  0.8356
 5184SOL     OW18444   0.906   3.177   2.478 -0.2434  0.1579  0.4455
 5184SOL    HW118445   0.819   3.163   2.516 -0.4126  0.1153  0.0502
 5184SOL    HW218446   0.891   3.240   2.407  0.1266  0.5258  0.6867
 5185SOL     OW18447   7.081   5.095   5.226  0.5239 -0.4775  0.3095
 5185SOL    HW118448   7.107   5.108   5.134 -0.1520 -1.3083 -0.0094
 5185SOL    HW218449   7.132   5.019   5.254 -0.6176 -1.3553  0.0534
 5186SOL     OW18450   9.712   3.923   4.826  0.4945 -0.0147  0.0879
 5186SOL    HW118451   9.650   3.978   4.777  1.5073 -0.1831 -1.4394
 5186SOL    HW218452   9.728   3.972   4.907  0.7004  1.5291 -0.8466
 5187SOL     OW18453   9.543   7.642   8.774 -0.3631  0.8650  0.4840
 5187SOL    HW118454   9.555   7.548   8.779 -0.6986  0.8253  0.5394
 5187SOL    HW218455   9.455   7.658   8.808 -1.0527  0.9993 -1.2546
 5188SOL     OW18456  10.704   0.106   4.280 -0.8442  0.2159 -0.0078
 5188SOL    HW118457  10.786   0.060   4.265 -1.0674 -0.3824  0.5596
 5188SOL    HW218458  10.681   0.086   4.371 -1.6306  0.3547 -0.1623
 5189SOL     OW18459   3.072   4.336   8.227  0.3286 -0.3352  0.1577
 5189SOL    HW118460   2.988   4.307   8.261  1.1032 -0.3157  2.1961
 5189SOL    HW218461   3.080   4.293   8.142 -2.4582  0.9852 -0.8767
 5190SOL     OW18462   5.488   4.380   3.538  0.1193  0.3037 -0.0660
 5190SOL    HW118463   5.573   4.420   3.559 -0.1684  0.9582 -0.1274
 5190SOL    HW218464   5.509   4.312   3.474  0.6168  0.3596  0.0320
 5191SOL     OW18465  10.560   8.280   6.596 -0.2727  0.3383 -0.4480
 5191SOL    HW118466  10.614   8.271   6.675 -0.0015 -0.0676 -0.6756
 5191SOL    HW218467  10.609   8.341   6.541  0.9144 -1.4022 -1.4339
 5192SOL     OW18468   2.707   7.931   4.436  0.0710 -0.6880 -0.2330
 5192SOL    HW118469   2.705   7.839   4.410 -2.4339 -0.8750  0.3191
 5192SOL    HW218470   2.628   7.968   4.396  1.3484  1.4161 -0.9761
 5193SOL     OW18471   2.655   4.495   6.512 -0.3507 -0.3330 -0.2316
 5193SOL    HW118472   2.598   4.542   6.574 -0.0716 -0.7160  0.3254
 5193SOL    HW218473   2.595   4.452   6.452 -0.6152  1.2585 -1.1683
 5194SOL     OW18474   4.353  10.753   5.669  0.0947 -0.2625  0.6363
 5194SOL    HW118475   4.334  10.674   5.721 -1.2568  0.8181  1.8652
 5194SOL    HW218476   4.441  10.778   5.695  0.1008 -0.7335  1.0813
 5195SOL     OW18477   4.867   5.304   3.899 -0.0531 -0.0668  0.5042
 5195SOL    HW118478   4.892   5.270   3.985  0.0610  0.7007  0.7808
 5195SOL    HW218479   4.828   5.229   3.854 -0.7014 -0.3235  1.4610
 5196SOL     OW18480   4.146   4.268  10.477  0.3190 -0.0235  0.2163
 5196SOL    HW118481   4.080   4.326  10.440  0.8690  0.1053 -0.5874
 5196SOL    HW218482   4.168   4.307  10.561  1.0121  1.1913 -0.5098
 5197SOL     OW18483  10.369   3.573   3.951 -0.1295 -0.4645  0.6532
 5197SOL    HW118484  10.346   3.530   3.869 -0.9265 -1.3584  1.3274
 5197SOL    HW218485  10.431   3.514   3.993  0.6066  0.1917  0.5202
 5198SOL     OW18486   9.048   3.430   6.854  0.3386 -0.0461  0.3824
 5198SOL    HW118487   9.100   3.440   6.775 -2.0714 -2.7768 -1.7686
 5198SOL    HW218488   9.012   3.517   6.871  1.6084  0.7831 -0.9314
 5199SOL     OW18489   9.054   5.115   5.269  0.2603  0.9122 -0.2170
 5199SOL    HW118490   9.012   5.201   5.265 -0.9280  0.4468  1.1968
 5199SOL    HW218491   8.983   5.053   5.251  0.9461  0.1953 -0.4958
 5200SOL     OW18492   5.848   9.802   5.602 -0.0962  0.2214 -0.1680
 5200SOL    HW118493   5.862   9.887   5.559  0.4585  0.9315  1.3671
 5200SOL    HW218494   5.770   9.816   5.656 -0.4109 -0.4790 -0.4265
 5201SOL     OW18495   4.222   1.905   6.906  0.2394 -0.1954 -0.2401
 5201SOL    HW118496   4.259   1.915   6.994 -1.1035  0.3757  0.2946
 5201SOL    HW218497   4.291   1.862   6.855  1.7285  1.0544  0.6190
 5202SOL     OW18498   6.114   1.841  10.470 -0.3552 -0.4168  0.1743
 5202SOL    HW118499   6.187   1.890  10.507 -1.0598  2.1178 -1.5465
 5202SOL    HW218500   6.123   1.753  10.507  1.3032  0.8043  3.0212
 5203SOL     OW18501   9.216   1.397   7.040  0.0901 -0.0519 -0.5637
 5203SOL    HW118502   9.186   1.419   7.128  0.2139 -2.4734  0.1447
 5203SOL    HW218503   9.165   1.455   6.983 -0.9277  0.6772  1.0100
 5204SOL     OW18504   9.431   8.386   0.067 -0.0174  0.5542  0.3927
 5204SOL    HW118505   9.464   8.397   0.156 -0.0245 -0.9799  0.6076
 5204SOL    HW218506   9.356   8.446   0.061  0.7114  1.5441  1.0081
 5205SOL     OW18507   8.766   6.155   1.685  0.1978  0.1873 -0.5370
 5205SOL    HW118508   8.677   6.150   1.650  0.0125 -0.0491 -0.0464
 5205SOL    HW218509   8.822   6.159   1.608 -0.2312  0.1651 -0.8530
 5206SOL     OW18510   3.226   1.731   4.066 -0.2841 -0.3842  0.1906
 5206SOL    HW118511   3.268   1.661   4.016  2.5701  0.1360  1.6757
 5206SOL    HW218512   3.263   1.723   4.154 -0.1173  2.7341  0.5109
 5207SOL     OW18513   1.366   8.777   1.001 -0.6176  0.9198 -0.4415
 5207SOL    HW118514   1.429   8.705   1.001 -0.4156  1.0779  0.7727
 5207SOL    HW218515   1.332   8.779   1.090 -2.4370  0.7713 -1.0993
 5208SOL     OW18516   2.659   9.250   0.754 -0.3434 -0.1208  0.3564
 5208SOL    HW118517   2.663   9.173   0.698 -1.8372 -1.6389  2.2006
 5208SOL    HW218518   2.694   9.221   0.838 -1.0780  1.1484  1.1456
 5209SOL     OW18519   9.161   0.023   2.886 -0.7383 -0.3677  0.9137
 5209SOL    HW118520   9.132   0.068   2.965  0.1219 -0.7441  1.4592
 5209SOL    HW218521   9.114   0.066   2.815  0.8075  2.1280  1.2906
 5210SOL     OW18522   6.058   1.246   5.347 -0.0274 -0.3584  0.2422
 5210SOL    HW118523   5.998   1.181   5.310  1.2224 -2.1787  1.2482
 5210SOL    HW218524   6.007   1.290   5.414 -1.6935  1.5865 -2.1252
 5211SOL     OW18525   9.485   2.423   1.536 -0.3156  0.5099 -0.3447
 5211SOL    HW118526   9.427   2.499   1.546  0.1511  0.8392 -0.1073
 5211SOL    HW218527   9.433   2.360   1.487 -0.7225  0.9719 -0.5205
 5212SOL     OW18528   3.708   5.942   8.584  0.2526  0.4098  0.2992
 5212SOL    HW118529   3.623   5.948   8.540 -0.0458  1.8652  1.0104
 5212SOL    HW218530   3.744   5.858   8.557 -2.2178 -1.1055  1.3886
 5213SOL     OW18531   1.423   1.886   4.620  0.1837 -0.3704  0.3136
 5213SOL    HW118532   1.502   1.847   4.585  1.3809  1.8016  0.3935
 5213SOL    HW218533   1.396   1.950   4.554  0.9787  1.9157  2.0606
 5214SOL     OW18534   0.593   3.901   8.248  0.2498  0.5085  0.3816
 5214SOL    HW118535   0.511   3.945   8.227 -0.4945 -1.2946 -0.7175
 5214SOL    HW218536   0.651   3.921   8.174  0.2597  0.4922  0.3845
 5215SOL     OW18537   3.789   7.472   4.956  0.6497  0.2805  0.2523
 5215SOL    HW118538   3.770   7.412   5.028  0.2826 -1.2316 -1.0402
 5215SOL    HW218539   3.703   7.503   4.927  0.7027 -0.0029 -0.2297
 5216SOL     OW18540   6.107   6.028   6.992 -0.1840  0.3866  0.0377
 5216SOL    HW118541   6.063   6.113   6.999 -0.1932  0.4274 -0.5150
 5216SOL    HW218542   6.065   5.984   6.918  1.6393  1.0026 -1.4575
 5217SOL     OW18543   9.383   7.545   4.681 -0.0896 -0.2147 -0.4681
 5217SOL    HW118544   9.427   7.460   4.680  1.0901  0.2835  1.6279
 5217SOL    HW218545   9.304   7.531   4.734  1.1363  0.3692  1.6200
 5218SOL     OW18546   9.802   5.319   5.742 -0.1682  0.1478  0.2474
 5218SOL    HW118547   9.760   5.247   5.789  0.0818  0.5672  1.1209
 5218SOL    HW218548   9.732   5.384   5.732 -0.0854  0.2786  0.5097
 5219SOL     OW18549   3.461   6.560   8.122 -0.0161  0.0864  0.3190
 5219SOL    HW118550   3.398   6.614   8.073  0.0658  0.0209  0.1433
 5219SOL    HW218551   3.420   6.474   8.127 -0.8301  0.5148  1.8625
 5220SOL     OW18552   0.407   1.087   2.049  0.2564 -0.3200 -0.4089
 5220SOL    HW118553   0.340   1.086   2.118 -0.1146  0.3802 -0.7447
 5220SOL    HW218554   0.408   0.998   2.015  0.1921 -0.5848  0.2592
 5221SOL     OW18555   4.367   1.799   8.336  0.3001 -0.7203 -0.3088
 5221SOL    HW118556   4.437   1.781   8.399  0.0871 -0.7705 -0.0825
 5221SOL    HW218557   4.373   1.728   8.272  0.3995 -0.7735 -0.2408
 5222SOL     OW18558   1.319   3.695   8.296  0.1362 -0.0012  0.0661
 5222SOL    HW118559   1.271   3.769   8.332 -1.5557  0.8840 -3.6450
 5222SOL    HW218560   1.387   3.734   8.241  0.2371 -1.2115 -0.7179
 5223SOL     OW18561   4.859   2.103   9.202 -0.2578 -0.3843 -0.7644
 5223SOL    HW118562   4.830   2.171   9.142  0.6162  1.3994  0.7310
 5223SOL    HW218563   4.868   2.147   9.287  2.4917 -1.8264 -0.1843
 5224SOL     OW18564  10.115   8.538   8.673  0.2849 -0.0904  0.3112
 5224SOL    HW118565  10.078   8.514   8.588 -1.0940 -0.3005  0.9394
 5224SOL    HW218566  10.166   8.617   8.655 -0.2758  0.0806 -0.6472
 5225SOL     OW18567   4.277   7.115   6.784  0.6482 -0.4469 -0.3056
 5225SOL    HW118568   4.303   7.184   6.724 -3.2542  0.5544 -1.1460
 5225SOL    HW218569   4.207   7.154   6.837 -0.3592 -3.1254  0.5366
 5226SOL     OW18570   0.329   9.500   6.592 -0.0897  0.0060  0.0766
 5226SOL    HW118571   0.302   9.590   6.572  0.2262  0.2951  0.9117
 5226SOL    HW218572   0.404   9.485   6.535 -0.6650 -0.0391 -0.6877
 5227SOL     OW18573   2.210   3.071   2.492  0.3342  0.8385  0.1648
 5227SOL    HW118574   2.304   3.079   2.474  0.6025 -0.9689  0.5281
 5227SOL    HW218575   2.173   3.155   2.466  2.1781  1.9223  0.8454
 5228SOL     OW18576  10.473   2.172   5.025  0.6139 -0.5905  0.1015
 5228SOL    HW118577  10.439   2.089   5.059  1.0445 -0.5824  0.5730
 5228SOL    HW218578  10.438   2.178   4.936 -0.3714 -0.7131  0.4665
 5229SOL     OW18579   1.947   0.892   3.593 -0.3043 -0.1054 -0.1345
 5229SOL    HW118580   1.910   0.931   3.672  0.4925  1.1283 -0.3316
 5229SOL    HW218581   1.936   0.798   3.605 -0.9142  0.0955  1.0738
 5230SOL     OW18582   7.890   5.808   9.800 -0.1507  0.1151 -0.8685
 5230SOL    HW118583   7.928   5.893   9.778  0.6632  0.1776  0.7021
 5230SOL    HW218584   7.823   5.828   9.866 -0.8033 -0.3454 -1.3761
 5231SOL     OW18585   4.862   8.511   8.324  0.2731  0.6793  0.2591
 5231SOL    HW118586   4.834   8.602   8.332  0.5000  0.6225  1.9147
 5231SOL    HW218587   4.917   8.510   8.245  0.5143  2.0246  0.3854
 5232SOL     OW18588   0.040   9.000   4.497 -0.9517  0.3435  0.0797
 5232SOL    HW118589   0.082   9.068   4.443 -0.2066 -1.2954 -1.5177
 5232SOL    HW218590  -0.000   8.941   4.434 -0.5037 -1.3780  1.3346
 5233SOL     OW18591   7.911   9.187   1.497  0.0596  0.0771  0.7799
 5233SOL    HW118592   7.821   9.167   1.521  0.0899 -1.4362 -0.2345
 5233SOL    HW218593   7.964   9.133   1.556  0.2640  0.0196  0.5445
 5234SOL     OW18594  10.349   3.154   9.692  0.3353  0.1773 -0.2541
 5234SOL    HW118595  10.365   3.102   9.771 -1.6173  1.7814  1.3455
 5234SOL    HW218596  10.256   3.140   9.673  0.1496  1.7860 -0.7010
 5235SOL     OW18597   3.140   4.564   1.907  0.1176  0.0408  0.0436
 5235SOL    HW118598   3.070   4.593   1.966  1.4168  1.5428  0.9108
 5235SOL    HW218599   3.121   4.608   1.824 -0.7962 -0.8005 -0.2289
 5236SOL     OW18600   6.720   9.729   4.045  0.2737 -0.3218  0.2829
 5236SOL    HW118601   6.677   9.644   4.040 -2.5407  0.9838  0.6357
 5236SOL    HW218602   6.706   9.758   4.135  2.1434  0.1087  0.4855
 5237SOL     OW18603   1.425   1.185   1.013  0.2477  0.7089  0.1058
 5237SOL    HW118604   1.478   1.257   1.048 -0.3192  0.6141  1.1732
 5237SOL    HW218605   1.473   1.106   1.039  0.4183  0.6663 -0.3262
 5238SOL     OW18606  10.439  10.751   9.000 -0.7239 -0.6009  0.5178
 5238SOL    HW118607  10.459  10.679   8.940 -0.1704  1.1670 -1.5307
 5238SOL    HW218608  10.498  10.737   9.074 -1.1890 -2.6587  0.5630
 5239SOL     OW18609   3.954   8.333   6.583  0.4574 -0.1825 -0.2311
 5239SOL    HW118610   3.956   8.349   6.678  1.0628  1.5861 -0.5154
 5239SOL    HW218611   4.000   8.249   6.573 -1.8992 -1.7864  1.2401
 5240SOL     OW18612   6.758   5.612   4.559  0.5194  0.2561 -0.2175
 5240SOL    HW118613   6.745   5.694   4.607  0.0563  0.0875 -0.0459
 5240SOL    HW218614   6.670   5.584   4.535  0.7560  0.4464 -1.3685
 5241SOL     OW18615   2.837   0.396   2.565  0.1724  0.2354  0.1308
 5241SOL    HW118616   2.900   0.374   2.634 -1.4847  0.7515  1.8931
 5241SOL    HW218617   2.845   0.491   2.555  0.3137  0.1791 -0.2985
 5242SOL     OW18618   7.028   0.136   2.376 -0.0871 -0.4894  0.6014
 5242SOL    HW118619   6.942   0.177   2.384  0.5865  0.9140  1.1359
 5242SOL    HW218620   7.064   0.139   2.465  0.3999 -1.3239  0.4387
 5243SOL     OW18621   6.270   2.040   0.133 -0.8197 -0.6646 -0.1006
 5243SOL    HW118622   6.228   2.101   0.194  0.1901  0.7734 -0.7586
 5243SOL    HW218623   6.360   2.074   0.125 -0.1132 -2.4541 -0.2599
 5244SOL     OW18624   2.679   1.872   8.072  0.7220 -0.0941 -0.1223
 5244SOL    HW118625   2.697   1.795   8.018  0.9757 -1.0740  1.2988
 5244SOL    HW218626   2.584   1.886   8.062  0.3703 -1.5909  0.8328
 5245SOL     OW18627   9.520   4.816   8.330 -0.2064  0.4570  0.2871
 5245SOL    HW118628   9.515   4.879   8.402 -2.1790  2.3969 -1.3953
 5245SOL    HW218629   9.450   4.753   8.347  0.3188  0.0007  0.8118
 5246SOL     OW18630   4.014   0.834   0.785  0.0015  0.6548 -0.2494
 5246SOL    HW118631   3.944   0.799   0.729 -1.5464 -0.3148  2.1071
 5246SOL    HW218632   4.006   0.929   0.777  0.7605  0.5758 -2.6746
 5247SOL     OW18633   7.934   1.592   2.355  0.1471 -0.1625 -0.3688
 5247SOL    HW118634   7.977   1.523   2.405  0.0337 -1.7225 -2.3034
 5247SOL    HW218635   7.850   1.605   2.399  1.6114  1.4653  2.2268
 5248SOL     OW18636   9.224   2.020   2.288  0.0544  0.2485 -0.6184
 5248SOL    HW118637   9.298   2.071   2.255 -1.5973  1.4511 -2.7095
 5248SOL    HW218638   9.167   2.085   2.329 -0.9709 -0.2674 -1.2029
 5249SOL     OW18639   1.971   8.018   9.467 -0.5131  0.0931 -0.4857
 5249SOL    HW118640   1.999   8.105   9.495  1.4304 -0.4952 -0.4332
 5249SOL    HW218641   1.964   7.967   9.548 -3.3018  0.5790 -0.3399
 5250SOL     OW18642   5.726   1.850   8.541 -0.1660 -0.7040  0.7924
 5250SOL    HW118643   5.802   1.908   8.554 -0.7652  0.5194 -0.8364
 5250SOL    HW218644   5.765   1.764   8.525  1.0063  0.1231 -1.2630
 5251SOL     OW18645   2.812   8.997   8.148 -0.1338  0.2352  0.5340
 5251SOL    HW118646   2.888   8.940   8.136 -0.0391  0.8696 -2.7940
 5251SOL    HW218647   2.849   9.079   8.181  0.6683  0.5103 -0.9738
 5252SOL     OW18648   6.962   6.463   4.580 -0.3958 -1.0254  0.0697
 5252SOL    HW118649   6.997   6.382   4.618 -1.4294 -1.6375 -0.2252
 5252SOL    HW218650   6.958   6.524   4.653  1.2849 -0.9202  0.0977
 5253SOL     OW18651   9.551   6.993   7.436  0.2390  0.0826  0.1832
 5253SOL    HW118652   9.465   6.968   7.403  0.8221 -0.3887 -1.0483
 5253SOL    HW218653   9.562   7.084   7.409 -0.1455  0.3644  0.9509
 5254SOL     OW18654   5.923   9.811   6.768  0.4349 -0.4185  0.6785
 5254SOL    HW118655   5.978   9.750   6.718 -1.1407 -1.2867 -0.0667
 5254SOL    HW218656   5.985   9.859   6.824  2.0802 -0.4931 -0.9834
 5255SOL     OW18657  10.752   3.306   9.923 -0.8225  0.0406  0.7934
 5255SOL    HW118658  10.758   3.261  10.007 -2.7247  0.0219  0.9600
 5255SOL    HW218659  10.658   3.312   9.906 -0.4734 -0.2131 -1.4745
 5256SOL     OW18660   6.865   7.803   7.746 -0.1761 -0.3569  0.1922
 5256SOL    HW118661   6.936   7.826   7.686 -0.1553 -2.1213 -0.5253
 5256SOL    HW218662   6.902   7.818   7.834  0.5632  0.1223 -0.1887
 5257SOL     OW18663   3.063   5.447   4.783 -0.1069 -0.2989  0.2708
 5257SOL    HW118664   2.980   5.478   4.820  0.1517  0.4789  0.2314
 5257SOL    HW218665   3.128   5.506   4.820  0.3922 -0.7224  0.0705
 5258SOL     OW18666   0.009  10.406   3.118  0.2162 -0.3713 -0.3288
 5258SOL    HW118667  -0.034  10.370   3.040  1.3031 -1.4463 -0.4467
 5258SOL    HW218668  -0.012  10.500   3.116 -3.2157 -0.9793  0.3163
 5259SOL     OW18669   5.564   1.510   8.085 -0.4758 -0.1170  0.0815
 5259SOL    HW118670   5.575   1.534   7.993 -0.2226  2.0412  0.6215
 5259SOL    HW218671   5.469   1.506   8.097 -0.5083 -1.0764 -0.4098
 5260SOL     OW18672   2.370   2.161   4.708 -0.6011  0.4792 -0.0030
 5260SOL    HW118673   2.433   2.177   4.779  0.0967  1.3434 -0.7952
 5260SOL    HW218674   2.416   2.102   4.649 -1.0189  0.1076  0.0424
 5261SOL     OW18675   4.187   7.960   0.935 -0.4217  0.2776 -0.2337
 5261SOL    HW118676   4.259   8.021   0.950  0.6999 -1.2987  1.1672
 5261SOL    HW218677   4.134   8.001   0.867  0.8261  2.3120 -0.0454
 5262SOL     OW18678   1.739  10.266   6.346  0.4917  0.0552 -0.6243
 5262SOL    HW118679   1.834  10.278   6.345  0.3858  1.0298 -0.1270
 5262SOL    HW218680   1.704  10.351   6.374 -0.5714 -0.0441 -1.5657
 5263SOL     OW18681   4.708   7.728   0.618  0.1473 -0.1255 -0.4511
 5263SOL    HW118682   4.675   7.675   0.545 -1.8197  0.7447 -0.2513
 5263SOL    HW218683   4.765   7.793   0.577 -1.3264  0.6707 -1.3168
 5264SOL     OW18684   5.836   6.115  10.019  0.4152  0.0299 -0.2896
 5264SOL    HW118685   5.844   6.039   9.961 -0.2376 -2.0055  2.0868
 5264SOL    HW218686   5.926   6.144  10.034  0.7562 -0.9033 -0.4807
 5265SOL     OW18687   7.758   9.929   3.925  0.6339  0.2362 -0.2159
 5265SOL    HW118688   7.837   9.937   3.979  0.2390  2.2898  0.1626
 5265SOL    HW218689   7.689   9.904   3.987  0.7875 -0.6165 -0.3776
 5266SOL     OW18690   6.686   3.130   1.399 -0.0418  0.5286  0.4488
 5266SOL    HW118691   6.628   3.206   1.393 -0.0014  0.5088 -0.4031
 5266SOL    HW218692   6.657   3.073   1.328  2.0812  1.2915 -1.1456
 5267SOL     OW18693   5.466   1.280   8.949  0.2704 -0.6086  0.5638
 5267SOL    HW118694   5.441   1.229   8.872  1.7852  0.9361 -1.0689
 5267SOL    HW218695   5.392   1.338   8.965 -0.0684 -0.9654  0.2969
 5268SOL     OW18696   5.706   4.295   2.868  0.2768 -0.2077 -0.0257
 5268SOL    HW118697   5.796   4.278   2.839 -0.7175 -4.1836 -1.4777
 5268SOL    HW218698   5.692   4.233   2.939 -1.2364  0.5520  0.3680
 5269SOL     OW18699   5.037   6.684  10.562  0.1187  0.3276  0.2757
 5269SOL    HW118700   4.961   6.627  10.573  0.1818  0.3205  0.6894
 5269SOL    HW218701   5.069   6.699  10.651  1.0875 -0.3219  0.0434
 5270SOL     OW18702   9.028  10.583  10.293 -0.4287  0.6671  0.1536
 5270SOL    HW118703   9.095  10.523  10.259  1.1903  1.6990  1.3353
 5270SOL    HW218704   9.025  10.654  10.229  0.3047  1.0531  0.5253
 5271SOL     OW18705   3.462   8.755   1.274 -0.3978 -0.1671 -0.3420
 5271SOL    HW118706   3.531   8.705   1.316  0.4197  1.4722  0.3771
 5271SOL    HW218707   3.474   8.739   1.180  2.0352  1.3092 -0.3734
 5272SOL     OW18708   3.950   6.239   3.669  0.6527 -0.6861 -0.3200
 5272SOL    HW118709   3.915   6.188   3.595  1.1343 -1.1752 -0.2201
 5272SOL    HW218710   4.039   6.260   3.644  0.1140  1.1299 -0.8575
 5273SOL     OW18711   1.820   2.352   3.400 -0.2961  0.3394 -1.2260
 5273SOL    HW118712   1.819   2.418   3.469 -2.5951 -1.1078  0.2615
 5273SOL    HW218713   1.901   2.304   3.414  0.2338  1.3140 -0.8263
 5274SOL     OW18714   9.231   1.804   1.964 -0.3293 -0.4017  0.5753
 5274SOL    HW118715   9.212   1.876   1.904  0.0084  0.7477  1.7974
 5274SOL    HW218716   9.169   1.735   1.940  0.0369 -0.1207 -1.2994
 5275SOL     OW18717   2.931   1.514   4.920 -0.2720  0.6395  0.1501
 5275SOL    HW118718   2.930   1.603   4.885  0.4183  1.0198  1.0604
 5275SOL    HW218719   2.971   1.461   4.851  1.0612  1.3711  0.3346
 5276SOL     OW18720   5.986   7.623   2.071  1.1678 -0.0789 -0.0807
 5276SOL    HW118721   5.941   7.697   2.112 -0.2966 -0.6828 -0.5083
 5276SOL    HW218722   6.037   7.584   2.141  0.5336  0.2828  0.5992
 5277SOL     OW18723   9.541   6.230   1.914  0.4783 -0.0001  0.1629
 5277SOL    HW118724   9.590   6.272   1.843  1.7822  0.0636  1.0753
 5277SOL    HW218725   9.608   6.192   1.970 -0.6246 -3.0287 -0.3981
 5278SOL     OW18726  10.135  10.789   6.701 -0.6242 -0.1962 -0.5439
 5278SOL    HW118727  10.134  10.878   6.665  0.8554  0.1978  0.3240
 5278SOL    HW218728  10.139  10.732   6.624  1.0506  0.5861 -1.0899
 5279SOL     OW18729   2.731   5.208   1.010  0.2273 -0.3099  0.5423
 5279SOL    HW118730   2.818   5.249   1.015  0.3235 -0.2852 -0.9972
 5279SOL    HW218731   2.748   5.115   1.019  0.7956 -0.5986 -2.5024
 5280SOL     OW18732   7.362   0.612   1.404  0.0862  0.4460  0.1264
 5280SOL    HW118733   7.324   0.684   1.455 -1.2940  0.7480 -1.2802
 5280SOL    HW218734   7.295   0.588   1.341  1.4146 -0.5200 -0.9868
 5281SOL     OW18735   5.859   9.984   4.976  0.2206 -0.2033  0.3142
 5281SOL    HW118736   5.917  10.046   5.020  0.0030  0.0356  0.2672
 5281SOL    HW218737   5.817  10.035   4.907 -0.4034 -0.2491  0.6502
 5282SOL     OW18738   9.219   8.613   0.851  0.6251  0.0253  0.6433
 5282SOL    HW118739   9.274   8.557   0.907  0.9203  0.2190  0.5472
 5282SOL    HW218740   9.168   8.666   0.913  1.6825  0.9568  0.7393
 5283SOL     OW18741   3.724   5.101   4.054 -0.0216 -0.2844  0.0702
 5283SOL    HW118742   3.673   5.034   4.009  1.1720 -0.9812 -0.2724
 5283SOL    HW218743   3.697   5.094   4.146  2.1743 -3.3230  0.6435
 5284SOL     OW18744  10.753   7.034   5.274 -0.2304  0.0963  0.3464
 5284SOL    HW118745  10.777   7.027   5.182  0.3178 -1.4932  0.5824
 5284SOL    HW218746  10.713   7.121   5.282  0.1267  0.4373 -1.2801
 5285SOL     OW18747   2.028  10.164   7.253  0.2492 -0.4531 -0.0450
 5285SOL    HW118748   2.009  10.149   7.161 -0.9119 -2.5913  0.4901
 5285SOL    HW218749   2.008  10.257   7.267  1.9072  0.3131 -2.2283
 5286SOL     OW18750   3.949  10.648   1.152 -0.5238 -0.5867 -0.3382
 5286SOL    HW118751   3.919  10.591   1.081  0.9990 -0.7661 -0.8776
 5286SOL    HW218752   3.982  10.588   1.219  1.0097 -0.3830 -0.8755
 5287SOL     OW18753   3.167   5.983   8.777  0.4662 -0.5474 -0.0405
 5287SOL    HW118754   3.102   5.921   8.746  1.3612 -1.5009 -0.0386
 5287SOL    HW218755   3.251   5.938   8.768  1.1754  0.7663 -0.3299
 5288SOL     OW18756   3.206   9.472   1.018 -0.1737  0.2741 -0.7518
 5288SOL    HW118757   3.287   9.523   1.014 -1.1463  2.0368  0.5916
 5288SOL    HW218758   3.139   9.535   1.043 -1.6474 -1.4735 -0.0634
 5289SOL     OW18759   5.505   0.960  10.243 -0.0762 -0.8503  1.1729
 5289SOL    HW118760   5.466   1.047  10.250  0.2888 -0.7947  3.1685
 5289SOL    HW218761   5.599   0.975  10.246  0.1317 -1.1349 -1.5874
 5290SOL     OW18762   7.646  10.125   4.770  0.1840 -0.2754 -0.2017
 5290SOL    HW118763   7.582  10.167   4.713 -0.0747 -0.0570  0.2360
 5290SOL    HW218764   7.602  10.120   4.855  0.8949  0.2574  0.2065
 5291SOL     OW18765   6.933   1.062   7.191 -0.3437  0.2009  0.0469
 5291SOL    HW118766   6.964   0.972   7.203 -0.6437 -0.2511 -2.0843
 5291SOL    HW218767   7.007   1.117   7.216  0.8300 -0.7569 -1.1553
 5292SOL     OW18768   9.827   1.146  10.322  0.1709  0.1770  0.5994
 5292SOL    HW118769   9.900   1.096  10.359 -0.0978 -0.5851  0.1275
 5292SOL    HW218770   9.774   1.080  10.277 -0.6542  0.7631  0.6911
 5293SOL     OW18771   0.061   5.003   3.236  0.0936 -0.1319 -0.1708
 5293SOL    HW118772  -0.019   5.008   3.288  0.1786  0.4128 -0.0851
 5293SOL    HW218773   0.131   5.014   3.301  0.2596 -1.0131 -0.1826
 5294SOL     OW18774   8.930   3.777   9.792 -0.6068  0.3099 -0.3565
 5294SOL    HW118775   8.846   3.817   9.775 -0.4436  1.3307  1.0323
 5294SOL    HW218776   8.914   3.683   9.786 -1.2602  0.5151 -2.5119
 5295SOL     OW18777   0.944   8.065   1.943 -0.5478  0.1178  0.3990
 5295SOL    HW118778   1.025   8.029   1.981 -0.7746 -1.2036 -0.2963
 5295SOL    HW218779   0.917   8.132   2.005  1.9478  1.7727 -0.1435
 5296SOL     OW18780   5.898   0.821  10.448 -0.4739  0.1180  0.5472
 5296SOL    HW118781   5.958   0.752  10.420 -0.8217  0.7404 -1.9547
 5296SOL    HW218782   5.935   0.853  10.530  1.4464 -0.8952  0.1436
 5297SOL     OW18783   9.994   8.937   8.546 -0.2690  0.3954 -0.1955
 5297SOL    HW118784   9.924   8.902   8.601 -0.5225 -1.1871 -1.4258
 5297SOL    HW218785  10.075   8.909   8.589 -0.4586 -0.4108 -0.3366
 5298SOL     OW18786   1.355   1.196   3.142 -0.0978 -0.5751  0.2372
 5298SOL    HW118787   1.442   1.154   3.144  0.3587  0.3649  1.0947
 5298SOL    HW218788   1.364   1.272   3.200 -1.8114 -1.0672  1.2012
 5299SOL     OW18789   4.849   4.248   0.514  0.0657 -0.3433  0.0112
 5299SOL    HW118790   4.910   4.239   0.587 -1.9880  0.5754  1.9926
 5299SOL    HW218791   4.767   4.276   0.555 -1.3439 -0.2475 -2.6312
 5300SOL     OW18792   4.339   7.648   8.916 -1.1602  0.3802  0.3510
 5300SOL    HW118793   4.326   7.584   8.847 -1.5969  1.9745 -1.1193
 5300SOL    HW218794   4.289   7.725   8.888 -1.5926  0.9942  2.5928
 5301SOL     OW18795  10.283   4.183   2.146  0.0860  0.4429  0.1753
 5301SOL    HW118796  10.192   4.211   2.150  0.4905  1.8331  0.4751
 5301SOL    HW218797  10.280   4.095   2.110 -1.3614  0.5201  0.0508
 5302SOL     OW18798   1.603   8.445   3.595 -0.3119  0.4813  0.4571
 5302SOL    HW118799   1.531   8.389   3.624 -1.3863  1.1086 -0.8987
 5302SOL    HW218800   1.680   8.388   3.598 -1.5975 -1.6861 -2.4576
 5303SOL     OW18801   1.679   0.610   0.998 -0.0364  0.5078  0.0139
 5303SOL    HW118802   1.630   0.643   0.923 -2.0523  0.8227  1.3663
 5303SOL    HW218803   1.721   0.530   0.967 -4.1093 -1.6837 -0.5126
 5304SOL     OW18804   1.527   0.860   5.065  0.3797  0.0747 -0.5436
 5304SOL    HW118805   1.606   0.807   5.076  0.8738  1.0050  0.7993
 5304SOL    HW218806   1.478   0.846   5.146  0.1791  1.0714 -0.4770
 5305SOL     OW18807   6.925   5.242   3.895  0.0457  0.1207 -0.0188
 5305SOL    HW118808   6.960   5.237   3.984  0.3303  1.1046 -0.0595
 5305SOL    HW218809   6.833   5.217   3.903  0.5483 -1.8172  0.2109
 5306SOL     OW18810   8.815   3.555   0.137  0.5660  0.0912  0.2307
 5306SOL    HW118811   8.728   3.546   0.098  1.1415 -0.0575 -1.0729
 5306SOL    HW218812   8.840   3.466   0.163  0.3766  0.1208  0.5197
 5307SOL     OW18813   0.681  10.642   1.329 -0.1154 -0.1162 -0.0610
 5307SOL    HW118814   0.752  10.590   1.368 -0.3128  0.1761  0.7057
 5307SOL    HW218815   0.660  10.596   1.247  0.6714 -0.4415 -0.0957
 5308SOL     OW18816   6.850   9.466   3.447  0.2207  0.3357 -0.7044
 5308SOL    HW118817   6.867   9.427   3.533  0.8227 -1.5447 -1.6159
 5308SOL    HW218818   6.758   9.447   3.429  0.6985 -1.4630 -1.4712
 5309SOL     OW18819   8.227   0.225   4.390 -0.3297 -0.1112  0.1434
 5309SOL    HW118820   8.283   0.303   4.399 -1.5153  0.7873 -0.0321
 5309SOL    HW218821   8.194   0.230   4.300 -0.4031 -0.8368  0.1275
 5310SOL     OW18822   7.163   3.964   6.410 -0.4107 -0.2763  0.2519
 5310SOL    HW118823   7.141   4.056   6.423 -0.2418 -0.2946  0.7114
 5310SOL    HW218824   7.134   3.944   6.321  2.1701  0.9917 -0.9741
 5311SOL     OW18825   6.834   8.782   8.219  0.5453 -0.0422 -0.0297
 5311SOL    HW118826   6.797   8.806   8.134  0.2951 -1.6969 -0.4382
 5311SOL    HW218827   6.855   8.865   8.261 -1.6220  0.9174 -0.6862
 5312SOL     OW18828   0.190   7.119   8.414 -0.5906 -0.4930 -0.4604
 5312SOL    HW118829   0.135   7.114   8.336  1.0101 -0.7020 -1.6295
 5312SOL    HW218830   0.198   7.212   8.432 -2.4059 -0.4958  0.5639
 5313SOL     OW18831   1.068   4.654   0.477  0.0013  0.4549 -0.1781
 5313SOL    HW118832   1.006   4.714   0.519 -0.0819  1.2218 -1.3500
 5313SOL    HW218833   1.152   4.675   0.519  0.5435  3.4127 -2.3983
 5314SOL     OW18834   9.095   5.413  10.356  0.0352  0.3336 -0.0973
 5314SOL    HW118835   9.057   5.474  10.293  0.5909 -0.4670 -1.2348
 5314SOL    HW218836   9.109   5.466  10.434 -0.2352  1.4674 -0.7927
 5315SOL     OW18837   4.321   4.156   7.824  0.0360  0.6435  0.1972
 5315SOL    HW118838   4.275   4.239   7.833  1.6785  1.4002  2.4570
 5315SOL    HW218839   4.372   4.147   7.905 -0.1285 -2.6099  0.0920
 5316SOL     OW18840  10.392   9.907   3.524 -0.3942 -0.3542 -0.1767
 5316SOL    HW118841  10.348   9.890   3.607  0.2742 -0.5772  0.1347
 5316SOL    HW218842  10.426   9.996   3.533 -1.0599 -0.0556 -0.5473
 5317SOL     OW18843   3.408   8.435   4.702  0.2867 -0.5001 -0.1573
 5317SOL    HW118844   3.368   8.358   4.743  0.4164 -0.2411  0.4631
 5317SOL    HW218845   3.492   8.403   4.668  2.0001  0.0657  3.1327
 5318SOL     OW18846   0.340  10.007   9.719 -0.1175 -0.3154  0.3339
 5318SOL    HW118847   0.410  10.062   9.686  0.3986 -0.8228  0.5735
 5318SOL    HW218848   0.263  10.064   9.719 -0.2045 -0.3332 -1.9300
 5319SOL     OW18849   5.304  10.446   7.206  0.3579 -0.4311  0.1665
 5319SOL    HW118850   5.313  10.353   7.185 -1.8961 -0.7723  0.5549
 5319SOL    HW218851   5.392  10.482   7.192  1.7445 -2.9439  1.7528
 5320SOL     OW18852   2.899   4.397   7.725 -0.5537 -0.4188  0.2203
 5320SOL    HW118853   2.859   4.326   7.776  1.1713 -1.6452 -0.0286
 5320SOL    HW218854   2.885   4.370   7.633  0.6273 -0.7869  0.1301
 5321SOL     OW18855   3.493   2.329   1.758 -0.3487 -0.1752  0.0858
 5321SOL    HW118856   3.568   2.307   1.704  0.1729  1.0825  0.2818
 5321SOL    HW218857   3.426   2.358   1.696 -0.3835 -0.4675 -0.0165
 5322SOL     OW18858   5.794  10.404   6.496  0.3610  0.1063 -0.4782
 5322SOL    HW118859   5.702  10.408   6.523 -0.0153 -1.2934 -1.4215
 5322SOL    HW218860   5.801  10.322   6.447  2.4078 -0.4584  0.6344
 5323SOL     OW18861   4.946   9.842   6.552 -0.6738  0.2092  0.2539
 5323SOL    HW118862   4.878   9.776   6.537 -0.8788  0.4236  0.2414
 5323SOL    HW218863   4.899   9.919   6.583 -0.4173  0.2935  0.4403
 5324SOL     OW18864   6.018   2.178   0.762  0.2070  0.0946  0.0868
 5324SOL    HW118865   6.006   2.245   0.829  0.5859  1.0061 -0.7333
 5324SOL    HW218866   5.944   2.190   0.703  0.1906 -0.3248  0.0142
 5325SOL     OW18867   2.862   8.132   0.108  0.0694 -0.2552 -0.6274
 5325SOL    HW118868   2.872   8.150   0.014  0.5385 -0.5197 -0.6327
 5325SOL    HW218869   2.780   8.085   0.115 -0.7682  1.1354 -0.7165
 5326SOL     OW18870   2.730   4.708   0.644  0.3776  0.1353  0.0063
 5326SOL    HW118871   2.659   4.747   0.695  0.1792  0.4390 -0.4974
 5326SOL    HW218872   2.741   4.766   0.569  1.0879  0.0326  0.0216
 5327SOL     OW18873   6.777   8.179   3.496 -0.0025 -0.4036  0.0890
 5327SOL    HW118874   6.804   8.128   3.572 -1.2627  0.4043  1.1295
 5327SOL    HW218875   6.730   8.254   3.533 -0.0542  0.3773 -1.4684
 5328SOL     OW18876  10.460   0.173   0.514 -0.4718 -0.6970  0.6173
 5328SOL    HW118877  10.456   0.170   0.609 -2.7978  2.3221  0.7570
 5328SOL    HW218878  10.550   0.198   0.494  0.2188 -2.0052  1.9433
 5329SOL     OW18879   7.326   1.950   2.126 -0.7142 -0.1745 -0.6023
 5329SOL    HW118880   7.388   1.913   2.189 -1.0586 -1.2023 -0.8501
 5329SOL    HW218881   7.242   1.913   2.151 -1.0724  0.4678 -0.8531
 5330SOL     OW18882   5.697   5.587   6.104 -0.0947  0.1755  0.1419
 5330SOL    HW118883   5.710   5.673   6.145  0.0425  0.1395  0.1734
 5330SOL    HW218884   5.660   5.607   6.018 -0.0076  0.2680  0.1260
 5331SOL     OW18885   0.121   1.761   2.042  0.0933  0.2534  0.0907
 5331SOL    HW118886   0.076   1.768   1.958  0.4647  1.1776 -0.0420
 5331SOL    HW218887   0.211   1.737   2.020 -0.0265 -0.4078  0.2881
 5332SOL     OW18888   9.846  10.479   1.651  0.7571 -0.1570 -0.1559
 5332SOL    HW118889   9.938  10.483   1.625  0.7463 -0.7465 -0.2829
 5332SOL    HW218890   9.815  10.395   1.618  0.2893 -0.1608  0.2876
 5333SOL     OW18891   3.409   8.670   5.164 -0.2599 -0.0295 -0.5065
 5333SOL    HW118892   3.416   8.693   5.256  0.0639 -2.1975  0.0494
 5333SOL    HW218893   3.316   8.683   5.143 -0.2971  0.6639  0.0518
 5334SOL     OW18894   9.265   9.917   8.484  0.8618 -0.0341 -0.1566
 5334SOL    HW118895   9.350   9.877   8.504  1.4725  1.6025  0.7756
 5334SOL    HW218896   9.215   9.909   8.565  0.8779  0.7675 -0.0595
 5335SOL     OW18897   7.299   4.220   6.695  0.3006  0.2840  0.5911
 5335SOL    HW118898   7.227   4.271   6.658  0.7171  0.8683  0.5763
 5335SOL    HW218899   7.373   4.281   6.697  0.9252 -0.4450  0.1607
 5336SOL     OW18900   8.257   9.613   3.222  0.2665  0.2401 -0.2197
 5336SOL    HW118901   8.326   9.659   3.270  0.0463  1.7079 -1.2467
 5336SOL    HW218902   8.176   9.640   3.266  0.0921  1.3148 -1.1627
 5337SOL     OW18903   8.438   0.728   4.949 -1.1694 -0.8238  0.0208
 5337SOL    HW118904   8.459   0.724   4.856 -0.8784  0.8564 -0.0187
 5337SOL    HW218905   8.495   0.797   4.984 -2.1352 -0.5727  1.1960
 5338SOL     OW18906   9.342   7.105   0.449 -0.2560 -0.0628  0.2545
 5338SOL    HW118907   9.387   7.020   0.444  1.2660  0.6979  0.3187
 5338SOL    HW218908   9.324   7.128   0.358  0.5609  0.1454  0.1339
 5339SOL     OW18909   3.921   3.872   5.163  0.0039 -0.4525  0.3150
 5339SOL    HW118910   3.967   3.890   5.246  0.7154  0.7490 -0.3107
 5339SOL    HW218911   3.839   3.920   5.170  0.0216 -0.4285  0.3538
 5340SOL     OW18912   6.081   4.379   8.914 -0.0083 -0.0792 -0.0286
 5340SOL    HW118913   6.002   4.402   8.865 -0.2650  0.5574  0.6629
 5340SOL    HW218914   6.092   4.285   8.901 -2.4420 -0.7668  2.0677
 5341SOL     OW18915   4.053   8.241   0.809  0.0413  0.1362 -0.0205
 5341SOL    HW118916   4.113   8.279   0.745  1.3017 -0.8738  0.4962
 5341SOL    HW218917   4.103   8.240   0.891 -1.7630  2.0224  1.2031
 5342SOL     OW18918   4.515   9.913   5.111 -0.3175  0.0492 -0.2058
 5342SOL    HW118919   4.444   9.918   5.047 -0.3530  0.4496 -0.1410
 5342SOL    HW218920   4.552   9.826   5.099 -1.1774 -0.3820  0.1391
 5343SOL     OW18921   4.076   9.575   5.068  0.1996 -0.0904  0.1970
 5343SOL    HW118922   4.001   9.597   5.123  0.4667 -0.0647  0.5555
 5343SOL    HW218923   4.044   9.586   4.978 -0.7020 -1.6694  0.2968
 5344SOL     OW18924   2.367  10.133   7.730 -0.4392 -0.3598  0.3863
 5344SOL    HW118925   2.321  10.065   7.779  0.3171 -1.0457  0.1692
 5344SOL    HW218926   2.441  10.156   7.785  0.8611 -1.6864 -0.7163
 5345SOL     OW18927   9.801   3.568   9.926  0.1442  0.0343 -0.2719
 5345SOL    HW118928   9.893   3.593   9.934  0.0146  0.9026 -1.3483
 5345SOL    HW218929   9.791   3.495   9.987  0.9691  1.4523  1.6963
 5346SOL     OW18930   5.095   1.262   4.975  0.0859  0.1715 -0.8848
 5346SOL    HW118931   5.170   1.206   4.996 -1.2733 -0.9102  1.4549
 5346SOL    HW218932   5.086   1.320   5.051  0.1942  2.2642 -2.3714
 5347SOL     OW18933   1.941   9.193   3.502 -0.7344 -0.1748  0.1107
 5347SOL    HW118934   1.860   9.178   3.454 -0.9331 -0.8090  0.6211
 5347SOL    HW218935   1.998   9.239   3.440 -0.3628 -2.4303 -1.3395
 5348SOL     OW18936   3.614   7.124   7.581 -0.2438  0.5380 -0.3955
 5348SOL    HW118937   3.702   7.088   7.580 -0.0965  0.9039 -1.1870
 5348SOL    HW218938   3.625   7.214   7.613  0.1006  1.5944 -3.2246
 5349SOL     OW18939   6.703   7.118   8.219 -0.0586 -0.3189 -0.4042
 5349SOL    HW118940   6.745   7.185   8.273  2.8484 -2.8214  0.6903
 5349SOL    HW218941   6.732   7.137   8.130 -1.0917  1.0829 -0.4838
 5350SOL     OW18942   9.596   2.053   0.951  0.0873 -0.0300 -0.0278
 5350SOL    HW118943   9.517   2.001   0.939  2.7129 -4.3536 -0.5644
 5350SOL    HW218944   9.606   2.063   1.046 -0.5631 -0.3231  0.0687
 5351SOL     OW18945   9.361   8.747   4.564  0.4878  0.8226  0.2202
 5351SOL    HW118946   9.403   8.716   4.484 -1.6711  0.2454 -0.7655
 5351SOL    HW218947   9.283   8.792   4.533 -0.3098  0.7358  2.0173
 5352SOL     OW18948   7.603   2.422   6.585  0.3644 -0.3316 -0.1627
 5352SOL    HW118949   7.695   2.448   6.579  0.0183  0.8176 -0.6369
 5352SOL    HW218950   7.564   2.452   6.503 -0.9896  1.4858  1.0743
 5353SOL     OW18951   8.492   1.986   0.065  0.0323  0.2106 -0.1101
 5353SOL    HW118952   8.465   1.943   0.147  0.7426 -0.3516 -0.1599
 5353SOL    HW218953   8.417   2.039   0.040 -0.3237  0.1267  0.7335
 5354SOL     OW18954   3.458   1.023   3.307 -0.4089 -0.6341 -0.4170
 5354SOL    HW118955   3.501   1.096   3.263  0.9816 -0.9552  0.3489
 5354SOL    HW218956   3.374   1.014   3.262 -0.1396  0.7130 -1.2475
 5355SOL     OW18957   8.886   8.876   7.867  0.5235 -0.1062  0.1528
 5355SOL    HW118958   8.826   8.928   7.813  0.7552 -0.1895 -0.1832
 5355SOL    HW218959   8.844   8.874   7.954  0.2761  0.2337  0.0419
 5356SOL     OW18960   0.781   9.371   4.066  0.1525 -0.0799  0.0394
 5356SOL    HW118961   0.761   9.290   4.020  1.0723 -0.4323  0.2402
 5356SOL    HW218962   0.738   9.439   4.014 -1.2713 -0.7439  0.2741
 5357SOL     OW18963   2.000   2.055   3.885 -0.7916  0.0638  0.4693
 5357SOL    HW118964   1.936   2.122   3.861 -0.9701 -0.2865 -0.0576
 5357SOL    HW218965   1.963   1.974   3.851 -0.9979 -0.4475  1.8374
 5358SOL     OW18966   1.543   9.260   0.121 -0.1951  0.4150  0.2724
 5358SOL    HW118967   1.525   9.291   0.209  0.4617 -1.3569  1.0752
 5358SOL    HW218968   1.625   9.211   0.128 -0.8888 -1.0440 -0.9785
 5359SOL     OW18969   4.597   8.857   4.892 -0.5484 -0.1214 -0.0175
 5359SOL    HW118970   4.583   8.777   4.842  1.1925  0.8907 -2.3390
 5359SOL    HW218971   4.691   8.858   4.910 -0.4075  1.6922 -0.6535
 5360SOL     OW18972   4.980   1.336   1.416  0.3052  0.1975  0.4567
 5360SOL    HW118973   4.956   1.409   1.474  1.7134 -0.4651  1.9561
 5360SOL    HW218974   5.032   1.278   1.471 -0.5985 -1.8704 -0.7488
 5361SOL     OW18975   1.671   3.447   0.995  0.0593  0.2361 -0.0775
 5361SOL    HW118976   1.725   3.393   0.937  1.6961  0.7554  0.8938
 5361SOL    HW218977   1.733   3.506   1.038 -1.0282 -0.3191  2.4137
 5362SOL     OW18978   9.977   8.303   2.375  0.0030  0.2519  0.1729
 5362SOL    HW118979  10.035   8.227   2.371 -0.1100  0.0919  1.1638
 5362SOL    HW218980  10.034   8.376   2.397  0.0503  0.3861 -0.3732
 5363SOL     OW18981   3.120   2.758   2.466 -1.1381 -0.2770  0.3310
 5363SOL    HW118982   3.063   2.835   2.465 -0.9541 -0.0898  1.6476
 5363SOL    HW218983   3.070   2.692   2.515 -0.9517 -0.7085 -0.0593
 5364SOL     OW18984   1.759   1.700   8.373 -0.3516 -0.1001  0.1323
 5364SOL    HW118985   1.809   1.742   8.443  2.7900 -2.4269 -0.4844
 5364SOL    HW218986   1.682   1.664   8.417  0.3418  0.4919  1.9377
 5365SOL     OW18987   8.239   1.016   1.393  0.3782 -0.0750  0.2055
 5365SOL    HW118988   8.296   1.082   1.355  1.0830 -0.0993  1.1826
 5365SOL    HW218989   8.263   0.935   1.348  0.4213  0.0929 -0.0774
 5366SOL     OW18990   2.050   6.664   2.169  0.4248 -0.2116  0.2183
 5366SOL    HW118991   1.980   6.620   2.120  1.0829 -0.8499 -0.1784
 5366SOL    HW218992   2.111   6.694   2.102  1.0033 -0.4988  0.6073
 5367SOL     OW18993   9.855   3.993   9.027  0.4783 -0.3182 -0.0325
 5367SOL    HW118994   9.797   3.919   9.038 -0.2070  0.3110  0.6936
 5367SOL    HW218995   9.799   4.070   9.035  0.8165  0.3120 -2.6928
 5368SOL     OW18996   3.329   4.213   0.838 -0.0944 -0.2125 -0.1794
 5368SOL    HW118997   3.403   4.160   0.865 -0.3785 -0.3330  0.3795
 5368SOL    HW218998   3.276   4.223   0.917 -0.6500 -0.0919 -0.5572
 5369SOL     OW18999   1.938   9.483   8.538 -0.2360 -0.2397  0.3653
 5369SOL    HW119000   1.888   9.526   8.608  0.9405  1.9127 -0.0325
 5369SOL    HW219001   1.872   9.455   8.475 -1.0401  1.3495  0.4733
 5370SOL     OW19002   2.875   4.136   3.926 -0.0300 -0.1435  0.0345
 5370SOL    HW119003   2.811   4.083   3.974 -0.9033  1.0928  0.2910
 5370SOL    HW219004   2.831   4.158   3.844  0.1556  0.5115  0.1041
 5371SOL     OW19005   3.469   0.745   1.347  0.1355  0.0756 -0.3658
 5371SOL    HW119006   3.415   0.698   1.412 -1.2409 -0.2252 -1.6756
 5371SOL    HW219007   3.517   0.675   1.302 -0.0052  0.1473 -0.6275
 5372SOL     OW19008   5.451   8.460   0.165 -0.0498  0.0414  0.7249
 5372SOL    HW119009   5.380   8.397   0.171 -0.8454  0.6227 -1.4021
 5372SOL    HW219010   5.496   8.437   0.083 -0.6255  2.3959 -0.3558
 5373SOL     OW19011   4.648   4.380   3.538 -0.0945 -0.0415 -0.5116
 5373SOL    HW119012   4.622   4.450   3.597 -0.9576  1.2921 -2.3895
 5373SOL    HW219013   4.700   4.424   3.470  2.9240 -1.8689  0.4252
 5374SOL     OW19014   8.907  10.538   6.466  0.0972  0.3876  0.2239
 5374SOL    HW119015   8.872  10.620   6.430 -0.7923  1.2341  2.7744
 5374SOL    HW219016   8.911  10.479   6.391  1.6369  2.9824 -1.9342
 5375SOL     OW19017   7.157  10.264   2.611  0.0606 -0.5024  0.0355
 5375SOL    HW119018   7.071  10.296   2.639  0.3763 -0.2604  0.7417
 5375SOL    HW219019   7.218  10.332   2.638  0.5341 -0.8823 -0.0585
 5376SOL     OW19020   7.188   3.349   4.797  0.2964  0.1017 -0.0894
 5376SOL    HW119021   7.214   3.360   4.706 -0.1882 -0.2584 -0.2782
 5376SOL    HW219022   7.102   3.392   4.803  1.1127  1.7598  0.6492
 5377SOL     OW19023   5.283   3.081  10.763  0.6712  0.2648  0.1524
 5377SOL    HW119024   5.211   3.055  10.706  2.2824 -0.2845 -1.7485
 5377SOL    HW219025   5.266   3.173  10.783  0.3460  0.6629 -1.7538
 5378SOL     OW19026   3.380   8.877   4.169 -0.6765 -0.2073  0.5317
 5378SOL    HW119027   3.422   8.958   4.139 -0.0976 -1.0234 -0.9837
 5378SOL    HW219028   3.414   8.864   4.257 -0.3309  0.9034  0.5811
 5379SOL     OW19029   8.131   6.363   6.195 -0.8767  0.3911 -0.1822
 5379SOL    HW119030   8.225   6.372   6.180 -1.0055 -0.3462 -1.6849
 5379SOL    HW219031   8.095   6.449   6.174 -0.6216  0.4284 -0.4734
 5380SOL     OW19032   9.454   6.547   3.137  0.3288 -0.4754 -0.3365
 5380SOL    HW119033   9.412   6.544   3.223 -0.4072  2.2988 -0.5162
 5380SOL    HW219034   9.546   6.565   3.157 -0.0819  1.5530 -0.1089
 5381SOL     OW19035   0.313   2.006   1.897 -0.1054 -0.5087  0.3014
 5381SOL    HW119036   0.344   2.087   1.937  3.5791 -1.0937 -0.9448
 5381SOL    HW219037   0.245   2.034   1.836 -0.0111  1.4022  0.9924
 5382SOL     OW19038   2.735   2.041   2.121 -0.1638 -0.0611 -0.0436
 5382SOL    HW119039   2.775   2.082   2.044 -1.3836 -0.7600 -1.1055
 5382SOL    HW219040   2.724   1.950   2.096  0.9027 -0.6766  1.6174
 5383SOL     OW19041   8.679   9.845   0.870  0.1840 -0.1812 -0.1787
 5383SOL    HW119042   8.690   9.925   0.922 -0.7733 -0.5976  0.6834
 5383SOL    HW219043   8.589   9.850   0.838  0.9205  0.3761 -2.3705
 5384SOL     OW19044   7.980   3.915   4.510 -0.1522 -0.0688 -0.6015
 5384SOL    HW119045   7.905   3.953   4.556  0.0318  1.3429 -1.3993
 5384SOL    HW219046   7.945   3.836   4.468 -0.9284  0.0068 -0.1030
 5385SOL     OW19047  10.521   2.695   9.409 -0.6383 -0.1362  0.0863
 5385SOL    HW119048  10.442   2.748   9.419 -1.4403 -1.4021  0.6199
 5385SOL    HW219049  10.593   2.758   9.416 -1.5433  0.7960  1.3354
 5386SOL     OW19050  10.488   2.843   4.793 -0.0176 -0.0836  0.0769
 5386SOL    HW119051  10.450   2.899   4.726  0.0339 -2.1483 -1.7967
 5386SOL    HW219052  10.531   2.903   4.854 -0.3048  1.8970 -1.5856
 5387SOL     OW19053   1.243   6.161  10.743 -0.6968  0.1889 -0.0453
 5387SOL    HW119054   1.178   6.156  10.813 -1.4688  1.6170 -0.6095
 5387SOL    HW219055   1.247   6.254  10.721  0.8169  0.0002 -0.7208
 5388SOL     OW19056   7.390   6.054   8.135  0.1117 -0.6707 -0.2742
 5388SOL    HW119057   7.348   6.138   8.154  1.3945  0.0611 -0.5075
 5388SOL    HW219058   7.352   5.993   8.197 -0.6224  0.1589  0.1127
 5389SOL     OW19059   2.009   2.680   1.820  0.2072 -0.0415  0.0733
 5389SOL    HW119060   2.103   2.676   1.801  0.1888 -1.2359  0.1726
 5389SOL    HW219061   2.003   2.738   1.896  0.7276  1.0357 -0.6782
 5390SOL     OW19062   3.138   6.952   6.497 -0.0752 -0.2689 -0.5119
 5390SOL    HW119063   3.163   6.921   6.411  0.9707  1.5563 -0.9173
 5390SOL    HW219064   3.046   6.977   6.488 -0.0828 -0.4610 -0.9753
 5391SOL     OW19065   7.167   2.483   6.069  0.5365 -0.5498 -0.2312
 5391SOL    HW119066   7.146   2.475   5.976  0.1458 -0.3725 -0.1605
 5391SOL    HW219067   7.238   2.420   6.083 -0.2890 -1.5513 -0.3664
 5392SOL     OW19068  10.236   1.861   3.698  0.4981  0.3303  0.5609
 5392SOL    HW119069  10.262   1.916   3.772 -1.4411 -0.0858  1.6331
 5392SOL    HW219070  10.260   1.772   3.725 -0.8939  0.0839  1.0706
 5393SOL     OW19071   2.871  10.741   0.023 -0.4614  0.5991 -0.7971
 5393SOL    HW119072   2.898  10.698  -0.058 -2.5034 -0.3925 -0.9973
 5393SOL    HW219073   2.805  10.684   0.060 -1.7630  2.5180  0.0174
 5394SOL     OW19074   5.745   8.070   5.213 -0.2117 -0.3722  0.0645
 5394SOL    HW119075   5.829   8.073   5.167 -0.7600  0.5314 -0.9194
 5394SOL    HW219076   5.767   8.035   5.299  1.5414  1.7818  0.6011
 5395SOL     OW19077  10.423   3.024   8.744 -0.0043  0.0277  0.1814
 5395SOL    HW119078  10.472   2.945   8.720  0.4801  0.1364  0.7844
 5395SOL    HW219079  10.475   3.065   8.813 -0.1622  0.9756 -0.2455
 5396SOL     OW19080   6.485   1.628   5.383 -0.0576 -0.2775  0.3079
 5396SOL    HW119081   6.520   1.707   5.424 -0.9209 -0.0479  0.6213
 5396SOL    HW219082   6.562   1.578   5.356  0.5214  1.4868 -1.5199
 5397SOL     OW19083   6.546   7.932   6.148  0.1670  0.2098 -0.1513
 5397SOL    HW119084   6.539   8.008   6.205  1.2400 -1.3912  2.2809
 5397SOL    HW219085   6.639   7.928   6.124  0.5282 -1.2499  1.2544
 5398SOL     OW19086   1.637   0.473   7.410  0.1407  0.4939 -0.1372
 5398SOL    HW119087   1.730   0.454   7.396 -0.0279 -0.3257 -0.2302
 5398SOL    HW219088   1.607   0.401   7.466 -0.3497  0.9736  0.2234
 5399SOL     OW19089   1.310   3.104   1.841  0.0398 -0.2801  0.0087
 5399SOL    HW119090   1.381   3.119   1.778 -0.3766 -0.9991 -0.6530
 5399SOL    HW219091   1.322   3.013   1.869 -1.7159 -1.0688 -1.5808
 5400SOL     OW19092   6.372   7.136   9.487 -0.2312 -0.0413 -0.0023
 5400SOL    HW119093   6.291   7.104   9.447 -1.3713  3.0636 -0.4649
 5400SOL    HW219094   6.421   7.175   9.414  0.1130  1.0672  0.8007
 5401SOL     OW19095   5.838   5.333   4.644 -0.4825 -0.0737 -0.3351
 5401SOL    HW119096   5.802   5.319   4.731 -1.4747  2.4522 -0.2740
 5401SOL    HW219097   5.791   5.409   4.609  0.4323 -0.5130 -2.7712
 5402SOL     OW19098  10.533   0.285   7.525  0.9214 -0.1339  0.0697
 5402SOL    HW119099  10.491   0.199   7.522 -1.4711  0.8110  2.1347
 5402SOL    HW219100  10.524   0.320   7.437 -1.4200 -0.6092  0.0605
 5403SOL     OW19101   2.322   0.074   3.049 -0.0457 -0.0071 -0.2013
 5403SOL    HW119102   2.370   0.089   3.130 -0.5553 -0.2910  0.1609
 5403SOL    HW219103   2.384   0.096   2.979  0.4293  0.1359  0.2629
 5404SOL     OW19104   2.229   7.704   1.619  0.3312  0.1512  0.1328
 5404SOL    HW119105   2.178   7.678   1.696 -0.1613 -0.6769 -0.4501
 5404SOL    HW219106   2.179   7.670   1.545  0.2920  1.7720 -0.6251
 5405SOL     OW19107   7.455   7.462   3.662 -0.7382 -0.4469  0.5920
 5405SOL    HW119108   7.511   7.418   3.726 -0.0615 -0.2535  0.1407
 5405SOL    HW219109   7.466   7.411   3.582  2.7488  2.3630 -0.9744
 5406SOL     OW19110   1.319   9.538   0.423  0.2709 -0.5951  0.1970
 5406SOL    HW119111   1.343   9.545   0.515 -1.2591 -0.8740  0.6539
 5406SOL    HW219112   1.223   9.533   0.424  0.1952 -0.0297 -1.4487
 5407SOL     OW19113  10.263   5.477   4.669  0.0906 -0.1804  0.0473
 5407SOL    HW119114  10.182   5.479   4.720  0.0491  0.1956 -0.0335
 5407SOL    HW219115  10.240   5.519   4.586  0.2645 -0.4364 -0.1314
 5408SOL     OW19116   5.009   7.270   8.973 -0.7583 -0.4615 -0.1005
 5408SOL    HW119117   4.994   7.360   8.999 -2.4926 -0.2348 -1.6816
 5408SOL    HW219118   5.072   7.236   9.038  0.7901  2.1404 -0.0941
 5409SOL     OW19119   4.368   7.930   4.313 -0.6361 -0.0604 -0.0781
 5409SOL    HW119120   4.275   7.911   4.326 -1.5433  1.8490 -2.7750
 5409SOL    HW219121   4.408   7.844   4.300 -2.1816 -0.8689  0.2809
 5410SOL     OW19122   2.915   7.307   0.632 -0.3008 -0.0783  0.2662
 5410SOL    HW119123   2.850   7.358   0.681 -1.1884  0.2137 -1.1476
 5410SOL    HW219124   2.909   7.219   0.667 -0.2092  0.3324  1.3429
 5411SOL     OW19125   5.464   2.546   5.808  0.1243  0.0767  0.0849
 5411SOL    HW119126   5.507   2.627   5.779  1.0574 -0.2334  0.5330
 5411SOL    HW219127   5.373   2.571   5.823  0.2905  0.9316 -0.2446
 5412SOL     OW19128   3.459   0.585   5.150  0.0899  0.0154  0.2744
 5412SOL    HW119129   3.454   0.564   5.057 -0.2778 -0.0662  0.3125
 5412SOL    HW219130   3.542   0.632   5.159 -0.6257  1.4944 -0.3930
 5413SOL     OW19131   9.227  10.221   8.168 -0.0702 -0.6832 -0.6475
 5413SOL    HW119132   9.139  10.192   8.142 -0.1072 -0.2747 -0.9846
 5413SOL    HW219133   9.249  10.290   8.106  0.8866 -1.4328 -1.1667
 5414SOL     OW19134   2.278   0.093   6.278  0.6697  0.1280 -0.0477
 5414SOL    HW119135   2.262   0.140   6.359  2.2082  0.1968  0.2439
 5414SOL    HW219136   2.228   0.141   6.212  0.3745  0.7917  0.6414
 5415SOL     OW19137   5.347   2.719   1.591 -0.6469  0.2687  0.3504
 5415SOL    HW119138   5.290   2.786   1.552  0.0500  1.0550  0.6420
 5415SOL    HW219139   5.433   2.735   1.552 -0.6115 -0.9398 -0.1223
 5416SOL     OW19140   8.727  10.234   4.796  0.1386  0.0013  0.3720
 5416SOL    HW119141   8.733  10.267   4.885  0.4419 -3.5539  1.8184
 5416SOL    HW219142   8.817  10.210   4.773 -0.3607 -2.1916  0.4907
 5417SOL     OW19143   8.131   8.433   5.551  0.4586 -0.7805  0.3482
 5417SOL    HW119144   8.167   8.394   5.630  0.4342  0.3075  0.9077
 5417SOL    HW219145   8.204   8.434   5.489  1.0320  0.2048  1.0350
 5418SOL     OW19146   7.495   0.196   4.451 -0.5328  0.3563 -0.0570
 5418SOL    HW119147   7.454   0.226   4.370  1.6122 -0.0595 -1.3763
 5418SOL    HW219148   7.588   0.214   4.439 -0.0627 -0.3998  2.0203
 5419SOL     OW19149   2.844   5.513   5.265  0.0700  0.4074  0.9979
 5419SOL    HW119150   2.766   5.569   5.262  0.4775  1.0311  1.6232
 5419SOL    HW219151   2.810   5.424   5.259 -0.6024  0.6992  0.0694
 5420SOL     OW19152   8.574   6.734   1.366  0.5712 -0.1175  0.4665
 5420SOL    HW119153   8.648   6.724   1.427  0.2991  0.6498  0.9418
 5420SOL    HW219154   8.508   6.783   1.416 -1.1965 -2.6750  0.8332
 5421SOL     OW19155   3.628   2.886   6.581 -0.1272  0.6421  0.0764
 5421SOL    HW119156   3.662   2.799   6.563 -0.3305  0.8668 -1.6194
 5421SOL    HW219157   3.632   2.895   6.676  0.4163 -0.9885  0.2352
 5422SOL     OW19158   1.282   1.395   6.427  0.0149 -0.4312  0.5579
 5422SOL    HW119159   1.241   1.395   6.341 -0.0848 -1.2791  0.6005
 5422SOL    HW219160   1.213   1.369   6.487  0.1229  0.0092  0.8780
 5423SOL     OW19161   7.735   8.853   8.589  0.1724  0.0772  0.5040
 5423SOL    HW119162   7.764   8.785   8.649 -2.7913 -0.8100  1.0505
 5423SOL    HW219163   7.699   8.806   8.514  1.1405  1.1471 -0.6886
 5424SOL     OW19164   1.812   9.897   3.521 -0.9103  0.2295 -0.5824
 5424SOL    HW119165   1.785   9.904   3.429 -2.0428 -0.5187 -0.3220
 5424SOL    HW219166   1.763   9.823   3.555  0.6107 -0.4280  0.2631
 5425SOL     OW19167  10.574   7.762   9.791  0.2165  0.0553 -0.1027
 5425SOL    HW119168  10.483   7.732   9.791  0.3727 -0.5911 -2.2779
 5425SOL    HW219169  10.579   7.823   9.717  1.2168  1.2788  0.9252
 5426SOL     OW19170   9.607   7.469   5.034 -0.3153  0.2124 -0.1499
 5426SOL    HW119171   9.625   7.483   5.127 -0.7837  1.4336 -0.2359
 5426SOL    HW219172   9.677   7.410   5.005 -1.1524 -1.6229  1.3629
 5427SOL     OW19173   2.952   8.324   6.950 -0.3125 -0.1180  0.3629
 5427SOL    HW119174   3.020   8.365   6.896 -0.6782 -0.2706 -0.2267
 5427SOL    HW219175   2.886   8.295   6.887 -0.7654 -0.2732  0.9011
 5428SOL     OW19176   5.636   8.191   8.442  0.0662 -0.3239 -0.4691
 5428SOL    HW119177   5.619   8.131   8.515  1.8014  2.9059  2.8873
 5428SOL    HW219178   5.731   8.196   8.437 -0.0313  0.4720 -2.2206
 5429SOL     OW19179   0.000   1.665   2.774 -0.2779 -0.3031  0.2343
 5429SOL    HW119180  -0.062   1.737   2.764  0.7288  0.7384  1.0804
 5429SOL    HW219181   0.080   1.697   2.731  0.3496 -0.6879  1.0889
 5430SOL     OW19182   2.300   6.621   1.850  0.1458  0.2959 -0.1584
 5430SOL    HW119183   2.293   6.537   1.895  0.6113  0.6117  0.5176
 5430SOL    HW219184   2.368   6.668   1.898 -0.7720  1.4343  0.0590
 5431SOL     OW19185   4.397   3.617   4.178 -0.2228 -1.0123  0.3722
 5431SOL    HW119186   4.348   3.535   4.177 -1.5713 -0.2324  0.3636
 5431SOL    HW219187   4.331   3.685   4.166  1.1381 -0.0426 -2.8840
 5432SOL     OW19188   7.401   1.289   4.817 -0.3125 -0.3324 -0.3172
 5432SOL    HW119189   7.466   1.280   4.887  0.3469 -0.1935 -0.9014
 5432SOL    HW219190   7.332   1.343   4.856 -0.4086 -1.0286  0.5248
 5433SOL     OW19191   5.689   9.850   6.974 -0.0005  0.0145  0.0284
 5433SOL    HW119192   5.769   9.829   6.927  1.0649  0.7854  1.4343
 5433SOL    HW219193   5.716   9.911   7.043 -1.6681 -0.2290  0.9625
 5434SOL     OW19194   0.461   3.275   9.913  0.2344 -0.3628 -0.5247
 5434SOL    HW119195   0.371   3.267   9.882  0.0316 -0.1539 -0.0100
 5434SOL    HW219196   0.455   3.332   9.990  1.0200  1.0232 -1.4371
 5435SOL     OW19197   4.866  10.570   3.553 -0.1884  0.6062  0.0403
 5435SOL    HW119198   4.961  10.574   3.566 -0.3565  0.9961  1.2655
 5435SOL    HW219199   4.855  10.578   3.458  0.9712  1.2610 -0.0642
 5436SOL     OW19200   1.138   5.679   5.838 -0.3927 -0.3357 -0.7157
 5436SOL    HW119201   1.180   5.764   5.842 -0.7203 -0.1759 -0.6705
 5436SOL    HW219202   1.176   5.629   5.910 -0.4323 -0.1242 -0.5507
 5437SOL     OW19203   7.031   5.961   1.269  0.3252 -0.6145  0.3089
 5437SOL    HW119204   7.080   5.881   1.290  2.4961  0.5528  0.0354
 5437SOL    HW219205   7.053   6.022   1.340  0.9117  0.5971 -0.8692
 5438SOL     OW19206   7.929   1.523   4.860  0.1048  0.2717 -0.4867
 5438SOL    HW119207   8.023   1.536   4.852 -0.0910  2.2731  0.0250
 5438SOL    HW219208   7.907   1.561   4.945 -1.2097  0.1155 -0.7414
 5439SOL     OW19209   3.734   6.045   2.163  0.3897  0.2557  0.0682
 5439SOL    HW119210   3.766   5.975   2.218  1.7444 -0.3461 -1.4163
 5439SOL    HW219211   3.670   6.003   2.105  1.0231  0.2796 -0.6610
 5440SOL     OW19212   9.404   1.245   1.178 -0.2071  0.3157  0.1179
 5440SOL    HW119213   9.471   1.182   1.151 -0.4467 -1.1162  2.5825
 5440SOL    HW219214   9.430   1.271   1.266 -2.1668  0.7899  0.5895
 5441SOL     OW19215   7.915  10.561   9.495  0.3968  0.5951 -0.5503
 5441SOL    HW119216   7.897  10.478   9.451 -0.5383  0.3974  0.1718
 5441SOL    HW219217   7.834  10.611   9.484 -0.0848  0.3306  1.3891
 5442SOL     OW19218   2.213  10.267   0.999  0.1599  0.3257  0.4196
 5442SOL    HW119219   2.121  10.288   0.980 -0.0091  2.2119  2.7496
 5442SOL    HW219220   2.238  10.331   1.066  3.4627  0.4044 -0.7405
 5443SOL     OW19221   9.731   8.455   9.118  0.3105 -0.0684  0.2093
 5443SOL    HW119222   9.738   8.491   9.029 -0.9502 -0.8914 -0.2351
 5443SOL    HW219223   9.670   8.382   9.110  0.0561 -0.0517  1.7942
 5444SOL     OW19224   8.990   0.440   0.631  0.1752  0.1109 -0.1492
 5444SOL    HW119225   8.917   0.388   0.596  0.5939 -1.4916  1.2470
 5444SOL    HW219226   9.057   0.434   0.563 -0.0472 -0.5890 -0.3213
 5445SOL     OW19227   4.691   0.364  10.514  0.0489  0.4058  0.2627
 5445SOL    HW119228   4.754   0.432  10.489 -0.5744  1.6133  1.8345
 5445SOL    HW219229   4.744   0.297  10.557  0.5482  0.3139 -0.4790
 5446SOL     OW19230   6.820   2.034   2.477  0.5553  0.2181  0.7235
 5446SOL    HW119231   6.876   2.101   2.438  1.0720 -0.7829 -0.3030
 5446SOL    HW219232   6.866   1.951   2.462 -1.4438 -0.7334 -0.7085
 5447SOL     OW19233  10.658   1.757   1.531  0.1460  0.0934  0.1572
 5447SOL    HW119234  10.608   1.838   1.544 -0.4678 -0.3074  0.2881
 5447SOL    HW219235  10.595   1.687   1.545  0.6071 -0.4091 -0.2615
 5448SOL     OW19236   9.548   4.525   6.774  0.6321  0.3460  0.1735
 5448SOL    HW119237   9.620   4.485   6.823  0.7032  1.4434  1.0059
 5448SOL    HW219238   9.549   4.617   6.801 -1.2301  0.3430  0.3889
 5449SOL     OW19239  10.553   4.357  10.206  0.2666 -0.7868  0.6753
 5449SOL    HW119240  10.578   4.325  10.119  3.0455  0.7768  0.7714
 5449SOL    HW219241  10.582   4.287  10.265 -3.2913 -2.7161  0.3982
 5450SOL     OW19242   6.690   0.693   9.504 -0.1968  0.0358 -0.2205
 5450SOL    HW119243   6.656   0.733   9.583  0.4352 -0.1757  0.1656
 5450SOL    HW219244   6.784   0.684   9.520 -0.3125 -1.5982 -0.2814
 5451SOL     OW19245   0.632   8.339   3.617 -0.5291  0.3260 -0.5446
 5451SOL    HW119246   0.562   8.371   3.673  0.8392  3.5350 -0.4789
 5451SOL    HW219247   0.660   8.416   3.567  1.1989 -1.4416 -2.4919
 5452SOL     OW19248  10.764   3.247  10.510  0.3691 -0.0216 -0.0104
 5452SOL    HW119249  10.689   3.268  10.566  0.8406  0.7321  0.3476
 5452SOL    HW219250  10.826   3.203  10.568  0.5814  0.1669 -0.0934
 5453SOL     OW19251   6.167  10.162   4.235 -0.5494  0.8638  0.1707
 5453SOL    HW119252   6.192  10.160   4.327  0.2721  0.1513 -0.0539
 5453SOL    HW219253   6.124  10.247   4.224 -1.9734  0.3752  1.5290
 5454SOL     OW19254   6.402   8.308   2.815  0.0691 -0.1143 -0.4248
 5454SOL    HW119255   6.481   8.256   2.831 -1.3451 -2.2877 -0.0024
 5454SOL    HW219256   6.374   8.283   2.727 -0.2960  0.4475 -0.4771
 5455SOL     OW19257   5.412   3.997   4.764  0.2925  0.8218  0.0993
 5455SOL    HW119258   5.374   3.927   4.711 -0.5035 -0.3656  2.1438
 5455SOL    HW219259   5.504   3.973   4.775  0.1702  0.4294  0.2624
 5456SOL     OW19260   1.163   3.060  10.702 -0.6110 -0.6363  0.0149
 5456SOL    HW119261   1.071   3.086  10.698 -0.8723 -1.3119  1.1839
 5456SOL    HW219262   1.175   3.003  10.627 -0.8750  0.2426 -0.7153
 5457SOL     OW19263   4.410  10.392   5.842  0.1674 -0.0313  0.3638
 5457SOL    HW119264   4.361  10.348   5.911 -0.8957  1.8066  0.8589
 5457SOL    HW219265   4.343  10.428   5.784  0.9922  0.5678 -0.2444
 5458SOL     OW19266   6.119   7.557   4.796  0.3119  0.2521  0.6194
 5458SOL    HW119267   6.152   7.497   4.863  1.2355 -0.1408 -0.1772
 5458SOL    HW219268   6.131   7.511   4.713 -0.3930  0.9204  0.1209
 5459SOL     OW19269   4.672   0.657   0.626 -0.3252 -0.1155 -0.2239
 5459SOL    HW119270   4.765   0.652   0.647 -0.2711  0.9787 -0.1502
 5459SOL    HW219271   4.633   0.704   0.701 -0.3810  2.4320 -1.7247
 5460SOL     OW19272   3.142   9.993   8.932 -0.4735  0.8451 -0.4140
 5460SOL    HW119273   3.130  10.047   9.010 -1.3889 -0.4827  0.4002
 5460SOL    HW219274   3.212   9.932   8.955 -0.2994  0.8622 -0.8814
 5461SOL     OW19275   9.696   8.668   2.247  0.1877  0.2452 -0.5494
 5461SOL    HW119276   9.711   8.761   2.263 -1.7770  1.0753 -2.8305
 5461SOL    HW219277   9.608   8.664   2.209  0.9174 -2.3057 -2.2558
 5462SOL     OW19278   3.681   1.094   4.418  0.1890 -0.0126  0.2283
 5462SOL    HW119279   3.656   1.016   4.368 -0.6385  0.0307  0.5626
 5462SOL    HW219280   3.603   1.148   4.418  0.9051  1.0601 -0.4179
 5463SOL     OW19281   5.894   4.125   4.798 -0.1020  0.6053 -0.1064
 5463SOL    HW119282   5.959   4.135   4.729  0.2284  1.1613  0.2809
 5463SOL    HW219283   5.839   4.203   4.791  0.7584  1.3456  1.1175
 5464SOL     OW19284   9.240   6.480   1.247  0.4399 -0.7260 -0.2569
 5464SOL    HW119285   9.244   6.529   1.165  0.1158  0.1719  0.2538
 5464SOL    HW219286   9.332   6.465   1.269  0.5419 -2.5641 -1.6870
 5465SOL     OW19287   3.799   0.673   0.001  0.5434 -0.2237 -0.3891
 5465SOL    HW119288   3.825   0.763  -0.018  2.6290 -0.9757 -1.4924
 5465SOL    HW219289   3.879   0.622  -0.011 -0.3280 -2.1245  1.1832
 5466SOL     OW19290   0.903   4.188   7.756  0.0069  0.1454 -0.1653
 5466SOL    HW119291   0.814   4.223   7.743 -0.3268 -0.3132  0.7843
 5466SOL    HW219292   0.956   4.265   7.777  0.0634  0.5631 -1.6845
 5467SOL     OW19293   1.995   6.806  10.212  0.9738 -0.1599 -0.2197
 5467SOL    HW119294   1.950   6.836  10.133  1.8694  0.3222 -0.5574
 5467SOL    HW219295   1.936   6.739  10.248 -0.1641  0.6692 -0.4634
 5468SOL     OW19296  10.370   3.223   3.483 -0.3006 -0.6665  0.5939
 5468SOL    HW119297  10.309   3.152   3.459  1.4493 -1.9739 -0.2399
 5468SOL    HW219298  10.365   3.227   3.578 -0.2983 -2.0915  0.6878
 5469SOL     OW19299  10.628  10.490   5.318 -0.3087  0.0986  0.1945
 5469SOL    HW119300  10.621  10.556   5.386  0.4417  0.3525  0.0374
 5469SOL    HW219301  10.629  10.406   5.364 -0.5451  0.2359  0.4434
 5470SOL     OW19302   0.869   4.456   6.160  0.3276  0.0832 -0.0714
 5470SOL    HW119303   0.888   4.362   6.165  0.0181 -0.1301 -1.9943
 5470SOL    HW219304   0.781   4.465   6.197 -0.0836 -0.5728 -0.8622
 5471SOL     OW19305   3.139   1.483   1.355 -0.6161 -0.5299  0.4371
 5471SOL    HW119306   3.128   1.565   1.307  1.2183 -1.1669 -1.2232
 5471SOL    HW219307   3.111   1.415   1.293 -0.2848 -1.2671  1.0755
 5472SOL     OW19308   7.730   6.001   4.820  0.5196  0.4607  0.0685
 5472SOL    HW119309   7.715   6.062   4.893  0.2944  0.8062 -0.2605
 5472SOL    HW219310   7.792   6.047   4.763  1.1417 -0.0482  0.3224
 5473SOL     OW19311   7.015   6.060   3.707  0.0939  0.0198 -0.3161
 5473SOL    HW119312   7.091   6.024   3.753  0.1630  0.7291  0.1335
 5473SOL    HW219313   6.968   5.983   3.674 -0.0758 -0.5131  1.1084
 5474SOL     OW19314   8.024   1.371   2.968 -0.3947  0.6878  0.2098
 5474SOL    HW119315   8.056   1.403   2.884 -0.3787 -0.1028 -0.0964
 5474SOL    HW219316   7.979   1.446   3.007  1.1056  1.5940  0.2835
 5475SOL     OW19317   4.008   7.945   8.948  0.3187  0.2756  0.3530
 5475SOL    HW119318   4.079   7.919   9.007  0.8534 -1.0135 -0.8080
 5475SOL    HW219319   3.954   7.866   8.940  0.6900  0.1672 -1.4561
 5476SOL     OW19320   3.608   9.376   5.820  0.1779 -0.5817  0.3310
 5476SOL    HW119321   3.552   9.324   5.878  1.1261  0.5930  2.4366
 5476SOL    HW219322   3.692   9.330   5.823 -0.1942 -1.4512 -1.5355
 5477SOL     OW19323   3.276   4.630   5.132 -0.0694  0.0848 -0.6421
 5477SOL    HW119324   3.185   4.640   5.104 -0.3073 -1.1240 -0.3526
 5477SOL    HW219325   3.289   4.699   5.197 -1.7664 -1.6019  1.6224
 5478SOL     OW19326   1.271   3.182   3.895  0.4373  0.2312 -0.3273
 5478SOL    HW119327   1.207   3.215   3.957  1.0474 -1.1861  1.1406
 5478SOL    HW219328   1.224   3.116   3.844  0.3676  0.1861 -0.2034
 5479SOL     OW19329   2.393   0.344   9.170 -0.4347  0.3781  0.1864
 5479SOL    HW119330   2.476   0.358   9.217  0.0833 -0.3974 -0.4573
 5479SOL    HW219331   2.408   0.265   9.119 -1.4875  0.3927 -0.1696
 5480SOL     OW19332   6.758   0.557  10.097 -0.1665 -0.3999  0.4457
 5480SOL    HW119333   6.761   0.580  10.004 -1.2020  2.9556  1.1043
 5480SOL    HW219334   6.807   0.475  10.103  1.0952 -0.0355 -2.8469
 5481SOL     OW19335   1.528   2.001   9.747  0.2806 -0.2399 -0.4789
 5481SOL    HW119336   1.574   2.031   9.670 -0.7437  0.1128 -0.9760
 5481SOL    HW219337   1.460   1.943   9.714  1.0842 -1.7064  0.3260
 5482SOL     OW19338   6.382   3.967   7.066  0.5556 -0.1036  0.2976
 5482SOL    HW119339   6.419   3.923   7.142  0.7684  0.0464  0.2815
 5482SOL    HW219340   6.339   3.898   7.017  1.2233 -0.3670  0.0718
 5483SOL     OW19341   1.625   3.050   3.613  0.5569  0.0009 -0.5511
 5483SOL    HW119342   1.714   3.020   3.597  0.8813  0.6877 -0.0449
 5483SOL    HW219343   1.609   3.028   3.705  0.8284  1.4345 -0.1446
 5484SOL     OW19344   4.056   7.844   3.961 -0.0835  0.3348  0.3623
 5484SOL    HW119345   3.969   7.804   3.954 -0.0983  0.6239 -1.3191
 5484SOL    HW219346   4.094   7.835   3.874  2.4055 -1.6122  1.5348
 5485SOL     OW19347   5.984   1.595   3.921  0.2073  0.4222 -0.1371
 5485SOL    HW119348   5.899   1.581   3.879  0.2356 -0.9580  0.1967
 5485SOL    HW219349   5.994   1.690   3.926 -2.5650  0.7103  2.3647
 5486SOL     OW19350   7.234   7.679   3.888 -0.9141 -0.8930  0.0466
 5486SOL    HW119351   7.187   7.602   3.856 -0.4033 -0.7311 -1.1089
 5486SOL    HW219352   7.270   7.720   3.810 -1.4444  0.7153  0.5970
 5487SOL     OW19353   4.251   0.292   9.754 -0.2255  0.2322  0.5259
 5487SOL    HW119354   4.208   0.218   9.797 -0.1061 -0.0493  0.1742
 5487SOL    HW219355   4.322   0.316   9.813  0.1099 -0.3317  0.3718
 5488SOL     OW19356   0.079   4.151   1.991  0.3581  0.0551  1.0727
 5488SOL    HW119357   0.086   4.232   1.941  2.3566  0.5104  2.0032
 5488SOL    HW219358  -0.009   4.154   2.029  0.4896  1.9182  1.3184
 5489SOL     OW19359   7.007   5.331   5.353  0.2935  0.1898 -0.8342
 5489SOL    HW119360   7.078   5.361   5.410 -0.1504 -0.8758  0.3411
 5489SOL    HW219361   7.040   5.250   5.315  0.0091  0.0957 -0.8826
 5490SOL     OW19362   2.158   5.962   5.265 -0.1501 -0.4043 -0.1792
 5490SOL    HW119363   2.115   5.913   5.195 -0.7112  1.6705 -1.3775
 5490SOL    HW219364   2.206   5.896   5.315 -0.5655 -2.0930 -1.9056
 5491SOL     OW19365   4.582   3.012   4.469  0.0176  0.1613 -0.3982
 5491SOL    HW119366   4.623   2.953   4.531 -1.7827 -1.8976 -1.0536
 5491SOL    HW219367   4.626   2.993   4.385  0.1909  0.5800 -0.4078
 5492SOL     OW19368  10.666   6.230   4.587  0.6486  0.1261 -0.2093
 5492SOL    HW119369  10.760   6.245   4.586  0.3599  2.3740  0.3550
 5492SOL    HW219370  10.639   6.241   4.496  0.8429  0.2188 -0.2563
 5493SOL     OW19371   5.322   9.220   4.629  0.3347  0.5353  0.2967
 5493SOL    HW119372   5.339   9.252   4.540 -2.3434  1.5283  0.0512
 5493SOL    HW219373   5.351   9.292   4.686  0.6090  0.5504  0.1386
 5494SOL     OW19374   4.410   6.496   9.003  0.0498  0.1064  0.0672
 5494SOL    HW119375   4.384   6.587   9.017  0.0852  0.1891 -0.3773
 5494SOL    HW219376   4.475   6.501   8.933  0.9544 -0.1431  0.8726
 5495SOL     OW19377   4.460   0.728   3.250 -0.1781 -0.3093 -0.7298
 5495SOL    HW119378   4.409   0.651   3.273  1.3623 -1.1032  0.1488
 5495SOL    HW219379   4.495   0.760   3.333 -0.1021  0.8427 -1.1827
 5496SOL     OW19380   3.914   2.159   2.561 -0.5359 -0.8680  0.4361
 5496SOL    HW119381   3.861   2.196   2.490  1.0355 -0.7014 -0.7174
 5496SOL    HW219382   3.894   2.066   2.560 -1.0585 -0.7574  0.2371
 5497SOL     OW19383   3.317   0.894   2.972 -0.1200  0.0004 -0.4269
 5497SOL    HW119384   3.381   0.965   2.972 -0.1584  0.0367 -0.0200
 5497SOL    HW219385   3.260   0.913   3.046 -0.7149  0.0694 -0.8979
 5498SOL     OW19386   6.505   5.431   7.526  0.3352 -0.6833  0.2034
 5498SOL    HW119387   6.548   5.422   7.441  0.9862 -0.9934  0.5646
 5498SOL    HW219388   6.539   5.512   7.563 -2.6801  1.4976 -1.3821
 5499SOL     OW19389  10.219   7.538   2.176  0.6010 -0.8712 -0.1266
 5499SOL    HW119390  10.210   7.517   2.269  1.4766 -2.8972 -0.4445
 5499SOL    HW219391  10.169   7.619   2.165  1.1388 -0.1187  2.2525
 5500SOL     OW19392   7.461   2.601   0.175  0.5539  0.2010 -0.3540
 5500SOL    HW119393   7.501   2.648   0.102  1.5294  1.6605  1.0366
 5500SOL    HW219394   7.373   2.581   0.145  0.9145  0.7644 -1.9138
 5501SOL     OW19395  10.643   8.951   0.986 -0.4065  0.1260 -0.1559
 5501SOL    HW119396  10.718   8.897   1.011 -1.1652  0.2230  2.5951
 5501SOL    HW219397  10.589   8.892   0.932 -0.1820 -1.1994  1.0001
 5502SOL     OW19398   0.558   1.743   0.435  0.2286  0.3700  0.4708
 5502SOL    HW119399   0.595   1.735   0.522  2.4443 -1.2827 -0.5180
 5502SOL    HW219400   0.533   1.653   0.411 -1.5318  0.9840 -0.1382
 5503SOL     OW19401   5.903   8.783   5.190  0.1904 -0.2052  0.5170
 5503SOL    HW119402   5.909   8.708   5.250 -1.3591 -0.2872  0.6233
 5503SOL    HW219403   5.885   8.857   5.247 -0.7945 -0.1977  0.2098
 5504SOL     OW19404  10.355   5.197   1.893  0.0524 -1.1422 -0.0466
 5504SOL    HW119405  10.307   5.240   1.822  1.0256  2.9648  1.4770
 5504SOL    HW219406  10.424   5.148   1.848 -1.8735 -2.2353 -2.0077
 5505SOL     OW19407   7.918   4.263   7.137 -0.2374  0.1316 -0.0939
 5505SOL    HW119408   7.957   4.244   7.222 -0.3738 -0.9587 -0.2564
 5505SOL    HW219409   7.916   4.178   7.093 -2.3753  0.2274 -0.2640
 5506SOL     OW19410   1.197   7.956   5.200  0.5456  0.0222 -0.0289
 5506SOL    HW119411   1.278   8.005   5.183  1.5475 -0.0747  3.5221
 5506SOL    HW219412   1.155   8.004   5.272 -2.3436 -0.2748 -1.3749
 5507SOL     OW19413   9.005   9.755   4.181  0.0371 -0.5703  0.1497
 5507SOL    HW119414   8.924   9.706   4.194  0.1764 -0.4358  1.7062
 5507SOL    HW219415   8.976   9.842   4.151 -0.4907 -0.1681  1.7311
 5508SOL     OW19416  10.551   4.070   0.134  0.3895 -0.1042  0.0950
 5508SOL    HW119417  10.462   4.048   0.159  0.3881 -1.1810 -0.7408
 5508SOL    HW219418  10.550   4.066   0.038  1.5387 -1.0613  0.1015
 5509SOL     OW19419   6.979  10.589   3.067 -0.0755 -0.3675  0.5733
 5509SOL    HW119420   6.900  10.536   3.056 -0.1116 -0.4412  1.1598
 5509SOL    HW219421   7.039  10.532   3.116 -0.7405  0.7185  2.7501
 5510SOL     OW19422   4.659   9.396   6.307  0.1950 -0.1584 -0.1839
 5510SOL    HW119423   4.697   9.466   6.360  0.1232  0.1094 -0.4808
 5510SOL    HW219424   4.670   9.426   6.217 -0.2499 -0.3163 -0.2948
 5511SOL     OW19425   4.518   0.345   3.087 -0.7077 -0.0106  0.3726
 5511SOL    HW119426   4.590   0.287   3.062 -0.8592  0.2635 -0.7790
 5511SOL    HW219427   4.457   0.288   3.133  0.2511 -0.2339  1.4078
 5512SOL     OW19428   9.654   4.037   1.045  0.8657  0.0335  0.3334
 5512SOL    HW119429   9.633   3.948   1.014 -2.5565  0.0113  2.1506
 5512SOL    HW219430   9.714   4.023   1.118 -0.6234 -0.9750  1.4239
 5513SOL     OW19431   9.662   1.033   6.174  0.0904  0.2577 -0.3860
 5513SOL    HW119432   9.664   1.095   6.101  0.4578 -0.5665 -1.0949
 5513SOL    HW219433   9.675   1.087   6.252 -0.1131  1.1317 -0.9455
 5514SOL     OW19434   6.788   4.373   2.507 -0.0900  0.6921 -0.5514
 5514SOL    HW119435   6.822   4.322   2.434  0.9853 -1.6243  1.4404
 5514SOL    HW219436   6.865   4.403   2.554 -0.7577  2.3702 -0.4684
 5515SOL     OW19437   9.201   8.126  10.572 -0.1554 -0.1309 -0.0312
 5515SOL    HW119438   9.137   8.196  10.557  0.0003  0.4500  1.7941
 5515SOL    HW219439   9.261   8.133  10.498 -1.1841  0.4559 -0.8475
 5516SOL     OW19440  10.103   3.980   3.106  0.2364 -0.0975 -0.5401
 5516SOL    HW119441  10.191   3.993   3.070  0.2434  3.3178  0.3864
 5516SOL    HW219442  10.114   3.913   3.174  1.9869 -0.0882 -0.7730
 5517SOL     OW19443   4.585   5.902   1.899 -0.3999  0.1906  0.2797
 5517SOL    HW119444   4.592   5.924   1.807 -0.0928  0.1662  0.2968
 5517SOL    HW219445   4.675   5.895   1.930 -0.4729 -1.1846  0.2481
 5518SOL     OW19446   0.481   9.646   8.533  0.0654 -0.3894  0.4148
 5518SOL    HW119447   0.559   9.625   8.481  1.3461 -0.3808  2.2152
 5518SOL    HW219448   0.431   9.706   8.478  1.2518 -0.5156 -0.8731
 5519SOL     OW19449  10.008   6.664   0.764  0.5510 -0.1923 -0.5696
 5519SOL    HW119450   9.942   6.714   0.811  1.3611  1.6842 -1.3478
 5519SOL    HW219451  10.024   6.714   0.684 -1.3833 -3.6016 -3.4242
 5520SOL     OW19452   5.375   8.111   7.579 -0.0775  0.0363 -0.3092
 5520SOL    HW119453   5.440   8.168   7.619  0.7287 -0.7766 -0.4347
 5520SOL    HW219454   5.364   8.145   7.490 -0.3962  0.6229 -0.0577
 5521SOL     OW19455   3.378   4.728   1.763  0.2157  0.7755  0.9169
 5521SOL    HW119456   3.400   4.821   1.768  1.5120  0.6140 -0.8787
 5521SOL    HW219457   3.309   4.723   1.697  1.5280  0.3050 -0.4753
 5522SOL     OW19458   4.230   4.557   9.938  0.2416 -0.0873  0.1760
 5522SOL    HW119459   4.218   4.462   9.934  2.4391 -0.3838 -1.0107
 5522SOL    HW219460   4.145   4.593   9.914 -1.1175 -1.6750  2.2052
 5523SOL     OW19461   6.517   8.958   9.852  0.5406  0.1045 -0.6271
 5523SOL    HW119462   6.551   8.876   9.888 -0.4866 -0.1007 -0.0809
 5523SOL    HW219463   6.493   8.937   9.762  2.2261  0.3690 -1.1694
 5524SOL     OW19464   2.667   6.106   5.106  0.3684 -0.9889 -0.5883
 5524SOL    HW119465   2.757   6.136   5.093  0.4934 -0.6290  0.9643
 5524SOL    HW219466   2.664   6.075   5.196 -1.4404  0.4789 -0.0788
 5525SOL     OW19467   1.672   3.376   6.550 -0.1115 -0.0972  0.3531
 5525SOL    HW119468   1.720   3.447   6.509  2.6450 -1.4766  0.9291
 5525SOL    HW219469   1.661   3.404   6.641  2.2613 -0.8849  0.9560
 5526SOL     OW19470   9.244   5.501   0.675 -0.6484  0.1340  0.1569
 5526SOL    HW119471   9.262   5.583   0.629  0.2332  0.4615  1.0543
 5526SOL    HW219472   9.157   5.476   0.646 -0.6582  1.0479 -0.6363
 5527SOL     OW19473   5.537   7.812   4.628  0.5637  0.0666  0.5528
 5527SOL    HW119474   5.542   7.809   4.724  0.7827  1.3515  0.5896
 5527SOL    HW219475   5.485   7.735   4.605  1.2843 -0.7818  1.6433
 5528SOL     OW19476   4.518   4.380   4.581  0.2758  0.2348  0.3883
 5528SOL    HW119477   4.514   4.379   4.676 -1.4347  0.6091  0.3638
 5528SOL    HW219478   4.441   4.329   4.553  0.6784  0.2298 -0.7946
 5529SOL     OW19479   3.968   9.700  10.246 -0.0878  0.1676 -0.2173
 5529SOL    HW119480   3.959   9.695  10.151 -1.3796  1.8612 -0.2319
 5529SOL    HW219481   4.047   9.752  10.260 -1.0008  1.6860 -0.4432
 5530SOL     OW19482   0.492   3.864   0.462 -0.5738  0.3817 -0.4485
 5530SOL    HW119483   0.413   3.844   0.513  1.2335 -1.7784  1.7602
 5530SOL    HW219484   0.538   3.780   0.455  0.9278  1.3070 -2.8246
 5531SOL     OW19485   2.374   4.719   0.044 -0.2562  0.2037 -0.3060
 5531SOL    HW119486   2.460   4.680   0.035 -1.1846 -1.6978 -1.5989
 5531SOL    HW219487   2.371   4.750   0.135  0.7801 -2.2409  0.6467
 5532SOL     OW19488  10.724   2.840   4.273  0.0297  0.3426 -0.2345
 5532SOL    HW119489  10.677   2.912   4.316  1.2674  1.6712 -0.9981
 5532SOL    HW219490  10.807   2.834   4.321  0.6007  0.5129 -1.1723
 5533SOL     OW19491  10.530  10.613   0.187  0.0339  0.6928  0.0842
 5533SOL    HW119492  10.587  10.539   0.168  1.6527  1.6887  0.7750
 5533SOL    HW219493  10.589  10.681   0.220 -1.1435  2.8307 -1.8703
 5534SOL     OW19494   0.502   4.336   9.485  0.4613 -0.4087  0.1230
 5534SOL    HW119495   0.472   4.385   9.409 -0.5674  1.1196  1.4324
 5534SOL    HW219496   0.465   4.248   9.474 -2.0414  0.5565  0.1595
 5535SOL     OW19497   2.294   9.192  10.406  0.2470 -0.4983 -0.3908
 5535SOL    HW119498   2.352   9.226  10.337  0.9073 -0.6147  0.1011
 5535SOL    HW219499   2.262   9.109  10.370 -0.7575  0.2349 -1.2647
 5536SOL     OW19500   9.821   3.414   9.131  0.1552 -0.8120 -0.0327
 5536SOL    HW119501   9.843   3.333   9.084 -0.2074  0.7024 -3.0024
 5536SOL    HW219502   9.727   3.424   9.120  0.2000  0.0323  0.2664
 5537SOL     OW19503   1.011   2.963   2.695  0.1466 -0.0166  0.3270
 5537SOL    HW119504   0.959   2.883   2.704 -1.7896  1.0026 -1.0766
 5537SOL    HW219505   1.011   2.981   2.601  1.8515  0.8425  0.4513
 5538SOL     OW19506   2.317  10.665   5.082 -0.1010  0.3766  0.1078
 5538SOL    HW119507   2.382  10.626   5.023 -0.7933  2.1620 -1.9731
 5538SOL    HW219508   2.239  10.610   5.071  0.7411 -1.3229  2.0450
 5539SOL     OW19509   2.227   4.597   8.006 -0.1990 -0.0145  0.2631
 5539SOL    HW119510   2.208   4.503   8.007 -0.9236  0.0229 -2.4255
 5539SOL    HW219511   2.315   4.603   7.968 -1.3073  0.3953 -2.5276
 5540SOL     OW19512   2.641   8.733   1.085 -0.2256 -0.3194 -0.6055
 5540SOL    HW119513   2.642   8.692   1.171 -1.4699 -0.5906 -0.6924
 5540SOL    HW219514   2.642   8.660   1.023  0.7694 -0.1256 -0.8349
 5541SOL     OW19515   9.451   2.551   8.819  0.7008 -0.1007  0.2913
 5541SOL    HW119516   9.428   2.487   8.886  1.1239  0.3689  0.8955
 5541SOL    HW219517   9.500   2.618   8.866 -0.9576  1.4319 -0.0177
 5542SOL     OW19518   9.910   7.598   5.393  0.1650  0.1027 -0.0881
 5542SOL    HW119519   9.989   7.547   5.411  0.7991  0.3609 -1.9298
 5542SOL    HW219520   9.909   7.665   5.461  1.8759  0.4642 -0.3642
 5543SOL     OW19521   4.899   8.582   9.286 -0.3215 -0.0340 -0.3370
 5543SOL    HW119522   4.838   8.649   9.256 -1.7035 -1.2500 -0.3880
 5543SOL    HW219523   4.850   8.533   9.353  2.1615  1.7173  3.0653
 5544SOL     OW19524   8.050   0.203   3.792  0.0465 -0.0420 -0.3804
 5544SOL    HW119525   8.007   0.125   3.757  1.3702 -1.4990  1.1068
 5544SOL    HW219526   8.013   0.214   3.879 -0.7110  1.5262 -0.8499
 5545SOL     OW19527   3.974   4.907   7.901  0.2145 -0.1196  0.0965
 5545SOL    HW119528   3.960   4.833   7.960  1.6658 -0.7229 -0.2579
 5545SOL    HW219529   3.923   4.887   7.823  1.2052 -1.1826 -0.3170
 5546SOL     OW19530   6.860  10.528   7.316  0.8878 -0.5218  0.6237
 5546SOL    HW119531   6.953  10.546   7.299  0.8803  0.7217  1.7295
 5546SOL    HW219532   6.836  10.463   7.250  2.1508  0.2512 -0.6612
 5547SOL     OW19533   4.827   4.965   5.161  0.3702 -0.1918 -0.4288
 5547SOL    HW119534   4.812   4.899   5.229 -0.6447  1.2480  0.8325
 5547SOL    HW219535   4.739   4.997   5.140  0.7931  0.3195 -1.4552
 5548SOL     OW19536   4.188  10.211   4.940 -0.3944 -0.4823  0.0711
 5548SOL    HW119537   4.096  10.233   4.955 -0.4675 -1.4939  1.2348
 5548SOL    HW219538   4.237  10.280   4.985 -0.6115 -0.8952  0.9698
 5549SOL     OW19539   2.191   7.278   1.245  0.3448 -0.3011 -0.3169
 5549SOL    HW119540   2.142   7.198   1.229 -1.3855 -0.0953  3.0235
 5549SOL    HW219541   2.282   7.254   1.230 -0.1922 -2.6886 -0.1776
 5550SOL     OW19542   2.507   2.968   8.906 -0.5697 -0.2696  0.7947
 5550SOL    HW119543   2.417   2.986   8.935 -1.1352 -0.1766 -0.9139
 5550SOL    HW219544   2.506   2.987   8.812  0.7745 -2.0473  0.3782
 5551SOL     OW19545   6.298   0.917   9.142 -0.3876  0.5624  0.0731
 5551SOL    HW119546   6.378   0.896   9.192 -0.2311  0.8899 -0.0398
 5551SOL    HW219547   6.234   0.853   9.173  0.2626 -0.5238 -0.7259
 5552SOL     OW19548   8.019   2.854   6.191 -0.1173 -0.0527 -0.0376
 5552SOL    HW119549   8.031   2.806   6.109 -1.1574  0.5860 -0.5923
 5552SOL    HW219550   7.988   2.788   6.253  1.9709 -0.8270  0.2617
 5553SOL     OW19551   1.342   8.499   3.803 -0.3587  0.5622 -0.4833
 5553SOL    HW119552   1.380   8.416   3.832  0.2976  1.3061  0.8960
 5553SOL    HW219553   1.254   8.500   3.840 -0.0871  0.8045  0.1809
 5554SOL     OW19554   7.457   8.838   3.538 -0.1914  0.0684  0.3416
 5554SOL    HW119555   7.459   8.868   3.448  0.0862  1.5127  0.7960
 5554SOL    HW219556   7.524   8.769   3.542  0.3009  0.4945 -0.3813
 5555SOL     OW19557   5.451   5.758   3.804  0.3703  0.2093  0.3559
 5555SOL    HW119558   5.534   5.801   3.824  0.3575 -0.4587  2.0695
 5555SOL    HW219559   5.397   5.827   3.766  1.2068  1.0453  0.6288
 5556SOL     OW19560   0.498   3.280   4.545  0.3002  0.1046  0.2797
 5556SOL    HW119561   0.555   3.287   4.622  0.3875  1.9486  0.0913
 5556SOL    HW219562   0.556   3.256   4.474  0.7899  1.3936  0.2117
 5557SOL     OW19563   7.710   1.366   3.676 -0.6963 -0.2850 -0.1958
 5557SOL    HW119564   7.747   1.289   3.633  1.4977 -0.2847  1.5226
 5557SOL    HW219565   7.771   1.437   3.654 -0.2890 -0.0029  1.7164
 5558SOL     OW19566   7.423   4.306  10.220  0.9456  0.7348  0.1826
 5558SOL    HW119567   7.344   4.261  10.250  0.3872  2.4337  1.4538
 5558SOL    HW219568   7.474   4.321  10.299  0.9324  2.5691 -0.0962
 5559SOL     OW19569   3.442   9.824   4.518 -0.1755  0.1369  0.0802
 5559SOL    HW119570   3.447   9.919   4.505  1.9884 -0.1207 -1.5911
 5559SOL    HW219571   3.417   9.789   4.433  2.3315 -0.9139 -0.3334
 5560SOL     OW19572   4.267   3.429   2.086 -0.3976 -0.1560 -0.1987
 5560SOL    HW119573   4.219   3.349   2.104 -1.7235  0.4109 -1.0205
 5560SOL    HW219574   4.206   3.482   2.034  1.1672  0.5477 -1.4012
 5561SOL     OW19575   3.123  10.069   6.579  0.3611  0.1609  0.5541
 5561SOL    HW119576   3.035  10.056   6.543  0.6181 -0.5187  0.1443
 5561SOL    HW219577   3.181  10.050   6.505  0.9258 -1.8941  1.4442
 5562SOL     OW19578   4.102   1.009   5.035  0.0482  0.1865  0.2203
 5562SOL    HW119579   4.121   1.099   5.010 -0.2423  0.2596  0.2612
 5562SOL    HW219580   4.067   0.969   4.955 -1.8506  0.6979  0.7466
 5563SOL     OW19581   0.911   5.617   0.453 -0.0744  0.1880 -1.0725
 5563SOL    HW119582   0.964   5.542   0.480  0.4418  1.2541  1.1900
 5563SOL    HW219583   0.840   5.580   0.401  0.5196 -1.7735 -0.5649
 5564SOL     OW19584   7.871   2.631   9.970  0.0046  0.0982  0.4149
 5564SOL    HW119585   7.918   2.679   9.902  1.1240  0.8946  1.7190
 5564SOL    HW219586   7.843   2.697  10.032  0.3609 -0.7784  1.5352
 5565SOL     OW19587   3.015  10.206   0.088 -0.1334  0.1237  0.3859
 5565SOL    HW119588   2.977  10.121   0.111  0.6010  0.1126  1.6896
 5565SOL    HW219589   2.990  10.264   0.160 -0.2565  0.9012 -0.2723
 5566SOL     OW19590   9.615   4.809   8.071  0.1212  0.7607 -0.2673
 5566SOL    HW119591   9.585   4.819   8.161 -1.2145  1.3483 -0.7395
 5566SOL    HW219592   9.627   4.899   8.040 -1.6733  0.6700 -1.3541
 5567SOL     OW19593   6.937   3.445   7.084 -0.1732  0.1287  0.2306
 5567SOL    HW119594   6.996   3.397   7.027  0.3724 -1.7072  2.2110
 5567SOL    HW219595   6.992   3.512   7.125  0.9350 -2.1477  2.7596
 5568SOL     OW19596   0.901   4.361   7.444  0.0429  0.0376  0.3142
 5568SOL    HW119597   0.994   4.359   7.465  0.2563 -1.0118 -0.6237
 5568SOL    HW219598   0.893   4.429   7.377  0.5574 -1.4252 -1.3059
 5569SOL     OW19599   1.548   3.365   4.908  0.1195  0.7349 -0.4294
 5569SOL    HW119600   1.504   3.308   4.971  0.2590  1.7081  0.5775
 5569SOL    HW219601   1.591   3.305   4.847 -2.4645 -0.2696 -1.4067
 5570SOL     OW19602   4.065   9.204   6.289 -0.4893 -0.1971 -0.2563
 5570SOL    HW119603   4.144   9.257   6.298  1.6480 -3.1700 -0.1194
 5570SOL    HW219604   4.055   9.190   6.195 -2.6826  2.5123 -0.5606
 5571SOL     OW19605   0.624   3.626   0.569  0.8276 -0.1552  0.2965
 5571SOL    HW119606   0.619   3.559   0.638 -0.4548  0.6142  0.9930
 5571SOL    HW219607   0.671   3.699   0.610 -3.1124  1.8181  1.7914
 5572SOL     OW19608   2.553   6.853   7.103 -0.2610 -0.1021  0.0732
 5572SOL    HW119609   2.471   6.809   7.079 -0.9477  1.2001 -0.1053
 5572SOL    HW219610   2.593   6.797   7.169 -0.5110 -1.5549 -0.9746
 5573SOL     OW19611   5.915   7.072   9.945  1.0081  0.6539  0.2558
 5573SOL    HW119612   5.866   7.051  10.024  1.3713  1.3090  0.6655
 5573SOL    HW219613   5.905   7.167   9.935  0.4392  0.4894 -0.8449
 5574SOL     OW19614   3.029   7.990   6.943 -0.1381 -0.0391  0.0738
 5574SOL    HW119615   3.095   8.060   6.944 -0.5187  0.3336  1.4339
 5574SOL    HW219616   3.062   7.925   7.005 -1.3841  0.5130  1.3768
 5575SOL     OW19617   4.658   6.088  10.049  0.5467  0.1887 -0.1259
 5575SOL    HW119618   4.686   6.160   9.992 -0.4781  0.1242 -0.7366
 5575SOL    HW219619   4.599   6.036   9.994  1.8327 -1.5422  0.0588
 5576SOL     OW19620   2.746   2.885   8.629 -0.1007 -0.2877 -0.7482
 5576SOL    HW119621   2.831   2.915   8.663 -0.0959  0.2167 -1.1946
 5576SOL    HW219622   2.747   2.791   8.644 -1.1301  0.1220  3.0057
 5577SOL     OW19623   8.839   0.110   8.909 -0.1739  0.2270  0.1516
 5577SOL    HW119624   8.926   0.075   8.930 -0.4879  0.0268  1.2092
 5577SOL    HW219625   8.840   0.123   8.815  1.4862  1.5577  0.3104
 5578SOL     OW19626   4.186   9.255   4.884 -0.0589 -0.2723  0.1217
 5578SOL    HW119627   4.096   9.277   4.907  0.3239  0.7226  0.7086
 5578SOL    HW219628   4.205   9.311   4.808 -0.4928 -1.7469 -1.1316
 5579SOL     OW19629   2.315   4.581   0.459  0.3345 -0.4585  0.7085
 5579SOL    HW119630   2.379   4.564   0.389 -0.5097  0.0315 -0.2114
 5579SOL    HW219631   2.286   4.495   0.487  0.4798 -0.6593  0.2580
 5580SOL     OW19632   8.687   6.312   5.533  0.1976 -0.0176 -0.1979
 5580SOL    HW119633   8.743   6.239   5.559  0.0998  0.2131  0.6744
 5580SOL    HW219634   8.748   6.379   5.504  0.2791 -0.5363 -1.2938
 5581SOL     OW19635   6.673   9.730   2.722 -0.0308 -0.0869  0.6258
 5581SOL    HW119636   6.650   9.638   2.711 -0.9219 -0.0906  2.3024
 5581SOL    HW219637   6.608   9.778   2.670  0.1212 -0.3572  0.1739
 5582SOL     OW19638   2.179   0.190   6.511  0.0329  0.5368  0.2545
 5582SOL    HW119639   2.095   0.235   6.524 -0.3926 -0.1246 -0.1311
 5582SOL    HW219640   2.163   0.100   6.539  0.7004  0.4763  0.4539
 5583SOL     OW19641   9.498   0.486   8.903  0.3974 -0.4327 -0.0556
 5583SOL    HW119642   9.448   0.526   8.832  0.8145 -0.3497 -0.3083
 5583SOL    HW219643   9.559   0.554   8.931  0.9798 -0.8143 -0.3602
 5584SOL     OW19644   3.100   7.160   8.738  0.3908  0.1485 -0.2686
 5584SOL    HW119645   3.067   7.223   8.803 -2.3448 -2.4708  1.1049
 5584SOL    HW219646   3.023   7.135   8.687  1.1030 -2.7905 -0.0862
 5585SOL     OW19647   2.512   3.088   7.445 -0.3091 -0.6339  0.8883
 5585SOL    HW119648   2.605   3.108   7.430 -0.0498 -2.2568  0.1482
 5585SOL    HW219649   2.470   3.105   7.360 -0.2104 -2.3731  0.4615
 5586SOL     OW19650   9.266   1.700   5.916  0.1528 -0.6529 -0.3687
 5586SOL    HW119651   9.310   1.645   5.851 -1.3145 -0.6477 -1.4196
 5586SOL    HW219652   9.233   1.639   5.981  1.1385 -0.7081  0.1081
 5587SOL     OW19653   9.738   2.174   6.172 -0.0838 -0.2004  0.6755
 5587SOL    HW119654   9.702   2.089   6.197 -0.5359 -0.3945 -0.5429
 5587SOL    HW219655   9.814   2.153   6.118 -1.4274  0.0582 -1.4577
 5588SOL     OW19656   3.573   2.635   0.099  0.2107  0.3181 -0.1168
 5588SOL    HW119657   3.501   2.660   0.040 -0.6174  1.0844  1.1679
 5588SOL    HW219658   3.636   2.590   0.043 -1.5258 -0.8867 -1.1864
 5589SOL     OW19659   4.905   3.041   2.961  0.2686  0.0608 -0.3927
 5589SOL    HW119660   4.842   3.041   3.033 -0.8664  0.8639 -1.3667
 5589SOL    HW219661   4.930   2.949   2.952 -1.5660 -0.4493 -0.6740
 5590SOL     OW19662   6.983   3.198  10.491  0.3100  0.1613  0.0325
 5590SOL    HW119663   6.965   3.251  10.413  1.4639 -0.7028 -0.8670
 5590SOL    HW219664   6.983   3.261  10.563 -0.6272  1.0084 -0.6637
 5591SOL     OW19665   3.359   5.075   7.932 -0.0149  0.1652 -0.6766
 5591SOL    HW119666   3.346   5.037   7.845 -0.0061  0.4324 -0.7944
 5591SOL    HW219667   3.429   5.022   7.971 -0.0164  0.0470 -0.8319
 5592SOL     OW19668   8.602   4.778   5.857  0.1322 -0.4963  0.0184
 5592SOL    HW119669   8.525   4.814   5.901 -0.1660 -0.5949 -0.4150
 5592SOL    HW219670   8.581   4.785   5.763  0.9124  0.0691 -0.1266
 5593SOL     OW19671   6.568   9.588   6.981  0.2346 -0.1387  0.2203
 5593SOL    HW119672   6.488   9.564   6.933 -0.8163 -0.2095  1.9083
 5593SOL    HW219673   6.612   9.505   6.996 -0.2205 -0.3016  0.6888
 5594SOL     OW19674   1.666   1.578  10.131 -0.0644  0.2542  0.9891
 5594SOL    HW119675   1.721   1.654  10.111  1.0654 -0.3241  1.8009
 5594SOL    HW219676   1.698   1.547  10.216 -0.8348 -0.8397  0.8932
 5595SOL     OW19677   6.345  10.409   5.080 -0.5532  0.1222 -0.7689
 5595SOL    HW119678   6.306  10.412   5.167  1.5715 -2.5115  0.4193
 5595SOL    HW219679   6.417  10.473   5.084 -0.4697  0.0180 -0.5930
 5596SOL     OW19680   7.173   1.972   2.565  0.0356  0.2118  0.1553
 5596SOL    HW119681   7.156   1.974   2.471 -0.3309  2.8577  0.2000
 5596SOL    HW219682   7.099   2.019   2.603  1.4186  1.3775  1.5165
 5597SOL     OW19683   4.635   5.686   4.554  0.1481  0.2497  0.3770
 5597SOL    HW119684   4.684   5.635   4.490  0.6248  0.7211  0.3625
 5597SOL    HW219685   4.685   5.678   4.635  0.1366  0.5511  0.4154
 5598SOL     OW19686   8.130   7.716   6.230  0.2899  0.0606  0.5358
 5598SOL    HW119687   8.049   7.685   6.188  0.2714  1.4524 -0.5103
 5598SOL    HW219688   8.100   7.758   6.311 -0.0254  0.3871  0.2546
 5599SOL     OW19689   7.649   0.720   6.572 -0.3288 -0.2126  0.4339
 5599SOL    HW119690   7.736   0.682   6.579  0.2884  0.9001 -0.6804
 5599SOL    HW219691   7.631   0.721   6.477 -1.5781 -0.4886  0.6497
 5600SOL     OW19692   0.322   2.376   3.687  0.2475 -0.3948 -0.1453
 5600SOL    HW119693   0.264   2.309   3.723  1.6288 -1.6052 -0.0733
 5600SOL    HW219694   0.401   2.328   3.661  1.3213  1.2124 -0.0108
 5601SOL     OW19695   8.842   6.740   3.751  0.5644  0.6048  0.1824
 5601SOL    HW119696   8.804   6.764   3.667  0.8711 -1.8774 -0.7490
 5601SOL    HW219697   8.767   6.720   3.807  0.3452 -1.8846 -0.8910
 5602SOL     OW19698   2.404   8.510   7.121 -0.1993  0.6901 -0.2193
 5602SOL    HW119699   2.422   8.441   7.058  0.7237  1.4914 -0.8579
 5602SOL    HW219700   2.309   8.503   7.137 -0.7001  1.1424 -2.5306
 5603SOL     OW19701   3.373   9.290   2.133  0.5291 -0.4954 -0.2901
 5603SOL    HW119702   3.357   9.196   2.133 -1.5538 -0.2900  2.9495
 5603SOL    HW219703   3.440   9.303   2.200  0.8598  0.3526 -0.7670
 5604SOL     OW19704  10.044   9.056   0.747 -0.7353  0.4890 -0.1950
 5604SOL    HW119705  10.032   9.014   0.832 -0.6265 -0.4724 -0.6366
 5604SOL    HW219706  10.115   9.120   0.761 -0.1369 -0.2521  0.2407
 5605SOL     OW19707   7.697   6.161   7.100 -0.0596 -0.4269 -0.1448
 5605SOL    HW119708   7.706   6.127   7.011  1.7998  0.1140 -0.1933
 5605SOL    HW219709   7.720   6.254   7.093  0.0098 -0.3537  0.8912
 5606SOL     OW19710   1.583   5.554   1.322 -0.3384 -0.3766  0.2558
 5606SOL    HW119711   1.641   5.628   1.340 -1.4361  0.5181  0.2599
 5606SOL    HW219712   1.635   5.495   1.268  0.3516  0.7143 -0.3081
 5607SOL     OW19713   4.753   0.654   7.110 -0.0076  0.2856  0.0915
 5607SOL    HW119714   4.758   0.559   7.095  2.2604  0.3429  0.2357
 5607SOL    HW219715   4.832   0.689   7.069 -0.7997  2.1474  0.0580
 5608SOL     OW19716   4.968   1.966   3.648 -0.6145 -0.9088  0.0374
 5608SOL    HW119717   4.924   1.936   3.727 -1.0925 -2.2139 -0.7081
 5608SOL    HW219718   4.907   1.948   3.577  0.9147 -2.3664 -0.9825
 5609SOL     OW19719   5.555   9.991   1.646  0.3874 -0.6777 -0.2382
 5609SOL    HW119720   5.506   9.959   1.721  0.6201 -0.5226 -0.0200
 5609SOL    HW219721   5.497  10.056   1.605  0.1255 -1.0040 -0.3877
 5610SOL     OW19722   2.205   1.118  10.197 -0.1315 -0.7318 -0.3062
 5610SOL    HW119723   2.162   1.032  10.200  2.6270 -2.2139  0.9172
 5610SOL    HW219724   2.239   1.130  10.285  0.2936  1.2504 -0.7026
 5611SOL     OW19725   3.571   8.482   2.481  0.1885  0.0464 -0.1505
 5611SOL    HW119726   3.585   8.462   2.573 -0.8814  0.6847  0.1639
 5611SOL    HW219727   3.636   8.428   2.435  0.9573 -0.0287  0.9815
 5612SOL     OW19728   6.001   1.938   1.563 -0.0199 -0.5466 -0.4341
 5612SOL    HW119729   5.911   1.933   1.596  0.0341 -0.6549 -0.2990
 5612SOL    HW219730   6.047   1.994   1.626 -0.2905  0.5461 -1.1851
 5613SOL     OW19731   7.294   3.754   3.953 -0.0478 -0.2949  0.4126
 5613SOL    HW119732   7.382   3.746   3.917  0.1702 -1.4301  1.1561
 5613SOL    HW219733   7.305   3.807   4.032 -0.1756  0.2526  0.0734
 5614SOL     OW19734  10.236   7.315   4.798  0.2191 -0.0393  0.0575
 5614SOL    HW119735  10.311   7.302   4.739 -1.5040 -0.5299 -2.1800
 5614SOL    HW219736  10.249   7.250   4.867  1.5851 -0.4557 -0.5409
 5615SOL     OW19737   8.394   4.295   6.328  0.6959 -0.3977  0.0367
 5615SOL    HW119738   8.479   4.324   6.297  0.9638 -0.1727  0.9481
 5615SOL    HW219739   8.391   4.323   6.420 -0.5039 -0.0862 -0.0827
 5616SOL     OW19740   8.702   9.609   7.512 -0.2509 -0.0701 -0.5191
 5616SOL    HW119741   8.793   9.638   7.521  0.3013 -0.9342 -2.8421
 5616SOL    HW219742   8.701   9.521   7.549 -0.5223  0.4546  0.8079
 5617SOL     OW19743   1.827   2.552   3.198  0.2937  0.9743  0.6838
 5617SOL    HW119744   1.733   2.562   3.179  0.1766  1.1250  1.3285
 5617SOL    HW219745   1.831   2.487   3.268  0.6651  1.0767  0.7590
 5618SOL     OW19746   2.675   6.256   6.134  0.3782 -0.3681  0.4356
 5618SOL    HW119747   2.641   6.345   6.137  0.9585 -0.0560 -1.2183
 5618SOL    HW219748   2.599   6.202   6.108  0.5828  0.0114 -1.0218
 5619SOL     OW19749   5.247   9.422   3.014  0.1131  0.4402  0.2926
 5619SOL    HW119750   5.275   9.461   2.931 -0.3568 -1.1644 -0.6576
 5619SOL    HW219751   5.151   9.430   3.013  0.1252  0.7747  0.8922
 5620SOL     OW19752   3.809   4.533   7.912 -0.7000 -0.0665 -0.1426
 5620SOL    HW119753   3.775   4.488   7.834 -0.9550  1.2238 -0.8022
 5620SOL    HW219754   3.759   4.614   7.916  0.7141  0.8069  0.2008
 5621SOL     OW19755   9.252   4.930   6.146 -0.4182  0.1138 -0.1221
 5621SOL    HW119756   9.251   4.899   6.055 -2.0250 -2.4146  0.6466
 5621SOL    HW219757   9.220   5.020   6.141 -1.0529 -0.1677 -2.0281
 5622SOL     OW19758   7.459   6.091   4.455 -0.2531 -0.2761 -0.1090
 5622SOL    HW119759   7.551   6.112   4.441 -0.4134 -0.5947 -1.8389
 5622SOL    HW219760   7.456   6.057   4.544  0.8735  2.0057  0.9031
 5623SOL     OW19761   5.976   6.806  10.602  0.0796 -0.4205  0.1625
 5623SOL    HW119762   5.900   6.865  10.599  0.0251 -0.4837  0.2714
 5623SOL    HW219763   6.044   6.852  10.553  0.0508 -0.2466  0.2825
 5624SOL     OW19764   9.127   0.667   5.948  0.7246  0.3232  0.0930
 5624SOL    HW119765   9.074   0.687   6.025 -1.6974  1.0592 -1.6381
 5624SOL    HW219766   9.151   0.752   5.912  1.0649  0.0026 -0.4506
 5625SOL     OW19767  10.108   0.641   9.843  0.1538  0.4913 -0.2734
 5625SOL    HW119768  10.029   0.666   9.892 -0.7417  0.2278 -1.5528
 5625SOL    HW219769  10.136   0.722   9.801  0.5364  0.5646  0.1100
 5626SOL     OW19770   1.309   7.435   2.519 -0.2798  0.0576 -0.4798
 5626SOL    HW119771   1.305   7.391   2.434  0.8228  3.0773 -2.2388
 5626SOL    HW219772   1.400   7.428   2.546 -0.0710  1.3360 -0.8367
 5627SOL     OW19773   8.536   5.388   1.418  0.2622 -0.1488 -0.6177
 5627SOL    HW119774   8.574   5.436   1.344  1.6158 -0.3286 -0.0794
 5627SOL    HW219775   8.598   5.402   1.489 -0.0703 -1.4789 -0.0375
 5628SOL     OW19776   5.238   4.176   4.858  0.9194  0.0475  0.1674
 5628SOL    HW119777   5.260   4.262   4.821  1.0947 -0.8529 -1.9208
 5628SOL    HW219778   5.305   4.117   4.824  0.7996 -0.9550  1.5646
 5629SOL     OW19779   7.311   6.734   1.132 -0.2155 -0.8627  0.1076
 5629SOL    HW119780   7.254   6.732   1.209 -0.1519 -1.7082  0.1511
 5629SOL    HW219781   7.281   6.809   1.081 -1.4287 -1.3383  0.0856
 5630SOL     OW19782   1.062   2.320   6.086 -0.2808  0.3020 -0.5083
 5630SOL    HW119783   1.001   2.254   6.053 -1.7840  1.7861 -0.8529
 5630SOL    HW219784   1.081   2.375   6.010  0.9285  0.2846 -0.2270
 5631SOL     OW19785   7.850   8.127   4.705  0.2958 -0.0566  0.1437
 5631SOL    HW119786   7.833   8.125   4.610  2.7356 -3.0220 -0.3897
 5631SOL    HW219787   7.838   8.036   4.733  2.8710  0.0631  1.9643
 5632SOL     OW19788   8.781   0.472   5.340 -0.1217 -0.5323  0.5388
 5632SOL    HW119789   8.753   0.535   5.274 -0.2173 -0.0669  1.0151
 5632SOL    HW219790   8.873   0.456   5.321 -0.3313 -0.9703 -0.1525
 5633SOL     OW19791   2.235   2.520   1.462  0.0728 -0.0063  0.1300
 5633SOL    HW119792   2.285   2.490   1.387 -1.2002 -1.3518 -0.2161
 5633SOL    HW219793   2.153   2.552   1.425 -0.1728  0.2290  0.8626
 5634SOL     OW19794   9.430   7.155   5.826 -0.0835 -0.0191  0.0033
 5634SOL    HW119795   9.388   7.096   5.764 -0.0062  0.2674 -0.3186
 5634SOL    HW219796   9.448   7.099   5.903  1.4604 -0.8363 -0.9009
 5635SOL     OW19797   9.012   9.605   5.962 -0.0699 -0.1271  0.4078
 5635SOL    HW119798   9.045   9.678   5.909 -1.3324  1.0477  1.1526
 5635SOL    HW219799   9.090   9.562   5.995  0.7224  0.9331 -0.0204
 5636SOL     OW19800   7.191   6.400   7.194 -0.0087  0.0739 -0.1303
 5636SOL    HW119801   7.249   6.476   7.205  1.0298 -1.0261  3.0891
 5636SOL    HW219802   7.125   6.411   7.262 -0.1135 -1.6367  0.0796
 5637SOL     OW19803   5.412   7.488   9.844  0.1019 -0.3577  0.8877
 5637SOL    HW119804   5.503   7.514   9.834  0.2744 -1.3519 -0.6312
 5637SOL    HW219805   5.408   7.400   9.805 -1.8451  0.3856 -0.8264
 5638SOL     OW19806   5.301   1.318   4.249  0.0876  0.2929 -0.4412
 5638SOL    HW119807   5.299   1.396   4.304 -1.9520 -0.5149  0.7609
 5638SOL    HW219808   5.261   1.346   4.166  0.9351  0.9211 -0.6443
 5639SOL     OW19809   3.313   2.082   2.054  0.2079  0.1042  0.1918
 5639SOL    HW119810   3.289   2.073   2.146  1.6665 -0.5860  0.5295
 5639SOL    HW219811   3.272   2.007   2.011  0.8603 -0.4810  0.5765
 5640SOL     OW19812   8.780  10.622   2.593 -0.2375 -0.0687 -0.4537
 5640SOL    HW119813   8.743  10.574   2.519  1.2242 -0.4373 -0.9566
 5640SOL    HW219814   8.866  10.583   2.607  0.8544  2.1740 -0.6502
 5641SOL     OW19815   8.981   6.662   8.125  0.4031 -0.1262  0.1568
 5641SOL    HW119816   8.969   6.625   8.037  1.3300  0.6991 -0.3305
 5641SOL    HW219817   9.027   6.745   8.110  0.2035  0.2218  1.3950
 5642SOL     OW19818   5.507   9.208   9.559 -0.4734  0.4661 -0.6959
 5642SOL    HW119819   5.569   9.139   9.535 -0.9189 -0.0808 -0.2949
 5642SOL    HW219820   5.562   9.279   9.590 -0.0665 -0.6634  1.3741
 5643SOL     OW19821   8.387   9.465   0.544 -0.0437 -0.3761  0.5118
 5643SOL    HW119822   8.379   9.388   0.488  1.2032  1.0660 -1.8457
 5643SOL    HW219823   8.474   9.458   0.583 -0.1085 -0.4098  0.6470
 5644SOL     OW19824  10.431   7.068   1.187  0.0698  0.6477  0.1404
 5644SOL    HW119825  10.389   7.100   1.267  0.8965  3.1380 -0.3479
 5644SOL    HW219826  10.484   7.141   1.156  0.5480 -0.5755 -2.1816
 5645SOL     OW19827   7.509   7.193   2.430 -0.5791  0.5271  0.8869
 5645SOL    HW119828   7.596   7.226   2.453 -0.9847  1.5299  1.0169
 5645SOL    HW219829   7.516   7.172   2.337  0.1573 -0.6138  1.1680
 5646SOL     OW19830   5.234   0.970  10.549 -0.6333 -0.1235  0.0053
 5646SOL    HW119831   5.219   0.919  10.469 -0.6969  0.6252 -0.4721
 5646SOL    HW219832   5.205   0.913  10.619  0.8777 -1.4180 -0.3677
 5647SOL     OW19833   1.322   0.155  10.383 -0.1577  0.0908  0.1214
 5647SOL    HW119834   1.305   0.094  10.311  1.3274  2.0483 -2.0367
 5647SOL    HW219835   1.417   0.167  10.382 -0.3134  1.7009  1.0837
 5648SOL     OW19836   3.062   9.067   4.169  0.6748  0.5844  0.2977
 5648SOL    HW119837   3.041   8.988   4.119  1.1115  1.1049 -0.7522
 5648SOL    HW219838   3.144   9.046   4.215 -0.0705 -0.1220  1.3375
 5649SOL     OW19839   3.021   5.633   1.252  0.2364 -0.2865  1.1433
 5649SOL    HW119840   2.941   5.648   1.302 -0.6781 -0.8348 -0.1163
 5649SOL    HW219841   3.075   5.710   1.269 -1.7963  1.5804 -0.3330
 5650SOL     OW19842   6.151   8.145   6.966 -0.1385  0.1623  0.4513
 5650SOL    HW119843   6.109   8.140   7.052  0.7576  0.4131  0.9156
 5650SOL    HW219844   6.111   8.073   6.917 -0.0000 -0.5873  1.3847
 5651SOL     OW19845   6.501   8.362   8.526  0.8731  0.3898  0.1023
 5651SOL    HW119846   6.508   8.452   8.558  0.3894  0.4591  0.0190
 5651SOL    HW219847   6.560   8.312   8.582  0.8225  0.6875  0.4242
 5652SOL     OW19848   1.768   6.303   5.010 -0.6911  0.6968  0.2270
 5652SOL    HW119849   1.688   6.279   5.057 -1.0544  1.8118  0.2107
 5652SOL    HW219850   1.765   6.399   5.007  0.7506  0.7581  0.3978
 5653SOL     OW19851   8.039   4.814   5.909  0.1077 -0.3409 -0.3600
 5653SOL    HW119852   8.133   4.817   5.889  0.2357 -1.8185 -0.1174
 5653SOL    HW219853   7.996   4.822   5.824  0.5715 -3.1472 -0.9575
 5654SOL     OW19854   8.122   7.255   9.125  0.1172 -0.1110 -0.1043
 5654SOL    HW119855   8.139   7.214   9.041 -1.3374 -0.3373 -0.3201
 5654SOL    HW219856   8.147   7.346   9.113 -0.9367  0.0657 -1.0875
 5655SOL     OW19857   0.331   0.240   1.464 -0.2740 -0.2913 -0.3734
 5655SOL    HW119858   0.417   0.229   1.423 -0.1919 -2.4793  0.2304
 5655SOL    HW219859   0.270   0.196   1.404 -0.7974  0.1955 -0.2075
 5656SOL     OW19860   5.459   2.591   4.908  0.1003 -0.1780  0.6666
 5656SOL    HW119861   5.394   2.588   4.978  0.3220 -2.7719  0.8672
 5656SOL    HW219862   5.509   2.671   4.924 -1.6687  0.7587  1.7565
 5657SOL     OW19863   8.434   8.302   2.880 -0.2326 -0.1307 -0.1898
 5657SOL    HW119864   8.375   8.255   2.820  0.8120 -0.2136 -1.1906
 5657SOL    HW219865   8.414   8.394   2.864 -1.4816 -0.1707  0.9483
 5658SOL     OW19866   6.584   2.470   3.165  0.3528 -0.1691  0.1217
 5658SOL    HW119867   6.677   2.449   3.154  0.3448 -0.4857  0.6573
 5658SOL    HW219868   6.583   2.539   3.231  0.4252  1.9832 -2.0034
 5659SOL     OW19869   5.696   8.243   6.802  0.3058  0.1688  0.4098
 5659SOL    HW119870   5.644   8.250   6.722  0.5751 -1.2749  0.0849
 5659SOL    HW219871   5.785   8.265   6.775  0.9196 -2.8768 -0.3398
 5660SOL     OW19872   8.892   5.193  10.340 -0.2382 -0.9139 -0.3358
 5660SOL    HW119873   8.931   5.279  10.328  0.4852 -1.0747  0.7217
 5660SOL    HW219874   8.942   5.136  10.281  1.2353 -1.1199  1.0085
 5661SOL     OW19875   9.109  10.521   3.047  0.2325  0.6827 -0.7803
 5661SOL    HW119876   9.074  10.436   3.020  1.9672 -0.3178 -0.0331
 5661SOL    HW219877   9.046  10.585   3.013 -0.6696 -0.8395 -2.1013
 5662SOL     OW19878   6.747   7.577   8.160 -0.1094 -0.2377  0.2863
 5662SOL    HW119879   6.776   7.663   8.191 -0.6377  0.3775 -0.8245
 5662SOL    HW219880   6.823   7.540   8.115 -0.1681  0.1094 -0.1125
 5663SOL     OW19881   0.159  10.557  10.797  0.1874 -0.2520 -0.6223
 5663SOL    HW119882   0.138  10.506  10.718  0.4775  0.0087 -0.8730
 5663SOL    HW219883   0.086  10.619  10.805  0.6811  0.4487 -1.3175
 5664SOL     OW19884   6.476   3.303   0.579  0.4246  0.0576 -0.3634
 5664SOL    HW119885   6.418   3.310   0.656  0.2103  0.8963 -0.6009
 5664SOL    HW219886   6.541   3.371   0.591  0.9972 -0.4719 -0.4235
 5665SOL     OW19887   0.277   2.213   0.934  0.0084  0.6768 -0.1291
 5665SOL    HW119888   0.354   2.268   0.946  0.1146  0.1034  2.2447
 5665SOL    HW219889   0.310   2.124   0.940 -0.8452  0.4268  1.0540
 5666SOL     OW19890   5.265   2.032   0.929 -0.4405 -0.6873  0.8944
 5666SOL    HW119891   5.209   2.089   0.875 -0.2851 -0.2213  1.2115
 5666SOL    HW219892   5.238   1.943   0.907  1.3689 -0.6563 -1.8661
 5667SOL     OW19893   9.517   8.701   5.992 -0.3340 -0.4041 -0.2114
 5667SOL    HW119894   9.556   8.706   6.079 -1.3186 -0.4135  0.2449
 5667SOL    HW219895   9.560   8.626   5.951  0.5873 -0.0232  0.0294
 5668SOL     OW19896   1.442   7.262   7.614  0.2907  0.1248 -0.3000
 5668SOL    HW119897   1.372   7.290   7.674  0.9348  0.1905  0.4378
 5668SOL    HW219898   1.485   7.344   7.588  0.3010  0.0584 -0.4895
 5669SOL     OW19899   4.910   9.203   6.743  0.1388 -0.3406  0.2474
 5669SOL    HW119900   4.930   9.152   6.664 -1.2576  2.5347 -2.1244
 5669SOL    HW219901   4.815   9.207   6.745  0.2044  1.2240  1.0080
 5670SOL     OW19902   0.312   8.606   3.729  0.1713 -0.1599  0.0112
 5670SOL    HW119903   0.321   8.604   3.633 -0.1583  2.9484 -0.1831
 5670SOL    HW219904   0.218   8.616   3.743  0.3159  0.2931  0.6349
 5671SOL     OW19905   0.873   1.722   7.010 -0.0919 -0.1479  0.1035
 5671SOL    HW119906   0.952   1.692   7.055 -0.7668 -0.2433  1.2615
 5671SOL    HW219907   0.906   1.780   6.941  0.9787 -0.0062  0.7004
 5672SOL     OW19908   5.629   7.326   8.096 -0.6409  0.0987  0.7085
 5672SOL    HW119909   5.598   7.401   8.146 -0.5479  0.5770  0.0693
 5672SOL    HW219910   5.660   7.364   8.013 -1.8275 -0.7675 -0.1773
 5673SOL     OW19911   3.061   9.222   1.127 -0.3130 -0.3672  0.2109
 5673SOL    HW119912   2.976   9.184   1.107 -0.7963  1.5580 -1.7830
 5673SOL    HW219913   3.060   9.308   1.083  2.6363 -0.2819  0.1073
 5674SOL     OW19914   3.625   1.664   1.330 -0.2376 -0.4931  0.0818
 5674SOL    HW119915   3.541   1.682   1.372 -0.5780  1.3074 -1.2436
 5674SOL    HW219916   3.674   1.746   1.340 -0.2024 -0.1092 -2.6047
 5675SOL     OW19917   8.027   8.624   8.035  0.4499  0.4482 -0.1939
 5675SOL    HW119918   8.013   8.619   8.129 -0.2676 -0.5944 -0.3354
 5675SOL    HW219919   7.981   8.704   8.008 -0.4593  0.0535  0.1585
 5676SOL     OW19920   7.503   6.855   1.593 -0.6869  0.3276 -0.4030
 5676SOL    HW119921   7.518   6.898   1.509 -1.4077  1.9506  0.2537
 5676SOL    HW219922   7.421   6.808   1.582 -0.8843  0.7026 -0.5531
 5677SOL     OW19923   8.305   8.194  10.631 -0.7380 -0.1096 -0.4074
 5677SOL    HW119924   8.230   8.134  10.636 -0.6040 -0.3043 -0.7048
 5677SOL    HW219925   8.381   8.136  10.630 -0.5558  0.0970  0.3709
 5678SOL     OW19926   7.680   7.658   1.918  0.1041 -0.4773 -0.0770
 5678SOL    HW119927   7.610   7.712   1.955  0.4701  1.2395 -1.6818
 5678SOL    HW219928   7.755   7.674   1.975 -0.3032 -0.8568  0.5790
 5679SOL     OW19929   6.831   5.948   9.761  0.0259 -0.1611 -0.5368
 5679SOL    HW119930   6.894   5.889   9.801  0.7408  0.3824 -0.8341
 5679SOL    HW219931   6.872   6.035   9.768 -1.2747  0.4113  0.4802
 5680SOL     OW19932   5.939  10.018   0.407  0.4426 -0.0652  0.0965
 5680SOL    HW119933   5.844  10.017   0.404  0.4350  1.3616 -1.4616
 5680SOL    HW219934   5.962   9.952   0.472 -1.5550 -2.2371 -1.2467
 5681SOL     OW19935   5.584   8.668   0.702 -0.3987 -0.0784  0.2529
 5681SOL    HW119936   5.662   8.616   0.683 -0.2809 -0.0538  0.6480
 5681SOL    HW219937   5.511   8.612   0.678 -0.2660 -0.3067  0.3745
 5682SOL     OW19938   1.777   5.399   4.915 -0.2112  0.0365  0.1698
 5682SOL    HW119939   1.791   5.491   4.890 -4.1582  0.9867  0.7145
 5682SOL    HW219940   1.815   5.392   5.002  0.3829  1.0659  0.0104
 5683SOL     OW19941  10.140   5.791   2.249 -0.2882  0.2546  0.3167
 5683SOL    HW119942  10.159   5.841   2.169 -0.7705 -0.0374  0.0061
 5683SOL    HW219943  10.044   5.790   2.253 -0.2613  0.4816  1.0428
 5684SOL     OW19944   9.138   8.814   8.027  0.2163 -0.1517  0.0240
 5684SOL    HW119945   9.150   8.891   8.083  0.6586 -0.4633  0.3646
 5684SOL    HW219946   9.051   8.825   7.989  0.4247  0.7034 -0.2209
 5685SOL     OW19947   9.125   1.790   3.748 -0.5044  0.6909  0.4412
 5685SOL    HW119948   9.093   1.743   3.825 -1.1779  2.4756  1.3098
 5685SOL    HW219949   9.112   1.883   3.769  0.4239  1.2769 -1.3404
 5686SOL     OW19950   5.137   1.130   2.870 -0.4721 -0.4069  0.2206
 5686SOL    HW119951   5.217   1.079   2.876  0.1626  0.6512  1.6265
 5686SOL    HW219952   5.122   1.142   2.776 -0.2475 -2.4774 -0.1217
 5687SOL     OW19953   7.946   4.009   7.029  0.3510 -0.5820 -0.7858
 5687SOL    HW119954   7.991   3.963   7.100 -1.2058  0.0296  0.6859
 5687SOL    HW219955   7.913   3.940   6.972 -0.8106 -1.3025  0.6624
 5688SOL     OW19956   0.707   0.566   6.438  0.6408  0.6379  0.2717
 5688SOL    HW119957   0.716   0.478   6.473 -0.0308 -0.1783 -1.5072
 5688SOL    HW219958   0.746   0.562   6.351 -3.0386  0.9006 -1.5628
 5689SOL     OW19959   6.487   2.855   9.348 -0.2732 -0.5805  0.2870
 5689SOL    HW119960   6.574   2.822   9.327  0.1790 -1.1303  2.6691
 5689SOL    HW219961   6.502   2.916   9.420 -1.8401 -0.6409  0.6978
 5690SOL     OW19962   0.559   3.437   4.792 -0.7333 -0.4617 -0.3605
 5690SOL    HW119963   0.596   3.358   4.831 -0.7703 -1.3283 -1.9933
 5690SOL    HW219964   0.634   3.490   4.767 -0.6684 -0.5791 -0.4173
 5691SOL     OW19965   6.303   1.527   0.629 -0.6356 -0.1181 -0.1401
 5691SOL    HW119966   6.263   1.578   0.558 -0.4680 -0.2594 -0.3368
 5691SOL    HW219967   6.230   1.509   0.688 -0.3538  2.0803  0.9870
 5692SOL     OW19968   7.884   1.044   6.869  0.2656 -0.3544  0.2181
 5692SOL    HW119969   7.957   1.010   6.817  0.6429  0.4047  0.2254
 5692SOL    HW219970   7.886   0.993   6.950  0.8735 -0.2639  0.2665
 5693SOL     OW19971   8.431   8.889   9.515 -0.1376  0.5502 -0.4370
 5693SOL    HW119972   8.444   8.982   9.535  1.5586  0.2597  0.0350
 5693SOL    HW219973   8.505   8.867   9.458 -0.4709 -0.5449 -0.4622
 5694SOL     OW19974   5.041   3.449   6.867 -0.0101  0.1697  0.1723
 5694SOL    HW119975   4.955   3.489   6.857  0.0363 -0.0759 -1.4471
 5694SOL    HW219976   5.028   3.380   6.931 -0.8663  0.5597  0.4361
 5695SOL     OW19977   2.817   0.131   6.969 -0.3157 -0.4334 -0.5121
 5695SOL    HW119978   2.831   0.064   7.036 -2.3115 -0.3532  0.0543
 5695SOL    HW219979   2.848   0.212   7.009 -0.8823 -0.4986  0.0689
 5696SOL     OW19980   5.861   5.392   2.941 -0.0551  0.3621  0.7113
 5696SOL    HW119981   5.856   5.336   3.018 -1.0279  1.1829  1.2708
 5696SOL    HW219982   5.811   5.345   2.874 -0.9829  0.5916  1.2189
 5697SOL     OW19983   0.099   9.586   5.595  0.1968  0.0645  0.8079
 5697SOL    HW119984   0.170   9.601   5.534  0.1994 -1.2379  0.4482
 5697SOL    HW219985   0.107   9.493   5.618 -2.0063 -0.4218 -0.1009
 5698SOL     OW19986   3.618   0.398   6.473  0.8034 -0.7004 -0.0447
 5698SOL    HW119987   3.562   0.392   6.395  1.3567 -0.9721 -0.4311
 5698SOL    HW219988   3.558   0.399   6.546  0.1597  1.2856 -0.5312
 5699SOL     OW19989  10.027   5.762   1.684  0.2695  0.1742  0.0869
 5699SOL    HW119990  10.045   5.692   1.621  0.6091  0.8669 -0.6043
 5699SOL    HW219991   9.972   5.721   1.751 -0.6491 -0.4070 -1.0040
 5700SOL     OW19992   3.200   3.336   3.463 -0.3495 -0.1451 -0.9087
 5700SOL    HW119993   3.268   3.310   3.401  1.4658  1.2206  0.3976
 5700SOL    HW219994   3.223   3.290   3.544 -0.9850  0.3419 -0.4433
 5701SOL     OW19995   8.578  10.058   5.227  0.2173  0.7123 -0.1916
 5701SOL    HW119996   8.602  10.005   5.151 -1.1473 -1.6909  0.9333
 5701SOL    HW219997   8.657  10.059   5.281  0.6870  1.0795 -0.8529
 5702SOL     OW19998   9.245   3.407   4.045 -0.0922  0.4174  0.3187
 5702SOL    HW119999   9.201   3.472   3.990 -0.1882  1.5549  1.7027
 5702SOL    HW220000   9.335   3.405   4.012 -0.3536  0.4444 -0.4297
 5703SOL     OW20001   6.276   4.126   5.739  0.1617  0.0897 -0.0676
 5703SOL    HW120002   6.280   4.205   5.685 -0.2714 -0.7972 -1.4332
 5703SOL    HW220003   6.316   4.153   5.822  0.1218  1.7091 -0.5304
 5704SOL     OW20004  10.684   2.102   9.016  0.0974 -0.5038 -0.3746
 5704SOL    HW120005  10.624   2.165   8.976  0.1150  0.2247  0.6812
 5704SOL    HW220006  10.651   2.017   8.990 -1.3435 -0.1177  0.0859
 5705SOL     OW20007   3.797   1.897   1.354  0.5678 -0.5241 -0.0741
 5705SOL    HW120008   3.804   1.976   1.300  1.6120 -0.5881 -0.0575
 5705SOL    HW220009   3.750   1.925   1.432  3.6765  0.9409  1.4492
 5706SOL     OW20010   2.815   0.416   5.257  0.2081  0.0861  0.2010
 5706SOL    HW120011   2.836   0.334   5.212  2.5071 -0.7174  2.4821
 5706SOL    HW220012   2.870   0.482   5.213  1.9355 -0.5629  1.2921
 5707SOL     OW20013   8.981   9.764   3.811 -0.6928  0.1773 -0.2964
 5707SOL    HW120014   8.963   9.676   3.777 -1.2600 -0.1075  0.7148
 5707SOL    HW220015   9.067   9.756   3.853 -1.5018 -0.3774  1.3411
 5708SOL     OW20016   0.556   2.710   7.086  0.3907  0.2070  0.0094
 5708SOL    HW120017   0.570   2.752   7.001  0.0276  2.8217  1.1530
 5708SOL    HW220018   0.470   2.739   7.114  0.5457 -0.5130  1.3253
 5709SOL     OW20019   9.610   9.010   3.081 -0.1276 -0.8239 -0.0033
 5709SOL    HW120020   9.645   8.976   3.164  0.5565 -2.7445 -1.0259
 5709SOL    HW220021   9.538   8.950   3.060 -0.0850 -0.5430 -0.9668
 5710SOL     OW20022   8.527   8.307  10.131  0.0001 -0.5067  0.2174
 5710SOL    HW120023   8.603   8.361  10.110  0.9489 -1.6607  0.5691
 5710SOL    HW220024   8.527   8.239  10.065 -0.1033 -1.1149  0.8357
 5711SOL     OW20025   9.171   4.726   3.675  0.2125 -0.0050 -0.1807
 5711SOL    HW120026   9.219   4.770   3.605  0.2210  0.8105  0.3282
 5711SOL    HW220027   9.225   4.739   3.754 -0.7533  0.7835  0.3684
 5712SOL     OW20028   8.960   2.259   3.060 -0.5777  0.4373  0.0869
 5712SOL    HW120029   8.871   2.286   3.083 -0.1273  1.9362  0.1752
 5712SOL    HW220030   8.986   2.320   2.992  0.2207 -0.3059 -0.2874
 5713SOL     OW20031   9.163   5.907   5.935  0.0197 -0.2448 -0.2061
 5713SOL    HW120032   9.237   5.911   5.995  1.1758  0.4832 -1.6135
 5713SOL    HW220033   9.188   5.842   5.869 -0.2233  0.5705 -1.1359
 5714SOL     OW20034  10.628  10.450  10.609 -0.1980  0.0869  0.0858
 5714SOL    HW120035  10.661  10.399  10.683 -1.3644 -0.7616  0.0505
 5714SOL    HW220036  10.699  10.450  10.545  0.7072  0.5611  1.0632
 5715SOL     OW20037   7.957   4.881   0.380 -0.6804  0.4046 -0.3470
 5715SOL    HW120038   7.986   4.796   0.348  1.6094  0.4578  1.3509
 5715SOL    HW220039   7.896   4.861   0.450  0.9287  0.0325  1.0273
 5716SOL     OW20040   5.765   3.587   5.480  0.2275  0.0124  0.4364
 5716SOL    HW120041   5.720   3.609   5.562 -2.3913 -2.1562 -0.2752
 5716SOL    HW220042   5.768   3.669   5.431  0.0954  0.9199  1.8913
 5717SOL     OW20043   7.335   9.727   5.225 -0.2232  0.8171  0.1028
 5717SOL    HW120044   7.298   9.701   5.310  1.6514  2.5985  1.5575
 5717SOL    HW220045   7.417   9.677   5.219 -0.7907 -0.0039 -1.1450
 5718SOL     OW20046   0.020   7.245   2.803  0.1246  0.5912 -0.5256
 5718SOL    HW120047   0.096   7.299   2.827  0.3726 -0.0546  0.2014
 5718SOL    HW220048   0.029   7.232   2.709 -0.1941  2.1824 -0.8149
 5719SOL     OW20049   0.806   0.471   4.743 -0.4641 -0.1014 -0.0753
 5719SOL    HW120050   0.841   0.398   4.692  1.7374  1.9923 -1.8050
 5719SOL    HW220051   0.771   0.431   4.822 -2.3406 -3.3405 -2.3024
 5720SOL     OW20052   9.732   2.416   5.994  0.0595  0.2112 -0.0700
 5720SOL    HW120053   9.748   2.384   6.083  0.7401 -0.8729 -0.5677
 5720SOL    HW220054   9.817   2.410   5.951 -0.4040  0.1173 -0.9874
 5721SOL     OW20055   7.538   4.998   1.059  0.3360  0.3121 -0.0536
 5721SOL    HW120056   7.538   4.904   1.041  2.6438  0.7817 -3.5048
 5721SOL    HW220057   7.487   5.036   0.987  0.8237  1.8040  0.3645
 5722SOL     OW20058   4.067  10.467   4.456  0.6561 -0.0487 -0.3728
 5722SOL    HW120059   4.078  10.552   4.499 -1.3362  0.0173  0.0902
 5722SOL    HW220060   3.977  10.442   4.474  0.7947 -1.6556 -1.6490
 5723SOL     OW20061   4.439   0.969  10.557 -0.4308  0.2272 -0.0594
 5723SOL    HW120062   4.513   0.919  10.525 -0.4719  0.9787 -1.4151
 5723SOL    HW220063   4.473   1.019  10.632  0.6960  1.2438 -1.2033
 5724SOL     OW20064   8.248   1.418   2.435  0.0529  0.2905 -0.0794
 5724SOL    HW120065   8.306   1.358   2.482 -0.8522  0.5215  1.3675
 5724SOL    HW220066   8.161   1.379   2.444 -0.1305  0.2354 -1.7665
 5725SOL     OW20067   2.055   2.944   3.969 -0.2375 -0.0040  1.0020
 5725SOL    HW120068   2.138   2.991   3.979 -0.5047  0.2282  2.2405
 5725SOL    HW220069   1.991   3.012   3.948 -0.2387 -0.0992  0.6915
 5726SOL     OW20070   7.187   1.677   4.266 -0.4372 -0.3369  0.5466
 5726SOL    HW120071   7.271   1.656   4.226 -1.4308 -1.0100 -1.2806
 5726SOL    HW220072   7.144   1.735   4.203 -1.2883  0.1562  1.5381
 5727SOL     OW20073   7.141   2.303   8.396 -0.3909  0.7687 -0.1650
 5727SOL    HW120074   7.147   2.398   8.405 -1.5561  0.8540 -0.0845
 5727SOL    HW220075   7.150   2.270   8.485 -0.8010  0.8680 -0.0839
 5728SOL     OW20076   9.608   0.344   0.706  0.9571 -0.5779  0.2013
 5728SOL    HW120077   9.584   0.414   0.766 -1.0864 -1.8178  0.9402
 5728SOL    HW220078   9.598   0.382   0.619 -1.2616 -0.2328  0.5561
 5729SOL     OW20079   7.752   0.632   7.629  0.2998  0.2328 -0.3438
 5729SOL    HW120080   7.758   0.698   7.698  2.0840  0.3351 -0.5556
 5729SOL    HW220081   7.759   0.548   7.676 -0.5404  0.2210 -0.2200
 5730SOL     OW20082   3.141   4.047   3.292  0.1011 -0.2853  0.0836
 5730SOL    HW120083   3.228   4.046   3.253 -0.2272  0.8401 -0.7229
 5730SOL    HW220084   3.106   3.959   3.274  0.0857  0.0801 -1.9169
 5731SOL     OW20085   3.790   2.275   4.723 -0.2400 -0.2835  0.1712
 5731SOL    HW120086   3.711   2.235   4.686 -0.7160  1.0741 -0.3531
 5731SOL    HW220087   3.777   2.271   4.818 -1.0411  0.1170  0.0832
 5732SOL     OW20088   4.816   4.201   0.832  0.4564 -0.0192  0.3048
 5732SOL    HW120089   4.851   4.133   0.891  1.5912  0.0637 -0.2468
 5732SOL    HW220090   4.873   4.198   0.756 -1.8142 -1.0685 -1.4615
 5733SOL     OW20091   9.830   6.170   2.114  0.9120  0.5739 -0.5052
 5733SOL    HW120092   9.879   6.169   2.031  1.1401  1.6568 -0.3901
 5733SOL    HW220093   9.826   6.262   2.139 -0.5492  0.4370 -0.1244
 5734SOL     OW20094   3.424  10.757   4.449 -0.2981 -1.1534 -0.1119
 5734SOL    HW120095   3.443  10.802   4.367 -0.8146 -0.2213  0.2746
 5734SOL    HW220096   3.347  10.703   4.429 -0.6181 -0.6844 -0.1541
 5735SOL     OW20097   1.268   5.304   6.497  0.4959 -0.2223 -0.2973
 5735SOL    HW120098   1.218   5.348   6.428 -0.6969  1.4966  1.5454
 5735SOL    HW220099   1.204   5.248   6.540  0.7216  0.2085  0.6171
 5736SOL     OW20100  10.515   6.509   9.009 -0.0777  0.3899  0.5150
 5736SOL    HW120101  10.572   6.463   8.946 -0.9600  0.8737 -0.6757
 5736SOL    HW220102  10.429   6.507   8.968 -0.2701  2.5316  0.7286
 5737SOL     OW20103   7.146   4.430   9.669  0.4546 -0.4583 -0.0889
 5737SOL    HW120104   7.090   4.477   9.731 -1.3110 -1.3394 -0.9384
 5737SOL    HW220105   7.231   4.473   9.676  0.4503 -0.7850  3.2074
 5738SOL     OW20106   8.428   5.950   2.989 -0.3807 -0.1785 -0.4766
 5738SOL    HW120107   8.354   6.006   2.966  0.5363  0.0806 -3.2376
 5738SOL    HW220108   8.484   6.005   3.043 -0.4172  0.9600 -1.5389
 5739SOL     OW20109   9.547   2.262   8.111 -0.3861 -0.1411  0.2009
 5739SOL    HW120110   9.497   2.328   8.158  0.3172 -0.1542  0.9884
 5739SOL    HW220111   9.538   2.287   8.019  0.8013  1.7608  0.5381
 5740SOL     OW20112   3.740   3.034   4.243  0.0344 -0.4304  0.5960
 5740SOL    HW120113   3.803   3.073   4.303 -1.2723 -0.5711  2.1001
 5740SOL    HW220114   3.777   2.948   4.222  0.7794 -0.1477  0.7162
 5741SOL     OW20115  10.762   8.991   5.755 -0.5732 -0.2426  0.1053
 5741SOL    HW120116  10.706   9.069   5.756 -1.3656 -0.8105  0.4647
 5741SOL    HW220117  10.702   8.917   5.762  0.3186 -0.8040  3.7682
 5742SOL     OW20118   6.550   6.578   1.317 -0.8752 -0.0597  0.9652
 5742SOL    HW120119   6.558   6.628   1.236 -0.8770  0.4347  1.2673
 5742SOL    HW220120   6.479   6.517   1.300 -0.5036 -0.3423  0.3982
 5743SOL     OW20121   0.447   6.673   3.086 -0.3723 -0.1383  0.5194
 5743SOL    HW120122   0.504   6.719   3.025  1.5682 -2.1323  0.7009
 5743SOL    HW220123   0.441   6.731   3.162  1.6033  0.0819  0.5677
 5744SOL     OW20124   5.982   4.914   5.903 -0.0775 -0.1737  0.1777
 5744SOL    HW120125   5.967   4.963   5.822 -1.1996  1.2439  1.1647
 5744SOL    HW220126   5.976   4.981   5.972 -1.1738 -1.6261  1.5677
 5745SOL     OW20127   3.142   6.784   9.936  0.0876  0.0527 -0.1012
 5745SOL    HW120128   3.181   6.863   9.974 -1.1731  1.0340 -0.7802
 5745SOL    HW220129   3.057   6.812   9.902  0.1067 -1.3253 -1.4334
 5746SOL     OW20130   3.144   8.237  10.711 -0.2446 -0.0350 -0.0316
 5746SOL    HW120131   3.065   8.197  10.674  0.6144 -1.1993 -0.6864
 5746SOL    HW220132   3.141   8.327  10.681 -0.6313 -0.4243 -1.2272
 5747SOL     OW20133   4.960   9.915   1.221  0.3413  0.4416  0.0524
 5747SOL    HW120134   5.010   9.880   1.295 -0.8662 -2.2031 -0.2800
 5747SOL    HW220135   4.921   9.838   1.180  0.9566  1.7711 -3.3891
 5748SOL     OW20136   9.141   8.386   7.347  0.2783 -0.5066  0.3442
 5748SOL    HW120137   9.202   8.434   7.402  1.5641 -0.7467 -0.8182
 5748SOL    HW220138   9.195   8.322   7.301 -0.6953 -0.1433 -1.3919
 5749SOL     OW20139   8.810   9.678   0.682  1.1118  0.3856  0.5856
 5749SOL    HW120140   8.786   9.750   0.740  1.6705  1.8070 -0.8863
 5749SOL    HW220141   8.847   9.720   0.605  1.1174 -1.4769 -0.4892
 5750SOL     OW20142   4.095   6.077   3.850 -0.9066  0.2400  0.2650
 5750SOL    HW120143   4.026   6.108   3.791 -0.6450  0.4210  0.0557
 5750SOL    HW220144   4.067   6.106   3.937  0.3203  2.8496 -0.1326
 5751SOL     OW20145   5.645   8.367  10.738  0.0992  0.4575 -0.0498
 5751SOL    HW120146   5.686   8.330  10.660 -0.2332  0.8871 -0.4334
 5751SOL    HW220147   5.595   8.295  10.776 -0.3019  0.4308 -0.6258
 5752SOL     OW20148  10.096   9.317   6.775 -0.2962  0.1652 -0.0580
 5752SOL    HW120149  10.180   9.313   6.821  0.4646  1.0815 -1.3126
 5752SOL    HW220150  10.032   9.332   6.844  0.6838  0.4702  0.8164
 5753SOL     OW20151   0.434   3.911   2.608  0.3706 -0.4298 -0.0368
 5753SOL    HW120152   0.380   3.932   2.684  3.1853  1.1820  1.7265
 5753SOL    HW220153   0.410   3.977   2.542  0.4181  0.5102  0.8538
 5754SOL     OW20154   9.286   3.453   8.370  0.3914  0.9438 -0.3241
 5754SOL    HW120155   9.208   3.413   8.331  0.0288  0.1276  1.1772
 5754SOL    HW220156   9.320   3.386   8.429  2.3217  1.2466 -1.0361
 5755SOL     OW20157   5.699   7.050   6.171  0.7782 -0.4199  0.5748
 5755SOL    HW120158   5.778   7.022   6.125 -0.9141 -2.1802 -1.4946
 5755SOL    HW220159   5.716   7.141   6.194  3.3765 -0.7418  0.2225
 5756SOL     OW20160   3.565   5.294   7.264  1.0282  1.0964 -0.2350
 5756SOL    HW120161   3.559   5.322   7.355  1.3791  1.1990 -0.2410
 5756SOL    HW220162   3.474   5.286   7.235  0.9175  1.3565  0.0360
 5757SOL     OW20163   6.965   1.758   8.815  0.3350 -0.7541  0.0836
 5757SOL    HW120164   6.903   1.685   8.827  0.9773 -1.1269  1.2745
 5757SOL    HW220165   7.020   1.755   8.892  0.9758  0.4370 -0.3110
 5758SOL     OW20166   8.897  10.317   5.324 -0.3314 -0.1528 -0.0102
 5758SOL    HW120167   8.986  10.281   5.323  0.2305  1.0543  1.4927
 5758SOL    HW220168   8.873  10.317   5.417 -1.1659  1.2438 -0.1998
 5759SOL     OW20169   2.108   1.087   1.131 -0.3395 -0.2841 -0.1984
 5759SOL    HW120170   2.200   1.109   1.118 -0.7761  1.0698 -1.2915
 5759SOL    HW220171   2.109   0.998   1.165  1.3731 -0.2127  0.0233
 5760SOL     OW20172   0.791   8.392   8.358 -0.1974  0.5193  0.0283
 5760SOL    HW120173   0.855   8.405   8.288 -2.9310  0.5097 -2.6790
 5760SOL    HW220174   0.799   8.299   8.381  1.5692  0.7984  0.7074
 5761SOL     OW20175   6.591   3.337   4.529 -0.4533  0.4791 -0.2315
 5761SOL    HW120176   6.588   3.365   4.438 -1.1515  0.1618 -0.3102
 5761SOL    HW220177   6.560   3.246   4.528  0.6507  0.0776  0.1720
 5762SOL     OW20178   8.099   2.699   2.912 -0.4478 -0.4587  0.6268
 5762SOL    HW120179   8.168   2.633   2.921 -0.7689 -1.1133 -1.1483
 5762SOL    HW220180   8.133   2.760   2.846 -0.2975  0.9953  2.0050
 5763SOL     OW20181   9.105   7.220   0.565  0.0449 -0.3156  0.7553
 5763SOL    HW120182   9.175   7.163   0.533 -0.4810 -0.7557  0.3758
 5763SOL    HW220183   9.054   7.165   0.624 -0.3824 -0.1954  0.4999
 5764SOL     OW20184   2.589   6.871   2.559  0.0068 -0.1120  0.4910
 5764SOL    HW120185   2.568   6.780   2.537  0.6977 -0.2360  0.3172
 5764SOL    HW220186   2.655   6.897   2.495 -2.2649  1.4856 -1.3561
 5765SOL     OW20187   2.773  10.387   9.012 -0.6224  0.1292  0.3123
 5765SOL    HW120188   2.787  10.431   9.095 -1.3289  0.7706  0.1026
 5765SOL    HW220189   2.721  10.448   8.960  0.5851  0.1435 -0.9630
 5766SOL     OW20190   7.158   0.626   5.890 -0.7707  0.1036  0.3718
 5766SOL    HW120191   7.118   0.603   5.806 -0.4005  2.0128 -0.3916
 5766SOL    HW220192   7.084   0.649   5.946 -1.1230 -2.4972  1.0704
 5767SOL     OW20193   3.489   6.021   8.428 -0.0201 -0.5512  0.0404
 5767SOL    HW120194   3.499   5.978   8.343  0.0548 -3.1558  1.2705
 5767SOL    HW220195   3.518   6.111   8.413 -0.9178 -0.6380 -2.8875
 5768SOL     OW20196   5.910   1.562   6.242 -0.1991  0.4372  0.2054
 5768SOL    HW120197   5.821   1.580   6.273 -0.4680 -0.7841  0.1937
 5768SOL    HW220198   5.900   1.545   6.149 -0.3626 -2.1702  0.6410
 5769SOL     OW20199   8.135   4.225   2.780 -0.2008  0.3512  0.5679
 5769SOL    HW120200   8.222   4.260   2.758  0.8204 -1.2198  1.8989
 5769SOL    HW220201   8.109   4.272   2.859 -0.3371  0.4610  0.4581
 5770SOL     OW20202   9.710  10.014   2.803  0.1570 -0.6747  0.0648
 5770SOL    HW120203   9.643   9.950   2.828  0.5794 -0.5665  1.6019
 5770SOL    HW220204   9.710  10.078   2.874 -1.1141  1.8085 -2.0023
 5771SOL     OW20205  10.498   0.554   5.662 -0.4802 -0.0628  0.5115
 5771SOL    HW120206  10.488   0.629   5.603  0.7672  0.6030  1.1095
 5771SOL    HW220207  10.567   0.502   5.621 -1.0958 -0.7143  0.2869
 5772SOL     OW20208   9.032   9.258   0.219  0.7808 -0.2956  0.0944
 5772SOL    HW120209   9.115   9.296   0.247  1.1924 -1.2082  0.1497
 5772SOL    HW220210   9.057   9.179   0.170 -0.0508 -0.6081  0.1542
 5773SOL     OW20211   3.368   5.253   4.709 -0.2017  0.2156 -0.4167
 5773SOL    HW120212   3.296   5.259   4.646 -0.3844  0.8933 -0.1515
 5773SOL    HW220213   3.333   5.203   4.782 -0.5427  0.8842 -0.1125
 5774SOL     OW20214   1.561   9.541   4.655  0.2380 -0.0114 -0.3795
 5774SOL    HW120215   1.473   9.517   4.628  0.9717 -1.6312 -1.4920
 5774SOL    HW220216   1.618   9.502   4.588  1.8423  0.3758  0.7042
 5775SOL     OW20217   1.148   4.256   2.265  0.0395 -0.3319 -0.3801
 5775SOL    HW120218   1.238   4.253   2.232 -0.5060 -1.7455 -1.8604
 5775SOL    HW220219   1.109   4.330   2.218  0.6907  0.9927  1.0875
 5776SOL     OW20220   7.177   1.830  10.770  0.3358 -0.6130 -0.6056
 5776SOL    HW120221   7.255   1.884  10.763  0.6082 -1.0041 -0.6020
 5776SOL    HW220222   7.209   1.740  10.772 -0.0833 -0.7583 -0.0948
 5777SOL     OW20223   4.052  10.176   7.120 -0.6282  0.1171 -0.5497
 5777SOL    HW120224   4.090  10.258   7.153 -0.3687  0.1690 -0.9670
 5777SOL    HW220225   4.044  10.121   7.197 -1.7285  0.8855 -0.0829
 5778SOL     OW20226   4.922   7.016   8.555 -0.4036 -0.0056 -0.2286
 5778SOL    HW120227   4.956   7.011   8.644  1.7726 -1.8568 -1.0596
 5778SOL    HW220228   4.856   7.085   8.558  0.3125  0.6759  2.5651
 5779SOL     OW20229   7.120   2.945   4.748  0.2332 -0.8891  0.3808
 5779SOL    HW120230   7.173   2.947   4.828  0.4838  0.9385  0.2172
 5779SOL    HW220231   7.034   2.977   4.775 -0.1068 -1.6116  0.1816
 5780SOL     OW20232   3.443   5.341   7.874  0.3346 -0.7679 -0.1679
 5780SOL    HW120233   3.444   5.378   7.962 -1.2188 -0.0380 -0.4359
 5780SOL    HW220234   3.433   5.247   7.888  0.1367 -0.6614  0.4294
 5781SOL     OW20235   6.799   2.275   3.425 -0.1545  0.0711  0.2499
 5781SOL    HW120236   6.785   2.329   3.503 -1.6335 -0.4082  0.3609
 5781SOL    HW220237   6.836   2.335   3.360  2.4063  0.1823  1.6816
 5782SOL     OW20238   7.992   2.643   7.665 -0.2539 -0.4985 -0.5260
 5782SOL    HW120239   7.912   2.627   7.615  0.6085 -1.5152 -1.6557
 5782SOL    HW220240   7.963   2.646   7.757 -1.8527  1.2773 -1.0214
 5783SOL     OW20241   5.410   1.077   1.093 -0.0680  0.1976  0.3732
 5783SOL    HW120242   5.485   1.018   1.086  0.4684  0.8693  0.3658
 5783SOL    HW220243   5.430   1.133   1.168 -0.5241  0.4361  0.3212
 5784SOL     OW20244   1.493   4.774   3.888 -0.5128 -0.0336 -0.1344
 5784SOL    HW120245   1.487   4.738   3.976  0.0210  0.9026  0.3007
 5784SOL    HW220246   1.567   4.835   3.892  0.2179 -0.7643 -1.5133
 5785SOL     OW20247   1.791   2.838   2.432  0.1750  0.2091  0.7457
 5785SOL    HW120248   1.773   2.891   2.355  1.4610  1.7089  1.4328
 5785SOL    HW220249   1.722   2.771   2.431  1.3085 -1.1547 -2.8316
 5786SOL     OW20250   5.098   6.050   1.124 -0.3919 -0.2185 -0.2868
 5786SOL    HW120251   5.168   6.096   1.078 -0.8181 -0.1881 -0.9130
 5786SOL    HW220252   5.123   6.055   1.217  0.7884 -0.8237 -0.5517
 5787SOL     OW20253   5.944  10.146   5.896 -0.1052  0.5841 -0.3754
 5787SOL    HW120254   5.851  10.163   5.909 -0.1444  1.0343 -1.1602
 5787SOL    HW220255   5.980  10.229   5.865  0.5593  0.4092 -0.1038
 5788SOL     OW20256   7.578   6.290   6.432  0.1600  0.2583 -0.0251
 5788SOL    HW120257   7.594   6.222   6.367 -0.8742  2.0808 -2.3500
 5788SOL    HW220258   7.539   6.244   6.507 -1.5835 -1.6005 -1.9443
 5789SOL     OW20259   4.505   3.912   0.123  0.1955  0.0529 -0.3646
 5789SOL    HW120260   4.461   3.988   0.161 -1.2987 -0.6493 -0.6170
 5789SOL    HW220261   4.457   3.895   0.042 -1.0685 -2.5752  0.8104
 5790SOL     OW20262   6.386   7.510   9.663  0.0616  0.2304  0.7499
 5790SOL    HW120263   6.453   7.521   9.731  1.0302 -0.5427 -0.0432
 5790SOL    HW220264   6.429   7.542   9.584 -0.9353  0.7999  0.4334
 5791SOL     OW20265   8.367   1.451   6.126 -0.4408  0.5136  0.2458
 5791SOL    HW120266   8.388   1.430   6.217  1.0921  1.3486  0.1080
 5791SOL    HW220267   8.450   1.480   6.088 -1.3765  1.6539 -1.0043
 5792SOL     OW20268   6.787   2.905   5.019  0.3104  0.1665 -0.4095
 5792SOL    HW120269   6.858   2.843   5.036 -0.9557 -1.6422 -1.3732
 5792SOL    HW220270   6.809   2.945   4.935  0.2403 -0.3601 -0.6858
 5793SOL     OW20271   2.406   5.809  10.637  0.1137  0.3064 -0.2139
 5793SOL    HW120272   2.333   5.847  10.686 -1.0188 -2.9301  0.8782
 5793SOL    HW220273   2.456   5.760  10.702 -0.3006 -2.4940 -1.8124
 5794SOL     OW20274   6.109   6.939   1.815  0.3905  0.1132  0.0456
 5794SOL    HW120275   6.035   6.880   1.799 -0.5550  1.3831 -0.4414
 5794SOL    HW220276   6.069   7.025   1.825  1.7928  0.7890  0.0277
 5795SOL     OW20277   2.803   4.403   6.730  0.1305  0.5196  0.2476
 5795SOL    HW120278   2.762   4.442   6.653 -1.1801 -2.5707 -0.7725
 5795SOL    HW220279   2.869   4.344   6.694 -1.7891 -2.4413  1.2223
 5796SOL     OW20280   3.601   0.198   3.006  0.5385  0.1061  0.2931
 5796SOL    HW120281   3.622   0.107   2.987 -0.0669  0.1618 -0.7661
 5796SOL    HW220282   3.519   0.195   3.055  0.3555  0.0925 -0.0135
 5797SOL     OW20283   0.214   1.086   6.505  0.1401  0.3710 -0.4307
 5797SOL    HW120284   0.190   1.016   6.445  1.0812  0.5904 -1.0976
 5797SOL    HW220285   0.232   1.042   6.588  0.6880 -0.1853 -0.8344
 5798SOL     OW20286   9.754   4.745   3.159  0.4787 -0.1314 -0.3702
 5798SOL    HW120287   9.752   4.839   3.142 -3.0278  0.2006  0.9300
 5798SOL    HW220288   9.812   4.735   3.235 -0.6853  1.3612  0.7929
 5799SOL     OW20289   1.284   1.132   9.461 -0.1385 -0.0255 -0.2623
 5799SOL    HW120290   1.279   1.044   9.500 -1.0598 -0.0885 -0.4920
 5799SOL    HW220291   1.369   1.166   9.489  0.5773 -1.2825 -0.7981
 5800SOL     OW20292   5.870   9.891   8.523  0.4793  0.8762 -0.1588
 5800SOL    HW120293   5.895   9.892   8.615 -0.8512  0.4971  0.2317
 5800SOL    HW220294   5.813   9.814   8.515  0.5777  0.9081 -1.2976
 5801SOL     OW20295  10.156   7.176   7.544  0.4002 -0.0200 -0.3776
 5801SOL    HW120296  10.068   7.145   7.524  1.0971 -1.0370 -2.0804
 5801SOL    HW220297  10.175   7.139   7.631 -0.3291 -1.0162 -0.6204
 5802SOL     OW20298   6.097  10.622   6.913 -0.1594 -0.2648  0.6348
 5802SOL    HW120299   6.127  10.629   7.003  2.6629  0.4552 -0.2676
 5802SOL    HW220300   6.155  10.556   6.874 -0.1482  0.6836 -1.0570
 5803SOL     OW20301   3.803   1.252   6.511  0.1327  0.5942 -0.3572
 5803SOL    HW120302   3.745   1.232   6.438 -0.8700  2.6430 -0.2109
 5803SOL    HW220303   3.744   1.273   6.584  1.0931  0.4919  0.4796
 5804SOL     OW20304  10.070   4.124  10.286  0.4320  0.2020  0.1361
 5804SOL    HW120305   9.982   4.162  10.290  0.2335 -0.2581  0.2512
 5804SOL    HW220306  10.069   4.071  10.206  0.1035 -0.9997  0.9155
 5805SOL     OW20307   6.214   6.324   3.146 -0.0945 -0.5645 -0.2683
 5805SOL    HW120308   6.158   6.345   3.220 -0.2480 -1.1393 -0.2136
 5805SOL    HW220309   6.152   6.298   3.077  0.0462 -0.0252 -0.6028
 5806SOL     OW20310   4.150   1.186   1.131 -0.1109  0.0391 -0.0037
 5806SOL    HW120311   4.134   1.093   1.121  0.2131 -0.0191  0.0316
 5806SOL    HW220312   4.224   1.205   1.074  0.2768  0.1363  0.5291
 5807SOL     OW20313   8.042  10.560  10.743 -0.2839 -0.7151  0.2677
 5807SOL    HW120314   7.950  10.545  10.762 -0.3752 -1.6812 -0.8358
 5807SOL    HW220315   8.043  10.644  10.696 -0.5542 -0.5231  0.6029
 5808SOL     OW20316   0.177   1.905   7.284 -0.0057 -0.3970 -0.3941
 5808SOL    HW120317   0.238   1.889   7.355  1.3417 -1.3785 -1.7152
 5808SOL    HW220318   0.121   1.976   7.316  2.6548  1.4955  0.3600
 5809SOL     OW20319   7.872   7.137   6.864  0.1472  0.5740  0.1913
 5809SOL    HW120320   7.860   7.045   6.844  0.8813  0.4848  0.1404
 5809SOL    HW220321   7.885   7.179   6.779  1.3531  0.4818  0.3105
 5810SOL     OW20322   9.458   8.182   0.838  0.2380 -0.2224  0.3504
 5810SOL    HW120323   9.391   8.161   0.774  0.4675 -0.9337  0.3400
 5810SOL    HW220324   9.540   8.158   0.796  0.2598 -3.1692  1.8178
 5811SOL     OW20325   1.922   3.980   9.962  0.4431  0.3711 -0.4221
 5811SOL    HW120326   1.948   3.910  10.022  0.1446  0.3873 -0.2731
 5811SOL    HW220327   1.934   3.942   9.875  0.2327  0.1201 -0.3415
 5812SOL     OW20328   1.336   0.774   2.815 -0.1203 -0.1790 -0.2200
 5812SOL    HW120329   1.291   0.731   2.742  1.3641  0.0949 -1.3329
 5812SOL    HW220330   1.369   0.702   2.869  1.8299 -0.5189 -1.7511
 5813SOL     OW20331   2.881  10.059   6.468 -0.2954 -0.1708 -0.2289
 5813SOL    HW120332   2.828  10.116   6.413 -0.9359  1.0880  1.6140
 5813SOL    HW220333   2.869   9.971   6.431 -3.3981  0.1022 -0.1238
 5814SOL     OW20334   4.352   5.817   0.866  0.1145 -0.0536  0.0235
 5814SOL    HW120335   4.410   5.817   0.941  0.3703  0.4716 -0.1730
 5814SOL    HW220336   4.343   5.909   0.841  0.0441 -0.2177 -0.5908
 5815SOL     OW20337   3.811   7.084  10.346  0.4557 -0.2955 -0.3644
 5815SOL    HW120338   3.726   7.110  10.381  0.2054 -0.2704 -0.9814
 5815SOL    HW220339   3.872   7.150  10.381  0.2000 -0.2131 -0.0624
 5816SOL     OW20340   0.857   5.975   7.300 -0.1304  0.2635  0.3956
 5816SOL    HW120341   0.795   5.976   7.228  0.4143  0.8888 -0.0731
 5816SOL    HW220342   0.943   5.979   7.259  0.1890  0.5805  1.0645
 5817SOL     OW20343   0.420   9.508   6.874 -0.1594 -0.2570  0.1075
 5817SOL    HW120344   0.387   9.501   6.785 -0.6403 -1.6934  0.3648
 5817SOL    HW220345   0.513   9.487   6.866 -0.1053  0.0519 -0.1072
 5818SOL     OW20346   6.078   0.951  10.644 -0.1354 -0.6316  0.2900
 5818SOL    HW120347   6.057   1.027  10.697 -0.6432 -0.0478 -0.7326
 5818SOL    HW220348   6.088   0.985  10.555  0.0955 -1.6815 -0.1019
 5819SOL     OW20349   8.876   0.313   7.531 -0.4878 -0.3317 -0.3272
 5819SOL    HW120350   8.876   0.325   7.626 -2.1400  4.0566 -0.6460
 5819SOL    HW220351   8.968   0.314   7.506  0.2079 -4.6055  1.2649
 5820SOL     OW20352   7.498   4.559   7.010  0.0477  0.5798 -0.0168
 5820SOL    HW120353   7.553   4.579   7.085  0.3764  0.5303 -0.2455
 5820SOL    HW220354   7.469   4.644   6.978 -1.4102  0.5757  1.1306
 5821SOL     OW20355   1.600   8.165   4.048 -0.1576  0.0962  0.0764
 5821SOL    HW120356   1.587   8.113   4.127 -0.6056 -2.9275 -1.8125
 5821SOL    HW220357   1.693   8.158   4.029 -0.1436  0.3370  0.0585
 5822SOL     OW20358   2.589   2.612   3.065  0.3844  0.4081 -0.0726
 5822SOL    HW120359   2.645   2.576   3.134  1.5529  2.7001  0.2958
 5822SOL    HW220360   2.502   2.579   3.084  0.8251  0.3702  2.0845
 5823SOL     OW20361   8.102   8.108  10.127 -0.4094  0.1578 -0.0844
 5823SOL    HW120362   8.110   8.200  10.101  0.9635  0.1043  0.0765
 5823SOL    HW220363   8.066   8.064  10.050  0.1044  0.6249 -0.5950
 5824SOL     OW20364   8.588  10.641   1.618 -0.1675  0.4289  0.2160
 5824SOL    HW120365   8.635  10.647   1.535  1.8051  0.1753  1.2616
 5824SOL    HW220366   8.565  10.731   1.640 -1.3244  0.4384 -0.8973
 5825SOL     OW20367   8.054   5.071   3.220 -0.8312  0.2995  0.3038
 5825SOL    HW120368   8.129   5.091   3.164 -0.4337  0.3916  0.8575
 5825SOL    HW220369   8.093   5.051   3.305 -1.5120  2.3111  1.1696
 5826SOL     OW20370   1.354   9.323   9.045  0.0630 -0.5478 -0.1079
 5826SOL    HW120371   1.340   9.349   9.136 -1.6466 -0.8279 -0.2472
 5826SOL    HW220372   1.447   9.337   9.030 -0.1121  2.2468  0.8139
 5827SOL     OW20373   8.471   8.158   6.170 -0.5505  0.2167 -0.3481
 5827SOL    HW120374   8.470   8.072   6.127 -1.3926 -0.3350  0.7133
 5827SOL    HW220375   8.381   8.170   6.201 -0.2408  1.1088  0.2320
 5828SOL     OW20376   5.304   2.759   6.380  0.2480  0.4665  0.1846
 5828SOL    HW120377   5.274   2.822   6.445  0.7443  0.5766  0.3114
 5828SOL    HW220378   5.362   2.809   6.322  0.9231  0.0601  0.4887
 5829SOL     OW20379   6.588   2.826  10.057  0.4764 -0.1803  0.1393
 5829SOL    HW120380   6.559   2.760   9.994  2.4644 -0.3807 -0.6550
 5829SOL    HW220381   6.673   2.794  10.088  1.0437  1.5263  0.4726
 5830SOL     OW20382   6.176   1.949   3.245 -0.7067 -0.5006 -0.0529
 5830SOL    HW120383   6.161   1.951   3.150 -0.2192 -0.3050 -0.1313
 5830SOL    HW220384   6.183   1.856   3.266 -0.8630 -0.5460 -0.2013
 5831SOL     OW20385   7.052   0.529   5.641 -0.3448 -0.2815 -0.7523
 5831SOL    HW120386   7.119   0.481   5.594 -1.5233  0.7082 -3.6802
 5831SOL    HW220387   7.048   0.614   5.597 -2.7886  0.0456 -0.0694
 5832SOL     OW20388   4.647   6.198   0.008 -0.3754  0.5595 -0.5361
 5832SOL    HW120389   4.652   6.106   0.035 -0.1014  0.7536  0.1059
 5832SOL    HW220390   4.633   6.195  -0.086  2.0068 -0.1246 -0.9217
 5833SOL     OW20391   6.929   8.416   0.066 -0.6028 -0.7837 -0.1543
 5833SOL    HW120392   6.866   8.407   0.137 -0.1797  1.6361  0.6157
 5833SOL    HW220393   6.879   8.396  -0.013 -1.6227 -1.4795  0.6385
 5834SOL     OW20394  10.583   8.597   0.785  0.0596 -0.1189  0.0432
 5834SOL    HW120395  10.641   8.565   0.855  0.5908  0.1932 -0.2405
 5834SOL    HW220396  10.507   8.631   0.831  0.9949  1.3354  0.5915
 5835SOL     OW20397   5.342   9.568   2.787  0.0254 -0.3264  0.0932
 5835SOL    HW120398   5.429   9.529   2.792  0.2465  0.0591 -0.6212
 5835SOL    HW220399   5.345   9.642   2.849  0.4177  0.0750 -0.3998
 5836SOL     OW20400   8.025   3.646   2.446  1.1871 -0.3824 -0.1324
 5836SOL    HW120401   8.070   3.565   2.469  0.7423 -0.8274 -0.8153
 5836SOL    HW220402   8.041   3.658   2.353  0.8925  0.0846 -0.1276
 5837SOL     OW20403  10.746   2.869   4.670  0.1415  0.7625  0.2252
 5837SOL    HW120404  10.701   2.848   4.751  0.6084  3.1641  1.1899
 5837SOL    HW220405  10.689   2.834   4.601 -0.2608 -1.3246  1.5405
 5838SOL     OW20406   8.402   3.424   2.192 -0.0400  0.2314  0.0836
 5838SOL    HW120407   8.489   3.392   2.217  0.3015  2.1393  1.5763
 5838SOL    HW220408   8.392   3.397   2.101  2.2690  0.2681 -0.2388
 5839SOL     OW20409   5.931   0.426   5.552 -0.3690 -0.1513  0.4077
 5839SOL    HW120410   5.861   0.453   5.493 -0.7863  1.3376  1.5379
 5839SOL    HW220411   5.922   0.482   5.629  1.6119 -0.4255  0.9060
 5840SOL     OW20412   8.965   5.847   2.667 -0.0992  0.2281  0.0962
 5840SOL    HW120413   8.977   5.822   2.758  0.2927  0.1184  0.0191
 5840SOL    HW220414   9.043   5.812   2.622 -0.5555 -0.1967 -0.3775
 5841SOL     OW20415   5.992   3.349   9.334  0.1541  0.0564 -0.4052
 5841SOL    HW120416   6.008   3.402   9.256 -2.6602  1.8650  0.1070
 5841SOL    HW220417   6.005   3.410   9.407 -0.4363 -0.7128  0.3628
 5842SOL     OW20418   9.996   8.624   5.418 -0.3189 -0.2260 -0.0490
 5842SOL    HW120419   9.955   8.601   5.501  2.1919 -1.6131  0.9074
 5842SOL    HW220420  10.083   8.656   5.442  0.5911 -0.9623 -2.1517
 5843SOL     OW20421   4.805  10.285   6.629  0.2202 -0.0010 -0.4498
 5843SOL    HW120422   4.869  10.354   6.649  0.0594 -0.4490  1.9130
 5843SOL    HW220423   4.746  10.325   6.564  0.8794  1.6360 -0.0894
 5844SOL     OW20424   5.397   7.475   0.379 -0.0422 -0.2020 -0.3565
 5844SOL    HW120425   5.417   7.477   0.286  2.4072 -1.5855  0.0704
 5844SOL    HW220426   5.407   7.383   0.404 -0.3185  0.1936  1.3372
 5845SOL     OW20427  10.081   8.562   2.426  0.4071  0.2613 -0.2666
 5845SOL    HW120428  10.019   8.609   2.482 -0.2534 -1.3643  0.4083
 5845SOL    HW220429  10.150   8.533   2.485  0.8204  0.3735 -0.6880
 5846SOL     OW20430   6.129   6.223   1.030 -0.2105  0.1284  0.3966
 5846SOL    HW120431   6.044   6.218   0.986  0.0826  0.8241 -0.2739
 5846SOL    HW220432   6.109   6.253   1.118 -0.7608 -0.7957  0.6009
 5847SOL     OW20433   9.069   2.064   8.773  0.3831 -0.0817  0.2450
 5847SOL    HW120434   8.985   2.078   8.731 -0.4483  0.8945  2.1147
 5847SOL    HW220435   9.129   2.125   8.730 -0.1290  0.0062 -0.3446
 5848SOL     OW20436   6.568   6.796  10.247 -0.0717  0.0505  0.3286
 5848SOL    HW120437   6.537   6.748  10.324 -0.7689 -1.7963 -1.0288
 5848SOL    HW220438   6.491   6.802  10.191  1.0815 -1.2596 -1.4777
 5849SOL     OW20439   2.623   6.848   1.439  0.0486 -0.1622  0.2115
 5849SOL    HW120440   2.686   6.888   1.379 -0.4423  0.8911  0.3711
 5849SOL    HW220441   2.674   6.785   1.489  0.8409  0.2042 -0.1170
 5850SOL     OW20442  10.794   3.334   2.097 -0.2916  0.0218 -0.4164
 5850SOL    HW120443  10.866   3.326   2.160  0.1894  0.3337 -0.9217
 5850SOL    HW220444  10.715   3.324   2.150  0.0499  1.7866  0.4959
 5851SOL     OW20445   5.283   2.938   0.219  0.0928  0.7052 -0.0621
 5851SOL    HW120446   5.372   2.911   0.240 -0.1570  0.0854  0.2250
 5851SOL    HW220447   5.286   2.965   0.127  0.0066 -1.8531 -0.8737
 5852SOL     OW20448   7.716  10.221   5.783  0.8535 -0.0939  0.1697
 5852SOL    HW120449   7.671  10.233   5.700  0.0975  0.6330  0.6704
 5852SOL    HW220450   7.649  10.238   5.849  1.0977 -1.8917  0.9516
 5853SOL     OW20451   5.879   4.494   8.758  0.3175  0.5168 -0.6543
 5853SOL    HW120452   5.808   4.479   8.820  1.5776  0.0984  0.7314
 5853SOL    HW220453   5.887   4.589   8.753  0.1032  0.5558 -0.3076
 5854SOL     OW20454   9.199   0.851   7.114 -0.0147  0.6419 -0.4852
 5854SOL    HW120455   9.141   0.844   7.190  0.0296 -0.3178 -0.5202
 5854SOL    HW220456   9.158   0.797   7.047  0.2800  0.9614 -0.9286
 5855SOL     OW20457   5.764   0.601   1.521 -0.5295  0.1367 -0.7747
 5855SOL    HW120458   5.701   0.538   1.555 -0.6604  1.0034  0.6469
 5855SOL    HW220459   5.715   0.682   1.512  0.1012  0.5278 -0.7661
 5856SOL     OW20460   2.770  10.414   3.739  0.5672  0.3654  0.1623
 5856SOL    HW120461   2.764  10.324   3.772 -0.0374  0.3412  0.0107
 5856SOL    HW220462   2.789  10.466   3.817  0.2016  0.1815  0.3820
 5857SOL     OW20463   5.658  10.603   4.213  0.2120 -0.4864 -0.2000
 5857SOL    HW120464   5.685  10.602   4.305 -1.0966  1.7196  0.2717
 5857SOL    HW220465   5.712  10.671   4.174  0.6615 -1.3216 -1.0617
 5858SOL     OW20466   5.872   4.398   4.413 -0.0649  0.5174 -0.2801
 5858SOL    HW120467   5.814   4.437   4.478 -0.3333 -0.5656  0.1507
 5858SOL    HW220468   5.821   4.398   4.332 -0.2404  0.6148 -0.1698
 5859SOL     OW20469   6.557   4.947   9.629  0.0457  0.3337 -0.4533
 5859SOL    HW120470   6.471   4.944   9.587  0.6603 -0.3889 -1.7205
 5859SOL    HW220471   6.595   4.861   9.611  1.6860  1.2002 -1.3344
 5860SOL     OW20472   1.154   5.772   5.279 -0.0454 -0.0408  0.1362
 5860SOL    HW120473   1.215   5.792   5.208 -0.0584  0.9308  0.3916
 5860SOL    HW220474   1.069   5.761   5.236  0.5148 -2.9538 -0.4329
 5861SOL     OW20475  10.401   2.305   5.398 -0.1927 -0.0278  0.1868
 5861SOL    HW120476  10.328   2.358   5.365 -0.2016 -0.2418 -0.1373
 5861SOL    HW220477  10.360   2.247   5.463 -0.3854 -0.4143 -0.2704
 5862SOL     OW20478   0.895   3.948   9.093  0.5519  0.2630  0.1584
 5862SOL    HW120479   0.893   3.947   8.997 -0.0448  1.4549  0.1416
 5862SOL    HW220480   0.807   3.920   9.119  0.8061 -0.3580  0.3748
 5863SOL     OW20481   9.037   5.392   3.050 -0.6668  0.1522  0.1982
 5863SOL    HW120482   8.993   5.363   3.130 -1.6833  1.2986  0.0891
 5863SOL    HW220483   8.992   5.347   2.980  1.4104 -2.3168  0.2777
 5864SOL     OW20484   4.532   7.660   5.267  0.1263 -0.0617  0.4681
 5864SOL    HW120485   4.590   7.730   5.238 -0.3920  0.2104  0.0699
 5864SOL    HW220486   4.473   7.645   5.193  0.9411 -1.7091  0.1120
 5865SOL     OW20487   8.695   7.882   9.627 -0.1804  0.4809 -0.2992
 5865SOL    HW120488   8.710   7.938   9.704 -0.8778  0.7614 -0.3625
 5865SOL    HW220489   8.777   7.834   9.616  0.0218  0.6472  0.4522
 5866SOL     OW20490   1.635   8.659  10.725  0.2678  0.0047  0.1478
 5866SOL    HW120491   1.727   8.684  10.725  0.8704 -1.9077  1.7243
 5866SOL    HW220492   1.589   8.735  10.691  2.5112  0.5708 -1.8889
 5867SOL     OW20493   3.209   8.619   4.803 -0.1385 -0.0366 -0.4002
 5867SOL    HW120494   3.190   8.542   4.857 -1.0098 -0.3833 -1.1704
 5867SOL    HW220495   3.282   8.593   4.747 -1.2705 -0.8034 -1.5865
 5868SOL     OW20496   7.924  10.737   1.758 -0.2204  0.6543  0.6580
 5868SOL    HW120497   8.005  10.783   1.739  0.4136 -0.6761 -0.0132
 5868SOL    HW220498   7.860  10.806   1.773  0.8707  1.7321  0.4892
 5869SOL     OW20499   0.099   1.248   3.768 -0.2549  0.1574 -0.4792
 5869SOL    HW120500   0.103   1.222   3.860  0.9142 -1.2178 -0.8704
 5869SOL    HW220501   0.006   1.246   3.747 -0.4833 -0.2563  0.4866
 5870SOL     OW20502   0.988   2.038  10.530  0.2776 -0.1114  0.5557
 5870SOL    HW120503   1.052   2.105  10.509  0.3176  0.1861  1.5812
 5870SOL    HW220504   0.919   2.049  10.465  1.4220 -0.7025 -0.8248
 5871SOL     OW20505   1.964   3.038   4.574 -0.2584 -0.4448 -0.4980
 5871SOL    HW120506   1.941   3.032   4.666  0.3707  0.4204 -0.2747
 5871SOL    HW220507   1.919   3.116   4.542  1.4195  0.6353 -0.3187
 5872SOL     OW20508   5.923  10.265  10.713 -0.3043 -0.5680 -0.1618
 5872SOL    HW120509   5.887  10.226  10.792 -0.4937 -1.4993 -0.6883
 5872SOL    HW220510   6.002  10.213  10.694  0.9506  0.9778  0.5680
 5873SOL     OW20511   3.471  10.530   3.088 -0.0320 -0.0918  0.1150
 5873SOL    HW120512   3.496  10.457   3.144  0.1003  0.2502  0.5080
 5873SOL    HW220513   3.425  10.590   3.147 -0.2356  0.0889 -0.2275
 5874SOL     OW20514   5.295   7.294   7.462  0.0419 -0.3471  0.0821
 5874SOL    HW120515   5.230   7.262   7.524  0.7601 -1.5053  0.2611
 5874SOL    HW220516   5.318   7.381   7.494  0.4101 -0.9230  1.4505
 5875SOL     OW20517   2.821   6.031   1.092 -0.1507 -0.2400  0.0114
 5875SOL    HW120518   2.898   6.053   1.040  1.4771 -1.4647  1.7303
 5875SOL    HW220519   2.857   6.008   1.178 -2.5173 -0.2386  1.0767
 5876SOL     OW20520   3.077   1.432  10.179 -0.0358  0.7784 -0.0556
 5876SOL    HW120521   3.059   1.409  10.270 -1.4252  0.1183 -0.4686
 5876SOL    HW220522   3.111   1.521  10.183 -1.5464  1.3497  1.0011
 5877SOL     OW20523   8.889   1.830   5.761 -0.2757  0.1683 -0.2396
 5877SOL    HW120524   8.840   1.909   5.783  0.0354 -0.1200  1.6636
 5877SOL    HW220525   8.849   1.798   5.680 -0.0784  2.5195 -1.3522
 5878SOL     OW20526   3.896   4.252   8.390  1.0097 -0.0029  0.0221
 5878SOL    HW120527   3.926   4.278   8.303  0.3041  1.6946  0.2478
 5878SOL    HW220528   3.967   4.279   8.449  1.6247 -1.4266 -0.0197
 5879SOL     OW20529   6.580   4.440   2.784  0.2050  0.1412 -0.0807
 5879SOL    HW120530   6.610   4.530   2.766  0.7710  0.3553  1.7574
 5879SOL    HW220531   6.493   4.436   2.746 -0.2613  1.8282  0.7184
 5880SOL     OW20532   2.259   0.976   0.887 -0.1734 -0.3907  0.0656
 5880SOL    HW120533   2.246   0.924   0.967  1.5971  0.0212  0.6697
 5880SOL    HW220534   2.304   1.055   0.917  1.0585 -0.4873 -1.4007
 5881SOL     OW20535   4.812   6.937   5.891  0.3395  0.3019 -0.5445
 5881SOL    HW120536   4.787   6.996   5.821 -0.5863  1.2591  0.5592
 5881SOL    HW220537   4.732   6.924   5.942  1.5179  1.7690  1.8662
 5882SOL     OW20538   3.256   0.902   8.226 -0.0175  0.6954 -0.8362
 5882SOL    HW120539   3.323   0.907   8.157  0.5325 -0.5231 -0.4076
 5882SOL    HW220540   3.300   0.937   8.304  0.3456 -0.6679 -0.4064
 5883SOL     OW20541   9.306   1.954  10.154  0.3127 -0.0015  0.2115
 5883SOL    HW120542   9.307   2.007  10.233  0.9887  0.4217 -0.0652
 5883SOL    HW220543   9.270   1.870  10.181  2.2276 -0.5043  1.3991
 5884SOL     OW20544   3.034  10.271   5.195 -0.0762 -0.0311 -0.3127
 5884SOL    HW120545   3.047  10.246   5.103 -1.8405 -1.1754 -0.3092
 5884SOL    HW220546   2.955  10.325   5.194 -0.2627 -0.2765  0.5474
 5885SOL     OW20547   0.631   2.314   6.160  0.3045  0.1505  0.4374
 5885SOL    HW120548   0.628   2.409   6.145  0.4909  0.4010  1.8811
 5885SOL    HW220549   0.539   2.287   6.159  0.2077  0.4691  0.7958
 5886SOL     OW20550   3.495   3.085   2.783  0.6570 -0.6944  0.6418
 5886SOL    HW120551   3.412   3.130   2.771  1.0458 -0.0254  0.4274
 5886SOL    HW220552   3.539   3.135   2.852  2.1166  0.7685 -1.2439
 5887SOL     OW20553   6.160   4.941   0.869 -0.2577 -0.5764  0.0716
 5887SOL    HW120554   6.113   5.023   0.861 -1.2903 -1.1065  0.5315
 5887SOL    HW220555   6.252   4.966   0.877 -0.6715  0.5974  1.4294
 5888SOL     OW20556   7.354   2.771   7.836  0.1795 -0.0001  0.2577
 5888SOL    HW120557   7.377   2.841   7.897 -0.3365  1.3252 -0.9993
 5888SOL    HW220558   7.357   2.691   7.888  3.2131  0.5944  1.2018
 5889SOL     OW20559   5.438   1.820   2.174 -0.1329 -0.0138 -0.0406
 5889SOL    HW120560   5.459   1.781   2.259  0.4948  0.2767 -0.0522
 5889SOL    HW220561   5.383   1.895   2.195  2.6579  2.0553  0.4478
 5890SOL     OW20562   1.637   2.727   5.530  0.2685  0.1406 -0.3048
 5890SOL    HW120563   1.660   2.647   5.483  0.7708 -0.3757  0.7764
 5890SOL    HW220564   1.551   2.708   5.569 -0.1443  0.5646 -0.9801
 5891SOL     OW20565  10.717   0.956   7.515  0.2818  0.1533  0.2001
 5891SOL    HW120566  10.673   0.883   7.557  1.1389  0.1894  1.2141
 5891SOL    HW220567  10.680   0.960   7.427 -0.1542 -1.1656  0.3072
 5892SOL     OW20568   6.740   5.098   9.174 -0.3601  0.0073  0.0975
 5892SOL    HW120569   6.683   5.162   9.132 -0.2994  0.6949  1.0415
 5892SOL    HW220570   6.766   5.139   9.256  2.9623  0.5004 -1.0615
 5893SOL     OW20571   9.305   4.699   0.468 -0.4026  0.2735  0.4208
 5893SOL    HW120572   9.344   4.613   0.451  2.2882  1.4503  0.1018
 5893SOL    HW220573   9.250   4.715   0.392 -0.2987 -0.8316  0.0850
 5894SOL     OW20574   7.233   7.696   3.452 -0.2231  0.0446  0.0497
 5894SOL    HW120575   7.180   7.732   3.381  2.3382  0.8875 -1.5653
 5894SOL    HW220576   7.322   7.693   3.417  0.8186 -1.5037  2.5294
 5895SOL     OW20577  10.635  10.711   2.874 -0.1683 -0.3660 -0.2226
 5895SOL    HW120578  10.686  10.741   2.949 -0.9466  1.3923 -0.3364
 5895SOL    HW220579  10.554  10.762   2.879 -1.0085 -1.5529 -1.2325
 5896SOL     OW20580   6.561   2.792   0.713  0.3519 -0.0030 -0.5268
 5896SOL    HW120581   6.490   2.856   0.725 -0.7323 -1.4492  1.2026
 5896SOL    HW220582   6.628   2.818   0.776  1.0722  0.9057 -1.6259
 5897SOL     OW20583   7.109   2.899   0.351 -0.1341 -0.2964 -0.3683
 5897SOL    HW120584   7.154   2.863   0.274 -1.8432 -2.3838 -0.4821
 5897SOL    HW220585   7.017   2.878   0.337 -0.5220 -0.5819  2.1898
 5898SOL     OW20586   9.874   8.489   0.307 -0.5925 -0.1936  0.2106
 5898SOL    HW120587   9.828   8.573   0.315 -1.0387 -0.4449  0.3271
 5898SOL    HW220588   9.875   8.471   0.213  2.3800  1.5054 -0.2248
 5899SOL     OW20589   3.174   8.437   6.841 -0.2027  0.5764 -0.1424
 5899SOL    HW120590   3.175   8.354   6.889  0.5921 -0.4207 -1.8322
 5899SOL    HW220591   3.213   8.417   6.756  0.5088  2.8129 -0.4003
 5900SOL     OW20592   3.801   7.965   2.831  0.5080 -0.2881 -0.0454
 5900SOL    HW120593   3.734   7.901   2.854 -2.2866  2.1020 -0.9784
 5900SOL    HW220594   3.816   8.014   2.912 -0.1529  0.2435 -0.2371
 5901SOL     OW20595   1.221   0.041   0.140 -0.0737  0.5546 -0.2938
 5901SOL    HW120596   1.175   0.025   0.223  0.4898  1.0334  0.1202
 5901SOL    HW220597   1.230   0.136   0.135  1.1945  0.4549 -0.1790
 5902SOL     OW20598   9.385   3.525   5.988  0.3617  0.0804  0.1008
 5902SOL    HW120599   9.452   3.573   5.940  1.4889 -2.6495 -1.2491
 5902SOL    HW220600   9.414   3.434   5.986 -1.5383 -0.7009  2.7097
 5903SOL     OW20601   9.446   9.982   4.893 -0.1406 -0.2674  0.0859
 5903SOL    HW120602   9.400   9.938   4.964 -1.3430  0.2033 -0.3851
 5903SOL    HW220603   9.388   9.975   4.818  0.5380  0.3760 -0.5156
 5904SOL     OW20604  10.204   1.464   7.434 -0.4547 -0.2527 -0.0246
 5904SOL    HW120605  10.193   1.373   7.459  1.5411 -0.2832  0.9461
 5904SOL    HW220606  10.121   1.506   7.456 -0.8335 -1.5018  1.0183
 5905SOL     OW20607   1.837   8.873   1.181 -0.4448  0.3690 -0.1420
 5905SOL    HW120608   1.902   8.805   1.198 -0.9985  0.0112  0.6436
 5905SOL    HW220609   1.855   8.940   1.247 -0.2209  0.7550 -0.5908
 5906SOL     OW20610   0.815   3.815   1.876  0.0334 -0.1454  0.5170
 5906SOL    HW120611   0.843   3.793   1.964 -0.3427 -0.9100  0.4529
 5906SOL    HW220612   0.883   3.874   1.843  1.9851 -2.4460  0.1236
 5907SOL     OW20613   7.666  10.704   2.091  0.5280  0.2601 -0.3568
 5907SOL    HW120614   7.579  10.741   2.106  0.8782  0.8118  0.3386
 5907SOL    HW220615   7.716  10.727   2.169  1.3019 -0.0600 -0.7503
 5908SOL     OW20616  10.186   5.648   5.665  0.1330  0.5785 -0.2517
 5908SOL    HW120617  10.146   5.713   5.607 -0.7099  1.3544  1.1404
 5908SOL    HW220618  10.263   5.692   5.702  1.6615 -0.4818 -1.9641
 5909SOL     OW20619   2.439   3.025   5.921 -0.4523  0.1956  0.3370
 5909SOL    HW120620   2.357   2.976   5.914 -0.4082  0.2151 -0.4266
 5909SOL    HW220621   2.437   3.086   5.847  0.3637  0.0150  0.1576
 5910SOL     OW20622   8.830   8.823  10.099  0.3802  0.5771 -0.0906
 5910SOL    HW120623   8.846   8.774  10.180  2.0972 -2.6540 -2.1453
 5910SOL    HW220624   8.749   8.785  10.065 -0.2871  1.8626  0.0077
 5911SOL     OW20625   6.826   0.503   0.443 -0.0405  0.0545 -0.3413
 5911SOL    HW120626   6.784   0.555   0.512 -0.1916 -0.5782  0.0488
 5911SOL    HW220627   6.831   0.563   0.368 -1.0949  0.3363 -0.2064
 5912SOL     OW20628   0.842   5.190   3.734 -0.1269  0.3220 -0.3955
 5912SOL    HW120629   0.785   5.187   3.657  1.2164  1.5533 -1.5321
 5912SOL    HW220630   0.923   5.148   3.704 -0.0559 -0.4228  0.8150
 5913SOL     OW20631   3.527   3.435   2.094 -0.0071  0.1180 -0.2066
 5913SOL    HW120632   3.544   3.483   2.013  1.2380 -0.4132 -0.2881
 5913SOL    HW220633   3.475   3.359   2.067  1.6627 -0.8890 -0.8157
 5914SOL     OW20634   1.015   3.648   4.801 -0.3782  0.2334 -0.2484
 5914SOL    HW120635   1.103   3.659   4.767 -0.8234  2.1435 -0.9088
 5914SOL    HW220636   0.998   3.729   4.849 -1.4397 -0.5070  0.6776
 5915SOL     OW20637   8.856   4.366   5.948 -0.1037 -0.3522  0.5361
 5915SOL    HW120638   8.826   4.283   5.911 -0.0253 -0.6780  1.1948
 5915SOL    HW220639   8.926   4.394   5.888 -0.1047 -0.7775  0.3303
 5916SOL     OW20640   0.383   0.782   2.959 -0.2721  0.0146 -0.4048
 5916SOL    HW120641   0.468   0.822   2.941  0.4869  0.4090  3.2626
 5916SOL    HW220642   0.319   0.847   2.929  0.8344  1.4274  0.1581
 5917SOL     OW20643   9.402   5.739   1.714  0.6511 -0.0676 -0.1678
 5917SOL    HW120644   9.326   5.690   1.684  1.0196 -1.0117  0.4071
 5917SOL    HW220645   9.457   5.749   1.636  0.3828 -0.2156 -0.3754
 5918SOL     OW20646   1.791   6.270   1.484  0.6321  0.1761 -0.0759
 5918SOL    HW120647   1.844   6.295   1.560 -0.2687  1.0745  0.2831
 5918SOL    HW220648   1.744   6.350   1.460 -1.8727 -0.9401  0.6900
 5919SOL     OW20649   1.873   7.831   5.237 -0.1385 -0.3528 -0.0772
 5919SOL    HW120650   1.799   7.804   5.182 -0.1438  1.8329 -1.2593
 5919SOL    HW220651   1.841   7.905   5.287  0.7002 -0.5982  0.8651
 5920SOL     OW20652   9.926   1.884   5.609  0.7141 -0.1795 -0.2925
 5920SOL    HW120653   9.963   1.808   5.563 -1.4926 -1.0955 -0.6888
 5920SOL    HW220654   9.854   1.848   5.661 -1.1530  1.7494 -1.3881
 5921SOL     OW20655   7.198   0.326   5.509  0.5146  0.0728  0.2501
 5921SOL    HW120656   7.242   0.253   5.553 -0.9053 -0.7975  0.3015
 5921SOL    HW220657   7.214   0.311   5.416  0.2642 -0.2952  0.2634
 5922SOL     OW20658   9.022   8.083   9.281  0.4598 -0.0924 -0.3411
 5922SOL    HW120659   9.023   7.989   9.298  2.8887 -0.2477 -0.9370
 5922SOL    HW220660   9.038   8.123   9.366  0.7118 -0.2883 -0.2957
 5923SOL     OW20661   2.150   5.636   6.817 -0.0763 -0.1284  0.0921
 5923SOL    HW120662   2.228   5.601   6.860  0.6480  2.3514  0.9707
 5923SOL    HW220663   2.182   5.671   6.734 -0.6200 -0.7319 -0.3849
 5924SOL     OW20664   2.095   1.512   0.696 -0.1057  0.2083  0.1812
 5924SOL    HW120665   2.115   1.431   0.743 -0.4228  0.4472  0.7414
 5924SOL    HW220666   2.112   1.492   0.604 -0.6983 -0.6630  0.2522
 5925SOL     OW20667   6.292   4.222   5.198 -0.1448  0.5354  0.0329
 5925SOL    HW120668   6.346   4.298   5.219 -0.2159  0.4328  0.6299
 5925SOL    HW220669   6.307   4.161   5.271 -2.1681  1.1038  1.0206
 5926SOL     OW20670   9.170   8.069   4.791  0.0945 -0.1432  0.1105
 5926SOL    HW120671   9.167   7.983   4.748  1.3790  0.2565 -0.8287
 5926SOL    HW220672   9.099   8.066   4.855 -0.6265 -1.4812 -0.7020
 5927SOL     OW20673   9.376   3.154   2.936  0.0204  0.0737  0.1301
 5927SOL    HW120674   9.468   3.137   2.920  0.5980  2.4342  0.4770
 5927SOL    HW220675   9.356   3.107   3.017  0.1072 -2.7195 -1.3707
 5928SOL     OW20676   0.584   0.892   1.298 -0.2838 -0.3924 -0.2024
 5928SOL    HW120677   0.661   0.877   1.243  0.3505  2.7601 -0.3550
 5928SOL    HW220678   0.616   0.884   1.388  0.3566  1.1442 -0.2599
 5929SOL     OW20679  10.663  10.691   1.672 -0.2166  0.4397  0.1842
 5929SOL    HW120680  10.715  10.684   1.752 -0.8124 -3.0203  0.4244
 5929SOL    HW220681  10.668  10.783   1.648  1.6451  1.2192  3.0729
 5930SOL     OW20682   3.974  10.671   6.188 -0.7369  0.3505  0.0678
 5930SOL    HW120683   4.015  10.634   6.266  0.0595 -2.9518 -1.7349
 5930SOL    HW220684   4.036  10.739   6.159  0.7820 -0.8325  0.3970
 5931SOL     OW20685   8.617   0.209   2.950 -0.4893 -0.2950 -0.2423
 5931SOL    HW120686   8.546   0.214   2.886 -1.0214  2.0360  0.4309
 5931SOL    HW220687   8.632   0.300   2.976  2.3718 -0.7734  0.0664
 5932SOL     OW20688   6.892   1.604   8.306  0.1046 -0.2925 -0.4787
 5932SOL    HW120689   6.859   1.516   8.325 -0.9677 -0.3672 -2.4258
 5932SOL    HW220690   6.973   1.589   8.257 -0.2310 -0.2055 -1.0631
 5933SOL     OW20691   4.325   9.213   4.402 -0.0586  0.0844 -0.5910
 5933SOL    HW120692   4.377   9.287   4.433  0.2835  0.1391 -1.2788
 5933SOL    HW220693   4.317   9.227   4.308  0.4815 -1.0388 -0.8225
 5934SOL     OW20694   7.453  10.181   9.174 -0.1229  0.2156 -0.0607
 5934SOL    HW120695   7.369  10.174   9.129 -0.7839  0.3149  1.1225
 5934SOL    HW220696   7.460  10.100   9.224  0.6256  0.0805 -0.3680
 5935SOL     OW20697   7.952   4.221   9.554  0.2771 -0.2856  0.6720
 5935SOL    HW120698   7.970   4.131   9.582  0.7182  0.0873  1.6208
 5935SOL    HW220699   8.036   4.266   9.562  0.1101  0.1647 -0.0133
 5936SOL     OW20700   6.652   3.452   0.204 -0.8708  0.0905  0.0313
 5936SOL    HW120701   6.738   3.440   0.246 -0.7937 -2.5272 -0.7007
 5936SOL    HW220702   6.660   3.406   0.120 -2.0477  2.4727 -1.4936
 5937SOL     OW20703   8.170   6.503   5.799 -0.1022 -0.3613  0.5288
 5937SOL    HW120704   8.103   6.443   5.766 -2.5531  3.1465 -1.4602
 5937SOL    HW220705   8.250   6.475   5.756 -1.0726 -2.3049 -0.1404
 5938SOL     OW20706   1.782   4.444   9.296  0.2394  0.6232 -0.5379
 5938SOL    HW120707   1.862   4.422   9.344  0.6419  0.0528 -1.4291
 5938SOL    HW220708   1.716   4.459   9.364  0.8429  0.0658  0.1899
 5939SOL     OW20709   5.994   5.415   0.375 -0.2161  0.6027  0.1955
 5939SOL    HW120710   6.069   5.431   0.432 -0.3709 -0.1807  0.6297
 5939SOL    HW220711   5.937   5.358   0.426 -0.4806  0.1045 -0.6344
 5940SOL     OW20712   9.989   0.756   4.010 -0.2826 -0.0569  0.3327
 5940SOL    HW120713   9.961   0.795   3.928 -0.5132  0.4183  0.6350
 5940SOL    HW220714   9.929   0.791   4.076  0.0999 -0.1804  0.7555
 5941SOL     OW20715   3.718  10.587   6.196 -0.1083  0.2124 -0.0259
 5941SOL    HW120716   3.703  10.573   6.289  1.6750 -1.1184  0.1238
 5941SOL    HW220717   3.812  10.572   6.185  0.0889  2.3241 -1.7121
 5942SOL     OW20718   2.316   3.837   8.508  0.1569 -0.3949 -0.0929
 5942SOL    HW120719   2.339   3.904   8.573  0.9614 -0.1188 -0.6376
 5942SOL    HW220720   2.228   3.860   8.479  0.8348  1.1557 -1.1001
 5943SOL     OW20721   6.578   1.946  10.515  0.3178 -0.4839 -0.0711
 5943SOL    HW120722   6.512   1.981  10.574 -0.3463 -0.9268 -0.5377
 5943SOL    HW220723   6.586   2.011  10.445  1.3351  0.1956  0.6355
 5944SOL     OW20724   2.145   0.592   8.034  0.0203 -0.3369  0.3609
 5944SOL    HW120725   2.057   0.554   8.036 -0.3385  0.4814  1.4813
 5944SOL    HW220726   2.132   0.680   8.000  0.4668 -0.3317  0.1980
 5945SOL     OW20727   0.865   6.602   4.968  0.2381  0.2581  0.1036
 5945SOL    HW120728   0.905   6.560   5.044 -1.4826 -2.2047 -0.2533
 5945SOL    HW220729   0.815   6.533   4.925 -1.7023  2.3774 -1.3077
 5946SOL     OW20730  10.382   8.163   9.436  0.2065  0.5614  0.4274
 5946SOL    HW120731  10.395   8.257   9.428 -0.6923  0.7031  0.5123
 5946SOL    HW220732  10.451   8.124   9.382 -0.3346  1.3012 -0.8445
 5947SOL     OW20733   4.659  10.760   7.037 -0.3114  0.6537  0.1022
 5947SOL    HW120734   4.641  10.726   6.949 -1.3801  0.6925  0.2954
 5947SOL    HW220735   4.573  10.773   7.076  0.1320 -1.2170  1.8845
 5948SOL     OW20736   3.869   9.619   2.317  0.5963  0.0432  0.6745
 5948SOL    HW120737   3.949   9.666   2.337  0.0683  0.9862  0.6209
 5948SOL    HW220738   3.806   9.687   2.292  0.5309 -0.8546 -1.8748
 5949SOL     OW20739   6.609   1.096  10.057 -0.0301 -0.4655  0.3017
 5949SOL    HW120740   6.581   1.087  10.148  1.1191 -1.8469  0.5624
 5949SOL    HW220741   6.665   1.020  10.041  2.4113  1.3733 -0.5849
 5950SOL     OW20742   4.495   4.002   9.745  0.1324  0.5140 -0.3443
 5950SOL    HW120743   4.434   3.932   9.772  0.4596  0.6766  0.8885
 5950SOL    HW220744   4.577   3.957   9.728  0.4941  0.6269  0.9729
 5951SOL     OW20745   0.479   4.119   4.105  0.1188 -0.2349  0.1492
 5951SOL    HW120746   0.422   4.191   4.132  0.1159 -1.0111  2.4183
 5951SOL    HW220747   0.556   4.163   4.066  0.1997  1.0294  1.6180
 5952SOL     OW20748  10.540   7.650   0.381  0.0785 -0.5910 -0.2043
 5952SOL    HW120749  10.477   7.698   0.328  0.1498  1.5786  1.5103
 5952SOL    HW220750  10.554   7.568   0.334 -2.8413 -0.5135 -1.4154
 5953SOL     OW20751   8.948   7.614   6.741  0.1553  0.5171  0.6635
 5953SOL    HW120752   8.933   7.694   6.792 -0.6978  1.3189 -0.7742
 5953SOL    HW220753   8.877   7.556   6.765  0.4335  0.4149  1.2600
 5954SOL     OW20754   9.650   2.684   5.002  0.6921 -0.2146 -0.0588
 5954SOL    HW120755   9.585   2.743   4.964  2.7455  2.4840  0.3136
 5954SOL    HW220756   9.683   2.634   4.927  0.0739  0.2967 -0.6937
 5955SOL     OW20757   3.139   0.032   2.729  0.1093 -0.3841  0.1929
 5955SOL    HW120758   3.227   0.048   2.695  0.3294 -1.3994  0.2522
 5955SOL    HW220759   3.150   0.028   2.824 -0.0074 -0.4716  0.2036
 5956SOL     OW20760   4.448   8.241   8.339  0.0996  0.0488  0.0928
 5956SOL    HW120761   4.496   8.306   8.288 -0.3213 -1.8676 -2.9550
 5956SOL    HW220762   4.359   8.276   8.344  0.4858  0.9660  0.9165
 5957SOL     OW20763   6.738   7.129   3.537  0.4745  0.2839 -0.0731
 5957SOL    HW120764   6.772   7.092   3.619 -0.4101  0.4747  0.3975
 5957SOL    HW220765   6.777   7.075   3.468 -0.6667 -1.4586  0.5822
 5958SOL     OW20766   0.074   4.492   3.132 -0.1710  0.1900  0.0015
 5958SOL    HW120767   0.086   4.494   3.227  1.2912 -2.1086 -0.0614
 5958SOL    HW220768   0.102   4.579   3.103  0.1988  0.6431  1.5846
 5959SOL     OW20769   2.422   0.844   6.058 -1.0077 -0.2021  0.3338
 5959SOL    HW120770   2.517   0.855   6.050 -0.9896  3.1206  2.8534
 5959SOL    HW220771   2.411   0.751   6.080  1.3569 -1.1876 -1.9608
 5960SOL     OW20772   3.256   1.412   6.197  0.7649 -0.0479 -0.2288
 5960SOL    HW120773   3.238   1.318   6.192  1.4759 -0.2350  0.4208
 5960SOL    HW220774   3.186   1.446   6.253 -2.1931  0.6379 -3.9305
 5961SOL     OW20775   6.173   5.911   2.114  0.4560  0.4386  0.1073
 5961SOL    HW120776   6.223   5.834   2.143  0.2833  0.5774  0.7778
 5961SOL    HW220777   6.169   5.902   2.019  1.1255  0.0367  0.1125
 5962SOL     OW20778   0.571   6.217   6.957  0.2485  0.1402 -0.6713
 5962SOL    HW120779   0.596   6.295   7.006  0.4594 -0.6624  0.5468
 5962SOL    HW220780   0.556   6.248   6.868  3.1878  1.1348 -0.9357
 5963SOL     OW20781   8.414   5.282   9.009 -0.1671  0.1269  0.5983
 5963SOL    HW120782   8.363   5.205   8.983  2.0441 -0.7185 -1.5642
 5963SOL    HW220783   8.392   5.349   8.944 -0.0872  0.4831  0.9282
 5964SOL     OW20784   3.183   1.616   4.676  0.1578 -0.2250  0.4882
 5964SOL    HW120785   3.171   1.565   4.595  1.5571  2.0134 -1.2415
 5964SOL    HW220786   3.098   1.658   4.690 -0.2347 -0.9959  0.4504
 5965SOL     OW20787   5.129   4.941   6.993  0.2292 -0.3883 -0.1906
 5965SOL    HW120788   5.147   4.851   7.017 -1.3287 -0.8216 -0.5100
 5965SOL    HW220789   5.209   4.971   6.950  0.8302 -1.5591  0.0740
 5966SOL     OW20790  10.547   0.580   7.135  0.5727 -0.2833  0.3092
 5966SOL    HW120791  10.590   0.636   7.071  1.0322  0.0724  0.9283
 5966SOL    HW220792  10.569   0.617   7.220 -1.1427  0.0511  0.6506
 5967SOL     OW20793   3.539   3.546   0.706  0.5991  0.2125  0.2544
 5967SOL    HW120794   3.484   3.471   0.727  0.4249  0.1200 -0.5117
 5967SOL    HW220795   3.527   3.560   0.612  1.8132  0.2446  0.0857
 5968SOL     OW20796   6.133   4.879  10.733 -0.3540 -0.5718 -0.5373
 5968SOL    HW120797   6.048   4.855  10.694 -0.0043  0.6100 -2.1064
 5968SOL    HW220798   6.151   4.966  10.699  0.0547  0.5435  2.2504
 5969SOL     OW20799   2.934   7.189   3.177  0.0899 -0.0668 -0.3301
 5969SOL    HW120800   2.992   7.262   3.158  1.5190 -1.2216 -0.5325
 5969SOL    HW220801   2.992   7.114   3.193 -1.3330 -1.3477 -0.8558
 5970SOL     OW20802   7.795   5.691   0.372 -0.0776 -0.2944  1.0373
 5970SOL    HW120803   7.869   5.646   0.331 -0.9431 -0.6087 -0.2318
 5970SOL    HW220804   7.727   5.625   0.379  0.1072 -0.3099  3.2621
 5971SOL     OW20805   8.435   2.141   5.870 -0.2268 -0.4899 -0.2525
 5971SOL    HW120806   8.490   2.071   5.906  0.4341  0.2167  0.1548
 5971SOL    HW220807   8.346   2.117   5.896  0.2464  0.2356  2.3892
 5972SOL     OW20808   0.767   5.094   8.969  0.4931  0.0377  0.5031
 5972SOL    HW120809   0.863   5.094   8.969  0.5057  0.6750  1.6232
 5972SOL    HW220810   0.743   5.122   9.057 -0.7340 -0.8169  0.4576
 5973SOL     OW20811   1.208   1.033   0.269  0.2673 -0.8452  0.5011
 5973SOL    HW120812   1.301   1.026   0.250  0.3375  1.6038 -0.2894
 5973SOL    HW220813   1.172   0.949   0.239  2.0183 -1.3950 -0.1947
 5974SOL     OW20814   7.389   1.915   5.302 -0.6515 -0.1192 -0.3900
 5974SOL    HW120815   7.400   1.863   5.381  0.5679 -0.7492 -0.9493
 5974SOL    HW220816   7.311   1.879   5.260 -0.8086 -0.3427  0.0937
 5975SOL     OW20817   8.495   6.957   3.324  0.3203 -0.6499  0.4203
 5975SOL    HW120818   8.427   7.005   3.373  2.5958  1.1741  1.9852
 5975SOL    HW220819   8.482   6.984   3.233 -1.7732 -1.3435  0.4449
 5976SOL     OW20820   8.264   9.723   2.471  0.0841  0.0775  0.0307
 5976SOL    HW120821   8.211   9.797   2.500 -0.7998 -0.8104  0.7610
 5976SOL    HW220822   8.354   9.756   2.475 -0.1722  0.7209  1.6570
 5977SOL     OW20823   6.305   2.994   2.688  0.0323  0.3532  0.3282
 5977SOL    HW120824   6.242   3.060   2.660 -2.8524 -0.4283  4.1297
 5977SOL    HW220825   6.279   2.914   2.641 -0.1961  0.6065  0.0211
 5978SOL     OW20826   6.004   3.300   2.865 -0.2429  0.2002  0.0814
 5978SOL    HW120827   6.042   3.230   2.918 -0.2396  1.6078  2.0162
 5978SOL    HW220828   5.915   3.311   2.900 -0.1100  1.4069  0.0684
 5979SOL     OW20829   1.750   2.192   8.233 -0.0644  0.6699 -0.4606
 5979SOL    HW120830   1.738   2.186   8.138 -2.5453  0.5255 -0.2132
 5979SOL    HW220831   1.748   2.286   8.251  1.0803  0.7350 -0.5813
 5980SOL     OW20832   6.436   6.491   0.550  0.3252 -0.3125 -0.4981
 5980SOL    HW120833   6.342   6.478   0.548  0.2950 -0.2760  0.1817
 5980SOL    HW220834   6.473   6.413   0.509  0.0312 -0.9116  0.3473
 5981SOL     OW20835   5.792   1.140   6.374  0.1414  0.0293 -0.0845
 5981SOL    HW120836   5.819   1.093   6.452 -1.2643 -1.6090 -0.5434
 5981SOL    HW220837   5.699   1.158   6.387 -0.0325  0.0389 -1.2116
 5982SOL     OW20838   8.018  10.504   7.820  0.1184 -0.0350 -0.2103
 5982SOL    HW120839   8.020  10.556   7.901 -2.3588  0.9706 -0.7212
 5982SOL    HW220840   8.084  10.545   7.764  0.5545  0.4373  0.6259
 5983SOL     OW20841   7.289   8.049   6.308 -0.4029 -0.3872 -0.4593
 5983SOL    HW120842   7.216   8.104   6.281 -0.5090 -0.7868 -1.0035
 5983SOL    HW220843   7.292   7.979   6.242 -1.1873 -1.8514  0.9882
 5984SOL     OW20844  10.613   9.030   5.271 -0.2460 -0.0105  0.2780
 5984SOL    HW120845  10.597   9.030   5.177  1.9885 -0.4857 -0.1654
 5984SOL    HW220846  10.669   8.953   5.285 -0.3621  0.1847  1.9681
 5985SOL     OW20847   6.073   3.930   4.831  0.3117  0.5134 -0.8926
 5985SOL    HW120848   6.106   3.938   4.742 -2.7487  0.7534 -2.1135
 5985SOL    HW220849   6.001   3.992   4.836 -0.7515 -0.7524  1.1913
 5986SOL     OW20850   6.157   1.818   8.250  0.4490 -0.6343 -0.5335
 5986SOL    HW120851   6.161   1.783   8.339  0.8718 -1.2845 -0.8019
 5986SOL    HW220852   6.079   1.872   8.249  1.3366  0.7355  0.7164
 5987SOL     OW20853   1.530   7.331   2.623 -0.3807 -0.1116 -0.5569
 5987SOL    HW120854   1.506   7.373   2.705 -1.3473 -0.4113 -0.6678
 5987SOL    HW220855   1.483   7.247   2.624  0.0490 -0.3696 -1.1608
 5988SOL     OW20856  10.037   3.063   9.374  0.0525  0.0233 -0.0504
 5988SOL    HW120857   9.953   3.040   9.334  0.1861  2.9024 -2.3724
 5988SOL    HW220858  10.102   3.026   9.314  0.2948  1.9698 -1.0708
 5989SOL     OW20859   1.928   0.606   1.267  0.1262 -0.3113 -0.1832
 5989SOL    HW120860   1.989   0.679   1.258  1.2439 -0.6978  2.8940
 5989SOL    HW220861   1.859   0.639   1.324 -0.7527 -0.9181 -0.8723
 5990SOL     OW20862   7.718   6.692   0.102  0.4101 -0.3321 -0.3939
 5990SOL    HW120863   7.695   6.630   0.172 -1.0957  0.4333 -0.1819
 5990SOL    HW220864   7.781   6.644   0.048  0.8329 -1.3062  0.8971
 5991SOL     OW20865   7.908   2.731   6.816 -0.5614 -0.1995 -0.0592
 5991SOL    HW120866   7.855   2.746   6.894  0.4050  2.0413  0.2519
 5991SOL    HW220867   7.908   2.636   6.805 -2.7667 -0.4112  1.1907
 5992SOL     OW20868  10.559  10.402   1.737 -0.1342 -0.2355  0.2410
 5992SOL    HW120869  10.560  10.493   1.766  0.1705  0.4876 -1.8136
 5992SOL    HW220870  10.556  10.408   1.641  0.2531 -2.3883  0.0415
 5993SOL     OW20871  10.513   3.987   1.424  0.3416  0.2790 -0.0893
 5993SOL    HW120872  10.423   3.957   1.436 -0.3863  1.9778 -0.9347
 5993SOL    HW220873  10.543   4.010   1.512 -1.4359  3.2654 -0.1284
 5994SOL     OW20874   2.646   5.281   8.694 -0.1325  0.0916 -0.0811
 5994SOL    HW120875   2.722   5.340   8.694  0.4601 -0.5470  2.1561
 5994SOL    HW220876   2.683   5.195   8.672 -0.4902  0.0613 -0.5630
 5995SOL     OW20877   6.068   1.699   1.063  0.1436  0.0723  0.3799
 5995SOL    HW120878   6.039   1.729   1.149 -3.4801 -0.4685 -0.4950
 5995SOL    HW220879   6.056   1.775   1.006 -0.7500 -0.5309 -0.2495
 5996SOL     OW20880   2.035   9.384   7.845 -0.3016  0.3635 -0.2359
 5996SOL    HW120881   2.037   9.393   7.940 -0.0665 -2.4399  0.1139
 5996SOL    HW220882   2.095   9.451   7.813  0.3001  0.7868  1.6531
 5997SOL     OW20883   1.265   9.698   9.369 -0.4398 -0.2576 -0.0071
 5997SOL    HW120884   1.206   9.625   9.390 -0.9587  0.1166 -0.1370
 5997SOL    HW220885   1.302   9.676   9.284 -0.3517 -0.5260  0.1026
 5998SOL     OW20886   4.185   1.073   4.201 -0.6280  0.2712  0.9518
 5998SOL    HW120887   4.191   1.168   4.192  0.8908  0.3670  2.4179
 5998SOL    HW220888   4.263   1.049   4.251  0.0233 -1.9772 -0.9276
 5999SOL     OW20889   1.893   6.240   7.858 -0.3072 -0.1507 -0.3462
 5999SOL    HW120890   1.942   6.274   7.783 -0.1745  0.9153  0.2098
 5999SOL    HW220891   1.818   6.194   7.818  0.2742 -0.4240 -1.1488
 6000SOL     OW20892   2.697   6.301   1.196  0.4254 -0.2004  0.5128
 6000SOL    HW120893   2.613   6.317   1.239 -0.9549 -0.1617 -1.9707
 6000SOL    HW220894   2.708   6.206   1.197 -0.7417 -0.3920 -0.9149
 6001SOL     OW20895   7.853   7.468   5.065 -0.1528 -0.3109  0.5255
 6001SOL    HW120896   7.888   7.403   5.005 -0.7719 -0.0808 -0.0974
 6001SOL    HW220897   7.903   7.456   5.146 -0.0014 -1.2919  0.2914
 6002SOL     OW20898   3.519   2.246   3.679  0.5201 -0.0685  0.0891
 6002SOL    HW120899   3.541   2.250   3.772 -1.8925 -0.3217  0.7440
 6002SOL    HW220900   3.533   2.154   3.656  3.1789  0.3934 -0.4317
 6003SOL     OW20901   2.765   8.762   2.084 -0.1308 -0.0705  0.2576
 6003SOL    HW120902   2.670   8.755   2.069  0.0242  1.4527 -1.8689
 6003SOL    HW220903   2.772   8.787   2.177 -1.8347  0.0997  0.3869
 6004SOL     OW20904   4.385   8.949  10.360 -0.0498  0.0269 -0.3953
 6004SOL    HW120905   4.322   8.997  10.306 -2.1082 -0.1914  1.6321
 6004SOL    HW220906   4.340   8.938  10.444  1.8325 -2.1527  0.4336
 6005SOL     OW20907   8.120   6.048   9.948  0.4085  0.5817 -0.3538
 6005SOL    HW120908   8.100   6.074  10.038  1.2157  0.5669 -0.1632
 6005SOL    HW220909   8.077   6.114   9.894 -1.3336 -0.2245 -0.0271
 6006SOL     OW20910   8.020  10.508   3.641  0.0400  0.4542  0.5390
 6006SOL    HW120911   7.959  10.463   3.699  0.3519  1.2484  1.5125
 6006SOL    HW220912   8.060  10.576   3.695  0.0201  1.5233 -0.7239
 6007SOL     OW20913   7.998   7.306   1.149  0.4455  0.0213 -0.0950
 6007SOL    HW120914   8.070   7.361   1.181 -0.9598  0.3578  2.8904
 6007SOL    HW220915   7.951   7.361   1.086 -1.6744  3.0827  3.6997
 6008SOL     OW20916   0.428   2.704   2.996  0.2176  0.2146  0.2017
 6008SOL    HW120917   0.409   2.790   2.958 -0.8770  0.0328  0.3256
 6008SOL    HW220918   0.403   2.712   3.088 -1.6072 -0.7678 -0.1781
 6009SOL     OW20919   8.127   0.192   1.483 -0.0263 -0.1646 -0.3746
 6009SOL    HW120920   8.205   0.196   1.429  0.0440 -0.4479 -0.2965
 6009SOL    HW220921   8.092   0.104   1.470 -1.2125  0.4500 -1.6300
 6010SOL     OW20922  10.428   2.566  10.573 -0.0533 -0.2205  0.4407
 6010SOL    HW120923  10.410   2.492  10.632 -1.1789  0.8979  1.5637
 6010SOL    HW220924  10.407   2.533  10.486  0.3278 -1.4905  0.8056
 6011SOL     OW20925   0.736   5.040   2.745 -0.0022  0.0929  0.0258
 6011SOL    HW120926   0.762   4.959   2.702  0.1360  0.1131  0.0720
 6011SOL    HW220927   0.656   5.017   2.793 -0.9291  0.3990 -1.3156
 6012SOL     OW20928   7.830   6.695   4.343  0.0618  0.2967 -0.3160
 6012SOL    HW120929   7.849   6.616   4.292 -1.5440  0.8219 -1.8100
 6012SOL    HW220930   7.796   6.661   4.426  0.9035 -0.5778 -0.3076
 6013SOL     OW20931  10.346   9.642  10.461  0.1303 -0.8154 -0.4830
 6013SOL    HW120932  10.349   9.729  10.421  0.6581  0.0838  1.3927
 6013SOL    HW220933  10.435   9.609  10.454  0.5969 -0.0141  1.1993
 6014SOL     OW20934   1.654   3.065   1.760 -0.1246 -0.5103  0.3365
 6014SOL    HW120935   1.647   3.079   1.666  2.5300 -0.0854  0.1162
 6014SOL    HW220936   1.696   3.144   1.793  1.5673 -1.7822  1.4160
 6015SOL     OW20937   3.962   1.866   6.453  0.0902 -0.5670 -0.0543
 6015SOL    HW120938   3.906   1.832   6.523 -1.3897 -0.0089 -0.9034
 6015SOL    HW220939   3.900   1.900   6.388  1.3732  2.8226  0.2807
 6016SOL     OW20940   9.038   8.742   2.138 -0.1285  0.2209 -0.0884
 6016SOL    HW120941   9.097   8.693   2.196  0.0623  1.6926  1.0117
 6016SOL    HW220942   8.970   8.678   2.114  0.8329 -0.9488  0.2072
 6017SOL     OW20943   3.644   2.442   1.495 -0.4132 -0.5305  0.1683
 6017SOL    HW120944   3.710   2.482   1.438  0.0342 -0.3113  0.8199
 6017SOL    HW220945   3.574   2.415   1.436 -1.2603  2.2041 -0.2166
 6018SOL     OW20946   2.697   2.939   2.422  0.3931  0.0318  0.0506
 6018SOL    HW120947   2.783   2.978   2.432 -0.0561  1.6420 -1.8901
 6018SOL    HW220948   2.693   2.910   2.331 -0.9716 -0.3985  0.2159
 6019SOL     OW20949   0.550   7.660   9.932  0.0355  0.3541  0.4047
 6019SOL    HW120950   0.539   7.568   9.957 -0.0628  0.2328 -0.0765
 6019SOL    HW220951   0.538   7.661   9.837 -0.6754  0.9682  0.4869
 6020SOL     OW20952   0.006   0.924   3.269 -0.1708 -0.8127  0.4248
 6020SOL    HW120953  -0.043   0.995   3.311 -0.4401 -1.6137  1.5231
 6020SOL    HW220954  -0.034   0.844   3.305  0.3965 -1.5114 -0.4704
 6021SOL     OW20955   4.329   9.059   6.275  0.2282  0.2521  0.2837
 6021SOL    HW120956   4.285   9.136   6.312  0.9522  0.0376  1.6543
 6021SOL    HW220957   4.298   9.055   6.185 -2.2071  0.3717  1.0387
 6022SOL     OW20958   4.835   3.383   2.152  0.6157  0.2097  0.1060
 6022SOL    HW120959   4.817   3.289   2.149  1.1301 -0.0059  2.0653
 6022SOL    HW220960   4.907   3.392   2.214  0.6921  1.8972 -0.1685
 6023SOL     OW20961   7.530   2.549   2.333  0.7969  0.0763 -0.1537
 6023SOL    HW120962   7.514   2.598   2.414  3.1943  0.9043 -0.0925
 6023SOL    HW220963   7.626   2.540   2.329  0.7360 -0.2047 -2.7534
 6024SOL     OW20964   3.271   9.706   9.392 -0.1836 -0.4358  1.1455
 6024SOL    HW120965   3.304   9.636   9.336 -3.9205 -1.4460 -0.0999
 6024SOL    HW220966   3.249   9.663   9.475 -1.5151 -0.6118  0.7346
 6025SOL     OW20967   3.415   7.310   0.505  0.0412 -0.2184  0.2806
 6025SOL    HW120968   3.408   7.268   0.419  1.3189  1.1606 -0.5418
 6025SOL    HW220969   3.346   7.376   0.505 -1.4354 -1.6885  1.2538
 6026SOL     OW20970   9.893   4.578   8.641  0.3301  0.7383  0.2882
 6026SOL    HW120971   9.847   4.576   8.558 -1.0870 -2.0064  1.0035
 6026SOL    HW220972   9.837   4.630   8.699  0.0919  0.6384  0.1482
 6027SOL     OW20973   4.133   2.832   1.059  0.3605 -0.2665 -0.6561
 6027SOL    HW120974   4.127   2.919   1.021 -0.8629 -0.0606 -0.0266
 6027SOL    HW220975   4.064   2.829   1.125  1.6855 -0.9984  0.7757
 6028SOL     OW20976   1.332   8.356   7.022 -0.0859  0.2116  0.1641
 6028SOL    HW120977   1.359   8.445   6.998 -0.6169  0.3044 -0.1044
 6028SOL    HW220978   1.386   8.334   7.098  1.0637  0.2174 -0.6354
 6029SOL     OW20979   5.076   2.832   5.336  0.3686  0.3978 -0.0884
 6029SOL    HW120980   5.128   2.888   5.279  1.9816  0.6864  1.5801
 6029SOL    HW220981   5.050   2.758   5.281  2.9753 -0.0098 -0.8769
 6030SOL     OW20982   7.364   9.786   3.526 -0.7124  0.2240 -0.3040
 6030SOL    HW120983   7.382   9.865   3.475 -0.8999  1.0611  0.8986
 6030SOL    HW220984   7.268   9.781   3.530 -0.6998  0.2778  0.1267
 6031SOL     OW20985  10.648   5.897   7.742 -0.4989  0.5403  0.3692
 6031SOL    HW120986  10.715   5.910   7.675 -0.6785  0.2885  0.1353
 6031SOL    HW220987  10.687   5.929   7.823  0.1996 -0.3395  0.3893
 6032SOL     OW20988   5.889   9.496   6.364 -0.4818 -0.2539 -0.2028
 6032SOL    HW120989   5.952   9.568   6.374 -1.9979  1.2013 -0.7645
 6032SOL    HW220990   5.870   9.470   6.454  0.2942 -0.1579  0.0006
 6033SOL     OW20991   3.937   5.995   6.925  0.0525 -0.3567  0.4247
 6033SOL    HW120992   3.863   6.009   6.985  0.6586  0.1578  1.0762
 6033SOL    HW220993   4.003   5.952   6.979 -0.0149 -1.4442 -0.3340
 6034SOL     OW20994   0.055   7.576   0.280 -0.8232 -0.0810 -0.1015
 6034SOL    HW120995  -0.003   7.636   0.233 -1.1774 -1.6699 -1.8222
 6034SOL    HW220996   0.116   7.545   0.213  0.6687 -0.0905  1.2057
 6035SOL     OW20997   6.157   2.636   1.310  0.1947 -0.3686  0.1023
 6035SOL    HW120998   6.197   2.673   1.389  1.2019 -0.8542 -0.1651
 6035SOL    HW220999   6.070   2.677   1.306  0.0121 -0.5270  1.6088
 6036SOL     OW21000   7.992   6.109   9.165 -0.2484  0.3048 -0.1860
 6036SOL    HW121001   7.942   6.186   9.140 -0.1053  0.4577 -0.0079
 6036SOL    HW221002   8.068   6.144   9.213 -0.8945 -0.0127  1.1094
 6037SOL     OW21003   6.510   9.520   1.275 -0.0275 -0.3295 -0.2084
 6037SOL    HW121004   6.519   9.479   1.189  0.5098  0.4139 -0.5110
 6037SOL    HW221005   6.566   9.469   1.333  0.7468  0.0524 -0.6136
 6038SOL     OW21006   2.116   9.327   4.910  0.4510  0.1741  0.2657
 6038SOL    HW121007   2.134   9.407   4.861  0.5117  0.0511  0.0859
 6038SOL    HW221008   2.080   9.357   4.993  0.2652  0.3794  0.1122
 6039SOL     OW21009   2.362   2.562   6.528 -1.1738 -0.1731 -0.3103
 6039SOL    HW121010   2.360   2.562   6.624 -1.8484 -0.8273 -0.3090
 6039SOL    HW221011   2.354   2.654   6.504 -1.0230 -0.0057  0.2612
 6040SOL     OW21012  10.533   9.310   2.568 -0.6700  0.5085  0.3146
 6040SOL    HW121013  10.581   9.279   2.645 -1.1986  1.3783  1.0001
 6040SOL    HW221014  10.584   9.385   2.537  0.7956 -1.1427 -1.5450
 6041SOL     OW21015   7.488   4.286   0.065 -0.0279  0.2681 -0.4072
 6041SOL    HW121016   7.429   4.212   0.079 -0.2035  0.3047 -0.9383
 6041SOL    HW221017   7.449   4.358   0.114  0.5130 -0.1530  0.7094
 6042SOL     OW21018   3.952   2.015   6.926  0.5909  0.0583  0.1549
 6042SOL    HW121019   4.042   1.989   6.908  0.5705 -0.6029  0.9318
 6042SOL    HW221020   3.920   2.051   6.843  1.5888  0.3861 -0.1049
 6043SOL     OW21021  10.779   6.003   9.081  0.2279 -0.0853  0.1465
 6043SOL    HW121022  10.734   5.923   9.106 -1.5149  0.8121  0.0631
 6043SOL    HW221023  10.765   6.063   9.155  1.4562  0.1946  0.1871
 6044SOL     OW21024   8.083   3.154   5.207  0.3256 -0.0003 -0.9021
 6044SOL    HW121025   8.110   3.240   5.237 -1.3768  0.8194 -1.5534
 6044SOL    HW221026   8.117   3.148   5.118 -1.0232  0.8012 -1.5190
 6045SOL     OW21027   9.069   5.737   2.153  0.3821  0.3851 -0.0688
 6045SOL    HW121028   9.099   5.757   2.065  0.4029 -0.4868 -0.2691
 6045SOL    HW221029   9.136   5.680   2.190  1.0705  1.8357  1.0300
 6046SOL     OW21030   0.405   0.042   8.296 -0.1713 -0.9856  0.1240
 6046SOL    HW121031   0.482   0.086   8.332  0.1128 -0.8021 -0.6932
 6046SOL    HW221032   0.413   0.052   8.201 -0.7533 -1.7201 -0.0163
 6047SOL     OW21033   3.033   9.295   5.530  0.0942 -0.4668  0.0217
 6047SOL    HW121034   2.986   9.286   5.447  0.6641  0.4494 -0.4155
 6047SOL    HW221035   2.994   9.229   5.587 -2.5314  0.9660  0.0506
 6048SOL     OW21036   1.221   4.268   1.734  0.2479  0.4976  0.3324
 6048SOL    HW121037   1.268   4.238   1.657 -1.9900 -2.1001 -0.1756
 6048SOL    HW221038   1.142   4.310   1.699 -0.2704  0.2559  1.1706
 6049SOL     OW21039  10.150   7.087   9.531 -0.3526 -0.3570 -0.1414
 6049SOL    HW121040  10.237   7.088   9.492  0.5037 -2.0915  1.5190
 6049SOL    HW221041  10.091   7.062   9.460  0.6493 -0.1681 -1.0571
 6050SOL     OW21042   2.881   3.465   5.682  0.4674  0.1058 -0.2834
 6050SOL    HW121043   2.798   3.491   5.642  1.3851 -1.7299 -3.7390
 6050SOL    HW221044   2.935   3.543   5.678  0.0678  0.3494 -1.4422
 6051SOL     OW21045   2.866   3.525   1.851  0.0502 -0.4581 -0.1975
 6051SOL    HW121046   2.817   3.477   1.918 -1.5258  0.3490 -0.7283
 6051SOL    HW221047   2.855   3.617   1.873  2.9034 -0.2323  0.7130
 6052SOL     OW21048  10.160   0.391   8.278  0.0432 -0.0446 -0.2596
 6052SOL    HW121049  10.074   0.378   8.237  1.3459 -3.4035 -2.3749
 6052SOL    HW221050  10.210   0.439   8.212  0.4523 -0.2765 -0.1217
 6053SOL     OW21051   2.032   1.759   5.214 -0.0823  0.0839  0.6061
 6053SOL    HW121052   2.052   1.675   5.256 -0.8408  0.1058  1.0355
 6053SOL    HW221053   1.963   1.797   5.268 -0.9872  0.1853 -0.5691
 6054SOL     OW21054   6.103   1.893   9.621 -0.7916 -0.5556 -0.3292
 6054SOL    HW121055   6.179   1.879   9.565 -0.7998 -1.1870 -0.1898
 6054SOL    HW221056   6.139   1.907   9.708 -0.8561 -2.7584  0.1271
 6055SOL     OW21057   9.283   5.740   5.757 -0.4527 -0.0491  0.4279
 6055SOL    HW121058   9.300   5.737   5.663 -1.0536  0.3788  0.2944
 6055SOL    HW221059   9.367   5.723   5.798  0.0271  0.7501 -0.1903
 6056SOL     OW21060   8.038   2.673   7.229  0.1232  0.0686  0.6535
 6056SOL    HW121061   8.124   2.714   7.231  0.1443  0.1042 -0.2944
 6056SOL    HW221062   7.977   2.743   7.253  0.4328 -0.2678  2.5862
 6057SOL     OW21063   2.024   5.376   0.250  0.0780 -0.2291 -0.0913
 6057SOL    HW121064   1.952   5.409   0.305 -0.1358 -0.3421 -0.2989
 6057SOL    HW221065   2.006   5.283   0.241 -0.1022 -0.1471 -0.6585
 6058SOL     OW21066   5.213   8.675   1.846 -0.0694  0.3793  0.3024
 6058SOL    HW121067   5.284   8.726   1.807 -1.0761  2.7628  1.4282
 6058SOL    HW221068   5.156   8.653   1.772  0.5199  0.6202 -0.2400
 6059SOL     OW21069   7.151  10.510   5.934  0.3848  0.3951  0.1793
 6059SOL    HW121070   7.134  10.444   6.001 -0.1943  1.4883  1.1441
 6059SOL    HW221071   7.154  10.460   5.852 -3.8714 -0.4451  0.3138
 6060SOL     OW21072   6.950   0.100   5.832  0.2470  0.0183  0.6551
 6060SOL    HW121073   6.958   0.041   5.907 -0.2572 -0.8701  0.0101
 6060SOL    HW221074   7.011   0.172   5.853  0.3202 -0.3466  1.7818
 6061SOL     OW21075  10.236   8.858   6.428 -0.2503 -0.5538 -0.3828
 6061SOL    HW121076  10.315   8.860   6.373 -0.8242 -2.9650 -1.4109
 6061SOL    HW221077  10.164   8.877   6.368 -0.6653 -0.7107  0.0599
 6062SOL     OW21078   6.562   1.692   3.786  0.1128  0.4949  0.1345
 6062SOL    HW121079   6.588   1.760   3.724 -0.4434 -0.4828 -1.2118
 6062SOL    HW221080   6.586   1.609   3.744  1.6509 -0.1777  2.1414
 6063SOL     OW21081   0.034  10.620   4.562 -0.3256  0.6071  0.0363
 6063SOL    HW121082  -0.045  10.670   4.583  0.4627  0.9391  2.4988
 6063SOL    HW221083   0.100  10.686   4.545 -0.1261  0.3484 -0.1919
 6064SOL     OW21084   4.010   5.913   2.262  0.1906  0.6181  0.8467
 6064SOL    HW121085   4.012   5.822   2.233 -0.5612  0.1709  2.1342
 6064SOL    HW221086   4.059   5.961   2.195 -2.6329 -0.0878 -1.9467
 6065SOL     OW21087   2.535   9.574   0.911 -0.5381  0.6673 -0.4415
 6065SOL    HW121088   2.458   9.626   0.935 -0.3089  0.0370  1.8629
 6065SOL    HW221089   2.601   9.596   0.976  1.2658  1.1044 -2.3029
 6066SOL     OW21090   8.392   7.400   3.913  0.0435 -0.1487 -0.1915
 6066SOL    HW121091   8.484   7.385   3.889  0.2515  1.4418 -0.5065
 6066SOL    HW221092   8.385   7.495   3.924 -1.5374 -0.2557 -0.0071
 6067SOL     OW21093   7.280   3.005   5.818 -0.6366 -0.3555  0.1968
 6067SOL    HW121094   7.352   3.067   5.804  0.4940 -1.2423  1.8114
 6067SOL    HW221095   7.201   3.057   5.801  0.1612  2.0628  3.0362
 6068SOL     OW21096   3.843   6.529   2.044 -0.3546 -0.3437 -0.0764
 6068SOL    HW121097   3.857   6.599   1.981  1.9466 -0.7775 -0.1330
 6068SOL    HW221098   3.894   6.554   2.121 -0.4362 -1.3938  0.3501
 6069SOL     OW21099   3.849   8.973   7.455  0.5394 -0.0749  0.2032
 6069SOL    HW121100   3.890   9.003   7.537 -1.5768  2.3033  0.5338
 6069SOL    HW221101   3.755   8.975   7.474  0.0178  0.2635 -2.1870
 6070SOL     OW21102   2.508   0.181  10.087 -0.1933 -0.6377  0.3474
 6070SOL    HW121103   2.421   0.204  10.054  0.3072 -0.0711 -0.6009
 6070SOL    HW221104   2.553   0.265  10.097  0.4565 -0.9676  0.2383
 6071SOL     OW21105   1.864   1.174  10.003  0.2509  0.1459 -0.1287
 6071SOL    HW121106   1.844   1.146  10.092  2.5254  1.0480  0.7339
 6071SOL    HW221107   1.786   1.222   9.974 -0.5086 -0.1384  1.3753
 6072SOL     OW21108   2.484   7.108   4.074 -0.4241 -0.4179  0.6627
 6072SOL    HW121109   2.527   7.083   4.156 -2.1549 -0.5190  1.5832
 6072SOL    HW221110   2.474   7.203   4.081  0.8128 -0.2108 -0.1556
 6073SOL     OW21111   3.576   2.391   6.261  0.0626 -0.1387  0.1581
 6073SOL    HW121112   3.642   2.430   6.318  1.7679 -2.3342 -0.2066
 6073SOL    HW221113   3.503   2.453   6.264  1.5428  1.6577  1.7301
 6074SOL     OW21114   5.209   1.021   8.544  0.3326 -0.4008 -0.0694
 6074SOL    HW121115   5.142   1.066   8.493  1.2711  0.4169 -0.6128
 6074SOL    HW221116   5.167   0.939   8.572  0.2508 -1.6787 -3.4989
 6075SOL     OW21117   7.713   7.832   6.460 -0.0177 -0.1536 -0.1349
 6075SOL    HW121118   7.648   7.818   6.392 -1.2666  0.0586  0.9698
 6075SOL    HW221119   7.770   7.901   6.426  0.1401 -0.8927 -1.4497
 6076SOL     OW21120   4.615   5.858   6.658 -0.3802  0.3591  0.3783
 6076SOL    HW121121   4.573   5.940   6.685 -0.3446  0.7519 -0.7221
 6076SOL    HW221122   4.680   5.842   6.727  0.1875  1.7065  0.2085
 6077SOL     OW21123   9.299   2.606   3.674  0.5616 -0.1340  0.1490
 6077SOL    HW121124   9.265   2.693   3.694  1.9654  0.7328 -1.0054
 6077SOL    HW221125   9.279   2.592   3.582 -0.6538 -1.5541  0.5936
 6078SOL     OW21126   0.889   9.706   1.332 -0.0748 -0.4589  0.1948
 6078SOL    HW121127   0.881   9.771   1.262 -0.0395 -0.3270  0.3115
 6078SOL    HW221128   0.938   9.634   1.292 -1.6677 -1.2074 -0.4723
 6079SOL     OW21129   8.168   6.249   9.617 -0.5965 -0.4886  0.0449
 6079SOL    HW121130   8.158   6.255   9.712 -0.9823  0.5038 -0.0474
 6079SOL    HW221131   8.263   6.247   9.603 -0.5049  0.5086  0.4101
 6080SOL     OW21132   9.710   6.819   0.531  0.0322  0.0117 -0.0985
 6080SOL    HW121133   9.738   6.908   0.552  0.5779 -0.5221  1.5982
 6080SOL    HW221134   9.773   6.788   0.466  0.7498  0.3458  0.4288
 6081SOL     OW21135   2.524   7.128  10.583  0.0019 -0.5425  0.2929
 6081SOL    HW121136   2.479   7.185  10.521  2.6306  0.6187 -0.6804
 6081SOL    HW221137   2.478   7.143  10.666 -1.9650 -0.1907 -0.7926
 6082SOL     OW21138   1.532   3.016   0.061  0.1284 -0.0934  0.1656
 6082SOL    HW121139   1.533   3.097   0.112 -1.1045  0.3470 -0.4764
 6082SOL    HW221140   1.451   2.971   0.089 -1.6543  1.0660 -2.7125
 6083SOL     OW21141   5.257   2.542   0.446 -1.0191 -0.4755  0.5521
 6083SOL    HW121142   5.350   2.554   0.425 -1.1041  0.3558  0.6283
 6083SOL    HW221143   5.211   2.576   0.370 -1.2746 -0.1036  0.8692
 6084SOL     OW21144   4.921   1.738   0.360 -0.5238 -0.2996 -0.4944
 6084SOL    HW121145   4.895   1.741   0.452  0.1634 -0.3900 -0.2980
 6084SOL    HW221146   4.988   1.670   0.355  0.1217  0.3444 -0.8861
 6085SOL     OW21147   1.812   0.630   0.235 -0.1570  0.0736  0.4157
 6085SOL    HW121148   1.877   0.680   0.284  0.1700  0.0782 -0.0269
 6085SOL    HW221149   1.772   0.572   0.300  1.5564 -1.2545  0.3410
 6086SOL     OW21150   8.090   6.790   4.416 -0.2858  0.5614  0.2706
 6086SOL    HW121151   8.076   6.767   4.508  0.8200 -0.1724  0.2735
 6086SOL    HW221152   8.010   6.761   4.373 -0.5908  0.4105  0.9193
 6087SOL     OW21153   0.719   3.595   8.186 -0.4594 -0.4086 -0.2627
 6087SOL    HW121154   0.627   3.596   8.215 -0.0755  0.6485  1.0044
 6087SOL    HW221155   0.758   3.521   8.231 -0.3897 -0.0970  0.1881
 6088SOL     OW21156   8.464   7.394   6.550  0.1118 -0.9533  0.1805
 6088SOL    HW121157   8.384   7.398   6.496  0.0344 -1.6553  0.2296
 6088SOL    HW221158   8.472   7.301   6.573  0.7775 -0.8363  0.4322
 6089SOL     OW21159  10.136   8.574   6.831 -0.0351  0.0100  0.4787
 6089SOL    HW121160  10.086   8.500   6.797 -0.2277 -0.1164  1.0206
 6089SOL    HW221161  10.070   8.634   6.865  0.0922  0.6697 -0.3971
 6090SOL     OW21162   9.447   4.950   5.365  0.1030  0.1238 -0.0146
 6090SOL    HW121163   9.502   4.971   5.289 -0.0181 -1.5812 -0.6191
 6090SOL    HW221164   9.509   4.934   5.436  0.3732 -0.8201 -0.4430
 6091SOL     OW21165   1.288   7.296   5.133  0.3221 -0.5526 -0.1984
 6091SOL    HW121166   1.312   7.360   5.201  0.8451 -0.5789 -0.3521
 6091SOL    HW221167   1.352   7.309   5.064  1.5679 -2.4208  0.5093
 6092SOL     OW21168   6.463   0.349   7.805  0.2641  0.8633  0.1121
 6092SOL    HW121169   6.439   0.413   7.872  2.0880  0.0814  1.5709
 6092SOL    HW221170   6.543   0.384   7.766  1.3035 -0.5258  0.9572
 6093SOL     OW21171   6.398   6.180   2.198  0.3245 -0.6324 -0.2283
 6093SOL    HW121172   6.330   6.147   2.140 -0.0004 -0.4047  0.0211
 6093SOL    HW221173   6.455   6.232   2.141  1.0878 -1.9312 -0.7150
 6094SOL     OW21174   5.423   8.573   2.868 -0.3764  0.4242  0.2871
 6094SOL    HW121175   5.513   8.604   2.861  0.3107 -1.5706 -0.3445
 6094SOL    HW221176   5.420   8.494   2.814 -2.1305 -0.3276  1.3841
 6095SOL     OW21177   3.235   1.625   1.724  0.6135 -0.2043  0.3950
 6095SOL    HW121178   3.258   1.589   1.810 -1.1627 -0.9587  0.5986
 6095SOL    HW221179   3.207   1.549   1.673  1.9682  0.1929 -0.9870
 6096SOL     OW21180   2.228   7.832   5.573  0.3380  0.2472 -0.5083
 6096SOL    HW121181   2.280   7.896   5.623 -1.0901  0.2734  1.0398
 6096SOL    HW221182   2.276   7.749   5.584  1.0273  0.6143 -0.6717
 6097SOL     OW21183  10.572   1.381  10.051 -0.3051  0.2897 -0.1438
 6097SOL    HW121184  10.634   1.339  10.109  0.4945  0.0082 -1.1701
 6097SOL    HW221185  10.608   1.468  10.035  0.4633 -0.2639 -1.6361
 6098SOL     OW21186   9.985   1.330   4.340  0.2427 -0.3278  0.0574
 6098SOL    HW121187  10.050   1.376   4.394  0.2722 -0.7141  0.3512
 6098SOL    HW221188   9.920   1.298   4.402 -0.8631  1.0539 -0.3327
 6099SOL     OW21189   6.386   2.601   9.119 -0.2892  0.2081 -0.0841
 6099SOL    HW121190   6.402   2.513   9.153 -1.1136 -0.1627 -0.6167
 6099SOL    HW221191   6.473   2.639   9.107  0.0838 -0.7172 -0.3271
 6100SOL     OW21192   8.727   9.929   2.911 -0.4756 -0.4434 -0.0636
 6100SOL    HW121193   8.701   9.980   2.834 -0.9882 -0.3137  0.1928
 6100SOL    HW221194   8.661   9.861   2.918  0.0285 -0.9544 -0.2114
 6101SOL     OW21195   3.872   7.781  10.631 -0.0115 -0.5175 -0.1103
 6101SOL    HW121196   3.953   7.767  10.582  0.5109  0.1881  0.5304
 6101SOL    HW221197   3.900   7.805  10.719 -0.8464  1.7436 -0.3854
 6102SOL     OW21198   5.408   7.527   7.596 -0.3067  0.4606 -0.4507
 6102SOL    HW121199   5.474   7.596   7.603 -0.1923  0.4879 -1.5620
 6102SOL    HW221200   5.379   7.512   7.686  1.3921  0.2697  0.1085
 6103SOL     OW21201   3.341  10.465  10.020 -0.3554 -0.3126 -0.3061
 6103SOL    HW121202   3.370  10.548  10.058  0.0765 -0.0685 -1.1408
 6103SOL    HW221203   3.255  10.450  10.059 -0.8743  1.0245 -0.8450
 6104SOL     OW21204   1.219   6.447  10.624  0.7377 -0.3592 -0.2914
 6104SOL    HW121205   1.152   6.512  10.645 -0.3940 -1.1911 -1.1886
 6104SOL    HW221206   1.283   6.454  10.695 -1.8834 -1.7072  2.4292
 6105SOL     OW21207   1.037   7.225   8.669 -0.1836 -0.1980 -0.2668
 6105SOL    HW121208   1.079   7.306   8.640 -1.5690  0.7704  0.3512
 6105SOL    HW221209   1.021   7.239   8.762  2.9525 -2.7009  0.8382
 6106SOL     OW21210   2.884   7.721   9.921 -0.2084  0.3236 -0.1136
 6106SOL    HW121211   2.869   7.808   9.885 -0.9504 -0.0007 -0.6302
 6106SOL    HW221212   2.803   7.674   9.903  0.2048 -0.4904  0.1020
 6107SOL     OW21213   6.869   3.274   4.362 -0.1798 -0.0373  0.2603
 6107SOL    HW121214   6.858   3.356   4.410  0.4518 -0.2245  0.7311
 6107SOL    HW221215   6.789   3.267   4.309 -0.7320  0.3448  1.0218
 6108SOL     OW21216   4.722   7.609   7.269  0.0536 -0.0945 -0.3486
 6108SOL    HW121217   4.809   7.649   7.271  0.1955 -0.4089  1.2324
 6108SOL    HW221218   4.667   7.672   7.224  0.6721  1.0327  0.4412
 6109SOL     OW21219   3.182   9.556   8.720  0.6097  0.0773 -0.1562
 6109SOL    HW121220   3.139   9.530   8.801 -1.4795  2.0394 -0.5213
 6109SOL    HW221221   3.246   9.622   8.747  1.7703 -1.1145  0.1198
 6110SOL     OW21222   9.583   6.348   3.450  0.5982 -0.1443 -0.1766
 6110SOL    HW121223   9.568   6.261   3.489 -1.6341 -0.3154 -1.2249
 6110SOL    HW221224   9.617   6.401   3.522 -0.2020 -1.3081  1.1190
 6111SOL     OW21225   7.221   3.324   6.330 -0.4049 -0.6329 -0.0290
 6111SOL    HW121226   7.253   3.411   6.352  0.0832 -0.0856 -2.6662
 6111SOL    HW221227   7.300   3.270   6.323 -0.3996 -0.4611 -1.6470
 6112SOL     OW21228   2.842   5.797   3.036 -0.0944  0.0947 -0.2736
 6112SOL    HW121229   2.868   5.765   3.122 -1.0881 -0.5186 -0.1884
 6112SOL    HW221230   2.784   5.871   3.054 -0.7466 -0.3783 -0.3925
 6113SOL     OW21231   5.866   6.247   4.497 -0.4030 -0.5220 -0.2036
 6113SOL    HW121232   5.797   6.269   4.434 -0.4195 -0.7161 -0.2542
 6113SOL    HW221233   5.891   6.331   4.536 -0.9810 -0.5089  0.1447
 6114SOL     OW21234   3.216   9.938   0.703 -0.3612 -0.4959 -0.0483
 6114SOL    HW121235   3.197   9.867   0.641  0.2239 -0.6230 -0.0817
 6114SOL    HW221236   3.214   9.896   0.789 -1.4866 -0.2593  0.0548
 6115SOL     OW21237   4.836   4.184   6.435  0.2828 -0.4946  0.0993
 6115SOL    HW121238   4.799   4.113   6.382 -1.9442 -0.2138  1.1935
 6115SOL    HW221239   4.911   4.215   6.384 -0.5174 -1.6114 -1.8504
 6116SOL     OW21240   4.178  10.075   5.756  0.3671 -0.3094  0.1264
 6116SOL    HW121241   4.196  10.132   5.831 -0.8818 -1.5337  1.4202
 6116SOL    HW221242   4.211   9.990   5.782  1.2477 -0.4603 -1.3562
 6117SOL     OW21243   5.350   2.924   9.142  0.3989  0.0474  0.2539
 6117SOL    HW121244   5.355   2.996   9.080 -2.0103 -0.3082 -0.4576
 6117SOL    HW221245   5.300   2.960   9.216 -1.6961 -1.0847 -0.5337
 6118SOL     OW21246   6.534   4.267   6.165 -0.7658 -0.0272  0.0095
 6118SOL    HW121247   6.451   4.255   6.120 -0.4218 -1.6028 -0.2720
 6118SOL    HW221248   6.512   4.312   6.247 -1.9801 -0.8800  0.1756
 6119SOL     OW21249   9.887   3.876   2.986  0.4091  0.4608 -0.4288
 6119SOL    HW121250   9.905   3.807   2.922 -1.6010  0.6628 -1.2717
 6119SOL    HW221251   9.974   3.910   3.009  1.3923 -1.8391 -0.5090
 6120SOL     OW21252   2.428   1.764   2.098  0.8619  0.3319 -0.3443
 6120SOL    HW121253   2.422   1.691   2.037 -2.1450  0.5131 -0.4109
 6120SOL    HW221254   2.452   1.723   2.181  2.4437 -0.2437 -1.0422
 6121SOL     OW21255   1.363   5.928   1.679  0.0041 -0.2390  0.1235
 6121SOL    HW121256   1.334   5.864   1.744  1.6038 -0.1900  0.9279
 6121SOL    HW221257   1.336   6.013   1.715  0.4244 -0.2543  0.4890
 6122SOL     OW21258   7.095   0.511   7.516  0.1187  0.0742  0.1405
 6122SOL    HW121259   7.111   0.416   7.513 -2.6889 -0.6710  2.9070
 6122SOL    HW221260   7.156   0.543   7.583 -2.2951 -0.8837  3.0409
 6123SOL     OW21261   1.643   2.091   7.391 -0.5854 -0.7013 -0.6452
 6123SOL    HW121262   1.666   2.066   7.302  0.1661  0.3560 -0.7665
 6123SOL    HW221263   1.559   2.136   7.383  0.3132  0.9696 -1.0996
 6124SOL     OW21264   1.482   4.611   5.017 -0.6093 -0.4521  0.2983
 6124SOL    HW121265   1.496   4.528   4.972  1.7797  0.0864 -0.0786
 6124SOL    HW221266   1.467   4.588   5.108 -0.4370 -1.2977  0.1165
 6125SOL     OW21267  10.017   9.583   0.098  0.0939 -0.0189 -0.2784
 6125SOL    HW121268  10.100   9.569   0.052 -1.2725 -1.8040 -2.4499
 6125SOL    HW221269  10.027   9.668   0.141  2.7020  0.2332 -1.1861
 6126SOL     OW21270   2.674   2.093   0.544 -0.0927  0.3542  0.3000
 6126SOL    HW121271   2.693   2.084   0.451 -0.9353 -0.2881  0.1791
 6126SOL    HW221272   2.580   2.114   0.547 -0.0104  0.6443  0.9908
 6127SOL     OW21273   8.827   1.582   8.692  0.2747  0.2632 -0.5349
 6127SOL    HW121274   8.774   1.540   8.760  0.9606  0.3388  0.0467
 6127SOL    HW221275   8.778   1.662   8.670 -0.4681 -0.2701 -0.8637
 6128SOL     OW21276   9.962   1.519   2.800 -0.1717  0.4188 -0.0900
 6128SOL    HW121277  10.014   1.450   2.757  0.9832  0.8428  0.5903
 6128SOL    HW221278   9.980   1.507   2.893 -1.0291  0.8093  0.1292
 6129SOL     OW21279   2.668   9.403   1.966 -0.2120  0.5272  0.5137
 6129SOL    HW121280   2.688   9.490   2.002  1.3901 -0.4944  2.3016
 6129SOL    HW221281   2.683   9.412   1.872 -0.6604  2.3197  0.5705
 6130SOL     OW21282  10.093   6.078   3.084  0.0751  0.6088  0.1263
 6130SOL    HW121283  10.078   5.989   3.051 -0.9479  1.0103 -0.5354
 6130SOL    HW221284  10.008   6.106   3.119  0.5471  1.0951  0.9156
 6131SOL     OW21285   2.450   4.153   7.084  0.3555 -0.9460 -0.4573
 6131SOL    HW121286   2.504   4.078   7.108  0.1088 -1.8335 -2.4897
 6131SOL    HW221287   2.409   4.128   7.001 -0.1618  1.2294 -0.9231
 6132SOL     OW21288   3.144   7.595   9.568 -0.5192 -0.3863  0.2118
 6132SOL    HW121289   3.216   7.549   9.525 -0.7177 -0.3803 -0.1303
 6132SOL    HW221290   3.071   7.534   9.564 -1.0217  0.2552 -0.9838
 6133SOL     OW21291   1.535   9.804   8.190 -0.1681 -0.0511 -0.1235
 6133SOL    HW121292   1.472   9.834   8.125 -0.5909  0.2787  0.4204
 6133SOL    HW221293   1.612   9.859   8.177 -0.3418  0.1805 -0.1916
 6134SOL     OW21294   0.777   5.187   6.203  0.1503  0.5935  0.0082
 6134SOL    HW121295   0.790   5.093   6.190 -0.7038  0.5516 -0.5977
 6134SOL    HW221296   0.777   5.224   6.115 -0.7622  0.9833  0.1562
 6135SOL     OW21297   0.666   4.288   0.996 -0.6728 -0.4256  0.5420
 6135SOL    HW121298   0.581   4.271   0.955 -1.0113  0.2761  0.9293
 6135SOL    HW221299   0.720   4.323   0.925 -0.7014 -0.8784  0.2931
 6136SOL     OW21300   3.786   2.978   9.812  0.0739  0.1274  0.1512
 6136SOL    HW121301   3.775   2.888   9.843 -0.0984 -0.0914 -0.5279
 6136SOL    HW221302   3.853   2.972   9.744  2.6478  1.0553  2.4618
 6137SOL     OW21303   5.977   9.596   2.084  0.0591  0.0057 -0.9919
 6137SOL    HW121304   5.881   9.592   2.084  0.0704 -0.3961 -0.8266
 6137SOL    HW221305   6.004   9.507   2.061  0.3911 -0.3088  0.5052
 6138SOL     OW21306   6.638  10.289   9.310  0.0702  0.0225 -0.0658
 6138SOL    HW121307   6.565  10.295   9.249 -0.0401  1.9151  0.1866
 6138SOL    HW221308   6.702  10.234   9.266 -0.8880 -0.4196 -0.9440
 6139SOL     OW21309   5.436   8.874   5.607 -0.0319 -0.0733  0.1315
 6139SOL    HW121310   5.453   8.814   5.533 -2.2232 -0.5006 -0.0890
 6139SOL    HW221311   5.366   8.831   5.656  2.5976 -0.7754  3.6641
 6140SOL     OW21312   3.818   9.314   3.009  0.3599 -0.0168 -0.1508
 6140SOL    HW121313   3.805   9.236   2.955  0.0166  0.1925 -0.3769
 6140SOL    HW221314   3.780   9.385   2.958 -0.9944  0.0176  0.8584
 6141SOL     OW21315   0.287  10.245   5.652 -0.5135 -0.0661  0.2101
 6141SOL    HW121316   0.223  10.272   5.586  1.3333  1.9687 -0.8894
 6141SOL    HW221317   0.250  10.275   5.735 -0.2688  2.7831 -0.5947
 6142SOL     OW21318   3.539   3.161  10.214  0.5155 -0.2051  0.4195
 6142SOL    HW121319   3.558   3.150  10.121  0.0022 -1.0391  0.4020
 6142SOL    HW221320   3.458   3.112  10.228  0.6725 -0.2196  1.3403
 6143SOL     OW21321  10.246   3.443   4.681  0.4732 -0.3889 -0.2081
 6143SOL    HW121322  10.246   3.408   4.593 -0.5063  0.4060 -0.5541
 6143SOL    HW221323  10.246   3.538   4.669  0.2404 -0.2684  0.6340
 6144SOL     OW21324   0.460   9.253   6.046 -0.4196  0.0484  0.1025
 6144SOL    HW121325   0.376   9.207   6.043  0.7863 -2.5950  2.2338
 6144SOL    HW221326   0.508   9.210   6.117  1.6938  3.3688  0.9118
 6145SOL     OW21327   8.750   9.717   1.194 -0.1235  0.0372  0.0734
 6145SOL    HW121328   8.814   9.788   1.191 -0.7076  0.5442 -1.8167
 6145SOL    HW221329   8.801   9.638   1.175 -0.0153  0.4363 -1.4119
 6146SOL     OW21330   3.768  10.132   9.177  0.5901  0.1957  0.0557
 6146SOL    HW121331   3.826  10.207   9.163  1.3648 -0.3674  0.2114
 6146SOL    HW221332   3.801  10.065   9.118  0.4762 -0.3380  0.5950
 6147SOL     OW21333   9.459   5.622   8.751 -0.3303  0.1931  0.9890
 6147SOL    HW121334   9.394   5.562   8.787 -1.4482  0.3274 -0.7030
 6147SOL    HW221335   9.456   5.699   8.809 -0.6905 -0.3486  1.7006
 6148SOL     OW21336   3.578   3.876  10.443 -0.2204 -0.4509 -0.1008
 6148SOL    HW121337   3.592   3.937  10.371  1.7082 -1.4880 -0.6764
 6148SOL    HW221338   3.485   3.856  10.439 -0.9878  2.5830  0.2735
 6149SOL     OW21339   2.654   3.891   3.571  0.1103 -0.9491 -0.7795
 6149SOL    HW121340   2.718   3.822   3.554 -0.0842 -0.9760 -1.4340
 6149SOL    HW221341   2.634   3.884   3.664  2.9778  0.6763  0.0997
 6150SOL     OW21342   8.364   2.018   3.526  0.0644 -0.1656 -0.2008
 6150SOL    HW121343   8.269   2.029   3.534  0.0936  1.1879 -1.4234
 6150SOL    HW221344   8.401   2.079   3.590  0.1213  0.3662 -0.7366
 6151SOL     OW21345   2.326   2.313   7.604  0.3356 -0.3403  0.0990
 6151SOL    HW121346   2.332   2.273   7.517 -1.1049  1.7294 -1.0246
 6151SOL    HW221347   2.411   2.354   7.617 -0.0292  0.9174 -1.2023
 6152SOL     OW21348   4.378   1.371   3.829 -0.5049 -0.3985  0.4164
 6152SOL    HW121349   4.470   1.367   3.804 -0.3916  0.4796  0.6487
 6152SOL    HW221350   4.352   1.461   3.810 -1.5860 -0.8816 -0.5559
 6153SOL     OW21351   7.145   6.054   6.903 -0.1923  0.3141  0.4603
 6153SOL    HW121352   7.191   6.105   6.970 -0.2301 -0.6265  1.2297
 6153SOL    HW221353   7.115   5.976   6.949 -0.2661 -0.3373 -0.6515
 6154SOL     OW21354  10.520   6.280   0.489  0.3951 -0.3047 -0.0639
 6154SOL    HW121355  10.517   6.316   0.577 -0.6826  1.4297 -0.7401
 6154SOL    HW221356  10.503   6.187   0.500  0.1243 -0.0934  1.5427
 6155SOL     OW21357   9.032   8.891   7.245  0.7569 -0.0512  0.1247
 6155SOL    HW121358   8.939   8.898   7.268  0.0618 -0.8738 -2.1976
 6155SOL    HW221359   9.077   8.900   7.329 -1.4846 -1.2326  1.5841
 6156SOL     OW21360   6.499   3.813   6.516  0.1537  0.4450  0.3709
 6156SOL    HW121361   6.445   3.848   6.587 -0.3431  0.7675 -0.1534
 6156SOL    HW221362   6.578   3.781   6.559 -0.1528  0.6123  1.0693
 6157SOL     OW21363   5.198   1.120   6.797  0.2761 -0.2563  0.2907
 6157SOL    HW121364   5.223   1.204   6.758 -0.8563  0.1634  0.4298
 6157SOL    HW221365   5.197   1.059   6.724  1.7845 -0.3345  0.2981
 6158SOL     OW21366   2.759   1.721   5.569  0.5339 -0.6417  0.1627
 6158SOL    HW121367   2.728   1.639   5.608  0.4551 -0.5113  0.3784
 6158SOL    HW221368   2.779   1.777   5.644  0.2438 -0.3369  0.0140
 6159SOL     OW21369   0.898   7.791   8.343  0.0413 -0.1427  0.4967
 6159SOL    HW121370   0.894   7.838   8.260  0.9595  1.0479  1.0979
 6159SOL    HW221371   0.966   7.726   8.330 -0.4165 -0.5456  0.0475
 6160SOL     OW21372   6.511  10.256   0.129 -0.5024 -0.1028 -0.1167
 6160SOL    HW121373   6.485  10.187   0.191 -1.4404  1.7582  1.6825
 6160SOL    HW221374   6.429  10.284   0.089 -0.2599  0.5754 -0.1444
 6161SOL     OW21375   3.441   0.332   1.523 -0.4035  0.3110 -0.4971
 6161SOL    HW121376   3.522   0.357   1.567  0.2024 -0.3416 -1.2319
 6161SOL    HW221377   3.443   0.236   1.522 -1.8479  0.2297  0.7074
 6162SOL     OW21378   5.562  10.662   4.503  0.1090 -0.4401 -0.2717
 6162SOL    HW121379   5.511  10.632   4.578 -0.3589 -0.9702 -0.7897
 6162SOL    HW221380   5.504  10.648   4.427 -0.2074  1.9082 -0.5547
 6163SOL     OW21381   8.046   7.050   4.760  0.1948  0.0286  0.3744
 6163SOL    HW121382   8.106   7.004   4.819 -0.1204  0.2738  0.8927
 6163SOL    HW221383   8.003   6.980   4.710 -1.1119 -0.3578  1.9406
 6164SOL     OW21384  10.191   6.768   3.683  0.2033 -0.5571  0.1373
 6164SOL    HW121385  10.227   6.727   3.604  3.7092  0.6125  0.9263
 6164SOL    HW221386  10.185   6.696   3.746  0.4935 -0.9301 -0.2492
 6165SOL     OW21387   1.891   6.079   9.146 -0.1971 -0.0436 -0.2659
 6165SOL    HW121388   1.926   6.094   9.058  0.6949 -0.4025  0.0174
 6165SOL    HW221389   1.873   5.985   9.149  1.0846 -0.2965  0.3784
 6166SOL     OW21390   1.607   0.663   3.029  0.0159 -0.4382 -0.3093
 6166SOL    HW121391   1.528   0.609   3.034 -1.2238  1.3903  2.8371
 6166SOL    HW221392   1.660   0.636   3.105  2.6076 -1.7027 -2.4020
 6167SOL     OW21393   2.023   6.842   6.620 -0.1102 -0.0221  0.1546
 6167SOL    HW121394   2.111   6.880   6.618  0.0427 -0.3588  0.4326
 6167SOL    HW221395   2.020   6.792   6.702 -0.8082  0.5671  0.4947
 6168SOL     OW21396   1.964   8.680   4.930  0.2091  0.6549 -0.1417
 6168SOL    HW121397   1.991   8.743   4.863  0.3273  0.8671  0.1019
 6168SOL    HW221398   2.022   8.698   5.004  0.2816  0.2189 -0.0889
 6169SOL     OW21399   6.287   3.521   8.579  0.4709 -0.1738  0.2528
 6169SOL    HW121400   6.331   3.456   8.525  3.0754  1.8942 -0.3223
 6169SOL    HW221401   6.289   3.484   8.668 -0.8019 -2.1069 -0.4658
 6170SOL     OW21402   0.841   9.357   7.510 -0.1044 -0.2244  0.6100
 6170SOL    HW121403   0.912   9.326   7.454  1.6100  2.8350  0.8484
 6170SOL    HW221404   0.800   9.278   7.543 -0.1548 -2.1951 -3.5597
 6171SOL     OW21405  10.031   1.619   0.307 -1.0174  0.4807  0.2594
 6171SOL    HW121406  10.047   1.680   0.380  3.1229  1.3371 -1.0549
 6171SOL    HW221407  10.072   1.537   0.335 -2.1866 -0.1787  0.0833
 6172SOL     OW21408   1.801   5.505   2.457 -0.0929  0.1453 -0.0172
 6172SOL    HW121409   1.891   5.481   2.435 -0.1253  2.0310 -2.7140
 6172SOL    HW221410   1.750   5.426   2.438  0.7419 -0.2963 -0.4848
 6173SOL     OW21411   3.329   1.556   6.907 -0.6102 -0.2655 -0.5930
 6173SOL    HW121412   3.332   1.513   6.821 -0.2885 -0.0046 -0.7116
 6173SOL    HW221413   3.283   1.638   6.891 -0.6932 -0.2902 -0.4831
 6174SOL     OW21414   4.014   1.101   2.441 -0.0437 -0.2430 -0.3524
 6174SOL    HW121415   4.046   1.176   2.490 -1.0460  0.3035 -0.4973
 6174SOL    HW221416   4.065   1.101   2.360 -0.2210  0.4471 -0.4642
 6175SOL     OW21417   0.396   6.650   5.042 -0.2295  0.3554  0.1124
 6175SOL    HW121418   0.487   6.681   5.040 -0.2630  0.6066  1.5060
 6175SOL    HW221419   0.398   6.574   5.099 -0.6739 -0.4670 -0.9535
 6176SOL     OW21420   8.050   6.033   7.008 -0.9235 -1.0662  0.0206
 6176SOL    HW121421   8.112   5.977   6.960 -1.4185 -0.8348 -0.9126
 6176SOL    HW221422   8.008   6.085   6.940  0.3124  1.2668  0.9366
 6177SOL     OW21423   9.076   4.430   0.641  0.2655 -0.1967 -0.0079
 6177SOL    HW121424   9.011   4.426   0.711  1.0483 -0.5279  0.7230
 6177SOL    HW221425   9.138   4.497   0.670  0.4146 -0.0995 -0.5465
 6178SOL     OW21426   5.516   8.440   6.982  0.2998  0.1296  0.0767
 6178SOL    HW121427   5.553   8.362   6.939 -1.9689 -0.6205 -0.6683
 6178SOL    HW221428   5.491   8.410   7.069  0.0631  0.2143  0.0385
 6179SOL     OW21429   7.474   4.438   0.740  0.1412 -0.0829  0.0923
 6179SOL    HW121430   7.461   4.345   0.721  2.7281 -0.6751  0.8673
 6179SOL    HW221431   7.478   4.442   0.836  0.8722  0.6898  0.0307
 6180SOL     OW21432   7.629   7.352   0.087 -0.8420 -0.2241  0.1573
 6180SOL    HW121433   7.658   7.437   0.052 -2.2169  0.7300  1.1891
 6180SOL    HW221434   7.694   7.330   0.153  1.2930 -1.6114 -2.2305
 6181SOL     OW21435   3.826   7.255   5.797 -0.0886 -0.6981 -0.0242
 6181SOL    HW121436   3.910   7.243   5.842 -0.9312 -2.4089  1.2325
 6181SOL    HW221437   3.794   7.165   5.783 -2.4132 -0.1071  0.9589
 6182SOL     OW21438   4.547   9.417   8.731  0.1225 -0.1559 -0.1813
 6182SOL    HW121439   4.580   9.347   8.675  1.5116 -0.6430  1.1808
 6182SOL    HW221440   4.620   9.477   8.741  0.3434 -0.7213  2.0772
 6183SOL     OW21441   2.603   7.926   8.375  0.0515  0.7074  0.1657
 6183SOL    HW121442   2.637   7.838   8.386  0.5629  0.9454  0.5242
 6183SOL    HW221443   2.515   7.923   8.411 -0.1629  0.1945 -0.3772
 6184SOL     OW21444   6.973   3.540   4.662  0.5906 -0.1869 -0.1676
 6184SOL    HW121445   6.894   3.538   4.715  0.0133 -0.5722 -1.0228
 6184SOL    HW221446   6.999   3.632   4.661 -0.7596  0.2089 -1.1898
 6185SOL     OW21447   7.427   7.945   9.506  0.2468  0.2643 -0.1474
 6185SOL    HW121448   7.441   7.856   9.475 -0.2600 -0.3808  1.3653
 6185SOL    HW221449   7.334   7.962   9.492 -0.1704 -0.3256  1.5831
 6186SOL     OW21450   0.561   3.436   7.781 -0.5287  0.4661 -0.1410
 6186SOL    HW121451   0.619   3.462   7.852  0.9242 -2.5649 -0.0431
 6186SOL    HW221452   0.582   3.495   7.709  0.7114  1.1672  0.7744
 6187SOL     OW21453   7.299  10.267  10.197 -0.1425 -0.8602 -0.7552
 6187SOL    HW121454   7.245  10.335  10.157  1.0586 -0.3453 -1.5814
 6187SOL    HW221455   7.248  10.187  10.187 -2.4604  0.1322  1.9529
 6188SOL     OW21456   4.433   5.821   1.312 -0.7261 -0.4075 -0.3131
 6188SOL    HW121457   4.346   5.783   1.316 -1.5626  1.3694 -0.4168
 6188SOL    HW221458   4.460   5.829   1.404 -0.4967 -1.3059 -0.2963
 6189SOL     OW21459   7.760  10.541   1.689 -0.0087 -0.0570  0.1887
 6189SOL    HW121460   7.701  10.564   1.761 -1.2729 -0.2634 -0.7580
 6189SOL    HW221461   7.829  10.607   1.692 -0.2547  0.1663  1.3407
 6190SOL     OW21462   7.964   4.376   7.687 -1.1299 -0.4196  0.2447
 6190SOL    HW121463   7.995   4.453   7.638 -0.7981 -0.0633  1.0106
 6190SOL    HW221464   8.042   4.343   7.731 -1.1580 -1.5154 -0.4819
 6191SOL     OW21465   6.695   8.298   1.609  0.3317  0.0406 -0.1516
 6191SOL    HW121466   6.654   8.246   1.539 -0.7957  0.3664  0.2476
 6191SOL    HW221467   6.718   8.381   1.566 -1.1410  0.5735  0.0406
 6192SOL     OW21468   5.075   7.129   1.540  0.4375 -0.3697 -0.0925
 6192SOL    HW121469   5.137   7.145   1.468 -0.0210 -1.0331 -0.6529
 6192SOL    HW221470   5.005   7.077   1.500 -1.7918  2.3982 -0.1449
 6193SOL     OW21471   6.655   1.655   8.757 -0.5819  0.5563  0.3344
 6193SOL    HW121472   6.685   1.572   8.793  0.6684 -0.3533 -2.4971
 6193SOL    HW221473   6.608   1.631   8.677 -1.6028  2.5102  0.2871
 6194SOL     OW21474   5.638   6.817   0.520 -0.0208 -0.9716 -0.1057
 6194SOL    HW121475   5.714   6.828   0.462  0.3323  0.0604  0.5309
 6194SOL    HW221476   5.568   6.868   0.478  0.5236  0.6398  0.8620
 6195SOL     OW21477   4.958   2.247   6.435  0.0515  0.2267  0.3701
 6195SOL    HW121478   5.049   2.256   6.408 -0.1574  0.8441 -0.1651
 6195SOL    HW221479   4.913   2.320   6.392 -0.8089 -0.4420  0.1019
 6196SOL     OW21480  10.198   4.415   0.596 -0.4789 -0.4943 -0.2367
 6196SOL    HW121481  10.112   4.391   0.561 -0.8657 -2.7003  1.9402
 6196SOL    HW221482  10.182   4.433   0.688  1.1273  0.9941 -0.2081
 6197SOL     OW21483  10.792   7.174   9.262 -0.0654  0.2372 -0.0809
 6197SOL    HW121484  10.852   7.107   9.296  0.2066  0.4882 -0.0603
 6197SOL    HW221485  10.750   7.210   9.340  2.0789  2.2672  0.2364
 6198SOL     OW21486   2.570   9.774   9.692 -0.0764 -0.5708 -0.0482
 6198SOL    HW121487   2.519   9.727   9.626 -1.8238  1.6432 -0.4173
 6198SOL    HW221488   2.515   9.774   9.770  0.0193  0.5125  0.0407
 6199SOL     OW21489   4.342   0.264   4.171  0.3852  0.2571 -0.4348
 6199SOL    HW121490   4.293   0.208   4.110  0.0156  0.7418 -0.5824
 6199SOL    HW221491   4.390   0.325   4.115 -0.4421  1.1108 -0.2345
 6200SOL     OW21492   2.059   6.766   2.666 -0.4110 -0.4411 -0.4085
 6200SOL    HW121493   1.970   6.733   2.654 -0.5378 -0.7055  1.0874
 6200SOL    HW221494   2.107   6.732   2.590 -1.4781 -0.6333 -1.0266
 6201SOL     OW21495   3.672   4.477   8.430  0.1193  0.3400  0.0037
 6201SOL    HW121496   3.586   4.465   8.388  0.8391  0.6124 -1.6418
 6201SOL    HW221497   3.713   4.390   8.426 -0.5544 -0.1051  1.9820
 6202SOL     OW21498  10.023   4.437   1.364 -0.5802 -0.2898 -0.0124
 6202SOL    HW121499  10.042   4.418   1.456  0.0322  0.2173 -0.0278
 6202SOL    HW221500   9.970   4.517   1.366  0.3111  0.3159 -0.1414
 6203SOL     OW21501   0.721   4.929   6.418  0.6362 -0.0382 -0.7549
 6203SOL    HW121502   0.740   4.924   6.325  3.1144  0.3157 -0.3333
 6203SOL    HW221503   0.799   4.893   6.461  0.1627  1.1110  1.2127
 6204SOL     OW21504   5.124   5.515   0.269  0.3048  0.0574 -0.3661
 6204SOL    HW121505   5.210   5.474   0.260  0.2063 -0.5367  1.1101
 6204SOL    HW221506   5.085   5.509   0.181  1.2129 -0.9325 -0.7164
 6205SOL     OW21507   3.225   0.442   3.094  0.2185  0.7073  0.1727
 6205SOL    HW121508   3.131   0.456   3.080 -0.0713 -0.8810  0.3145
 6205SOL    HW221509   3.252   0.516   3.148 -1.4664  0.0598  2.0495
 6206SOL     OW21510  10.253   1.326   0.658 -0.2689  0.2596  0.1077
 6206SOL    HW121511  10.223   1.258   0.598 -0.3251 -0.1133  0.5569
 6206SOL    HW221512  10.348   1.325   0.650 -0.3327  1.4578 -1.3348
 6207SOL     OW21513   0.196  10.441   7.746  0.7212 -0.1046  0.5829
 6207SOL    HW121514   0.283  10.406   7.728  0.5859  0.5001 -1.5225
 6207SOL    HW221515   0.203  10.535   7.728 -0.9850 -0.4531 -2.5982
 6208SOL     OW21516   9.016   3.562   8.093  0.6539 -0.0516 -0.1789
 6208SOL    HW121517   9.038   3.473   8.118  0.1965  0.3494  1.8015
 6208SOL    HW221518   8.951   3.552   8.023 -0.0584 -1.2899  0.6218
 6209SOL     OW21519   7.394   7.546  10.639  0.1319 -0.0075 -0.0646
 6209SOL    HW121520   7.341   7.594  10.576 -0.9310 -0.4761  0.4510
 6209SOL    HW221521   7.472   7.520  10.590  0.0151  0.9073 -0.7632
 6210SOL     OW21522   8.457   4.574   5.038 -0.3135  0.2000 -0.3462
 6210SOL    HW121523   8.469   4.616   5.123  0.4145 -0.7829  0.0456
 6210SOL    HW221524   8.517   4.620   4.979  0.7848 -0.5218  0.1736
 6211SOL     OW21525   6.686   0.300   0.768 -0.2161  0.8197  0.1239
 6211SOL    HW121526   6.669   0.374   0.710  0.9283  0.3242 -0.8969
 6211SOL    HW221527   6.782   0.293   0.771 -0.2935 -0.4816  0.3360
 6212SOL     OW21528   0.672   7.629   2.673  0.0755 -0.0909 -0.3084
 6212SOL    HW121529   0.762   7.658   2.658  0.2361 -1.5798 -2.6920
 6212SOL    HW221530   0.660   7.556   2.613 -2.9366  0.4918 -0.5613
 6213SOL     OW21531   1.524   8.859   0.807 -0.0225 -0.4974  0.5409
 6213SOL    HW121532   1.594   8.889   0.864 -0.4257 -0.3300  0.9531
 6213SOL    HW221533   1.447   8.852   0.864 -0.4648 -0.1886 -0.0029
 6214SOL     OW21534   2.431   5.844   8.320  0.1362 -0.3462  0.0846
 6214SOL    HW121535   2.356   5.799   8.282  0.4926 -1.7112  0.9344
 6214SOL    HW221536   2.406   5.936   8.320 -0.7042 -0.5443 -1.4935
 6215SOL     OW21537   3.343   6.607   0.716 -0.8944  0.0140  0.1890
 6215SOL    HW121538   3.294   6.592   0.635  1.3298 -2.7574 -0.8172
 6215SOL    HW221539   3.342   6.522   0.761  2.8926 -0.3505 -0.0096
 6216SOL     OW21540   4.345   8.213   0.957  0.3084 -0.2628  0.3290
 6216SOL    HW121541   4.372   8.290   0.907  0.3608 -0.2342  0.4018
 6216SOL    HW221542   4.315   8.248   1.041 -0.2134 -0.2693  0.1486
 6217SOL     OW21543   6.954   7.414   8.083 -0.4056 -0.3863  0.2140
 6217SOL    HW121544   6.884   7.363   8.124  0.1070 -0.2732  1.2604
 6217SOL    HW221545   6.990   7.356   8.016 -1.9559 -0.1888 -0.8489
 6218SOL     OW21546   5.362   5.628   0.980  0.0183 -0.5149 -0.1842
 6218SOL    HW121547   5.378   5.634   0.886 -2.2943 -0.0176 -0.6206
 6218SOL    HW221548   5.317   5.710   1.002 -2.0605 -1.8139  0.7345
 6219SOL     OW21549   7.287   3.591   6.394  0.3096  0.1858  0.2177
 6219SOL    HW121550   7.372   3.633   6.381  1.1958 -1.6908 -0.4188
 6219SOL    HW221551   7.294   3.549   6.480  0.4965 -0.9272 -0.3161
 6220SOL     OW21552   0.415   0.908   3.895 -0.5898 -0.1115  0.3417
 6220SOL    HW121553   0.470   0.986   3.908 -0.6483 -0.0378  0.1534
 6220SOL    HW221554   0.398   0.906   3.801  0.1624 -0.8544  0.2061
 6221SOL     OW21555   9.405   4.236   3.850 -0.5112  0.0988 -0.1277
 6221SOL    HW121556   9.421   4.326   3.877  0.3754 -0.0492 -0.1577
 6221SOL    HW221557   9.481   4.211   3.798 -0.0369 -1.1521  1.0981
 6222SOL     OW21558   9.360   0.010   8.533 -0.0223  0.1304  0.4966
 6222SOL    HW121559   9.327  -0.072   8.569  0.7442  0.2744  1.5912
 6222SOL    HW221560   9.414  -0.017   8.459  1.6433 -0.5599  1.8709
 6223SOL     OW21561   2.612   2.576  10.769  0.4006 -0.1000 -0.1104
 6223SOL    HW121562   2.662   2.514  10.823  0.1654 -0.2326 -0.0429
 6223SOL    HW221563   2.528   2.584  10.814 -0.7105 -2.0030 -1.6591
 6224SOL     OW21564   2.499   8.613   3.556  0.0296 -0.0635 -0.1065
 6224SOL    HW121565   2.554   8.657   3.620  0.3258 -0.0402 -0.3722
 6224SOL    HW221566   2.548   8.619   3.474 -0.0470 -0.6575 -0.2011
 6225SOL     OW21567   8.615   4.062   0.129  0.0515  0.2746 -0.2920
 6225SOL    HW121568   8.692   4.009   0.149 -0.1661 -0.1218 -0.4970
 6225SOL    HW221569   8.597   4.109   0.210  0.4316  0.2699 -0.2023
 6226SOL     OW21570   3.123   7.815   7.194  0.4946  0.2441  0.3060
 6226SOL    HW121571   3.216   7.806   7.214  0.2050 -0.4445  1.4279
 6226SOL    HW221572   3.093   7.726   7.178  0.2211  0.5606 -1.0200
 6227SOL     OW21573   6.390   0.873   1.054 -0.1245  0.2367 -0.0678
 6227SOL    HW121574   6.354   0.866   1.143 -0.0014  1.4678  0.0899
 6227SOL    HW221575   6.477   0.834   1.061 -1.1779 -2.3665 -0.3519
 6228SOL     OW21576   4.667   2.333   5.873  0.3046  0.4329 -0.1424
 6228SOL    HW121577   4.588   2.287   5.844  0.3398  0.8319 -0.9135
 6228SOL    HW221578   4.736   2.301   5.815  0.6689  0.2426  0.3897
 6229SOL     OW21579   9.888   1.513   4.159 -0.5453  0.0343  0.2053
 6229SOL    HW121580   9.807   1.462   4.164  0.0968 -0.9165  1.3131
 6229SOL    HW221581   9.952   1.463   4.209 -0.0584  2.2750  2.0107
 6230SOL     OW21582   8.580   3.601   9.909  0.2684  0.5709 -0.6205
 6230SOL    HW121583   8.536   3.615   9.825 -1.6366  2.1456  0.5313
 6230SOL    HW221584   8.519   3.637   9.974  1.9482 -0.0016  1.3901
 6231SOL     OW21585   6.003   1.914   8.540 -0.0790  0.2692  0.3623
 6231SOL    HW121586   6.029   1.947   8.454 -1.5225 -0.6397 -0.4765
 6231SOL    HW221587   6.054   1.835   8.552 -1.0723 -0.5261 -0.4581
 6232SOL     OW21588   9.857   9.520   9.819  0.0108  0.3494 -0.4143
 6232SOL    HW121589   9.916   9.573   9.872  2.1810  0.5644 -2.8306
 6232SOL    HW221590   9.884   9.430   9.837 -0.2970  0.3239 -0.0552
 6233SOL     OW21591   2.388   9.859   0.697  0.1080  0.6578 -0.4971
 6233SOL    HW121592   2.341   9.812   0.766 -0.7237  0.1064 -1.4055
 6233SOL    HW221593   2.321   9.915   0.658  1.4740  4.4611  1.9935
 6234SOL     OW21594   6.662   2.674   9.069 -0.5780  0.3945 -0.6884
 6234SOL    HW121595   6.663   2.649   8.977  1.0576 -0.5077 -0.4521
 6234SOL    HW221596   6.674   2.769   9.069  0.9675  0.2223 -1.3833
 6235SOL     OW21597   1.856   7.663   6.410 -0.3902  0.4661 -0.0399
 6235SOL    HW121598   1.870   7.685   6.317  0.6710  0.0101 -0.0059
 6235SOL    HW221599   1.763   7.639   6.415 -0.9949  2.4898 -0.5513
 6236SOL     OW21600   4.353   7.853   3.788  0.2031  0.4800 -1.0142
 6236SOL    HW121601   4.425   7.819   3.734 -1.0064  0.1922 -2.5279
 6236SOL    HW221602   4.315   7.922   3.734  0.2126  1.6161  0.3841
 6237SOL     OW21603   7.038   5.905   6.565 -0.1742 -0.4430  0.1720
 6237SOL    HW121604   7.100   5.978   6.565  0.3379 -0.8618 -0.1118
 6237SOL    HW221605   7.058   5.857   6.485 -0.2155 -1.1263  0.5573
 6238SOL     OW21606   7.723   0.466   5.626 -0.2889  0.4496  0.0968
 6238SOL    HW121607   7.767   0.388   5.594 -2.0509  0.1171 -1.7425
 6238SOL    HW221608   7.697   0.445   5.715 -1.4838 -1.4226 -0.6530
 6239SOL     OW21609   9.602   5.888   7.935  0.4399  0.4402  0.1014
 6239SOL    HW121610   9.570   5.978   7.932  0.7734  0.5853  0.9165
 6239SOL    HW221611   9.535   5.840   7.983  0.3483  0.2786 -0.1801
 6240SOL     OW21612   7.436   3.111   3.375  0.2732  0.1681  0.0609
 6240SOL    HW121613   7.347   3.093   3.346  1.0014 -1.8224 -1.1454
 6240SOL    HW221614   7.478   3.153   3.299  0.8949 -0.7499 -0.1162
 6241SOL     OW21615   1.882   5.504   9.714  0.4838  0.6186  0.0917
 6241SOL    HW121616   1.972   5.495   9.747 -0.0221  0.7512  1.5522
 6241SOL    HW221617   1.850   5.414   9.709  0.5640  0.5979 -0.0713
 6242SOL     OW21618   7.796   8.653   2.018 -0.2296  0.1289  0.1674
 6242SOL    HW121619   7.819   8.563   1.996 -0.6665 -0.6135  2.4523
 6242SOL    HW221620   7.880   8.697   2.029  0.0094  0.4429 -2.2843
 6243SOL     OW21621   0.524   3.963   6.550  0.2723 -0.1042  0.1052
 6243SOL    HW121622   0.498   3.968   6.642  0.4836  0.7277  0.1273
 6243SOL    HW221623   0.441   3.967   6.502  0.1638 -0.4989  0.2518
 6244SOL     OW21624  10.144  10.458   8.666 -0.4274 -0.5697  0.2105
 6244SOL    HW121625  10.192  10.381   8.636 -0.7052 -0.5076 -0.4236
 6244SOL    HW221626  10.053  10.441   8.640 -0.1862  0.8091 -1.7284
 6245SOL     OW21627   2.463   7.488   5.197 -0.3616  0.6825 -0.5237
 6245SOL    HW121628   2.473   7.583   5.204 -0.0487  0.7543 -1.6254
 6245SOL    HW221629   2.499   7.467   5.110 -0.3525 -0.4514 -0.2598
 6246SOL     OW21630   8.199   1.561   2.006 -0.2023  0.1941 -0.1621
 6246SOL    HW121631   8.148   1.632   2.045  0.4314  1.8802 -2.2066
 6246SOL    HW221632   8.168   1.556   1.916  0.7798 -1.1643 -0.4522
 6247SOL     OW21633   9.657   1.633   9.352  0.6146 -0.5648 -0.2142
 6247SOL    HW121634   9.603   1.652   9.275 -0.0566 -1.7342 -0.0570
 6247SOL    HW221635   9.688   1.543   9.338  1.5935 -0.3175  0.2544
 6248SOL     OW21636   0.031   1.034   6.006 -0.1215 -0.0846 -0.5772
 6248SOL    HW121637   0.119   0.998   6.021 -0.5538 -1.0011 -0.1729
 6248SOL    HW221638   0.047   1.123   5.974  0.9523 -0.2214 -0.4667
 6249SOL     OW21639   7.445   3.506   4.690  0.3139  0.3731  0.1544
 6249SOL    HW121640   7.422   3.548   4.773 -0.7345 -1.6995  0.9871
 6249SOL    HW221641   7.540   3.517   4.684  0.2924  1.3429  1.1609
 6250SOL     OW21642   6.367   6.024   5.013  0.0167  0.1216 -0.5412
 6250SOL    HW121643   6.354   6.102   5.068  0.5255  0.5526 -1.0108
 6250SOL    HW221644   6.315   5.956   5.055 -1.6941  1.1112 -0.9810
 6251SOL     OW21645   2.918   0.262   1.724 -0.5085 -0.9046 -0.1218
 6251SOL    HW121646   2.896   0.355   1.717  2.0359 -0.3724 -2.4860
 6251SOL    HW221647   2.955   0.254   1.812 -2.2178 -0.0817  0.7248
 6252SOL     OW21648   8.694   4.757   4.516  0.1528 -0.0114 -0.5526
 6252SOL    HW121649   8.610   4.714   4.506  0.6287 -1.1045 -0.0176
 6252SOL    HW221650   8.726   4.770   4.427  0.2757 -1.3403 -0.7160
 6253SOL     OW21651   7.129   5.753   8.446 -0.3480  0.0930  0.4765
 6253SOL    HW121652   7.080   5.682   8.405  0.1088 -0.3923  0.7612
 6253SOL    HW221653   7.189   5.783   8.378  0.7576 -1.0430  0.9229
 6254SOL     OW21654   2.845   4.088   5.374 -0.5716  0.6148  0.2907
 6254SOL    HW121655   2.854   4.103   5.280  2.6712  0.1496  0.3922
 6254SOL    HW221656   2.867   4.172   5.414 -0.6676  0.4800  0.6313
 6255SOL     OW21657   7.109   3.755   7.501 -0.9067 -0.6530  0.4748
 6255SOL    HW121658   7.104   3.681   7.561  3.6165  0.3873  2.5645
 6255SOL    HW221659   7.156   3.822   7.549 -0.0471  1.5936 -3.1036
 6256SOL     OW21660   8.443   2.647   1.359  1.3653  0.0155  0.0428
 6256SOL    HW121661   8.385   2.630   1.433  0.2324 -0.2708 -0.8779
 6256SOL    HW221662   8.506   2.712   1.391  1.1124 -0.3646  1.3435
 6257SOL     OW21663   8.095   2.794   2.430 -0.2845 -0.1254  0.0006
 6257SOL    HW121664   8.167   2.738   2.402  0.6205  1.7501 -1.6412
 6257SOL    HW221665   8.023   2.733   2.449  1.1793 -1.9197  0.0185
 6258SOL     OW21666   6.950   1.057   0.062 -0.2162  0.1878  0.2241
 6258SOL    HW121667   7.001   1.084  -0.015 -1.2383 -1.6453 -1.1805
 6258SOL    HW221668   6.909   1.138   0.093  0.7108  1.0870 -0.7807
 6259SOL     OW21669   7.818   6.397   4.988  0.4465  0.1852 -0.0766
 6259SOL    HW121670   7.879   6.325   4.967  0.2911  0.2956 -0.9781
 6259SOL    HW221671   7.740   6.377   4.936  0.5963  1.2766 -0.7485
 6260SOL     OW21672   6.191   6.331   1.741 -0.1830  0.0587 -0.4922
 6260SOL    HW121673   6.219   6.407   1.792 -1.1750  0.0933  0.0079
 6260SOL    HW221674   6.251   6.262   1.767 -0.2949  0.2387  0.2788
 6261SOL     OW21675   6.040   6.555   6.324  0.2082 -0.0775  0.5136
 6261SOL    HW121676   6.119   6.599   6.355  1.6296 -1.9593 -0.2468
 6261SOL    HW221677   6.018   6.601   6.243  1.8573 -0.8816 -0.4472
 6262SOL     OW21678   3.089   1.201   4.531  0.1356  0.0039  1.7351
 6262SOL    HW121679   3.167   1.155   4.562  0.5684  0.5134  1.4365
 6262SOL    HW221680   3.106   1.216   4.438 -0.3442  0.0746  1.6583
 6263SOL     OW21681   4.671   5.883   1.623 -0.6618 -0.1284 -0.4731
 6263SOL    HW121682   4.700   5.972   1.603 -2.1121  0.3586 -0.5536
 6263SOL    HW221683   4.727   5.827   1.569  1.6942  0.5551  1.1631
 6264SOL     OW21684   8.940   9.722   7.469  0.2229 -0.1233  0.3934
 6264SOL    HW121685   9.003   9.656   7.441 -0.8069 -1.0165  0.1305
 6264SOL    HW221686   8.921   9.773   7.391 -0.0780 -0.4473  0.2535
 6265SOL     OW21687   6.633   0.524   3.284 -0.0135 -0.3816  0.6111
 6265SOL    HW121688   6.567   0.592   3.275 -0.1637 -0.4314  1.2257
 6265SOL    HW221689   6.651   0.494   3.195 -1.9257 -1.4083  0.5200
 6266SOL     OW21690   2.339   9.835   0.337  0.1553 -0.6144  0.1718
 6266SOL    HW121691   2.400   9.772   0.375  0.1507 -0.6892  0.0565
 6266SOL    HW221692   2.257   9.787   0.330  0.2111 -0.6676 -0.1290
 6267SOL     OW21693   7.645   1.686   2.991 -0.4187  0.0829 -0.2892
 6267SOL    HW121694   7.624   1.644   2.908  0.5809  1.2318 -1.1464
 6267SOL    HW221695   7.619   1.777   2.980  1.3530  0.6588 -0.0030
 6268SOL     OW21696   2.601   2.510   2.538  0.2282 -0.4729 -0.2417
 6268SOL    HW121697   2.526   2.485   2.592 -0.6665 -1.1968 -1.7563
 6268SOL    HW221698   2.577   2.595   2.502  0.8485  0.0360  0.5196
 6269SOL     OW21699   1.401   4.494   6.983  0.8548 -0.3637 -0.0542
 6269SOL    HW121700   1.390   4.402   6.959  3.8683 -0.2021 -2.7896
 6269SOL    HW221701   1.496   4.504   6.996  0.8377  2.6585 -1.4389
 6270SOL     OW21702   8.326   9.202   9.748 -0.3561  0.6728  0.5681
 6270SOL    HW121703   8.263   9.133   9.768  0.8460 -0.5334  0.3753
 6270SOL    HW221704   8.277   9.264   9.694 -1.5508  0.1330  0.9869
 6271SOL     OW21705   0.791   4.553   9.261 -0.4537 -0.1143  0.2236
 6271SOL    HW121706   0.847   4.611   9.210  0.8647 -1.2392  0.3534
 6271SOL    HW221707   0.752   4.610   9.328  0.8412  0.6266  0.3752
 6272SOL     OW21708   8.994   3.486   6.079 -0.1907  0.4211 -0.2945
 6272SOL    HW121709   9.028   3.567   6.042 -0.5216 -0.1319 -1.8791
 6272SOL    HW221710   8.937   3.515   6.151  1.4133  1.4671  0.6215
 6273SOL     OW21711   8.751   3.291  10.629  0.3727 -0.3456  0.2768
 6273SOL    HW121712   8.770   3.233  10.555 -1.5002 -3.3027  1.8950
 6273SOL    HW221713   8.656   3.286  10.639  0.3217  1.8876  1.4649
 6274SOL     OW21714   7.029   3.373   8.666  0.3153  0.0145 -0.2326
 6274SOL    HW121715   7.081   3.318   8.725  2.2550  0.8117 -1.1183
 6274SOL    HW221716   6.941   3.373   8.705  0.9925 -1.2219  1.4423
 6275SOL     OW21717   7.220   5.414   6.270 -0.1699 -0.6294 -0.1224
 6275SOL    HW121718   7.252   5.346   6.211 -2.3895 -0.7339 -1.3006
 6275SOL    HW221719   7.291   5.478   6.273  1.2458 -2.1218 -0.3948
 6276SOL     OW21720   2.798   1.014   4.817 -0.5297  0.2141  0.2714
 6276SOL    HW121721   2.817   0.979   4.730 -0.3691  1.8158 -0.3786
 6276SOL    HW221722   2.876   1.066   4.840 -1.2594  1.2138  0.5979
 6277SOL     OW21723   3.521  10.033  10.790  0.3600 -0.4671  0.2602
 6277SOL    HW121724   3.546  10.021  10.698  0.4345  0.2248  0.1822
 6277SOL    HW221725   3.553  10.121  10.811 -0.3211 -0.3305  0.7307
 6278SOL     OW21726   5.189   0.428   8.217 -0.4946 -0.0232  0.3223
 6278SOL    HW121727   5.103   0.415   8.176  0.2909  0.0895 -1.4599
 6278SOL    HW221728   5.171   0.430   8.311 -2.3559 -0.6225  0.0192
 6279SOL     OW21729   8.786   9.941   8.413 -0.0421  0.2053  0.2019
 6279SOL    HW121730   8.832   9.999   8.474 -0.6982  0.5337  0.3944
 6279SOL    HW221731   8.734   9.883   8.469 -1.9295  1.5722 -0.0415
 6280SOL     OW21732   0.754   1.480   1.214  0.0702  0.2463 -0.5318
 6280SOL    HW121733   0.749   1.467   1.120  0.4195  1.2951 -0.7155
 6280SOL    HW221734   0.706   1.407   1.252 -1.9565  0.9624 -1.5827
 6281SOL     OW21735   0.192   1.194   4.948 -0.3660  0.0144 -0.0244
 6281SOL    HW121736   0.225   1.226   5.032 -0.5632  1.6257 -0.5291
 6281SOL    HW221737   0.175   1.101   4.963 -1.2359  0.4454  1.9734
 6282SOL     OW21738   7.988   9.053   1.254 -0.3407  0.1441  0.5602
 6282SOL    HW121739   8.005   9.076   1.163 -1.4910  0.3399  0.3783
 6282SOL    HW221740   7.987   9.136   1.301  0.3347  0.0368  0.7736
 6283SOL     OW21741   7.816  10.370   4.986  0.2118 -0.0450  0.0341
 6283SOL    HW121742   7.827  10.464   4.999 -2.0810  0.1128  1.2574
 6283SOL    HW221743   7.725  10.361   4.957  0.3540 -1.9026  0.0876
 6284SOL     OW21744   1.289   6.177   1.741  0.5682  0.1700  0.9228
 6284SOL    HW121745   1.323   6.258   1.701  0.0935  0.6025  1.3880
 6284SOL    HW221746   1.200   6.169   1.706  0.5578 -0.0653  1.0040
 6285SOL     OW21747   6.930   1.999   9.527 -0.4069  0.4636  0.2697
 6285SOL    HW121748   6.886   2.069   9.576 -1.7178 -0.6581  0.7483
 6285SOL    HW221749   6.868   1.974   9.459 -0.1180 -0.4777  0.3355
 6286SOL     OW21750   5.807  10.708   3.958  0.4232  0.3573 -0.1448
 6286SOL    HW121751   5.882  10.654   3.934 -0.6402 -0.5027 -1.7057
 6286SOL    HW221752   5.765  10.731   3.875 -1.2305  0.5290  0.6858
 6287SOL     OW21753   9.360   2.785   9.243  0.5182 -1.3775 -0.4092
 6287SOL    HW121754   9.280   2.750   9.283  0.6448  0.5311  1.7488
 6287SOL    HW221755   9.431   2.751   9.298  0.8085  0.2999  0.3121
 6288SOL     OW21756   4.196   3.770   3.337  0.4598  0.7356  0.0540
 6288SOL    HW121757   4.148   3.713   3.278  0.0912  0.9920  0.1053
 6288SOL    HW221758   4.269   3.716   3.369  0.6168  0.5761 -0.5702
 6289SOL     OW21759   3.143   2.805   5.837  0.0870 -0.4257  0.2574
 6289SOL    HW121760   3.060   2.837   5.872  0.5068  0.8594  0.1425
 6289SOL    HW221761   3.156   2.855   5.756  0.6063 -1.1489 -0.1165
 6290SOL     OW21762   9.920   9.283  10.325 -0.0509  0.0753 -0.3150
 6290SOL    HW121763  10.001   9.287  10.274  0.1359  1.4740  0.0505
 6290SOL    HW221764   9.945   9.239  10.406  0.7024  1.6783  0.3691
 6291SOL     OW21765   6.225   5.540   0.509  0.4263  0.2195 -0.3155
 6291SOL    HW121766   6.188   5.563   0.594  1.3559 -1.3622  0.5579
 6291SOL    HW221767   6.320   5.540   0.524  0.5474 -2.3337 -0.6951
 6292SOL     OW21768   8.597   8.103   5.070 -0.2150 -0.1503 -0.0212
 6292SOL    HW121769   8.687   8.115   5.040  0.0011 -1.1333  0.2170
 6292SOL    HW221770   8.559   8.191   5.065  0.5521  0.1540 -0.7631
 6293SOL     OW21771  10.320   1.324   7.738  0.4585  0.1318 -0.8003
 6293SOL    HW121772  10.326   1.308   7.644 -0.2129 -0.2186 -0.7906
 6293SOL    HW221773  10.229   1.347   7.752  0.6203  0.4586 -0.2716
 6294SOL     OW21774   2.683   1.228   4.451  0.3109 -0.3938  0.0191
 6294SOL    HW121775   2.687   1.279   4.532  0.8212 -1.2710  0.5585
 6294SOL    HW221776   2.663   1.293   4.383  0.7043  0.4801  0.7163
 6295SOL     OW21777   3.435   5.968   9.756 -0.4308  0.0000  0.2680
 6295SOL    HW121778   3.498   5.914   9.709 -0.4775  0.4850 -0.3715
 6295SOL    HW221779   3.354   5.960   9.706  0.1526  2.5081 -1.2672
 6296SOL     OW21780   0.285   7.205   7.228  0.4615  0.1602  0.2093
 6296SOL    HW121781   0.231   7.190   7.305 -0.2782  0.1816 -0.2937
 6296SOL    HW221782   0.310   7.117   7.199  3.3682  0.1913  2.2464
 6297SOL     OW21783   5.430   7.701   0.549 -0.6377  0.1632  0.2932
 6297SOL    HW121784   5.383   7.694   0.632 -3.3605  0.6249 -1.0799
 6297SOL    HW221785   5.397   7.627   0.497  0.6398  0.1718 -0.5601
 6298SOL     OW21786   3.290   1.010   4.628 -0.0095 -0.0256 -0.0397
 6298SOL    HW121787   3.288   0.970   4.541 -1.9213  0.5894 -0.3269
 6298SOL    HW221788   3.317   0.939   4.686 -1.3027 -1.2129 -0.8054
 6299SOL     OW21789   9.111   8.112   1.325  0.3947 -0.5274 -0.1156
 6299SOL    HW121790   9.044   8.051   1.357  0.1957 -0.6038 -0.6694
 6299SOL    HW221791   9.108   8.185   1.387  0.8768 -1.2329  0.7596
 6300SOL     OW21792   4.994   0.137   4.915 -0.0904 -0.3089  0.3077
 6300SOL    HW121793   5.011   0.060   4.970 -0.5751 -0.6694 -0.0370
 6300SOL    HW221794   4.908   0.120   4.876 -0.1045  0.3113  0.0603
 6301SOL     OW21795   4.753   2.390   1.665 -0.0532 -0.2746  0.1297
 6301SOL    HW121796   4.844   2.393   1.636 -0.2601 -2.5070 -0.9928
 6301SOL    HW221797   4.758   2.383   1.760  0.8052  2.2854  0.3507
 6302SOL     OW21798   4.125   7.750   0.015 -0.1894 -0.6386  0.2653
 6302SOL    HW121799   4.135   7.663   0.053  0.4463 -0.7974 -0.2632
 6302SOL    HW221800   4.048   7.786   0.059  0.9168 -0.5472  2.2407
 6303SOL     OW21801   3.364   9.697   8.901  0.2554  0.0563  0.1837
 6303SOL    HW121802   3.396   9.784   8.925 -0.1166 -0.2234  1.7767
 6303SOL    HW221803   3.277   9.692   8.941 -1.2239  0.2135 -2.7552
 6304SOL     OW21804   9.038   2.103   9.384  0.6475 -0.6665  1.0221
 6304SOL    HW121805   8.980   2.126   9.457  0.3097  1.5177  0.1320
 6304SOL    HW221806   9.053   2.186   9.338  0.8489 -1.9484 -1.3908
 6305SOL     OW21807   8.484   8.724   0.508  0.6326 -0.0067 -0.2589
 6305SOL    HW121808   8.566   8.747   0.551  0.9531 -1.4160 -0.0542
 6305SOL    HW221809   8.454   8.646   0.554 -1.7007  1.3886  0.7745
 6306SOL     OW21810   1.863   6.710   4.115  0.0605 -0.1784 -0.2618
 6306SOL    HW121811   1.836   6.640   4.174 -0.9731 -1.2048 -1.8634
 6306SOL    HW221812   1.916   6.666   4.049  0.4550  0.7737 -0.5911
 6307SOL     OW21813   3.964  10.214   4.644 -0.3159 -0.5125 -0.6731
 6307SOL    HW121814   3.913  10.294   4.654 -0.1739 -0.4239 -0.6673
 6307SOL    HW221815   3.953  10.191   4.552  0.8130  0.2958 -1.0245
 6308SOL     OW21816  10.587   3.417   5.106  0.5138  0.2303 -0.3897
 6308SOL    HW121817  10.530   3.407   5.029  1.7537 -2.0294 -1.0966
 6308SOL    HW221818  10.675   3.404   5.072  1.1020 -0.7889  1.3942
 6309SOL     OW21819   3.541   3.655   8.342 -0.0515 -0.8013 -0.8220
 6309SOL    HW121820   3.603   3.688   8.407  0.4777 -2.4420 -0.4382
 6309SOL    HW221821   3.527   3.729   8.283 -0.1017  0.5483  0.8095
 6310SOL     OW21822   2.053   8.989   2.853 -0.1194  0.1060  0.0942
 6310SOL    HW121823   1.965   8.952   2.846  0.1524 -0.5020 -0.1808
 6310SOL    HW221824   2.050   9.042   2.933 -0.7273  0.0697  0.1002
 6311SOL     OW21825   2.015   9.095  10.316 -0.2337 -0.2006  0.6729
 6311SOL    HW121826   1.938   9.097  10.259  0.3754 -0.6017 -0.2031
 6311SOL    HW221827   1.982   9.114  10.403 -1.3060 -0.2737  0.2943
 6312SOL     OW21828   1.709   9.460   9.543 -0.4101  0.4300 -0.0101
 6312SOL    HW121829   1.789   9.408   9.554 -1.4486 -1.1278  0.5189
 6312SOL    HW221830   1.740   9.547   9.517  1.4250 -0.2595 -0.2647
 6313SOL     OW21831   4.486   7.767   6.534 -0.0198 -0.1696 -0.0539
 6313SOL    HW121832   4.474   7.861   6.540  0.6663  0.1486 -2.6079
 6313SOL    HW221833   4.475   7.747   6.441  0.3844 -2.5456  0.3351
 6314SOL     OW21834   2.401   5.793   6.353 -0.7117  0.0341 -0.1282
 6314SOL    HW121835   2.340   5.722   6.375 -0.4443  0.4282  2.0311
 6314SOL    HW221836   2.487   5.753   6.358 -0.6309  0.1913 -0.2680
 6315SOL     OW21837  10.045   3.811   2.130  0.2732  0.0082  0.7176
 6315SOL    HW121838   9.990   3.889   2.136 -0.2796 -0.3285  0.0478
 6315SOL    HW221839  10.014   3.765   2.052  1.2646 -0.3714  0.5331
 6316SOL     OW21840   7.476   2.778   3.400 -0.1366  0.3985 -0.3893
 6316SOL    HW121841   7.479   2.870   3.373  0.4249  0.2361 -0.9022
 6316SOL    HW221842   7.403   2.774   3.462  0.1972  1.3021  0.0731
 6317SOL     OW21843   5.149   5.665   9.822  0.5023  0.3029 -0.7601
 6317SOL    HW121844   5.192   5.659   9.907  1.7401  2.1936 -1.1876
 6317SOL    HW221845   5.146   5.759   9.803 -1.6408  0.0640 -1.8862
 6318SOL     OW21846   0.560   3.918   3.551  0.3066 -0.1462 -0.4409
 6318SOL    HW121847   0.524   3.830   3.558 -0.6034  0.3170  1.7556
 6318SOL    HW221848   0.646   3.907   3.511 -0.1979 -1.9013 -1.0959
 6319SOL     OW21849   9.529   3.801   2.578  0.2454 -0.6756 -0.4365
 6319SOL    HW121850   9.519   3.706   2.566  0.6563 -0.7762 -0.0029
 6319SOL    HW221851   9.490   3.818   2.664  0.5543 -0.5171 -0.3289
 6320SOL     OW21852   8.641   7.737   7.670  0.1815  0.0211 -0.2911
 6320SOL    HW121853   8.634   7.710   7.578 -0.5494  1.2923 -0.6290
 6320SOL    HW221854   8.568   7.691   7.713 -0.0388  0.1479 -0.5267
 6321SOL     OW21855   0.738   9.806   5.011 -0.2648 -0.4028 -0.1508
 6321SOL    HW121856   0.660   9.752   4.997 -1.1840  1.0711 -1.0023
 6321SOL    HW221857   0.713   9.893   4.979  2.1492 -0.1764 -1.6882
 6322SOL     OW21858   4.996   0.768   9.067  1.1205  0.1908 -0.1569
 6322SOL    HW121859   5.084   0.796   9.041  0.8945  1.5792  0.5183
 6322SOL    HW221860   4.940   0.844   9.053 -0.0939 -0.8123 -1.0299
 6323SOL     OW21861   1.195   2.212  10.390  0.1785 -0.6023 -0.2889
 6323SOL    HW121862   1.224   2.261  10.314 -0.6490 -2.4894 -1.9421
 6323SOL    HW221863   1.226   2.122  10.374  3.6960 -0.4151  3.6900
 6324SOL     OW21864   9.448   2.190   2.181  1.1831 -0.4697  0.8785
 6324SOL    HW121865   9.473   2.107   2.141  0.5626 -1.2726  2.0863
 6324SOL    HW221866   9.517   2.209   2.244  1.6297  0.2552  0.1867
 6325SOL     OW21867   4.118   0.136   5.308  0.1777 -0.1949  0.2557
 6325SOL    HW121868   4.052   0.188   5.354  0.4067 -0.3639  0.7803
 6325SOL    HW221869   4.156   0.079   5.375 -1.1970 -2.2407 -0.6051
 6326SOL     OW21870   8.896   7.378   7.791  0.4137  0.2917  0.3043
 6326SOL    HW121871   8.940   7.364   7.875 -0.0890  1.5318  0.8018
 6326SOL    HW221872   8.962   7.417   7.735  1.5341 -2.8274 -0.7795
 6327SOL     OW21873   6.999   1.724   8.506 -0.0080  0.7251  0.5087
 6327SOL    HW121874   7.034   1.657   8.565 -3.3105  0.0237  1.9018
 6327SOL    HW221875   6.949   1.674   8.441  0.3634  1.7217 -0.5854
 6328SOL     OW21876   2.557   6.272   0.624  0.3219 -0.1596 -0.1555
 6328SOL    HW121877   2.552   6.281   0.719 -2.0792 -0.2929 -0.2145
 6328SOL    HW221878   2.604   6.351   0.596  3.0033 -1.1137  1.2041
 6329SOL     OW21879   5.277   0.453   5.133 -0.3494 -0.3986  0.2628
 6329SOL    HW121880   5.225   0.531   5.155  0.4113  0.2671 -0.2285
 6329SOL    HW221881   5.323   0.477   5.052  1.4401 -0.5815  1.1548
 6330SOL     OW21882   5.383   7.924   6.448  0.8598 -0.5530 -0.5713
 6330SOL    HW121883   5.425   7.839   6.440 -1.1311 -1.5462 -1.2712
 6330SOL    HW221884   5.431   7.981   6.388  1.2923 -1.5792 -1.2101
 6331SOL     OW21885   3.621   3.253   0.299 -0.0742 -0.1744  0.2773
 6331SOL    HW121886   3.705   3.295   0.318 -0.8609  1.2802  0.6550
 6331SOL    HW221887   3.621   3.240   0.204  0.3148  0.3948  0.1989
 6332SOL     OW21888   7.237  10.310   5.156 -0.6064 -0.0005  0.2904
 6332SOL    HW121889   7.205  10.352   5.235  2.0729  2.3988  0.2973
 6332SOL    HW221890   7.202  10.363   5.084 -1.3717 -0.9293 -0.0392
 6333SOL     OW21891   4.932   9.302   5.329 -0.1250 -0.0017 -0.2841
 6333SOL    HW121892   5.021   9.296   5.296 -0.4240 -0.9383 -0.9545
 6333SOL    HW221893   4.940   9.285   5.423  0.3904 -0.2060 -0.3602
 6334SOL     OW21894   8.285  10.431  10.770 -0.6885  0.2719  0.2266
 6334SOL    HW121895   8.205  10.483  10.761 -1.4355 -1.1559 -2.1034
 6334SOL    HW221896   8.261  10.360  10.829 -0.0478  1.7093  2.3380
 6335SOL     OW21897   4.842   2.234   9.757 -0.0805 -0.3947  0.0956
 6335SOL    HW121898   4.829   2.141   9.776 -1.1888 -1.1994 -3.7178
 6335SOL    HW221899   4.931   2.240   9.722 -0.7969 -0.5668 -1.8916
 6336SOL     OW21900   7.123   8.705   5.280  0.5090  0.4953  0.0773
 6336SOL    HW121901   7.069   8.779   5.252  0.2146 -0.5181 -2.3977
 6336SOL    HW221902   7.059   8.639   5.308  0.6401  0.4486  0.2614
 6337SOL     OW21903   4.943   0.382   9.856  0.2050  0.2055  0.0919
 6337SOL    HW121904   4.952   0.327   9.779 -0.0816 -1.5139  1.2252
 6337SOL    HW221905   4.848   0.389   9.869  0.2369 -1.0264  1.2605
 6338SOL     OW21906   8.654   4.129   9.503  0.2219  0.8202 -0.1737
 6338SOL    HW121907   8.747   4.145   9.519  0.7375 -0.0371 -2.0108
 6338SOL    HW221908   8.652   4.064   9.432 -1.7742 -1.4953  1.7991
 6339SOL     OW21909   1.666   9.793   5.925  0.0581 -0.6107  0.2086
 6339SOL    HW121910   1.708   9.710   5.949  3.1240  0.5772 -0.6174
 6339SOL    HW221911   1.661   9.789   5.829 -0.0581  0.0251  0.1885
 6340SOL     OW21912   5.901   4.634   6.377 -0.1054  0.3192  0.0858
 6340SOL    HW121913   5.847   4.708   6.405  1.0120  0.2745  2.5944
 6340SOL    HW221914   5.937   4.598   6.458  0.4969 -2.1406 -1.1766
 6341SOL     OW21915   5.762   2.796   6.378  0.0752 -0.3522  0.5005
 6341SOL    HW121916   5.672   2.827   6.379  0.4347  0.7713  0.1602
 6341SOL    HW221917   5.784   2.789   6.285  0.8725  1.0908  0.5492
 6342SOL     OW21918  10.309   7.638   3.428  0.1459 -0.4506 -0.3116
 6342SOL    HW121919  10.243   7.594   3.482 -0.9722  0.8762 -0.5458
 6342SOL    HW221920  10.299   7.599   3.341  0.0691 -0.6561 -0.2107
 6343SOL     OW21921   7.028   3.806   6.201 -0.2281 -0.1865 -0.1165
 6343SOL    HW121922   6.966   3.756   6.253 -0.6777  0.9518  0.4664
 6343SOL    HW221923   6.984   3.819   6.117 -0.1435 -0.6773 -0.2419
 6344SOL     OW21924  10.371  10.548   3.734 -0.0211  0.7257  0.2245
 6344SOL    HW121925  10.396  10.459   3.712 -0.6633  0.5826  0.0460
 6344SOL    HW221926  10.430  10.604   3.684  1.1038  0.4149  1.1609
 6345SOL     OW21927   8.092   0.967   8.598 -0.1857  0.1326 -0.1403
 6345SOL    HW121928   8.040   1.024   8.654  2.2178  3.2665 -0.8039
 6345SOL    HW221929   8.032   0.939   8.529 -1.9978  0.0653  1.4032
 6346SOL     OW21930   6.292   6.658   9.971 -0.3346  0.2747  0.4975
 6346SOL    HW121931   6.350   6.584   9.949 -0.4141  0.3796 -0.0809
 6346SOL    HW221932   6.221   6.652   9.907 -0.7207  0.4281  0.9077
 6347SOL     OW21933   5.310   2.419   7.201  0.3551 -0.6042  0.2119
 6347SOL    HW121934   5.313   2.405   7.107  2.6493  1.3152 -0.0873
 6347SOL    HW221935   5.218   2.440   7.219  0.0149 -0.2750 -1.7239
 6348SOL     OW21936   8.516   3.784   1.618 -0.1140  0.1834 -0.4602
 6348SOL    HW121937   8.578   3.713   1.634  0.1000  0.3729 -0.4447
 6348SOL    HW221938   8.566   3.849   1.568 -0.9933 -0.7826 -2.7343
 6349SOL     OW21939   5.641   0.801   6.700  0.9915 -0.4910 -0.1689
 6349SOL    HW121940   5.656   0.842   6.786 -2.1865  0.2604  0.1607
 6349SOL    HW221941   5.649   0.708   6.717  0.7663 -0.3360  0.8959
 6350SOL     OW21942   7.623   5.466  10.007 -0.2122 -0.0561  0.1280
 6350SOL    HW121943   7.684   5.522   9.959  0.2241 -0.8485 -0.2835
 6350SOL    HW221944   7.574   5.420   9.939 -0.2895 -0.4546  0.4473
 6351SOL     OW21945   2.163   3.611   9.987  0.1112  0.7081  0.0516
 6351SOL    HW121946   2.196   3.660  10.062  0.5575  1.9954 -0.9480
 6351SOL    HW221947   2.116   3.537  10.025  0.5256  1.2040  1.5832
 6352SOL     OW21948   2.851   6.043   2.128 -0.7670  0.0150 -0.3665
 6352SOL    HW121949   2.785   6.086   2.183 -0.7368  1.0474 -1.0939
 6352SOL    HW221950   2.825   6.065   2.039 -0.1071 -0.5723 -0.7094
 6353SOL     OW21951   6.132  10.201   1.539  0.0935 -0.0878 -0.2023
 6353SOL    HW121952   6.056  10.246   1.574  0.4222 -0.5185  1.1273
 6353SOL    HW221953   6.207  10.250   1.572  0.4321  1.0579 -2.4891
 6354SOL     OW21954   2.552   6.294   5.546 -0.0875 -0.0932  0.0595
 6354SOL    HW121955   2.616   6.233   5.509  1.4203  1.5669 -0.1828
 6354SOL    HW221956   2.503   6.327   5.470  1.2178  1.3160 -0.2052
 6355SOL     OW21957   7.397   8.182   7.679 -0.5810 -0.0613  0.1578
 6355SOL    HW121958   7.447   8.135   7.746 -1.4230  1.6486  2.1156
 6355SOL    HW221959   7.372   8.114   7.616  2.4017 -1.3121  0.1461
 6356SOL     OW21960   9.593   7.374   6.123  0.5636 -0.4126 -0.3750
 6356SOL    HW121961   9.632   7.336   6.044 -0.5002 -0.5526 -0.8443
 6356SOL    HW221962   9.665   7.377   6.186  1.3167 -0.7166 -1.2030
 6357SOL     OW21963   3.736   8.892   0.843 -0.5711  0.7321  0.8275
 6357SOL    HW121964   3.713   8.965   0.901  2.5873  2.5420  0.0288
 6357SOL    HW221965   3.799   8.841   0.894  1.4123  1.7365 -0.5241
 6358SOL     OW21966   2.970   7.281   9.093 -0.3739  0.3031 -0.1935
 6358SOL    HW121967   2.902   7.231   9.048 -3.9856  2.7551  1.9359
 6358SOL    HW221968   3.001   7.343   9.028 -0.4062 -0.6180 -1.1204
 6359SOL     OW21969   1.059   5.406   0.825 -0.1178 -0.3759  0.0535
 6359SOL    HW121970   1.080   5.404   0.918 -1.9704 -0.1629  0.5141
 6359SOL    HW221971   1.009   5.487   0.814 -0.7936 -0.9070 -0.9221
 6360SOL     OW21972   6.966   7.885   9.413  0.0002  0.2621  0.4099
 6360SOL    HW121973   6.881   7.914   9.377  0.0332 -0.7708 -0.5688
 6360SOL    HW221974   6.999   7.824   9.347  0.1347 -1.6465  2.1630
 6361SOL     OW21975   6.893   0.775   9.688  0.1536 -0.0040  0.0961
 6361SOL    HW121976   6.974   0.732   9.661 -0.2825 -1.6438  1.2448
 6361SOL    HW221977   6.893   0.858   9.640  1.6813 -0.6982 -1.2096
 6362SOL     OW21978   0.565  10.725   6.225  0.5379 -0.3389  0.5220
 6362SOL    HW121979   0.489  10.694   6.274  0.7346 -0.4721  0.7413
 6362SOL    HW221980   0.539  10.811   6.193 -0.0526 -0.7655 -0.1782
 6363SOL     OW21981  10.491   8.312   0.038 -0.5344  0.6689  0.2312
 6363SOL    HW121982  10.510   8.274   0.124 -0.8268  0.1540  0.0707
 6363SOL    HW221983  10.554   8.384   0.030  0.8574 -0.5154  0.0387
 6364SOL     OW21984   8.510   8.457   8.416 -0.2670 -1.4613  0.2823
 6364SOL    HW121985   8.438   8.520   8.426  0.0190 -0.8588 -1.2048
 6364SOL    HW221986   8.467   8.372   8.414 -0.8077 -1.2107  0.7269
 6365SOL     OW21987   8.269   5.749   4.126  0.2876  0.3626  0.0803
 6365SOL    HW121988   8.219   5.699   4.062  1.0167  1.3091 -1.2998
 6365SOL    HW221989   8.298   5.685   4.191 -2.1928 -0.2938  0.6141
 6366SOL     OW21990   4.520   7.421   8.431 -0.3931 -0.9599 -0.0975
 6366SOL    HW121991   4.572   7.449   8.505 -1.2783  0.5219 -0.0009
 6366SOL    HW221992   4.530   7.490   8.366 -1.3541 -1.1739 -0.4991
 6367SOL     OW21993  10.509   7.553   2.812 -0.0467 -0.4171 -0.1601
 6367SOL    HW121994  10.568   7.625   2.834  2.5025 -1.9682 -1.4397
 6367SOL    HW221995  10.425   7.595   2.793  0.7725  1.9598  1.1251
 6368SOL     OW21996   8.119   0.472   6.676 -0.5127 -0.0948  0.2207
 6368SOL    HW121997   8.095   0.408   6.609 -1.1669 -0.6079  0.9384
 6368SOL    HW221998   8.211   0.492   6.657 -0.1229 -1.6487  0.2842
 6369SOL     OW21999   4.161   0.640   8.144  0.5013 -0.2545  0.0173
 6369SOL    HW122000   4.086   0.609   8.194 -0.4688  0.8997 -0.6593
 6369SOL    HW222001   4.185   0.567   8.088 -0.5054 -0.4547 -0.1716
 6370SOL     OW22002   9.683   8.498   9.446  0.4199  0.2805 -0.1903
 6370SOL    HW122003   9.773   8.514   9.418 -0.0906 -0.5025 -2.5026
 6370SOL    HW222004   9.677   8.403   9.457 -0.1905  0.2869 -0.3959
 6371SOL     OW22005   7.090   4.714   5.656 -0.3609 -0.3327  0.3235
 6371SOL    HW122006   7.064   4.623   5.669  1.6389 -1.1152 -0.7924
 6371SOL    HW222007   7.157   4.729   5.723 -0.9928  0.4902  0.7916
 6372SOL     OW22008   8.602   9.294   7.602  0.6949  0.2544 -0.0330
 6372SOL    HW122009   8.634   9.296   7.693  2.7014 -0.1536 -0.6842
 6372SOL    HW222010   8.540   9.221   7.600  0.0055  0.7771  1.1808
 6373SOL     OW22011   3.961   6.314   3.304  0.9579 -0.5460  0.4602
 6373SOL    HW122012   3.884   6.319   3.247  1.5263  0.7102 -0.2386
 6373SOL    HW222013   3.998   6.402   3.302  1.2487 -0.5785  2.4511
 6374SOL     OW22014   1.988   0.533   5.658 -0.4096  0.9345  0.5076
 6374SOL    HW122015   1.912   0.482   5.630 -0.2716  1.2547 -0.4822
 6374SOL    HW222016   1.956   0.582   5.734 -1.1915  1.0357  0.1290
 6375SOL     OW22017   9.167   0.289   9.148 -0.9624  0.0118 -0.1578
 6375SOL    HW122018   9.242   0.231   9.139 -1.5534 -1.1977  2.1135
 6375SOL    HW222019   9.201   0.376   9.123  0.8776 -0.6721 -0.1734
 6376SOL     OW22020   5.743   4.134  10.458  0.5526  0.6793 -0.2800
 6376SOL    HW122021   5.751   4.214  10.510  0.2168  1.4143 -1.3190
 6376SOL    HW222022   5.705   4.164  10.375 -1.4043 -0.8240  0.0017
 6377SOL     OW22023   8.238   4.667   8.999  0.6856  0.5285 -0.3051
 6377SOL    HW122024   8.189   4.681   8.917  1.9868  1.5706 -0.9512
 6377SOL    HW222025   8.200   4.731   9.060 -1.9345 -1.8196  0.7723
 6378SOL     OW22026   9.245   6.060   9.098 -0.0976 -0.2396 -0.3546
 6378SOL    HW122027   9.240   6.098   9.010  0.7668  0.3962 -0.1343
 6378SOL    HW222028   9.338   6.045   9.113 -0.2863 -0.8895  0.2354
 6379SOL     OW22029   9.350   3.688   2.313  0.2951  0.1004  0.0010
 6379SOL    HW122030   9.381   3.639   2.390  0.9823  1.9859  0.9777
 6379SOL    HW222031   9.430   3.723   2.274 -0.2109  0.8674 -0.3634
 6380SOL     OW22032  10.209   1.403   4.044 -0.3280 -0.0662  0.0305
 6380SOL    HW122033  10.185   1.480   4.096  1.7643  0.2939  0.5869
 6380SOL    HW222034  10.298   1.422   4.015  0.1859 -2.2311  0.0612
 6381SOL     OW22035   9.244   9.647   4.074 -0.3120  0.9091  0.7254
 6381SOL    HW122036   9.155   9.680   4.091 -0.2557  0.5022  1.9607
 6381SOL    HW222037   9.262   9.672   3.984 -0.4484  3.8530  1.3981
 6382SOL     OW22038   9.477   1.555   7.162 -0.4845  0.1064  0.0492
 6382SOL    HW122039   9.497   1.615   7.234  0.4085 -0.7904  0.5666
 6382SOL    HW222040   9.425   1.608   7.101  0.3590  1.4326  0.4373
 6383SOL     OW22041   5.702   4.199   2.013 -0.2944 -0.0563  0.2589
 6383SOL    HW122042   5.798   4.192   2.018 -0.1659  1.8272  1.7191
 6383SOL    HW222043   5.676   4.130   1.952  1.9475 -0.9033  0.1587
 6384SOL     OW22044   8.420   8.383   9.247 -0.1006  0.2913 -0.3108
 6384SOL    HW122045   8.472   8.343   9.178 -1.3237  1.1061 -1.7602
 6384SOL    HW222046   8.479   8.448   9.287  0.7380 -0.4562 -0.2963
 6385SOL     OW22047   0.995   3.621   9.756 -0.1128  0.4169 -0.0914
 6385SOL    HW122048   1.086   3.595   9.773 -0.6790 -1.5359  0.2374
 6385SOL    HW222049   0.976   3.689   9.821  0.8745  0.2872  0.3470
 6386SOL     OW22050   2.766   5.326   7.049  0.6510  0.5022 -0.1617
 6386SOL    HW122051   2.700   5.306   7.115  0.3346  2.1641  0.0804
 6386SOL    HW222052   2.736   5.280   6.970  1.4598 -2.1655  0.9822
 6387SOL     OW22053   3.468   8.943   4.451 -0.0466  0.6683 -0.1601
 6387SOL    HW122054   3.515   8.891   4.516  2.0329  1.3094 -1.0600
 6387SOL    HW222055   3.504   9.031   4.459  0.2294  0.7894 -2.0886
 6388SOL     OW22056   3.791   7.117   4.912  0.4358 -0.6339 -0.0192
 6388SOL    HW122057   3.765   7.034   4.872  0.1536 -0.6621  0.2168
 6388SOL    HW222058   3.862   7.094   4.972  1.8257 -0.3940 -1.4962
 6389SOL     OW22059   4.353  10.550   2.462 -0.4651  0.4722 -0.1200
 6389SOL    HW122060   4.303  10.631   2.452 -0.0237  0.9502  1.3213
 6389SOL    HW222061   4.398  10.540   2.378 -1.4719  1.0443 -0.7567
 6390SOL     OW22062   0.447   1.512   0.417  0.6244  0.0878  0.6574
 6390SOL    HW122063   0.404   1.478   0.338  0.2267  0.4102  0.7312
 6390SOL    HW222064   0.532   1.467   0.419  0.6721  0.1280  0.0034
 6391SOL     OW22065   7.148   2.087   5.151  0.2579 -0.4311 -0.0544
 6391SOL    HW122066   7.233   2.110   5.115 -0.8986  2.8381 -1.0399
 6391SOL    HW222067   7.096   2.167   5.144 -2.6690 -2.0411  1.2699
 6392SOL     OW22068   3.742  10.246   0.045 -0.6265 -0.1190 -0.3733
 6392SOL    HW122069   3.719  10.275  -0.043  1.3740 -0.5522 -1.0854
 6392SOL    HW222070   3.808  10.177   0.032  0.7914  0.7846  1.4656
 6393SOL     OW22071   5.565   6.769   7.437  0.2229  0.6189 -0.8826
 6393SOL    HW122072   5.605   6.733   7.516  1.7142  1.5948 -1.1397
 6393SOL    HW222073   5.623   6.842   7.413 -0.8185  1.0276 -2.2507
 6394SOL     OW22074   1.845   4.222   9.101 -0.1566 -0.2741  0.6950
 6394SOL    HW122075   1.790   4.143   9.098 -1.4438  0.5862  0.9581
 6394SOL    HW222076   1.806   4.276   9.170  1.5898 -0.0165  1.5417
 6395SOL     OW22077   4.011   8.537   9.997 -0.0972  0.3456 -0.0447
 6395SOL    HW122078   4.057   8.463   9.959 -1.5002 -1.1723  1.0684
 6395SOL    HW222079   4.070   8.571  10.064  1.3865  1.5648 -1.8552
 6396SOL     OW22080   0.771   0.707   0.060 -1.0920 -0.1816  0.5530
 6396SOL    HW122081   0.794   0.788   0.105  0.7370 -0.1243 -0.4098
 6396SOL    HW222082   0.830   0.703  -0.015 -3.6074 -0.5666 -1.5743
 6397SOL     OW22083   0.326   9.238   2.672  0.2793  0.0953 -0.5123
 6397SOL    HW122084   0.365   9.160   2.634 -0.9690 -0.2435 -1.1548
 6397SOL    HW222085   0.266   9.270   2.605  0.1791  1.1465  0.0595
 6398SOL     OW22086   6.571   2.583   1.357  0.1686 -0.4268 -0.7459
 6398SOL    HW122087   6.650   2.545   1.319  0.9913  0.1248  0.3657
 6398SOL    HW222088   6.602   2.658   1.407 -1.3020  1.2425 -2.1771
 6399SOL     OW22089   3.237   8.938   6.441  0.6149 -0.1128  0.2563
 6399SOL    HW122090   3.310   8.999   6.456 -1.2124  2.1724  0.4345
 6399SOL    HW222091   3.200   8.923   6.527 -1.0101  1.3286 -0.1348
 6400SOL     OW22092   5.990   0.587   6.174  0.6255  0.4192 -0.1854
 6400SOL    HW122093   5.977   0.662   6.117  0.8478  0.3799 -0.2912
 6400SOL    HW222094   6.081   0.596   6.205  0.5324  0.3952  0.0935
 6401SOL     OW22095   4.379   7.317   7.418 -0.1847 -0.0407 -0.3477
 6401SOL    HW122096   4.404   7.406   7.443 -0.2096  0.1559 -1.0011
 6401SOL    HW222097   4.361   7.273   7.501  1.7571 -0.0229  0.1259
 6402SOL     OW22098   9.834   8.494   7.049  0.7441 -0.3089  0.1252
 6402SOL    HW122099   9.755   8.537   7.083  0.8637  0.0463 -0.0450
 6402SOL    HW222100   9.801   8.414   7.006  0.3832  0.2855 -0.7296
 6403SOL     OW22101   7.033   3.846   9.423 -0.6570 -0.4899 -0.4861
 6403SOL    HW122102   6.980   3.908   9.374 -1.2603 -1.0126 -0.5074
 6403SOL    HW222103   7.117   3.890   9.434 -0.7882 -0.0283 -1.2614
 6404SOL     OW22104  10.725   5.606   3.889 -0.0672  0.0081  0.3933
 6404SOL    HW122105  10.733   5.687   3.939 -0.8019  0.2247  0.1631
 6404SOL    HW222106  10.771   5.540   3.942 -0.6657  0.2776  1.2554
 6405SOL     OW22107   5.875   9.879   0.872 -0.7788  0.2147  0.3507
 6405SOL    HW122108   5.851   9.860   0.963 -0.7073 -0.3987  0.2438
 6405SOL    HW222109   5.820   9.822   0.820 -1.1219  0.8690 -0.0199
 6406SOL     OW22110  10.287   6.598   0.215  0.2271 -0.9151 -0.1635
 6406SOL    HW122111  10.362   6.568   0.266 -0.4881 -2.2894  0.1277
 6406SOL    HW222112  10.217   6.609   0.280 -0.3620 -1.5295 -0.6769
 6407SOL     OW22113   5.430   1.917   7.838 -1.1886  0.0627 -0.0820
 6407SOL    HW122114   5.446   1.895   7.930  0.6439  0.6804 -0.1963
 6407SOL    HW222115   5.482   1.997   7.824 -1.8249  0.2519 -1.5297
 6408SOL     OW22116   8.650  10.472   5.727 -0.0720 -1.2242 -0.0719
 6408SOL    HW122117   8.600  10.414   5.785 -1.0474 -0.9490 -0.6052
 6408SOL    HW222118   8.711  10.517   5.784 -0.5409 -1.4729  0.6367
 6409SOL     OW22119   9.646   1.511   8.217 -0.0763  0.3399 -0.2700
 6409SOL    HW122120   9.590   1.588   8.206  0.4894  0.6854 -0.8417
 6409SOL    HW222121   9.660   1.478   8.128  3.0716  2.0582 -0.5671
 6410SOL     OW22122   3.002   0.306   2.769 -0.5886 -0.1790 -0.1333
 6410SOL    HW122123   3.015   0.255   2.849 -0.6845  0.7142  0.4626
 6410SOL    HW222124   3.090   0.324   2.738 -0.5549 -0.8385 -0.4411
 6411SOL     OW22125   6.091   2.576   7.504 -0.1031 -0.2666  0.0862
 6411SOL    HW122126   6.135   2.628   7.571  0.2573 -0.4168 -0.0280
 6411SOL    HW222127   6.135   2.490   7.508  0.6914  0.0643 -1.0933
 6412SOL     OW22128  10.679  10.010   3.683 -0.4415  0.0502  0.2275
 6412SOL    HW122129  10.748   9.962   3.639 -1.1742  0.2558 -1.2102
 6412SOL    HW222130  10.677  10.095   3.639 -1.1623  0.2837  0.6865
 6413SOL     OW22131   3.261  10.600   9.528 -0.0813 -0.2913 -0.3186
 6413SOL    HW122132   3.333  10.608   9.466 -1.4017  1.3449 -1.7334
 6413SOL    HW222133   3.301  10.561   9.606  2.2569  0.2972 -1.1351
 6414SOL     OW22134   7.589   8.827   3.012  0.3165 -0.1469 -0.3762
 6414SOL    HW122135   7.514   8.778   3.046  1.3486 -1.8075 -0.3646
 6414SOL    HW222136   7.595   8.800   2.920  0.8529  0.0367 -0.3978
 6415SOL     OW22137   9.696   5.471   1.832  0.2764  0.0110  0.4141
 6415SOL    HW122138   9.740   5.394   1.869 -0.9184 -0.8594  0.0691
 6415SOL    HW222139   9.647   5.437   1.758 -1.3889  0.8453  1.0903
 6416SOL     OW22140   7.430   0.016   6.683  0.0618 -0.3986 -1.0642
 6416SOL    HW122141   7.465  -0.060   6.730  0.1639  0.4499  0.2674
 6416SOL    HW222142   7.498   0.038   6.619  0.7761 -0.4125 -0.3182
 6417SOL     OW22143   9.716   3.991   5.554  0.1876  0.4480  0.1480
 6417SOL    HW122144   9.629   3.977   5.518  0.4537 -0.5637 -0.1398
 6417SOL    HW222145   9.702   4.005   5.648 -0.2882  0.4490  0.0779
 6418SOL     OW22146   3.938   6.823  10.380  0.1671  0.2970  0.3594
 6418SOL    HW122147   3.986   6.783  10.307 -1.5965  0.1102 -0.7482
 6418SOL    HW222148   3.919   6.912  10.350 -2.0086 -0.2856 -0.1755
 6419SOL     OW22149   8.129   8.468   9.910  0.3447  0.1808 -0.6415
 6419SOL    HW122150   8.141   8.445  10.003 -1.6147 -0.2774 -0.4448
 6419SOL    HW222151   8.053   8.526   9.911 -0.8423 -1.2657 -2.1091
 6420SOL     OW22152  10.067   6.387   6.231 -0.1644  0.1267 -0.0025
 6420SOL    HW122153  10.142   6.436   6.199 -0.2479  0.3602  0.1478
 6420SOL    HW222154  10.005   6.387   6.158 -1.5018  3.0187  0.9412
 6421SOL     OW22155   0.106   9.994   6.377 -0.4175  0.2526  0.2081
 6421SOL    HW122156   0.105   9.898   6.374 -0.8330  0.2754 -1.2868
 6421SOL    HW222157   0.190  10.015   6.417  0.3026 -0.7328 -0.7261
 6422SOL     OW22158   0.775   1.443  10.638  0.0557 -0.1165 -0.1983
 6422SOL    HW122159   0.742   1.394  10.713  1.3138 -1.6463 -0.5914
 6422SOL    HW222160   0.856   1.483  10.669  0.5588 -0.7216 -0.6869
 6423SOL     OW22161   2.704   4.841   7.248 -0.2367  0.1606 -0.4778
 6423SOL    HW122162   2.696   4.932   7.277  2.3095 -0.4174  2.5675
 6423SOL    HW222163   2.791   4.836   7.208 -0.0408 -1.0407  0.0449
 6424SOL     OW22164   6.659   1.514   1.054  0.1041 -0.3833 -0.2843
 6424SOL    HW122165   6.707   1.524   0.972 -1.6092 -1.9272 -1.5575
 6424SOL    HW222166   6.642   1.420   1.061 -0.9360 -0.1189  1.1328
 6425SOL     OW22167   5.894   0.526   1.819  0.3686  0.3187  0.0006
 6425SOL    HW122168   5.884   0.471   1.897 -2.1406 -0.7726 -1.0060
 6425SOL    HW222169   5.882   0.467   1.746 -0.2266  1.8342 -1.1831
 6426SOL     OW22170  10.423   5.199   1.038 -0.2479 -0.0931 -0.2195
 6426SOL    HW122171  10.351   5.138   1.023 -1.7054  1.9761 -2.3961
 6426SOL    HW222172  10.485   5.181   0.968 -0.1979  0.2428 -0.2644
 6427SOL     OW22173   1.519   2.746   1.569 -0.0920 -0.0790  0.1355
 6427SOL    HW122174   1.559   2.661   1.584 -2.5002 -1.1412  0.9344
 6427SOL    HW222175   1.533   2.795   1.651  1.8428  0.6113 -0.5420
 6428SOL     OW22176   0.528   9.407   1.874  0.1532  0.2532  0.2667
 6428SOL    HW122177   0.597   9.406   1.808 -0.2966  0.3758 -0.2164
 6428SOL    HW222178   0.552   9.479   1.933  1.5419 -1.0281  1.3281
 6429SOL     OW22179   0.494   4.419   6.042 -0.8427  0.3045 -0.0332
 6429SOL    HW122180   0.525   4.416   6.133 -1.7052 -1.7259  0.2405
 6429SOL    HW222181   0.420   4.479   6.043 -1.4986 -0.5057  0.8376
 6430SOL     OW22182   6.620   8.210  10.501 -0.2164  0.1608 -0.0811
 6430SOL    HW122183   6.594   8.119  10.490 -1.5406  0.3577  1.2065
 6430SOL    HW222184   6.649   8.237  10.414 -0.4978 -1.2639 -0.6434
 6431SOL     OW22185   7.530   7.513   5.474 -0.1801  0.2206  0.1254
 6431SOL    HW122186   7.582   7.593   5.466 -1.3246  0.9867  0.1157
 6431SOL    HW222187   7.516   7.485   5.384 -1.4684  1.1561  0.0077
 6432SOL     OW22188   7.973   4.141   4.213  0.2156  0.5600 -0.3815
 6432SOL    HW122189   8.013   4.215   4.167  2.5149  0.5485  1.4068
 6432SOL    HW222190   7.948   4.080   4.143 -0.1838  2.2425 -1.7905
 6433SOL     OW22191   2.113   4.700   3.519 -0.0728 -0.2813  0.0207
 6433SOL    HW122192   2.030   4.723   3.477 -0.4142 -1.1044  0.2145
 6433SOL    HW222193   2.088   4.645   3.594  0.5605  0.6819  0.9782
 6434SOL     OW22194   1.157   8.364   4.394  0.5766 -0.0672  0.4219
 6434SOL    HW122195   1.066   8.391   4.380  0.2862 -0.8976  0.6633
 6434SOL    HW222196   1.205   8.404   4.322  0.2816  1.6378  1.1220
 6435SOL     OW22197   6.124   5.127   3.881  0.1295 -0.1250 -0.3255
 6435SOL    HW122198   6.040   5.083   3.870 -0.2139  0.8994 -2.2464
 6435SOL    HW222199   6.188   5.056   3.885 -0.6407 -0.8720 -0.8991
 6436SOL     OW22200  10.173  10.525   6.868  0.0140 -0.2806  0.0969
 6436SOL    HW122201  10.090  10.572   6.856  0.4510  0.4970  0.0156
 6436SOL    HW222202  10.175  10.504   6.961 -0.4723 -0.6943  0.0195
 6437SOL     OW22203   9.858   0.526   6.842 -0.0209  0.0423 -0.7674
 6437SOL    HW122204   9.852   0.444   6.793  1.6092 -1.2218  0.9930
 6437SOL    HW222205   9.883   0.591   6.777 -0.7346 -0.9512 -2.0983
 6438SOL     OW22206   8.718   9.511   4.484 -0.1954  0.1157 -0.5522
 6438SOL    HW122207   8.794   9.467   4.446 -0.1827 -0.8409  0.5249
 6438SOL    HW222208   8.745   9.602   4.491  1.2776 -0.3637  0.7433
 6439SOL     OW22209   3.440   8.471   0.492  0.1205 -0.0211 -0.0302
 6439SOL    HW122210   3.452   8.377   0.478  1.7479 -0.0401  1.2546
 6439SOL    HW222211   3.528   8.504   0.512 -0.4487  1.7499 -0.2760
 6440SOL     OW22212   7.064  10.768   4.406  0.1385  0.1016 -0.2089
 6440SOL    HW122213   7.042  10.781   4.498  0.0097  2.7789 -0.5357
 6440SOL    HW222214   7.034  10.848   4.362  1.6816 -0.3647 -2.3090
 6441SOL     OW22215   1.758   2.037   7.994 -0.0189 -0.1432 -0.1489
 6441SOL    HW122216   1.669   2.068   8.006 -0.2856 -0.7023 -0.6354
 6441SOL    HW222217   1.756   1.945   8.023  1.2156  0.7346  3.2261
 6442SOL     OW22218   9.073   2.479   0.047 -0.1097 -0.1581  0.2026
 6442SOL    HW122219   9.115   2.516   0.125  0.7260  0.6077 -0.5925
 6442SOL    HW222220   9.021   2.406   0.081  0.8856 -0.3664  1.3873
 6443SOL     OW22221   4.932   6.424   7.225  0.1001 -0.7142  0.0127
 6443SOL    HW122222   4.945   6.452   7.134 -0.2994  0.0161  0.1787
 6443SOL    HW222223   5.005   6.463   7.273 -0.0841 -0.5099  0.1278
 6444SOL     OW22224  10.475   8.910   1.583  0.2301 -0.3287 -0.2129
 6444SOL    HW122225  10.416   8.947   1.517  0.1618  1.9208  1.0115
 6444SOL    HW222226  10.561   8.915   1.543  0.1123  0.4416 -0.3884
 6445SOL     OW22227   8.471   5.440   5.946  0.1782 -0.4266  0.4849
 6445SOL    HW122228   8.379   5.449   5.973  0.3455  2.4224  0.4588
 6445SOL    HW222229   8.468   5.447   5.851  0.4881  1.2490  0.5666
 6446SOL     OW22230   4.113   3.121   5.050 -0.1289  0.6465  0.1460
 6446SOL    HW122231   4.113   3.050   4.986  0.9107  1.0765 -0.3533
 6446SOL    HW222232   4.023   3.155   5.049  0.1620  1.5489 -2.1340
 6447SOL     OW22233   9.541   6.431   9.478  0.1439  0.2371 -0.3565
 6447SOL    HW122234   9.476   6.466   9.417  0.1858  1.5752  0.3128
 6447SOL    HW222235   9.617   6.489   9.468 -0.1923  1.1153  1.6214
 6448SOL     OW22236   4.282   3.354   3.284  0.9422 -0.2384 -0.1670
 6448SOL    HW122237   4.307   3.436   3.241 -0.1171  0.3367  0.2822
 6448SOL    HW222238   4.221   3.381   3.353 -1.5503 -1.5971 -1.6950
 6449SOL     OW22239   5.463   6.880   9.369 -0.2508  0.1331 -0.1154
 6449SOL    HW122240   5.400   6.940   9.409  1.7613  2.0703  0.3357
 6449SOL    HW222241   5.470   6.910   9.278  0.5612  0.4109  0.0346
 6450SOL     OW22242   5.484   9.666   3.814  0.1581  0.0644 -0.3518
 6450SOL    HW122243   5.428   9.736   3.845  0.6980  0.1004  0.5745
 6450SOL    HW222244   5.437   9.586   3.836 -0.2481  0.1117 -1.0047
 6451SOL     OW22245   6.057   4.468   2.016  0.0114  0.4294  0.3777
 6451SOL    HW122246   6.044   4.462   2.111 -1.5148  2.0171  0.3269
 6451SOL    HW222247   6.022   4.387   1.981 -1.1515  0.6269  1.0481
 6452SOL     OW22248   6.000   1.205   7.664  0.0288 -0.6808 -0.5402
 6452SOL    HW122249   6.046   1.288   7.679  0.9075 -1.1961 -0.3191
 6452SOL    HW222250   5.922   1.211   7.719 -0.8126  0.6832 -1.7846
 6453SOL     OW22251   3.967   5.553   7.930  0.3490  0.3260  0.3147
 6453SOL    HW122252   3.891   5.520   7.882 -0.7564 -0.8156  2.6401
 6453SOL    HW222253   4.042   5.512   7.889 -0.5132 -0.3893 -0.5967
 6454SOL     OW22254   9.038   2.679   4.949  0.9004  0.3818 -0.1092
 6454SOL    HW122255   9.040   2.771   4.922 -2.2087  1.7975  3.6016
 6454SOL    HW222256   9.090   2.677   5.029 -1.3427 -0.3420  1.4051
 6455SOL     OW22257   5.442   0.800   0.065  0.3157 -0.4073 -0.0123
 6455SOL    HW122258   5.410   0.825   0.152 -0.3125  2.2714 -0.9092
 6455SOL    HW222259   5.509   0.865   0.044  0.2882 -0.8415 -1.6245
 6456SOL     OW22260   1.051   7.326   4.274  0.2390  0.1620  0.1971
 6456SOL    HW122261   1.080   7.274   4.349 -2.1844  0.4471  1.4344
 6456SOL    HW222262   1.131   7.368   4.242  1.1843  1.4519  3.7336
 6457SOL     OW22263   1.179   9.051   5.274  0.0073  0.0266 -0.0955
 6457SOL    HW122264   1.108   9.070   5.335  1.3594  2.0950  0.9835
 6457SOL    HW222265   1.191   9.133   5.225  1.3585 -0.3925 -0.5199
 6458SOL     OW22266   8.182   8.495   3.601  0.3251 -0.3058 -0.1457
 6458SOL    HW122267   8.231   8.570   3.570 -2.6027  1.5435 -0.6390
 6458SOL    HW222268   8.177   8.436   3.526 -1.3816  1.2551 -1.3145
 6459SOL     OW22269   9.666   4.624   5.937 -0.0844  0.4985  0.3925
 6459SOL    HW122270   9.717   4.692   5.980  1.7419 -0.2662 -0.4839
 6459SOL    HW222271   9.730   4.570   5.892 -1.4253 -1.9992  1.2579
 6460SOL     OW22272   1.565   1.022   1.156  0.1638  0.1246  0.2195
 6460SOL    HW122273   1.532   0.946   1.204  0.3457 -1.8752 -2.5736
 6460SOL    HW222274   1.654   1.034   1.189 -0.2243 -0.2185  1.4333
 6461SOL     OW22275   5.010   9.696   2.063 -0.3835 -0.4593 -0.1461
 6461SOL    HW122276   5.053   9.680   1.979  1.3416 -0.1700  0.6268
 6461SOL    HW222277   4.932   9.746   2.042  0.4991  0.4025 -1.5165
 6462SOL     OW22278   1.019   2.095   4.682  0.1430 -0.5160  0.0391
 6462SOL    HW122279   1.114   2.102   4.689  0.1231  0.6940 -0.6173
 6462SOL    HW222280   1.003   2.002   4.666  1.2291 -0.7089  0.0026
 6463SOL     OW22281   4.288   4.118   8.358 -0.8877  0.4605  0.3494
 6463SOL    HW122282   4.378   4.099   8.386 -0.9374 -0.8987 -0.3482
 6463SOL    HW222283   4.297   4.154   8.270 -1.0707 -0.6417 -0.1344
 6464SOL     OW22284   1.110   2.005   8.064  0.0613  0.6464  0.4375
 6464SOL    HW122285   1.031   1.964   8.030 -0.6657  1.7459  0.7374
 6464SOL    HW222286   1.166   2.016   7.988 -1.0921  2.0680 -0.2490
 6465SOL     OW22287   3.580   3.364   6.124 -0.3224  0.2372 -0.4184
 6465SOL    HW122288   3.503   3.312   6.147  0.0118  0.1390  0.5537
 6465SOL    HW222289   3.554   3.415   6.048 -0.7656 -1.1140 -1.1984
 6466SOL     OW22290   5.154   0.145   3.810 -0.1342 -0.2254 -0.0724
 6466SOL    HW122291   5.092   0.190   3.753  1.6592  1.5234 -0.7571
 6466SOL    HW222292   5.200   0.084   3.751  1.3265  1.1788 -0.4663
 6467SOL     OW22293   7.115   4.945   5.881 -0.2421 -0.1248 -0.3526
 6467SOL    HW122294   7.196   4.900   5.904  0.7601  0.7796 -1.9241
 6467SOL    HW222295   7.134   4.987   5.797 -1.2119  2.8772  0.7949
 6468SOL     OW22296   5.914   7.671   3.466  0.5280 -0.0659 -0.3684
 6468SOL    HW122297   6.007   7.672   3.489  0.7277  1.8632 -1.0516
 6468SOL    HW222298   5.911   7.694   3.373 -0.6591  1.3366 -0.0299
 6469SOL     OW22299   7.325   5.991   4.062  0.6959 -0.1975 -0.3978
 6469SOL    HW122300   7.392   6.055   4.037 -0.7099  1.2875 -0.5643
 6469SOL    HW222301   7.364   5.942   4.134  2.0388  0.4764 -0.6406
 6470SOL     OW22302   3.325   1.187   0.327  0.3703 -0.1623 -0.1942
 6470SOL    HW122303   3.418   1.190   0.307  0.3817 -0.3559 -0.1712
 6470SOL    HW222304   3.321   1.162   0.419  0.2713 -1.3963 -0.5193
 6471SOL     OW22305   2.558   3.284   8.761 -0.3829 -0.1330 -0.5083
 6471SOL    HW122306   2.635   3.299   8.706 -0.7697  0.4667 -0.8894
 6471SOL    HW222307   2.567   3.346   8.833  0.0433 -0.8122  0.0394
 6472SOL     OW22308   5.563   5.130   3.597 -0.1191  0.1863 -0.3755
 6472SOL    HW122309   5.496   5.061   3.604 -0.6111  0.5642 -1.1587
 6472SOL    HW222310   5.642   5.084   3.568  1.3816 -1.0681  4.6915
 6473SOL     OW22311   8.462   8.044   2.311  0.7367 -0.1105  0.3727
 6473SOL    HW122312   8.549   8.085   2.314  0.3754  0.6401  2.4138
 6473SOL    HW222313   8.481   7.950   2.306  1.6884  0.0245  1.0532
 6474SOL     OW22314   9.846   1.304   9.958  0.3259  0.0121 -0.0983
 6474SOL    HW122315   9.864   1.384   9.907 -1.4311  1.0009  0.7445
 6474SOL    HW222316   9.815   1.336  10.043  2.3437 -1.5958  1.3523
 6475SOL     OW22317   6.356   3.933   2.843  0.5688  0.1468 -0.6450
 6475SOL    HW122318   6.263   3.913   2.855  0.7603 -0.2437  0.3122
 6475SOL    HW222319   6.400   3.848   2.852  1.2415  0.6818  1.5879
 6476SOL     OW22320   9.504   6.381   0.027  0.0996 -0.1844 -0.3421
 6476SOL    HW122321   9.497   6.359   0.120 -2.9234 -0.6800 -0.5946
 6476SOL    HW222322   9.528   6.474   0.027  0.1139 -0.1637  0.9480
 6477SOL     OW22323   5.772   5.482   9.862 -0.3412 -0.0449 -0.6457
 6477SOL    HW122324   5.815   5.451   9.782 -0.9087 -1.5179 -0.4076
 6477SOL    HW222325   5.683   5.503   9.834 -0.6489 -0.9222 -0.3248
 6478SOL     OW22326   4.753   2.923   5.717  0.2560  0.4800  0.0185
 6478SOL    HW122327   4.836   2.894   5.678 -0.0316 -1.4184  0.7195
 6478SOL    HW222328   4.764   3.017   5.730  2.1014  0.3473 -0.3662
 6479SOL     OW22329   3.606   9.303  10.364 -0.1418  0.3681 -0.1523
 6479SOL    HW122330   3.694   9.337  10.343  1.0027 -1.3875  1.5132
 6479SOL    HW222331   3.587   9.241  10.294  1.0580 -1.0618  0.7443
 6480SOL     OW22332   4.345   2.879   4.563  0.0289 -0.6352 -0.2509
 6480SOL    HW122333   4.425   2.916   4.526  0.1882 -0.0769  0.6233
 6480SOL    HW222334   4.312   2.947   4.622 -0.3057 -1.4261  0.4956
 6481SOL     OW22335   8.047   7.921   1.916 -0.3981  0.5113 -0.3405
 6481SOL    HW122336   8.008   7.873   1.842  0.9665  1.2646 -1.5848
 6481SOL    HW222337   8.090   7.853   1.968 -1.5005 -0.0469 -0.1089
 6482SOL     OW22338   9.811   7.113   9.494  0.1408 -0.0412 -0.3131
 6482SOL    HW122339   9.717   7.100   9.477  0.4445 -0.1104 -2.1179
 6482SOL    HW222340   9.823   7.082   9.583 -1.6730  0.5836  0.1898
 6483SOL     OW22341   3.420   8.242   6.387  0.2577 -1.1633 -0.7641
 6483SOL    HW122342   3.371   8.293   6.451 -0.3135 -2.1188 -0.4062
 6483SOL    HW222343   3.511   8.266   6.401  0.3424 -2.5024  1.5389
 6484SOL     OW22344   0.651   6.443   0.526 -0.2933  0.5074 -0.3931
 6484SOL    HW122345   0.573   6.407   0.484 -0.9009  0.0225  1.0883
 6484SOL    HW222346   0.687   6.505   0.462 -1.3608  0.0470 -1.4648
 6485SOL     OW22347   6.764   5.554   3.626 -0.0195  0.1445 -0.3205
 6485SOL    HW122348   6.831   5.489   3.646 -0.7095 -0.7134 -0.7555
 6485SOL    HW222349   6.789   5.631   3.678 -0.3015 -1.1144  1.7995
 6486SOL     OW22350   6.934   2.541   5.798  0.1788  0.4212  0.1285
 6486SOL    HW122351   6.985   2.460   5.797 -0.7448 -0.1698 -0.4999
 6486SOL    HW222352   6.966   2.591   5.723 -1.1585 -0.6134 -1.1884
 6487SOL     OW22353   5.183   9.207   8.790 -0.3730  0.4852  0.7649
 6487SOL    HW122354   5.116   9.269   8.763 -0.7711  0.4892  1.7245
 6487SOL    HW222355   5.261   9.260   8.808 -0.5520  0.6454  1.0642
 6488SOL     OW22356   2.448   5.343   5.569 -0.5636 -0.3045 -0.0711
 6488SOL    HW122357   2.462   5.436   5.587 -0.5324 -0.6702  2.1434
 6488SOL    HW222358   2.356   5.328   5.590 -0.8272 -0.6082 -1.3669
 6489SOL     OW22359   8.471   4.685   5.302 -0.6854 -0.0559 -0.7072
 6489SOL    HW122360   8.441   4.635   5.378 -1.7930 -0.2206 -1.2207
 6489SOL    HW222361   8.484   4.774   5.334 -1.0134 -0.1550 -0.2921
 6490SOL     OW22362   4.628   2.683   7.535  0.1767  0.0771  0.2000
 6490SOL    HW122363   4.575   2.605   7.515 -0.0154  0.0688  0.7224
 6490SOL    HW222364   4.715   2.663   7.500 -0.0414 -0.1008 -0.2515
 6491SOL     OW22365   7.551   3.325   5.521  0.3376  0.6674 -0.3901
 6491SOL    HW122366   7.457   3.305   5.524  0.3793  0.0266 -2.3224
 6491SOL    HW222367   7.557   3.401   5.462  1.1567 -0.3560 -1.6776
 6492SOL     OW22368   6.578  10.571   7.830 -0.4810  0.0916  0.1576
 6492SOL    HW122369   6.556  10.629   7.903 -1.1555 -0.6553  0.5727
 6492SOL    HW222370   6.663  10.601   7.800  0.1614 -0.0468  1.7370
 6493SOL     OW22371   9.113   2.986   5.120  0.2313 -0.0293  0.2977
 6493SOL    HW122372   9.107   2.897   5.155 -1.1887 -0.0024  0.2131
 6493SOL    HW222373   9.085   3.042   5.192 -1.5275  0.1159 -0.4270
 6494SOL     OW22374   9.353   6.525   4.621  0.1250 -0.0071 -0.1965
 6494SOL    HW122375   9.338   6.555   4.711 -0.4179  0.3409 -0.3917
 6494SOL    HW222376   9.447   6.531   4.609  0.3083 -0.9281  0.6459
 6495SOL     OW22377   2.266   9.157   9.880  0.6304 -0.0433 -0.3213
 6495SOL    HW122378   2.354   9.186   9.901  0.1558  0.1807  1.6083
 6495SOL    HW222379   2.230   9.226   9.825  1.1182  0.6793  0.2471
 6496SOL     OW22380   1.576   7.782   5.201  0.5237 -0.2235 -0.4954
 6496SOL    HW122381   1.548   7.808   5.113 -1.1729 -0.7409 -0.1441
 6496SOL    HW222382   1.563   7.688   5.203 -0.8686 -0.0363  0.7692
 6497SOL     OW22383   3.476   2.426   3.468 -0.2081 -0.5962  0.0055
 6497SOL    HW122384   3.479   2.354   3.531 -1.8678 -0.2600  0.5399
 6497SOL    HW222385   3.458   2.503   3.522  1.4056  0.2330 -0.5724
 6498SOL     OW22386   9.242   5.855   2.876 -0.1914 -0.1745 -0.2475
 6498SOL    HW122387   9.156   5.830   2.911 -0.8174  0.3122 -1.3918
 6498SOL    HW222388   9.239   5.951   2.874  1.1258 -0.0497  1.4823
 6499SOL     OW22389   8.169   0.148   9.119  0.6692  1.0477  0.3530
 6499SOL    HW122390   8.082   0.155   9.159  1.8691  2.0952  3.0279
 6499SOL    HW222391   8.159   0.187   9.033 -1.9738 -0.8489 -0.3479
 6500SOL     OW22392   7.948   1.712   3.290  0.2499 -0.5072  0.2206
 6500SOL    HW122393   8.029   1.661   3.300  0.7780  0.0917 -0.8474
 6500SOL    HW222394   7.977   1.802   3.281 -0.7056  0.1217  2.6084
 6501SOL     OW22395   3.824   3.355   6.281 -0.4025 -0.6980  0.4654
 6501SOL    HW122396   3.879   3.366   6.204  1.7346 -0.1360  2.0079
 6501SOL    HW222397   3.735   3.370   6.248  0.4048 -0.7003 -1.9186
 6502SOL     OW22398   8.693   8.060   7.414 -0.8941  0.3773 -0.4218
 6502SOL    HW122399   8.715   8.153   7.416 -0.7206  0.3368 -0.4616
 6502SOL    HW222400   8.713   8.029   7.503  0.1093  0.1353 -0.7199
 6503SOL     OW22401   2.442  10.121   7.452  0.6939 -0.3101  0.4075
 6503SOL    HW122402   2.393  10.118   7.534 -3.4434 -0.2456 -1.7859
 6503SOL    HW222403   2.475  10.031   7.442 -0.3190 -0.8182  1.3115
 6504SOL     OW22404   8.925   4.003   4.572  0.2591 -0.4037 -0.6714
 6504SOL    HW122405   8.937   3.936   4.640  0.6778  0.0960 -0.2400
 6504SOL    HW222406   8.831   4.006   4.558 -0.1396  1.2008  1.7126
 6505SOL     OW22407   5.439  10.294   1.274  0.5504  0.2656  0.0082
 6505SOL    HW122408   5.366  10.265   1.219  0.4211  1.0124 -0.2302
 6505SOL    HW222409   5.517  10.273   1.223  0.5945 -1.8189  0.8674
 6506SOL     OW22410   4.530   4.755  10.459 -0.0116 -0.2182  0.0693
 6506SOL    HW122411   4.519   4.677  10.513  1.6764 -0.1573  0.5717
 6506SOL    HW222412   4.625   4.760  10.444 -0.0811  1.7520  0.0661
 6507SOL     OW22413   8.949  10.516   3.756 -0.4186 -0.0451  0.4120
 6507SOL    HW122414   8.874  10.506   3.698  0.8221 -1.1610 -1.0770
 6507SOL    HW222415   9.019  10.466   3.714  1.3277  1.3916  1.4619
 6508SOL     OW22416   6.914   8.493   5.367 -0.1049 -0.4544 -0.4665
 6508SOL    HW122417   6.864   8.412   5.377 -2.1367  0.7347 -0.4032
 6508SOL    HW222418   6.926   8.525   5.456 -0.4290 -0.0640 -0.5573
 6509SOL     OW22419   9.248   8.203   4.575  0.7132  0.3177  0.3594
 6509SOL    HW122420   9.220   8.162   4.656  0.0032  1.1644  0.5537
 6509SOL    HW222421   9.262   8.130   4.514 -1.6897 -0.1737  0.3195
 6510SOL     OW22422   6.723   0.989   6.430 -0.2220 -0.7735 -0.3858
 6510SOL    HW122423   6.760   0.904   6.452 -0.5384 -0.6702  0.5692
 6510SOL    HW222424   6.792   1.052   6.453 -0.0469 -0.7560 -0.9457
 6511SOL     OW22425   0.529   2.845   0.565  0.3145 -0.2272  0.0795
 6511SOL    HW122426   0.518   2.875   0.656 -1.4036 -0.2172 -0.1169
 6511SOL    HW222427   0.441   2.839   0.530  0.9609  0.0198 -1.7018
 6512SOL     OW22428   3.613   4.831   9.080  0.3393 -0.2966  0.2021
 6512SOL    HW122429   3.619   4.926   9.067  1.8545 -0.2875  0.7224
 6512SOL    HW222430   3.565   4.799   9.003 -2.7947  1.1621  1.3898
 6513SOL     OW22431   8.968   6.816   5.786  0.1218 -0.2027 -0.4784
 6513SOL    HW122432   8.966   6.890   5.846  0.9585 -1.5477  1.2936
 6513SOL    HW222433   9.061   6.798   5.773  0.0353  0.8754 -3.3370
 6514SOL     OW22434  10.418   0.776   0.757 -0.4528  0.3057 -0.3771
 6514SOL    HW122435  10.451   0.792   0.668 -0.6048  0.4138 -0.4154
 6514SOL    HW222436  10.452   0.850   0.808  0.3400 -0.1989 -0.1557
 6515SOL     OW22437   2.578   5.191   2.019 -0.4627  0.4283 -0.2884
 6515SOL    HW122438   2.648   5.127   2.003 -1.8246 -1.0795 -0.5139
 6515SOL    HW222439   2.616   5.275   1.995  0.6326 -0.5909 -2.4275
 6516SOL     OW22440  10.303   5.614   9.263  0.1335  0.3847  0.5634
 6516SOL    HW122441  10.273   5.575   9.346 -0.9289 -1.0409 -0.4262
 6516SOL    HW222442  10.358   5.546   9.224  1.9757  1.6709  0.7886
 6517SOL     OW22443   3.123   7.201   5.124 -0.0757 -0.2668 -0.1572
 6517SOL    HW122444   3.067   7.145   5.177 -1.2129  1.0526  0.0861
 6517SOL    HW222445   3.135   7.280   5.176 -1.8835  1.4084 -2.1239
 6518SOL     OW22446   2.357   3.888   9.266  0.3225 -0.0758  0.3811
 6518SOL    HW122447   2.296   3.914   9.336  0.0672 -0.5375  0.3322
 6518SOL    HW222448   2.424   3.956   9.266 -1.4465  1.7818 -1.1589
 6519SOL     OW22449   8.747   4.118   5.361  0.0852  0.5252  0.5672
 6519SOL    HW122450   8.752   4.084   5.450 -0.7573 -1.2934 -0.0352
 6519SOL    HW222451   8.828   4.090   5.320 -0.2485 -0.0753  0.3056
 6520SOL     OW22452   8.615   9.011   4.357  0.7002 -0.0874 -0.4456
 6520SOL    HW122453   8.630   8.917   4.368  2.2458  0.3711  2.2405
 6520SOL    HW222454   8.696   9.052   4.386  0.2796  2.1145 -2.0813
 6521SOL     OW22455   9.298   7.688   4.432 -0.6355  0.3157 -0.2705
 6521SOL    HW122456   9.366   7.754   4.414 -2.4732  2.4214  0.0680
 6521SOL    HW222457   9.329   7.643   4.510 -0.8593  3.2140  1.6511
 6522SOL     OW22458   4.101   7.963   1.816  0.3397 -0.2467  0.0372
 6522SOL    HW122459   4.056   8.018   1.881  4.3267 -1.0245  3.9716
 6522SOL    HW222460   4.182   8.011   1.797  1.2407 -2.0774 -0.9857
 6523SOL     OW22461   3.233   9.276  10.776 -0.1640  0.5292 -0.0853
 6523SOL    HW122462   3.281   9.354  10.749  0.3014  0.0632 -0.6176
 6523SOL    HW222463   3.297   9.224  10.825 -0.1285 -0.0781 -0.7661
 6524SOL     OW22464   6.296   0.374   6.039  0.3289  0.2306  0.3071
 6524SOL    HW122465   6.390   0.358   6.033  0.0547 -2.2254  1.3455
 6524SOL    HW222466   6.268   0.325   6.116 -2.0191 -0.2413 -0.7518
 6525SOL     OW22467   4.176   9.548   4.454 -0.1573  0.4531  0.2853
 6525SOL    HW122468   4.117   9.561   4.380 -1.7011 -1.9565  0.9833
 6525SOL    HW222469   4.262   9.532   4.414 -1.0717 -1.3737 -1.0636
 6526SOL     OW22470   9.737   0.789   2.069 -0.8338 -0.0510 -0.1988
 6526SOL    HW122471   9.823   0.759   2.040 -0.5693  1.6289 -1.3079
 6526SOL    HW222472   9.712   0.727   2.138  1.3812 -0.4244  0.3607
 6527SOL     OW22473   5.213   9.655   3.230  0.1789 -0.5340 -0.2118
 6527SOL    HW122474   5.243   9.703   3.153 -0.2333  0.5029  0.2569
 6527SOL    HW222475   5.293   9.621   3.269  0.6363  0.9525  0.2109
 6528SOL     OW22476   2.480   8.654   6.576 -0.0647 -0.3180 -0.0554
 6528SOL    HW122477   2.496   8.748   6.573  1.7633 -0.5776 -3.4514
 6528SOL    HW222478   2.556   8.618   6.622  0.4309 -0.2652 -0.8143
 6529SOL     OW22479   6.099   3.186   2.627 -0.3844 -0.3405  0.5527
 6529SOL    HW122480   6.015   3.165   2.587 -0.0749  1.2261 -1.0745
 6529SOL    HW222481   6.077   3.244   2.700 -0.7530  0.0956  0.1079
 6530SOL     OW22482   8.716  10.391   3.556 -0.4009 -0.3618 -0.3484
 6530SOL    HW122483   8.668  10.336   3.619 -1.4321  0.5289 -0.3358
 6530SOL    HW222484   8.670  10.475   3.557 -0.0733 -0.1394 -1.8573
 6531SOL     OW22485  10.154   8.245   7.514  0.0437 -0.4871  0.1337
 6531SOL    HW122486  10.127   8.307   7.446  1.5382  0.0600  0.0065
 6531SOL    HW222487  10.101   8.167   7.498 -1.3646  0.4853 -0.1412
 6532SOL     OW22488   8.547   6.357   2.006 -0.5820 -0.2314 -0.1269
 6532SOL    HW122489   8.493   6.282   1.982 -0.1495 -0.6970  0.3244
 6532SOL    HW222490   8.629   6.318   2.039 -1.0672  0.3634  1.8906
 6533SOL     OW22491   1.779   3.815   7.616 -0.1900  0.2695  0.7909
 6533SOL    HW122492   1.790   3.847   7.527  0.7981  1.9895  1.4868
 6533SOL    HW222493   1.730   3.733   7.606  1.8763 -0.8448 -1.5281
 6534SOL     OW22494  10.461   7.481   4.007  0.3574 -0.0407  0.2020
 6534SOL    HW122495  10.499   7.474   4.094  1.8486 -2.6301 -0.5431
 6534SOL    HW222496  10.371   7.450   4.017  0.5616 -0.4528  0.7920
 6535SOL     OW22497   9.958   4.411   0.478  0.2366 -1.0114 -0.5475
 6535SOL    HW122498   9.909   4.493   0.476  0.5946 -0.8149 -2.2990
 6535SOL    HW222499   9.926   4.362   0.403 -0.7789 -3.0085  1.0657
 6536SOL     OW22500   8.841   9.210   8.783 -0.1241 -0.1319  0.0649
 6536SOL    HW122501   8.807   9.296   8.758 -0.3730 -0.2775 -0.1056
 6536SOL    HW222502   8.770   9.149   8.760  0.2527 -0.4408 -0.2975
 6537SOL     OW22503   8.890   7.237   8.386  0.4601  0.7950  0.5100
 6537SOL    HW122504   8.901   7.324   8.347  1.6245  0.7239  0.6661
 6537SOL    HW222505   8.900   7.176   8.313  7.4269  0.3037  1.2018
 6538SOL     OW22506   6.222   0.193  10.684  0.1148  0.4021 -0.0419
 6538SOL    HW122507   6.133   0.221  10.664  0.0743  0.9507  0.8746
 6538SOL    HW222508   6.270   0.207  10.602 -0.4443  0.9489 -0.2796
 6539SOL     OW22509   9.508   9.800   5.280  0.1785  0.0548 -0.0976
 6539SOL    HW122510   9.551   9.797   5.194  0.1093  1.9741 -0.2428
 6539SOL    HW222511   9.550   9.730   5.330  1.0613 -0.3231 -1.3100
 6540SOL     OW22512   5.590   0.438   1.665  0.2328 -0.1895  0.1383
 6540SOL    HW122513   5.580   0.375   1.736  0.0011 -0.6499 -0.2919
 6540SOL    HW222514   5.500   0.463   1.642  0.2405 -0.9296 -0.7592
 6541SOL     OW22515   2.268   4.371   5.008  0.4541 -0.1697  0.3383
 6541SOL    HW122516   2.264   4.448   5.065 -0.7977 -0.2165  0.3317
 6541SOL    HW222517   2.358   4.370   4.976  0.2624  1.8339 -0.4077
 6542SOL     OW22518   4.868   2.249   4.513 -0.1551 -1.2445  0.1461
 6542SOL    HW122519   4.945   2.194   4.520  1.1292  0.5617  1.0485
 6542SOL    HW222520   4.825   2.221   4.432  1.2491 -2.5151 -0.1944
 6543SOL     OW22521   6.546   4.452   2.413  0.3070 -0.1942  0.1293
 6543SOL    HW122522   6.616   4.389   2.429  1.2425  1.1875  1.7851
 6543SOL    HW222523   6.571   4.530   2.462 -1.7402  0.8345 -0.3167
 6544SOL     OW22524   4.854  10.287   8.195  0.2232  0.4352 -0.6477
 6544SOL    HW122525   4.812  10.201   8.205  0.9553  0.2811  1.7243
 6544SOL    HW222526   4.785  10.350   8.211  0.2174  0.2324  0.1609
 6545SOL     OW22527   0.223   3.173   1.555 -0.0907  1.0748  0.1085
 6545SOL    HW122528   0.136   3.209   1.571  0.8368  3.4168  0.2973
 6545SOL    HW222529   0.268   3.181   1.639  0.5510  0.5991 -0.1765
 6546SOL     OW22530   1.174  10.076   8.635  0.2965 -0.1176 -0.4492
 6546SOL    HW122531   1.134  10.090   8.720  1.2313  0.4073 -0.0780
 6546SOL    HW222532   1.151   9.987   8.611 -0.1564 -0.1895  0.2507
 6547SOL     OW22533   0.529   7.520   6.685 -0.0007  0.7395 -0.0572
 6547SOL    HW122534   0.453   7.465   6.704 -0.1034  0.8631 -0.1086
 6547SOL    HW222535   0.582   7.469   6.624 -0.0556  0.6655 -0.0427
 6548SOL     OW22536   9.964   8.521   8.444 -0.4075 -0.3597  0.3049
 6548SOL    HW122537   9.869   8.534   8.453 -0.8632 -1.5768 -2.1175
 6548SOL    HW222538   9.988   8.572   8.366  0.9058 -0.3333  0.6966
 6549SOL     OW22539   0.200   7.077   6.328  0.5713  0.0726 -0.1906
 6549SOL    HW122540   0.228   7.103   6.241  0.9374  0.6189  0.0879
 6549SOL    HW222541   0.130   7.013   6.313 -0.3046  1.1601 -0.8928
 6550SOL     OW22542   4.186   5.539   4.293  0.4470 -0.0053 -0.1697
 6550SOL    HW122543   4.124   5.525   4.364  0.0854 -1.0432 -0.6677
 6550SOL    HW222544   4.159   5.621   4.252 -1.9043 -1.4318 -1.6716
 6551SOL     OW22545   6.665   1.068   7.264  0.1818  0.3130 -0.2639
 6551SOL    HW122546   6.673   0.975   7.285 -0.6583  0.0191 -1.1584
 6551SOL    HW222547   6.748   1.091   7.222  0.3314 -0.0591 -0.1729
 6552SOL     OW22548   0.024   2.780   5.998  0.4811 -0.3675  0.6657
 6552SOL    HW122549   0.057   2.825   6.076 -0.5332  0.5201  0.5924
 6552SOL    HW222550   0.056   2.833   5.925 -1.2733  0.6541  0.5999
 6553SOL     OW22551   4.629   0.620   3.034  0.1185 -0.3006 -0.2286
 6553SOL    HW122552   4.569   0.683   3.071  0.1030 -0.0703 -0.6397
 6553SOL    HW222553   4.578   0.539   3.028  0.0009 -0.2345 -0.1200
 6554SOL     OW22554   5.667   8.115   5.730 -0.1598  0.1590  0.0048
 6554SOL    HW122555   5.751   8.161   5.732 -0.6762  1.2375 -1.4979
 6554SOL    HW222556   5.602   8.183   5.747 -0.7906 -0.5296  0.4059
 6555SOL     OW22557   2.594   7.893   9.283 -0.1075 -0.1771 -0.6487
 6555SOL    HW122558   2.520   7.833   9.284 -0.4012  0.1018 -2.4193
 6555SOL    HW222559   2.564   7.969   9.334 -0.3719 -0.7806  0.1199
 6556SOL     OW22560   7.055   0.107   5.346  0.4660  0.1803  0.1798
 6556SOL    HW122561   7.127   0.150   5.301  1.2671  0.0946  1.3403
 6556SOL    HW222562   7.020   0.174   5.405 -0.1166  0.0863 -0.0524
 6557SOL     OW22563   2.881   2.948   5.909 -0.2729 -0.2472  0.0594
 6557SOL    HW122564   2.908   2.969   5.998  0.0574 -0.8730  0.1059
 6557SOL    HW222565   2.795   2.906   5.919 -0.6383  0.4692  0.0127
 6558SOL     OW22566   1.559   3.030   9.695 -0.1429  0.0167  0.0234
 6558SOL    HW122567   1.631   3.041   9.757 -0.2564  0.2598  0.1144
 6558SOL    HW222568   1.594   2.972   9.627  0.3647  0.6762 -0.2861
 6559SOL     OW22569   3.681   3.526   5.466 -0.2747 -0.7442 -0.2770
 6559SOL    HW122570   3.766   3.488   5.487 -0.3170 -1.1613 -0.8552
 6559SOL    HW222571   3.619   3.480   5.523 -0.2011 -0.8729 -0.3024
 6560SOL     OW22572   5.538   1.049   0.030 -0.0042  0.1850 -0.0634
 6560SOL    HW122573   5.545   1.112  -0.042 -0.2227 -0.8922 -1.0464
 6560SOL    HW222574   5.628   1.039   0.061  0.0678  0.7795 -0.0679
 6561SOL     OW22575   7.435   6.708   4.598  0.5205 -0.2106  0.1877
 6561SOL    HW122576   7.366   6.702   4.531  1.1644 -2.3802 -0.3564
 6561SOL    HW222577   7.413   6.787   4.647 -2.1925 -0.6562 -0.1380
 6562SOL     OW22578   9.369  10.450   5.743 -0.2959  0.2220 -0.0025
 6562SOL    HW122579   9.343  10.366   5.781  1.2350  0.2269  1.1281
 6562SOL    HW222580   9.359  10.437   5.648 -1.8461 -0.6005  0.2329
 6563SOL     OW22581   8.839   0.497   8.265  0.4537  0.5467  0.4259
 6563SOL    HW122582   8.917   0.453   8.299 -0.3793 -0.9481  0.4597
 6563SOL    HW222583   8.834   0.469   8.173 -1.0237 -0.8508  0.8897
 6564SOL     OW22584   5.409   6.870   5.334 -0.3397 -0.4120  0.0857
 6564SOL    HW122585   5.491   6.895   5.293 -0.4065  2.1848  1.3368
 6564SOL    HW222586   5.434   6.817   5.410  0.4685  2.1809  1.7750
 6565SOL     OW22587   3.512   2.618   4.479 -0.1833  0.0657  0.0137
 6565SOL    HW122588   3.533   2.699   4.433  0.1365  0.1626  0.3157
 6565SOL    HW222589   3.583   2.558   4.454  0.9105  0.6155  1.5948
 6566SOL     OW22590  10.304   4.256   5.153  0.1204  0.1868 -0.0690
 6566SOL    HW122591  10.357   4.333   5.174 -0.3869  0.8196 -1.0345
 6566SOL    HW222592  10.285   4.264   5.060  1.9509 -2.2968 -0.7680
 6567SOL     OW22593   6.280   0.412   8.722 -0.3582  0.0728  0.1262
 6567SOL    HW122594   6.262   0.484   8.661  2.0061  3.1281  2.6473
 6567SOL    HW222595   6.202   0.407   8.777 -1.3122 -0.6825 -1.2491
 6568SOL     OW22596   5.136   7.584   9.596  0.5632 -0.2311 -0.4149
 6568SOL    HW122597   5.098   7.519   9.656  0.5364  1.2154  1.2094
 6568SOL    HW222598   5.199   7.632   9.650  1.1664  0.5843 -1.7990
 6569SOL     OW22599   7.922   0.950   0.351  0.1119 -0.1986  0.1222
 6569SOL    HW122600   8.005   0.904   0.334 -1.1033 -2.5500  0.2171
 6569SOL    HW222601   7.934   0.990   0.437  1.5568  0.5458 -0.3866
 6570SOL     OW22602   8.945   1.995   7.026 -0.0911  0.0232  0.4947
 6570SOL    HW122603   8.976   1.953   7.107  0.8465  2.6614  1.6091
 6570SOL    HW222604   8.892   2.069   7.056 -0.1488  0.7735 -1.3324
 6571SOL     OW22605  10.188   4.044   7.573 -0.1988  0.3962  0.0899
 6571SOL    HW122606  10.218   4.111   7.635 -0.5708  0.5149  0.1467
 6571SOL    HW222607  10.149   3.977   7.628  1.7593 -0.7379  0.1715
 6572SOL     OW22608   4.052  10.070   5.366 -0.4626 -0.2177  0.0195
 6572SOL    HW122609   4.018   9.981   5.373  0.0925 -0.5748 -1.5367
 6572SOL    HW222610   4.062  10.085   5.272  1.3071  0.7600  0.3136
 6573SOL     OW22611   1.974   8.442   9.243 -0.0050 -0.2672  0.0592
 6573SOL    HW122612   1.989   8.530   9.277  0.5987 -0.6540  0.8414
 6573SOL    HW222613   1.947   8.391   9.320  3.8860 -1.7751  0.6628
 6574SOL     OW22614   1.950   4.126   9.395  0.8662 -0.0005  0.4769
 6574SOL    HW122615   1.888   4.104   9.465 -0.4966  0.5389 -0.5268
 6574SOL    HW222616   1.967   4.219   9.406 -0.9181  0.5667 -1.0487
 6575SOL     OW22617   5.972   5.415   0.705  0.5590  0.1027 -0.1007
 6575SOL    HW122618   5.892   5.439   0.751 -0.1990 -0.6886 -0.9775
 6575SOL    HW222619   6.020   5.497   0.695 -1.0589  0.9513 -1.2976
 6576SOL     OW22620   7.529   1.426  10.450 -0.2645  1.1312 -0.0452
 6576SOL    HW122621   7.581   1.387  10.520  0.9844  1.2924 -0.8464
 6576SOL    HW222622   7.579   1.503  10.423 -0.2674  0.6148 -1.6446
 6577SOL     OW22623   6.832   1.299   1.974  0.3881  0.3735 -0.5058
 6577SOL    HW122624   6.903   1.249   2.015 -0.6706 -0.7024  0.0524
 6577SOL    HW222625   6.753   1.273   2.021 -0.8003 -0.5149 -2.8531
 6578SOL     OW22626  10.438   5.273   6.957  0.0352 -0.2223 -0.2027
 6578SOL    HW122627  10.446   5.199   6.896  2.8855  0.3973 -0.7172
 6578SOL    HW222628  10.467   5.238   7.041 -1.9756 -0.5332  0.4227
 6579SOL     OW22629   8.725   3.410   1.685  0.4684 -0.3316  0.2173
 6579SOL    HW122630   8.712   3.354   1.761  0.2802  0.5833  0.8757
 6579SOL    HW222631   8.797   3.468   1.709  0.3425  0.0306 -0.2537
 6580SOL     OW22632   3.610  10.645   9.775  0.6292  0.4107 -0.6416
 6580SOL    HW122633   3.688  10.593   9.754  1.1863  0.1840  1.7232
 6580SOL    HW222634   3.643  10.716   9.830 -0.9587 -0.5187  1.6587
 6581SOL     OW22635   1.685   4.258   6.580 -0.5775  0.2303 -0.1646
 6581SOL    HW122636   1.627   4.299   6.645 -0.2710  0.7738 -0.2277
 6581SOL    HW222637   1.773   4.287   6.605 -0.6191  2.3378 -2.1038
 6582SOL     OW22638   0.058   7.036   5.006  0.0055 -0.4367 -0.1595
 6582SOL    HW122639   0.139   7.087   5.002 -0.1999  0.0581  1.3471
 6582SOL    HW222640   0.086   6.946   4.987  0.7224 -0.0998 -0.7485
 6583SOL     OW22641   1.460   1.726  10.365  0.3115  0.3602 -0.0522
 6583SOL    HW122642   1.535   1.720  10.306  1.0999 -1.0537  1.0512
 6583SOL    HW222643   1.465   1.814  10.402  1.2563  0.3729 -0.2031
 6584SOL     OW22644   5.649   8.439   1.190  0.1714 -0.0762 -1.0216
 6584SOL    HW122645   5.625   8.438   1.283  3.1375  2.0954 -0.0922
 6584SOL    HW222646   5.709   8.366   1.180  1.3880  0.8332 -0.6687
 6585SOL     OW22647   0.781   1.527   4.293  0.2172  0.0209  0.9782
 6585SOL    HW122648   0.700   1.565   4.329 -0.6796 -0.2028 -0.6999
 6585SOL    HW222649   0.797   1.449   4.345 -1.7676 -1.0068  0.1496
 6586SOL     OW22650   5.361   5.508   7.002 -0.3541  0.1462 -0.4743
 6586SOL    HW122651   5.286   5.451   7.017  0.2592 -0.6399 -0.3041
 6586SOL    HW222652   5.363   5.567   7.078  0.3829 -1.1821  0.5800
 6587SOL     OW22653   6.811   2.147   5.143  0.2463  0.0104  0.1985
 6587SOL    HW122654   6.765   2.216   5.191  0.4798  0.3857 -0.1011
 6587SOL    HW222655   6.836   2.189   5.060 -1.6041 -1.0883 -0.9855
 6588SOL     OW22656   3.812   2.346   0.768  0.8150 -0.1138 -0.3487
 6588SOL    HW122657   3.905   2.359   0.786  0.9761 -1.2698 -0.2584
 6588SOL    HW222658   3.771   2.428   0.793  1.7704  0.2975 -0.0827
 6589SOL     OW22659   4.087   6.216   9.709  0.2868 -0.1832  0.7183
 6589SOL    HW122660   3.999   6.240   9.679  0.6988 -0.7576 -1.0921
 6589SOL    HW222661   4.095   6.123   9.687  2.0799  0.3450 -1.2036
 6590SOL     OW22662   6.690   6.088   4.771  0.2799 -0.0917 -0.2863
 6590SOL    HW122663   6.736   6.172   4.774  1.8721 -0.8688 -1.4432
 6590SOL    HW222664   6.613   6.101   4.825  2.0244  1.1963  2.0920
 6591SOL     OW22665   2.428  10.312   5.599  0.2315  0.0387 -0.0732
 6591SOL    HW122666   2.505  10.368   5.593  0.1726  0.1407  0.1147
 6591SOL    HW222667   2.400  10.299   5.508  1.2967 -1.1442 -0.2658
 6592SOL     OW22668   6.594   8.403   3.541 -0.0341 -0.3558  0.3503
 6592SOL    HW122669   6.614   8.485   3.496 -0.9940 -1.0351 -1.3955
 6592SOL    HW222670   6.560   8.431   3.627 -2.5178  1.2417 -1.0214
 6593SOL     OW22671   7.988   8.733   2.184 -0.4588 -0.4099 -0.3642
 6593SOL    HW122672   7.931   8.693   2.250  0.7221  0.2624  1.1513
 6593SOL    HW222673   7.991   8.826   2.209  1.1734 -0.4049 -0.4534
 6594SOL     OW22674   8.279   6.289   4.396  0.4090 -0.0919  0.2160
 6594SOL    HW122675   8.233   6.307   4.314  0.2650 -1.1192  0.0561
 6594SOL    HW222676   8.288   6.374   4.438  0.7869  0.5065 -1.0291
 6595SOL     OW22677   4.552   7.095   6.788 -0.5838  0.2936 -0.1888
 6595SOL    HW122678   4.468   7.057   6.815  0.2975 -0.9180  0.9718
 6595SOL    HW222679   4.595   7.025   6.740  1.7745 -0.9550  3.3775
 6596SOL     OW22680   5.945   5.568   8.018  0.0421  0.5970  0.0435
 6596SOL    HW122681   5.873   5.542   8.075 -0.2661 -3.0762 -1.6968
 6596SOL    HW222682   6.022   5.526   8.056  0.0612 -0.7881 -1.4238
 6597SOL     OW22683   8.866   5.393   4.415  0.1272  0.0228 -0.0184
 6597SOL    HW122684   8.925   5.468   4.421 -0.8365  0.6935  1.7273
 6597SOL    HW222685   8.838   5.391   4.324 -0.4689  2.3267  0.0570
 6598SOL     OW22686   1.886   5.024   6.748  0.3589 -0.4949 -0.4988
 6598SOL    HW122687   1.791   5.028   6.735  0.0346 -2.1003  0.9505
 6598SOL    HW222688   1.921   5.090   6.688 -1.6989  0.6233 -0.5762
 6599SOL     OW22689   1.349   4.814   8.973 -0.2625  0.6033  0.1478
 6599SOL    HW122690   1.371   4.897   9.015  0.5960  0.0992  0.7140
 6599SOL    HW222691   1.336   4.753   9.045 -0.3739  0.1186 -0.2769
 6600SOL     OW22692   7.973   1.061   1.001 -0.0150 -0.3173  0.4201
 6600SOL    HW122693   8.065   1.086   0.989  1.6025 -4.4480  2.1478
 6600SOL    HW222694   7.948   1.098   1.085 -1.1536  3.3522 -1.3392
 6601SOL     OW22695   6.689   5.626   7.474 -0.0731  0.1760  0.4735
 6601SOL    HW122696   6.756   5.582   7.422 -1.0015 -0.7231  0.0151
 6601SOL    HW222697   6.736   5.697   7.517  1.0192  0.0487 -0.4467
 6602SOL     OW22698  10.200   2.154   2.363  0.0929 -0.2918  0.2839
 6602SOL    HW122699  10.129   2.218   2.370  0.4771  0.0343  1.5733
 6602SOL    HW222700  10.274   2.203   2.328  0.3748 -0.0155  1.2307
 6603SOL     OW22701   3.012   8.809   8.141 -1.0654  0.2271 -0.2200
 6603SOL    HW122702   3.083   8.860   8.180 -0.2464  0.3963 -1.8197
 6603SOL    HW222703   3.039   8.718   8.152  0.6945  0.3038 -2.8885
 6604SOL     OW22704   0.459   7.147   4.791 -0.3203  0.0127 -0.7178
 6604SOL    HW122705   0.548   7.158   4.827  0.5586  1.7735 -3.1571
 6604SOL    HW222706   0.447   7.052   4.786  0.4523 -0.2986  1.7339
 6605SOL     OW22707   2.655   7.269  10.304 -0.1792  0.2692  0.0088
 6605SOL    HW122708   2.682   7.356  10.333 -0.2474 -0.1893  1.5271
 6605SOL    HW222709   2.731   7.213  10.322  0.3821  0.2189 -2.2227
 6606SOL     OW22710  10.295   8.746   5.149  0.3970  0.3019  0.3580
 6606SOL    HW122711  10.299   8.781   5.238 -0.3262  1.8326 -0.1628
 6606SOL    HW222712  10.262   8.819   5.096 -0.3664 -0.9399 -0.9673
 6607SOL     OW22713  10.359   3.272   9.454 -0.2162  0.1198  0.4503
 6607SOL    HW122714  10.390   3.242   9.539 -0.1128 -1.0310  0.0255
 6607SOL    HW222715  10.310   3.352   9.473 -2.3396 -1.4347  1.9330
 6608SOL     OW22716   1.321   0.989   3.461  0.6551 -0.0687  0.1174
 6608SOL    HW122717   1.300   1.065   3.515  0.1592 -0.8070  0.9852
 6608SOL    HW222718   1.251   0.986   3.395  1.5901  1.1894 -1.0068
 6609SOL     OW22719   4.876   7.505   0.788 -0.4857  0.2278 -0.2359
 6609SOL    HW122720   4.946   7.471   0.732 -0.7873  0.1877 -0.5972
 6609SOL    HW222721   4.849   7.430   0.841  0.6329  0.5684  0.8490
 6610SOL     OW22722   2.092   7.022   1.383 -0.7224  0.2736  0.4385
 6610SOL    HW122723   2.007   7.032   1.426 -0.8825 -0.9692  0.4480
 6610SOL    HW222724   2.071   6.996   1.293 -0.3736 -0.9583  0.6910
 6611SOL     OW22725   5.628   1.172   4.457  0.2592  0.0635  0.4296
 6611SOL    HW122726   5.656   1.234   4.390  0.1974 -1.0638 -0.6871
 6611SOL    HW222727   5.709   1.135   4.492  0.2659 -0.7361 -0.3999
 6612SOL     OW22728   4.370   5.339   4.550  0.0933 -0.0640 -0.7770
 6612SOL    HW122729   4.318   5.300   4.620  1.3006 -0.1870  0.0876
 6612SOL    HW222730   4.373   5.432   4.572 -0.8243  0.1590 -1.5429
 6613SOL     OW22731   8.841   4.444   7.256 -0.2445  0.3101 -0.3056
 6613SOL    HW122732   8.871   4.355   7.237 -1.2524 -0.1020 -0.0262
 6613SOL    HW222733   8.907   4.501   7.215 -0.3041 -0.5586 -1.6939
 6614SOL     OW22734  10.587   4.978   2.708  0.3711  0.4669  0.5465
 6614SOL    HW122735  10.637   4.992   2.789 -0.5707  0.2107  1.1931
 6614SOL    HW222736  10.495   4.977   2.737  0.0093  0.6288 -0.5695
 6615SOL     OW22737   2.229   6.922   4.697 -0.0771  0.1120  0.7076
 6615SOL    HW122738   2.312   6.914   4.744  0.8949  1.6552 -0.6487
 6615SOL    HW222739   2.253   6.962   4.613 -1.9569 -1.0610 -0.4557
 6616SOL     OW22740   0.208   6.098   2.658  0.2316  0.0005 -0.5968
 6616SOL    HW122741   0.160   6.088   2.576 -0.8579 -1.6996  0.2020
 6616SOL    HW222742   0.164   6.039   2.719  1.8157  0.2601  0.8606
 6617SOL     OW22743   9.600   9.215   8.547  0.4508 -0.2378 -0.0863
 6617SOL    HW122744   9.505   9.214   8.533  0.1934  0.2434  1.4262
 6617SOL    HW222745   9.616   9.142   8.607  0.6314  1.2473  1.7762
 6618SOL     OW22746   5.864   8.886   0.847  0.7061 -0.0868  0.4805
 6618SOL    HW122747   5.887   8.930   0.929  0.6498  0.5803  0.1424
 6618SOL    HW222748   5.872   8.792   0.868 -0.2610  0.0342  1.5207
 6619SOL     OW22749   0.918   9.842   8.703  0.1407 -0.6802  0.4270
 6619SOL    HW122750   0.982   9.821   8.635  2.4877 -0.4951  2.4585
 6619SOL    HW222751   0.916   9.938   8.704  0.3878 -0.6799  0.8567
 6620SOL     OW22752   8.471   9.850   3.911 -0.2145  0.2836  0.4002
 6620SOL    HW122753   8.442   9.928   3.957  0.4617  0.5019  0.4641
 6620SOL    HW222754   8.397   9.790   3.915 -0.6325  0.8163  0.5971
 6621SOL     OW22755   8.296   4.695   1.439 -0.2096 -0.0424  0.1638
 6621SOL    HW122756   8.308   4.748   1.361 -2.7887  1.1241  0.4716
 6621SOL    HW222757   8.223   4.736   1.485  0.7703 -1.0975  2.8540
 6622SOL     OW22758   7.451   5.836   6.558  0.2607  0.3105  0.1833
 6622SOL    HW122759   7.410   5.876   6.635 -0.8841 -0.7244  0.1479
 6622SOL    HW222760   7.506   5.905   6.522 -1.7711  1.9515  0.0024
 6623SOL     OW22761   5.550   6.666   5.854  0.6412  0.2629  0.1108
 6623SOL    HW122762   5.569   6.596   5.791 -0.2882  0.4329 -0.3748
 6623SOL    HW222763   5.525   6.621   5.934  1.1335  0.0439  0.1436
 6624SOL     OW22764   8.760   7.098   1.760  0.0651  0.6778 -0.3362
 6624SOL    HW122765   8.710   7.086   1.840 -0.9314 -0.4098 -1.1052
 6624SOL    HW222766   8.822   7.026   1.759 -0.1764  0.4743 -0.7289
 6625SOL     OW22767   0.101   1.029   0.212  0.0171  0.3275 -0.3211
 6625SOL    HW122768   0.062   1.079   0.284 -0.3561 -0.7884  0.2689
 6625SOL    HW222769   0.195   1.032   0.230 -0.0311  0.5306 -0.0986
 6626SOL     OW22770   7.560   1.764   1.473  0.3353  0.5084 -0.1008
 6626SOL    HW122771   7.566   1.811   1.389  0.5546 -0.0354 -0.3967
 6626SOL    HW222772   7.650   1.764   1.506  0.7384 -1.3816 -1.0512
 6627SOL     OW22773   8.888   7.929   6.657  0.1236  0.0444  0.1689
 6627SOL    HW122774   8.841   7.983   6.720  2.3237  2.0698  0.2354
 6627SOL    HW222775   8.869   7.968   6.572  0.9414  0.3421  0.1100
 6628SOL     OW22776   9.364   7.783   2.201  0.0350 -0.1752 -0.5341
 6628SOL    HW122777   9.335   7.744   2.283  3.7563  1.3673  1.7831
 6628SOL    HW222778   9.356   7.877   2.214  1.0556  0.1151 -1.7330
 6629SOL     OW22779   2.215   7.937   7.716 -0.0800  0.5686  0.2487
 6629SOL    HW122780   2.249   7.972   7.634  0.1169 -0.2804 -0.0403
 6629SOL    HW222781   2.147   7.876   7.690 -2.3737  2.6983  0.8328
 6630SOL     OW22782   2.263   9.607   3.286 -0.1293  0.3173  0.3306
 6630SOL    HW122783   2.217   9.564   3.358  0.3182 -1.1071 -0.2205
 6630SOL    HW222784   2.341   9.645   3.327 -0.0231 -0.2440  0.6545
 6631SOL     OW22785   0.771   9.101   7.678  0.3003  0.0116 -0.1085
 6631SOL    HW122786   0.685   9.063   7.659 -0.1786  1.6704 -1.5629
 6631SOL    HW222787   0.807   9.046   7.747 -2.1521 -0.4283  0.9290
 6632SOL     OW22788   6.050   5.135   0.305  0.1783  0.0797 -0.1378
 6632SOL    HW122789   6.036   5.228   0.287 -2.0925 -0.4588 -1.6520
 6632SOL    HW222790   6.001   5.118   0.385  0.3094  0.1050 -0.0513
 6633SOL     OW22791   1.615  10.308   7.583  0.3944  0.1074 -0.0185
 6633SOL    HW122792   1.708  10.304   7.606  0.0854 -0.0916  1.3082
 6633SOL    HW222793   1.579  10.225   7.615 -0.1161 -0.1204 -1.1607
 6634SOL     OW22794  10.768   2.528   5.435 -0.7426  0.6238  0.8712
 6634SOL    HW122795  10.823   2.533   5.357 -0.1779  1.0020  1.2846
 6634SOL    HW222796  10.829   2.508   5.506 -1.6625 -3.3940  0.7502
 6635SOL     OW22797   7.576   0.888   5.914  0.2690 -0.5690 -0.0509
 6635SOL    HW122798   7.502   0.933   5.872  0.5985  1.2246  1.1637
 6635SOL    HW222799   7.610   0.829   5.847 -1.4324 -0.4672 -1.0648
 6636SOL     OW22800   0.613   8.904   0.850 -0.6015  0.5361  0.4020
 6636SOL    HW122801   0.541   8.857   0.893 -0.7988  1.8558  1.5748
 6636SOL    HW222802   0.575   8.937   0.769 -0.9250  0.0494  0.3517
 6637SOL     OW22803   9.276   6.836   7.151  0.8165 -0.2347 -0.4933
 6637SOL    HW122804   9.185   6.822   7.122  0.4083  0.7052  0.3015
 6637SOL    HW222805   9.285   6.780   7.228  0.5351  0.5347  0.1134
 6638SOL     OW22806   4.906   6.274   6.895 -0.1724 -0.0259  0.3350
 6638SOL    HW122807   4.904   6.197   6.951 -1.8297 -0.8888 -0.8307
 6638SOL    HW222808   4.868   6.245   6.812  0.2914  1.7408 -0.5555
 6639SOL     OW22809   5.151   2.769   9.442  0.4105  0.2740 -0.1646
 6639SOL    HW122810   5.117   2.733   9.360  2.4858 -0.0596 -0.9429
 6639SOL    HW222811   5.158   2.863   9.426  2.0028  0.0679 -0.8889
 6640SOL     OW22812   7.123   5.157   8.778 -0.4676  0.3507  0.2915
 6640SOL    HW122813   7.055   5.143   8.712 -1.2070 -0.3199  1.1639
 6640SOL    HW222814   7.080   5.138   8.861  0.0628  2.4658  1.1225
 6641SOL     OW22815   4.332   3.499   3.801 -0.4634 -0.0943  0.0130
 6641SOL    HW122816   4.253   3.539   3.763 -1.2284  0.7618  2.3236
 6641SOL    HW222817   4.301   3.459   3.883  1.4790  0.1236  0.9053
 6642SOL     OW22818   3.071   6.009  10.570 -0.3854  0.2026 -0.0750
 6642SOL    HW122819   3.105   6.083  10.620 -0.0436  0.8438 -1.2267
 6642SOL    HW222820   3.037   6.047  10.489 -2.1442 -0.6438  0.2027
 6643SOL     OW22821   2.719   1.275   9.379  0.5826  0.0588  0.4165
 6643SOL    HW122822   2.777   1.348   9.397 -1.3634  1.9367 -0.5130
 6643SOL    HW222823   2.752   1.239   9.296  0.2941  1.2979 -0.2663
 6644SOL     OW22824   5.750   0.143   4.358 -0.2601 -0.2634  0.2421
 6644SOL    HW122825   5.702   0.182   4.431  1.1712 -0.7220  1.4923
 6644SOL    HW222826   5.799   0.071   4.398  1.6142  0.3137 -0.9039
 6645SOL     OW22827   5.050  10.027   3.061  0.3421 -0.4772  0.1282
 6645SOL    HW122828   5.105  10.099   3.030 -1.0959  0.8999  0.5976
 6645SOL    HW222829   5.086  10.005   3.147  1.1600 -0.7390 -0.2741
 6646SOL     OW22830   8.672   6.427   1.132  0.0683  0.4834 -0.1527
 6646SOL    HW122831   8.643   6.336   1.135 -0.0674  0.5311  0.0101
 6646SOL    HW222832   8.692   6.448   1.224  1.2457  0.2474 -0.3400
 6647SOL     OW22833   5.725   0.910   6.933  0.3866  0.4158 -0.4419
 6647SOL    HW122834   5.704   0.901   7.026 -1.2378 -1.1661 -0.9016
 6647SOL    HW222835   5.814   0.875   6.925  0.2070 -0.2653  0.3851
 6648SOL     OW22836   4.789   3.346   0.481 -0.6655  0.2933 -0.3976
 6648SOL    HW122837   4.788   3.266   0.534 -0.2518  1.5742  1.6718
 6648SOL    HW222838   4.879   3.353   0.450  0.1516  1.4221  1.9453
 6649SOL     OW22839   0.063   4.244   2.703  0.0310 -0.0072  0.1760
 6649SOL    HW122840  -0.010   4.219   2.760 -0.4972 -0.8431 -0.8102
 6649SOL    HW222841   0.099   4.324   2.742 -0.2465 -0.6000  1.6990
 6650SOL     OW22842   9.074   4.274   7.304 -0.2673  0.1105  0.0706
 6650SOL    HW122843   9.149   4.260   7.361  0.2385  0.6403 -0.4522
 6650SOL    HW222844   9.110   4.275   7.216 -0.7601  1.1321 -0.1409
 6651SOL     OW22845   9.084   4.693   9.580 -0.1444  0.2664  0.0191
 6651SOL    HW122846   9.147   4.633   9.620 -0.0359  0.6551  0.4387
 6651SOL    HW222847   9.040   4.735   9.655 -1.4958 -0.5995 -0.2421
 6652SOL     OW22848   4.905   8.986   7.794  0.3258 -0.7669  0.3325
 6652SOL    HW122849   4.920   8.943   7.710 -1.4916 -0.4914 -0.1590
 6652SOL    HW222850   4.981   8.960   7.847 -0.1720 -3.7618 -0.2444
 6653SOL     OW22851  10.008   5.293   3.357 -0.5779  0.5765  0.0121
 6653SOL    HW122852   9.994   5.206   3.396  0.4657  0.7875  0.9329
 6653SOL    HW222853  10.000   5.278   3.263  1.5008 -0.9863 -0.0215
 6654SOL     OW22854   8.786   0.304   4.945 -0.2571 -0.3093 -0.4371
 6654SOL    HW122855   8.807   0.318   4.853 -0.8711  0.5125 -0.4578
 6654SOL    HW222856   8.760   0.212   4.950  1.9130 -0.9977 -0.6574
 6655SOL     OW22857   9.494   6.965   1.005  0.3895 -0.0532 -0.3448
 6655SOL    HW122858   9.509   6.886   0.953 -0.4092 -0.4484  0.0207
 6655SOL    HW222859   9.528   6.943   1.092 -0.2642 -0.1729 -0.1137
 6656SOL     OW22860   1.481   2.434   0.074  0.0073 -0.0826 -0.3426
 6656SOL    HW122861   1.453   2.524   0.059  0.4390  0.5062  2.0058
 6656SOL    HW222862   1.406   2.393   0.117 -0.2514 -0.9290 -1.5579
 6657SOL     OW22863   1.968   1.553   6.229 -0.1869 -0.0377  0.2872
 6657SOL    HW122864   2.034   1.487   6.250 -1.3065 -1.2194  0.2117
 6657SOL    HW222865   1.959   1.605   6.309  2.1125  1.3669 -0.2442
 6658SOL     OW22866   9.986   6.712   6.779 -0.1606 -0.1053 -0.0525
 6658SOL    HW122867  10.003   6.788   6.834 -0.8836 -0.8406  1.2337
 6658SOL    HW222868   9.894   6.719   6.755 -0.7585 -1.5154  1.6480
 6659SOL     OW22869   6.770   0.089   7.929  0.1782 -0.0814 -0.4053
 6659SOL    HW122870   6.813   0.009   7.899 -0.5944 -1.1156  1.1064
 6659SOL    HW222871   6.679   0.064   7.941  0.0796  0.8059  0.8755
 6660SOL     OW22872   8.709   7.628   7.431  0.3479  0.1150  0.2760
 6660SOL    HW122873   8.742   7.624   7.341  0.8645 -1.2847  0.5119
 6660SOL    HW222874   8.702   7.537   7.459 -1.5910  0.4518  1.0428
 6661SOL     OW22875  10.242   9.166   9.816  0.2758 -0.4081 -0.0004
 6661SOL    HW122876  10.157   9.210   9.827  0.6507  0.3085  0.0787
 6661SOL    HW222877  10.299   9.233   9.779  1.5660  0.0220  2.5340
 6662SOL     OW22878   1.342   3.488  10.058  0.2549 -0.2085 -0.5673
 6662SOL    HW122879   1.339   3.436  10.138 -1.9890 -0.4256 -0.7236
 6662SOL    HW222880   1.272   3.552  10.069  1.5503  1.4094 -1.3161
 6663SOL     OW22881   1.764   7.244   2.499  0.0728 -0.3773  0.1130
 6663SOL    HW122882   1.680   7.283   2.522 -1.0140 -2.2378 -0.4522
 6663SOL    HW222883   1.748   7.201   2.415  2.1631  0.8818 -1.0296
 6664SOL     OW22884   6.179   1.219   0.608 -0.3454  0.0667 -0.2525
 6664SOL    HW122885   6.130   1.178   0.537 -0.8650  0.6682 -0.2442
 6664SOL    HW222886   6.271   1.198   0.589 -0.5794 -0.8667 -0.3890
 6665SOL     OW22887   8.652   0.274   7.910  0.1078  0.1507  0.0211
 6665SOL    HW122888   8.677   0.184   7.931  1.4301  0.5991  0.5271
 6665SOL    HW222889   8.733   0.324   7.922 -0.3828  1.2748 -1.0941
 6666SOL     OW22890   1.035   9.248  10.448 -0.2791  0.1817 -0.2045
 6666SOL    HW122891   1.088   9.230  10.525  0.9970 -0.3173 -1.1504
 6666SOL    HW222892   0.957   9.195  10.459 -0.5381  0.8147  1.1531
 6667SOL     OW22893   0.834   2.036   8.571 -0.2882  0.6543 -0.6492
 6667SOL    HW122894   0.876   2.005   8.651  1.4883  0.2443 -1.6943
 6667SOL    HW222895   0.805   1.957   8.527 -0.8336  0.8511 -0.6502
 6668SOL     OW22896   9.698   9.725   7.349 -0.1274 -0.1142 -0.2584
 6668SOL    HW122897   9.722   9.748   7.259 -2.7933 -0.9034 -1.2689
 6668SOL    HW222898   9.618   9.775   7.365 -2.2088 -3.2379 -0.0370
 6669SOL     OW22899   4.743   0.535   3.313  0.1303 -0.4371 -0.2830
 6669SOL    HW122900   4.693   0.505   3.237 -1.3682  1.7646 -0.2464
 6669SOL    HW222901   4.762   0.627   3.294 -1.3549  0.5356  2.4863
 6670SOL     OW22902   5.377  10.205   8.069  0.4972  0.1781  0.0647
 6670SOL    HW122903   5.369  10.146   7.995  0.2494  0.0744  0.1732
 6670SOL    HW222904   5.290  10.243   8.079  0.6270  0.4759  0.0674
 6671SOL     OW22905   9.860   2.763   6.064  0.1647 -0.1265  0.5539
 6671SOL    HW122906   9.892   2.720   5.985  0.2366 -2.8205  1.9116
 6671SOL    HW222907   9.924   2.832   6.082  0.7115 -0.1647 -1.1329
 6672SOL     OW22908   6.774   6.837   1.916 -0.3918  0.3361  0.6526
 6672SOL    HW122909   6.783   6.781   1.993 -0.8147 -0.4894  0.1096
 6672SOL    HW222910   6.679   6.852   1.909 -0.2239  1.9460  1.3658
 6673SOL     OW22911   4.984   9.199   2.759 -0.2545 -0.0755  0.2202
 6673SOL    HW122912   4.948   9.208   2.847  2.2026 -1.4130  1.4836
 6673SOL    HW222913   5.008   9.287   2.733 -2.2544  0.5325  0.2390
 6674SOL     OW22914   1.544   9.182   5.521  0.6604 -0.7819  0.2569
 6674SOL    HW122915   1.544   9.106   5.463  1.6487  0.6798 -1.7516
 6674SOL    HW222916   1.632   9.184   5.558  0.6551 -0.5905  0.2614
 6675SOL     OW22917   2.023   4.211   0.859  0.3135  0.7132 -0.4343
 6675SOL    HW122918   2.085   4.266   0.908 -0.9594  0.1119  2.0079
 6675SOL    HW222919   1.943   4.213   0.911 -0.1397 -2.5677 -0.8032
 6676SOL     OW22920   7.614   5.834   3.363 -0.4621  0.3114 -0.1742
 6676SOL    HW122921   7.528   5.805   3.332  1.0818 -2.3008 -2.4291
 6676SOL    HW222922   7.661   5.859   3.283  1.9930 -1.7262  0.4914
 6677SOL     OW22923   9.286   2.195   3.045  1.0708  0.5521 -0.4087
 6677SOL    HW122924   9.337   2.275   3.034  0.8900  0.4268 -2.4450
 6677SOL    HW222925   9.287   2.153   2.959 -0.0449 -0.9231  0.2440
 6678SOL     OW22926   6.409   5.711   9.887  0.2858 -0.0408 -0.0133
 6678SOL    HW122927   6.397   5.793   9.838  0.0953  1.0366  1.7640
 6678SOL    HW222928   6.368   5.645   9.832 -0.4308  1.2087 -1.0602
 6679SOL     OW22929  10.624   9.775   2.343 -0.3870  0.1139 -0.2003
 6679SOL    HW122930  10.713   9.741   2.349 -0.4970 -0.3122 -0.8646
 6679SOL    HW222931  10.570   9.699   2.323 -0.4308  0.8276 -3.3913
 6680SOL     OW22932   5.070   9.553   0.142  0.3041 -0.0841 -0.4272
 6680SOL    HW122933   5.030   9.469   0.123  0.9802 -0.3958 -0.5022
 6680SOL    HW222934   5.094   9.549   0.234 -3.1948  1.5184  0.7382
 6681SOL     OW22935   2.173  10.261   2.141  0.2322 -0.2703 -0.2037
 6681SOL    HW122936   2.123  10.180   2.132 -1.1393  0.5345 -0.2194
 6681SOL    HW222937   2.235  10.243   2.211  1.2526 -1.9186 -1.4496
 6682SOL     OW22938  10.677   9.821   5.029 -0.1415  0.1890 -0.2038
 6682SOL    HW122939  10.744   9.847   4.965  1.2095  0.9850  1.4324
 6682SOL    HW222940  10.688   9.726   5.038  0.6219  0.2757 -0.1346
 6683SOL     OW22941   5.510   6.535   7.294  0.0439  0.4622 -0.4230
 6683SOL    HW122942   5.531   6.607   7.354  1.3497 -0.1246 -0.1443
 6683SOL    HW222943   5.568   6.549   7.219  2.2503 -1.6775  0.7419
 6684SOL     OW22944   4.763   0.289   1.115 -0.3349  0.1126  0.0479
 6684SOL    HW122945   4.699   0.277   1.045 -1.1374  0.3109  0.7251
 6684SOL    HW222946   4.718   0.342   1.180  0.1602 -0.6080  1.0111
 6685SOL     OW22947  10.344  10.653   0.855 -0.1870  0.7152  0.1005
 6685SOL    HW122948  10.260  10.670   0.814 -0.5458  0.4054  0.6958
 6685SOL    HW222949  10.350  10.558   0.860  0.4140  0.7185 -0.3663
 6686SOL     OW22950   5.179   2.506   5.544 -0.1419 -0.2472 -0.9229
 6686SOL    HW122951   5.091   2.478   5.519  0.4726 -2.0154 -1.2453
 6686SOL    HW222952   5.222   2.528   5.461 -0.3388  0.8512 -0.7449
 6687SOL     OW22953   4.855   5.680   8.666 -0.5316 -0.6186  0.2532
 6687SOL    HW122954   4.889   5.730   8.592 -0.3047  0.4967  1.0672
 6687SOL    HW222955   4.800   5.613   8.627  0.4133 -0.7181 -0.9647
 6688SOL     OW22956   0.378   1.752   5.499  0.0134 -0.3532 -0.1821
 6688SOL    HW122957   0.470   1.731   5.516  0.6896  0.8333 -2.0490
 6688SOL    HW222958   0.358   1.707   5.417 -0.6920  0.4237 -0.4470
 6689SOL     OW22959   0.711   3.909   5.674  0.0511  0.1454 -0.1065
 6689SOL    HW122960   0.773   3.946   5.611  0.8855  1.1048  1.2254
 6689SOL    HW222961   0.670   3.986   5.714  0.1922 -0.4214  1.1480
 6690SOL     OW22962   7.588   2.771   9.953  0.7330 -0.6247  0.0470
 6690SOL    HW122963   7.547   2.703   9.900  0.6095 -0.4099 -0.1393
 6690SOL    HW222964   7.611   2.728  10.035  0.0520 -0.7277  0.1882
 6691SOL     OW22965   0.340   2.952   9.780 -0.7176 -0.3247  0.3214
 6691SOL    HW122966   0.311   3.022   9.722  2.7320  0.5505 -0.6028
 6691SOL    HW222967   0.309   2.872   9.739 -2.6493  0.4852  0.0872
 6692SOL     OW22968   0.200   2.257  10.032 -0.2195 -0.0088 -0.2740
 6692SOL    HW122969   0.245   2.302  10.103 -0.7856  0.6785 -0.3417
 6692SOL    HW222970   0.216   2.312   9.955  0.8644 -1.0358 -0.8180
 6693SOL     OW22971   9.035   4.638   5.381  0.1790  0.4275 -0.4910
 6693SOL    HW122972   8.940   4.635   5.382  0.0552  2.4709 -0.5440
 6693SOL    HW222973   9.059   4.675   5.467  0.9075  0.1823 -0.5791
 6694SOL     OW22974   6.143  10.655   0.359  0.3517 -0.1851 -0.2710
 6694SOL    HW122975   6.149  10.619   0.447 -0.1550  1.3193  0.4143
 6694SOL    HW222976   6.052  10.641   0.334 -0.3540  2.1023  0.7299
 6695SOL     OW22977   6.146   1.571   2.956  0.2910  0.3046  0.4791
 6695SOL    HW122978   6.083   1.630   2.916 -0.5372 -0.4152  0.6905
 6695SOL    HW222979   6.231   1.613   2.941 -0.1007  0.6685 -0.9338
 6696SOL     OW22980   7.004   0.533   6.476 -0.0865 -0.2864  0.3650
 6696SOL    HW122981   7.084   0.574   6.444 -0.5115  0.2809 -0.0219
 6696SOL    HW222982   6.964   0.494   6.398 -2.2893  3.0617 -0.4548
 6697SOL     OW22983   5.590   4.506   8.309  0.0960 -0.4850  0.3158
 6697SOL    HW122984   5.609   4.463   8.225 -1.4029 -0.9247  0.1737
 6697SOL    HW222985   5.623   4.446   8.375  0.0041 -0.8101  0.0669
 6698SOL     OW22986   5.678   9.925   1.411 -0.5358  0.3071  0.2772
 6698SOL    HW122987   5.653   9.958   1.497 -0.4652  0.2522  0.3190
 6698SOL    HW222988   5.708   9.836   1.427 -2.3947 -0.4197 -0.0868
 6699SOL     OW22989   5.804   5.845   4.735 -0.1696  0.0381 -1.1795
 6699SOL    HW122990   5.856   5.820   4.812 -0.0052  0.1575 -1.2514
 6699SOL    HW222991   5.803   5.767   4.680 -0.7345 -0.2177 -0.8106
 6700SOL     OW22992   0.207   6.112   9.771 -0.2534 -0.2193  0.3332
 6700SOL    HW122993   0.298   6.126   9.743 -0.0672 -1.8447  0.0440
 6700SOL    HW222994   0.154   6.142   9.697  0.0667 -0.0489  0.1683
 6701SOL     OW22995   3.446   2.940   8.577 -0.4909 -0.5302 -0.6157
 6701SOL    HW122996   3.452   2.859   8.628 -2.1257  0.0496  0.5839
 6701SOL    HW222997   3.356   2.942   8.545 -0.7544  1.2131  0.1131
 6702SOL     OW22998   8.244  10.086   4.858  0.0415  0.0527 -0.2313
 6702SOL    HW122999   8.278  10.080   4.769  1.0713  1.7373  0.0075
 6702SOL    HW223000   8.161  10.132   4.849 -1.3664 -2.3744 -0.5943
 6703SOL     OW23001   2.359   5.115   7.642 -0.0862  0.4909  0.1385
 6703SOL    HW123002   2.332   5.053   7.710  0.4199 -0.7015 -0.6974
 6703SOL    HW223003   2.358   5.063   7.561  0.6755  1.5022 -0.5503
 6704SOL     OW23004   8.574   0.543  10.249  0.3570 -0.1204  0.5105
 6704SOL    HW123005   8.660   0.549  10.207  0.0567  3.0305  0.0906
 6704SOL    HW223006   8.593   0.546  10.343  0.7312  0.8594  0.4141
 6705SOL     OW23007   3.239   4.451   9.464  0.1617 -0.5046  0.8944
 6705SOL    HW123008   3.158   4.401   9.456 -0.1461  0.0057  0.7951
 6705SOL    HW223009   3.301   4.390   9.506  0.3131 -1.5477 -0.7341
 6706SOL     OW23010   4.008   0.928   1.389  0.6682  0.0172 -0.0889
 6706SOL    HW123011   3.949   0.882   1.449 -0.8899  3.2599  1.0965
 6706SOL    HW223012   3.976   0.904   1.302 -0.0964 -1.0630  0.4606
 6707SOL     OW23013   8.335   0.381   4.829 -0.1039 -0.4892 -0.0448
 6707SOL    HW123014   8.304   0.319   4.763 -1.3800 -0.5020  0.5309
 6707SOL    HW223015   8.424   0.403   4.802 -0.2471 -1.2568 -1.2063
 6708SOL     OW23016   2.574   0.536   5.346 -0.0417  0.0007 -0.0486
 6708SOL    HW123017   2.658   0.495   5.326 -0.2587 -0.9951  0.9583
 6708SOL    HW223018   2.585   0.572   5.434 -0.4387  0.5063 -0.2023
 6709SOL     OW23019   7.044   1.052   3.574 -0.2416  0.0252 -0.3679
 6709SOL    HW123020   6.952   1.042   3.600 -0.3305 -0.7512 -0.9324
 6709SOL    HW223021   7.078   0.963   3.573  0.2669  0.2208 -1.0338
 6710SOL     OW23022   8.350   6.824  10.268  0.2228  0.3410 -0.0441
 6710SOL    HW123023   8.260   6.793  10.257  0.0402  1.0318 -0.5749
 6710SOL    HW223024   8.346   6.918  10.248  0.6810  0.8376  1.9597
 6711SOL     OW23025   1.025  10.061   5.477 -0.1600  0.0479  0.4059
 6711SOL    HW123026   1.091  10.003   5.439  0.3624  1.1429 -0.4046
 6711SOL    HW223027   0.985  10.105   5.402  0.5835  1.9287  1.0448
 6712SOL     OW23028  10.330   3.775   9.683 -0.0523  0.6462 -0.0886
 6712SOL    HW123029  10.388   3.718   9.733 -0.0694  0.1147 -0.6573
 6712SOL    HW223030  10.243   3.735   9.691  0.1827 -0.3274 -1.7500
 6713SOL     OW23031   9.333   2.280   1.308  0.1616 -0.2569 -0.3085
 6713SOL    HW123032   9.287   2.225   1.245  0.1557  1.4398 -1.8803
 6713SOL    HW223033   9.266   2.340   1.342  0.6050  0.2992 -0.3828
 6714SOL     OW23034   3.586   3.504   7.631  0.3732  0.4848  0.5858
 6714SOL    HW123035   3.660   3.501   7.571  0.2438 -0.3527  0.4528
 6714SOL    HW223036   3.621   3.473   7.714  0.4178  1.1082  0.8046
 6715SOL     OW23037   8.611   3.448   8.115  0.1246 -0.1191  0.2036
 6715SOL    HW123038   8.661   3.463   8.035 -0.4456 -1.8098 -0.5184
 6715SOL    HW223039   8.520   3.458   8.089 -0.1087 -1.4605  0.4186
 6716SOL     OW23040   0.427   4.066  10.650 -0.4165 -0.1029 -0.6505
 6716SOL    HW123041   0.424   3.976  10.616 -1.8263  0.0896 -1.0896
 6716SOL    HW223042   0.351   4.073  10.707 -0.0809  0.6994 -0.2857
 6717SOL     OW23043   6.352   0.360   7.369  0.4244  0.2938 -0.0901
 6717SOL    HW123044   6.398   0.440   7.396  0.4001  0.1300  0.4353
 6717SOL    HW223045   6.262   0.373   7.397  0.3633  0.1867 -0.2352
 6718SOL     OW23046   1.007   0.522   5.000  0.0654 -0.2044  0.2378
 6718SOL    HW123047   1.011   0.427   5.009 -0.8268 -0.2811 -0.0851
 6718SOL    HW223048   1.064   0.542   4.926  0.3789 -0.4674  0.4052
 6719SOL     OW23049   8.683   1.037   8.774 -0.6305  0.2243 -0.0477
 6719SOL    HW123050   8.638   1.077   8.848 -0.9772 -1.1968  0.5463
 6719SOL    HW223051   8.739   1.106   8.740  0.8666  0.4796  2.6267
 6720SOL     OW23052   5.094   1.418   0.778  0.0843  1.0206  0.3339
 6720SOL    HW123053   5.044   1.363   0.718 -0.6997  1.7784  0.2733
 6720SOL    HW223054   5.050   1.406   0.863 -0.6998  2.2667  0.1292
 6721SOL     OW23055   7.462   9.969   8.562 -0.4397 -0.1600  0.6078
 6721SOL    HW123056   7.416   9.913   8.499 -0.2253  0.7549 -0.3914
 6721SOL    HW223057   7.549   9.930   8.570 -0.2729  0.0318 -0.1268
 6722SOL     OW23058   0.445   2.310   1.716 -0.4463  0.6027  0.1320
 6722SOL    HW123059   0.485   2.223   1.722  0.1109  0.9183  1.5507
 6722SOL    HW223060   0.367   2.298   1.663 -1.7621 -1.3070  2.3180
 6723SOL     OW23061  10.607   1.099   5.767  0.3665 -1.0801 -0.1448
 6723SOL    HW123062  10.689   1.131   5.727 -1.0959  0.7922 -1.8678
 6723SOL    HW223063  10.572   1.038   5.702 -0.6848 -0.1410 -0.4799
 6724SOL     OW23064   1.127   4.319   0.153 -0.3321  0.2584 -0.1734
 6724SOL    HW123065   1.049   4.294   0.104 -0.9791  0.2287  0.8508
 6724SOL    HW223066   1.111   4.410   0.180 -0.6322 -0.1712  1.1843
 6725SOL     OW23067   5.312   5.580   6.032  0.5001 -0.4712 -0.5374
 6725SOL    HW123068   5.231   5.593   5.982  0.3787  1.0928  0.0152
 6725SOL    HW223069   5.375   5.639   5.990  0.1470  1.5980  1.6612
 6726SOL     OW23070   1.647   0.070   7.527 -0.2010 -0.3710  0.2279
 6726SOL    HW123071   1.714   0.129   7.562 -0.6211  1.0393 -1.2528
 6726SOL    HW223072   1.571   0.085   7.583 -0.3378  0.5910 -0.2049
 6727SOL     OW23073   8.859   9.815   2.533  0.6217 -0.2699 -0.4382
 6727SOL    HW123074   8.912   9.743   2.498  0.9608  0.1973 -0.9077
 6727SOL    HW223075   8.875   9.813   2.627 -0.4489 -1.6680 -0.2402
 6728SOL     OW23076   7.605   1.368   6.368 -0.2610  0.3131 -0.0273
 6728SOL    HW123077   7.599   1.418   6.449 -1.3090  0.4800 -0.1921
 6728SOL    HW223078   7.674   1.304   6.384 -1.1835 -0.3643  1.4097
 6729SOL     OW23079   3.371   6.549   0.252  0.1750 -0.6161  0.4918
 6729SOL    HW123080   3.383   6.459   0.222  0.6103  0.1013 -1.6175
 6729SOL    HW223081   3.282   6.550   0.288 -0.7837 -1.3322 -1.7055
 6730SOL     OW23082   1.562   1.616   5.272 -0.6286  0.0644  0.4419
 6730SOL    HW123083   1.564   1.663   5.188 -1.9847  0.0019  0.3629
 6730SOL    HW223084   1.622   1.543   5.258 -0.8595  0.0306 -0.4980
 6731SOL     OW23085   5.351   9.191   6.325 -0.1203 -0.8637 -0.2001
 6731SOL    HW123086   5.388   9.175   6.412  1.4598 -0.9715 -0.8527
 6731SOL    HW223087   5.257   9.189   6.338  0.0860 -0.5211  1.5713
 6732SOL     OW23088   2.611   2.120   4.064 -0.1953  0.5163 -0.4221
 6732SOL    HW123089   2.525   2.105   4.025  0.0918  0.8510 -1.1898
 6732SOL    HW223090   2.664   2.156   3.993  1.3127 -1.9698 -0.6575
 6733SOL     OW23091   3.201   2.444   2.350  0.3128 -0.3533 -0.1053
 6733SOL    HW123092   3.113   2.434   2.315 -0.0592  1.4632  0.2091
 6733SOL    HW223093   3.224   2.535   2.333  2.4141 -0.9395 -0.7741
 6734SOL     OW23094   1.026   3.203   6.329  0.3393 -0.2595 -0.4669
 6734SOL    HW123095   0.985   3.168   6.407 -0.3131  1.4714  0.0109
 6734SOL    HW223096   0.954   3.233   6.274  0.8770  1.5115 -0.2579
 6735SOL     OW23097   7.831   2.294   0.093 -0.0224 -0.2034 -0.1690
 6735SOL    HW123098   7.859   2.258   0.009  0.6403  1.1418 -0.5465
 6735SOL    HW223099   7.809   2.217   0.145 -2.1277 -1.0146 -2.1012
 6736SOL     OW23100   6.448   0.821   7.211 -0.1787 -0.3078  0.3735
 6736SOL    HW123101   6.382   0.836   7.278 -0.9963 -0.5148 -0.3641
 6736SOL    HW223102   6.532   0.830   7.256 -0.7204 -0.9217  1.5208
 6737SOL     OW23103   0.532   6.534   7.333 -0.4116 -0.1257 -0.2622
 6737SOL    HW123104   0.512   6.584   7.254  0.0771 -2.8544 -2.2300
 6737SOL    HW223105   0.610   6.577   7.369 -0.0386  0.5716 -1.8208
 6738SOL     OW23106   4.415   5.439   1.393 -0.2458 -0.7414 -0.3686
 6738SOL    HW123107   4.323   5.422   1.377 -1.1229  3.8964 -1.5809
 6738SOL    HW223108   4.458   5.423   1.309 -0.9148  1.6449 -1.2548
 6739SOL     OW23109   0.541   4.744   9.020  0.1776 -0.1469 -0.4532
 6739SOL    HW123110   0.494   4.827   9.023  0.5834  0.0588  0.4661
 6739SOL    HW223111   0.490   4.689   8.960  0.6975  1.2437 -2.2824
 6740SOL     OW23112   3.389   3.904   5.293 -0.5347 -0.4715 -0.6579
 6740SOL    HW123113   3.407   3.998   5.290 -1.2834 -0.3573 -2.8213
 6740SOL    HW223114   3.320   3.891   5.229  0.1472 -2.6399 -1.0139
 6741SOL     OW23115   8.374   8.062   5.759  0.3480 -0.0598 -0.2170
 6741SOL    HW123116   8.436   8.126   5.794  0.8455 -0.7357  0.1578
 6741SOL    HW223117   8.355   8.092   5.671  1.0124  0.3019 -0.2408
 6742SOL     OW23118   0.410   8.375   8.577 -0.0454  0.7479  0.0964
 6742SOL    HW123119   0.353   8.449   8.596 -1.1041 -0.0341  0.0608
 6742SOL    HW223120   0.419   8.375   8.482 -1.2688 -0.0308 -0.0374
 6743SOL     OW23121   6.111   5.374   4.807  0.5399  0.8240  0.3219
 6743SOL    HW123122   6.048   5.307   4.832  1.1767  0.5702  1.3138
 6743SOL    HW223123   6.107   5.439   4.877  1.0756  1.0184  0.1804
 6744SOL     OW23124   8.257   8.046   8.156 -0.4829  0.8970  0.0318
 6744SOL    HW123125   8.302   7.964   8.137 -3.2211 -0.7092  0.0633
 6744SOL    HW223126   8.321   8.114   8.134  1.6616 -1.1924 -0.5623
 6745SOL     OW23127   0.256  10.249   0.855  0.4323  0.1059 -0.3862
 6745SOL    HW123128   0.228  10.216   0.770  0.0113  0.0973 -0.2444
 6745SOL    HW223129   0.205  10.200   0.919 -0.9533  1.7086 -0.1959
 6746SOL     OW23130   3.127   4.877  10.573 -0.2131 -0.4892 -0.4174
 6746SOL    HW123131   3.165   4.870  10.486  1.5536 -1.1871  0.3499
 6746SOL    HW223132   3.142   4.790  10.612  0.4191  0.2632  1.0949
 6747SOL     OW23133   4.158  10.565   3.350  0.3452  0.3340 -0.0536
 6747SOL    HW123134   4.147  10.478   3.311  1.4735  0.1814 -0.0868
 6747SOL    HW223135   4.072  10.588   3.383  0.0359 -0.8285 -0.0045
 6748SOL     OW23136   7.025   7.463   7.741 -0.5969 -0.2332  0.1530
 6748SOL    HW123137   6.989   7.488   7.826  0.1328  1.3615  0.0321
 6748SOL    HW223138   7.088   7.394   7.761 -3.0855 -2.6146  0.4397
 6749SOL     OW23139   2.729   1.529   1.834 -0.0430  0.0504 -0.4665
 6749SOL    HW123140   2.787   1.605   1.837 -0.7907  0.6184  1.1222
 6749SOL    HW223141   2.757   1.480   1.757 -0.0753  2.3685 -2.0901
 6750SOL     OW23142   4.293   7.197   7.650 -0.3645 -0.5200  0.0491
 6750SOL    HW123143   4.331   7.123   7.698 -0.5374 -0.5791  0.0924
 6750SOL    HW223144   4.260   7.256   7.718  0.9685  0.2482  0.0806
 6751SOL     OW23145   1.231   1.379   2.083 -0.2179  0.0495  0.1530
 6751SOL    HW123146   1.209   1.471   2.099  0.9261  0.5912 -1.2332
 6751SOL    HW223147   1.183   1.356   2.003  0.2972 -0.2605 -0.0680
 6752SOL     OW23148   9.441  10.523   0.124  0.3805  0.1506  0.0482
 6752SOL    HW123149   9.499  10.464   0.171 -0.5264 -1.9416 -1.2837
 6752SOL    HW223150   9.386  10.562   0.192  1.0527 -0.4893  0.9806
 6753SOL     OW23151   3.776   1.936  10.508 -0.4357  0.1868 -0.4490
 6753SOL    HW123152   3.686   1.927  10.474  0.1383  0.4444 -2.1412
 6753SOL    HW223153   3.804   1.846  10.526 -0.5038 -0.0317 -1.4010
 6754SOL     OW23154   0.348   3.896   4.038  0.4727  0.2882 -0.2864
 6754SOL    HW123155   0.421   3.841   4.009  1.3342 -0.0331  2.2247
 6754SOL    HW223156   0.388   3.981   4.058 -0.1368  0.5934 -0.3168
 6755SOL     OW23157   9.384   5.339   4.650  0.2101 -0.0615  0.3090
 6755SOL    HW123158   9.339   5.254   4.651  1.1028 -0.5599 -0.2417
 6755SOL    HW223159   9.394   5.361   4.743 -3.1138  1.1784  0.4934
 6756SOL     OW23160   1.318   0.173   7.103 -0.0234  0.8937  0.2168
 6756SOL    HW123161   1.247   0.109   7.094  0.6767  0.1318  0.0206
 6756SOL    HW223162   1.282   0.241   7.161 -0.6847  0.1812  0.6582
 6757SOL     OW23163   6.789  10.368   6.381 -0.5549  0.0653 -0.5459
 6757SOL    HW123164   6.849  10.419   6.434 -1.5112 -1.8878  2.7072
 6757SOL    HW223165   6.751  10.431   6.320  0.2472  2.6265  1.4236
 6758SOL     OW23166  10.684   9.162   1.291  0.1021 -0.5124 -0.3741
 6758SOL    HW123167  10.598   9.202   1.280 -0.1433  0.5156  3.6139
 6758SOL    HW223168  10.744   9.237   1.296  1.0880 -1.1617 -1.7135
 6759SOL     OW23169   4.022   3.507  10.694  0.2036  0.5790 -0.0396
 6759SOL    HW123170   4.058   3.458  10.768 -1.9374 -1.7164 -0.3760
 6759SOL    HW223171   3.971   3.577  10.734  1.9897  1.6579  0.4899
 6760SOL     OW23172   0.379   9.339   3.370  0.2652 -0.7299  0.2105
 6760SOL    HW123173   0.310   9.404   3.360  0.7800  0.1052  1.6864
 6760SOL    HW223174   0.337   9.255   3.350 -0.3131  0.0338 -2.1730
 6761SOL     OW23175  10.400   8.095   5.858 -0.1539 -0.0092 -0.7313
 6761SOL    HW123176  10.476   8.151   5.873  1.4530 -1.8318 -1.5159
 6761SOL    HW223177  10.390   8.093   5.763 -0.3593 -0.7590 -0.7057
 6762SOL     OW23178   8.139   4.401   6.307 -0.0591 -0.0175 -0.1375
 6762SOL    HW123179   8.226   4.365   6.291 -0.7623 -1.6916 -0.4099
 6762SOL    HW223180   8.147   4.494   6.286  1.5473 -0.2134 -0.5336
 6763SOL     OW23181   5.901   8.286   8.465  0.3706 -0.0380  0.9366
 6763SOL    HW123182   5.985   8.297   8.419  0.2885 -1.2751  0.4703
 6763SOL    HW223183   5.920   8.223   8.534 -0.1721 -0.3119  0.8387
 6764SOL     OW23184  10.016   6.945   6.933 -0.3808  0.1638 -0.2501
 6764SOL    HW123185   9.996   7.011   6.867 -0.0030  0.3041 -0.2272
 6764SOL    HW223186  10.011   6.993   7.016  0.3515  0.2719 -0.2674
 6765SOL     OW23187   2.979   0.109   5.696 -0.2077  0.3043  0.0353
 6765SOL    HW123188   3.005   0.098   5.788  0.8814 -0.9962 -0.3934
 6765SOL    HW223189   2.889   0.142   5.700 -1.1629 -2.1912  1.6027
 6766SOL     OW23190   9.297  10.607   0.360 -0.3585 -0.2855  0.1546
 6766SOL    HW123191   9.213  10.649   0.342 -0.3502  0.1125  0.9955
 6766SOL    HW223192   9.333  10.656   0.433  2.0443  1.5777 -2.0951
 6767SOL     OW23193  10.392   8.680   6.756  0.6034 -0.4064  0.1148
 6767SOL    HW123194  10.314   8.625   6.768 -1.5614  2.1870 -0.9668
 6767SOL    HW223195  10.403   8.686   6.661  0.5916  1.1760  0.1864
 6768SOL     OW23196   7.384   0.653   0.418  0.1118  0.2063 -0.0974
 6768SOL    HW123197   7.331   0.626   0.343 -0.2754  0.6711  0.0053
 6768SOL    HW223198   7.339   0.615   0.493 -0.1160  0.6614 -0.0035
 6769SOL     OW23199  10.029   3.697   5.083  0.4487 -0.1981 -0.1201
 6769SOL    HW123200  10.091   3.715   5.013  0.1935 -2.8196 -1.1469
 6769SOL    HW223201  10.077   3.640   5.144  0.8011  2.3330  2.1510
 6770SOL     OW23202   5.241   3.568   4.521  0.6773  0.4500 -0.2174
 6770SOL    HW123203   5.307   3.558   4.452  0.5777  1.6867 -0.5157
 6770SOL    HW223204   5.158   3.546   4.477  0.6207  1.1818 -0.4866
 6771SOL     OW23205   9.739   6.592   9.513 -0.2154 -0.2179 -0.0024
 6771SOL    HW123206   9.808   6.649   9.479  1.3844 -1.2762  1.3000
 6771SOL    HW223207   9.730   6.616   9.605 -0.9589 -0.6915  0.0586
 6772SOL     OW23208   7.720   3.572   4.126  0.1765  0.4277  0.5944
 6772SOL    HW123209   7.688   3.495   4.078  0.2136  0.7764 -0.0087
 6772SOL    HW223210   7.772   3.536   4.198 -0.4053 -0.1214  0.7458
 6773SOL     OW23211   2.044   7.159   2.213 -0.0227  0.1970  0.1373
 6773SOL    HW123212   2.025   7.081   2.265 -0.2834  0.4425  0.4173
 6773SOL    HW223213   1.979   7.158   2.143 -0.6174  0.6394  0.6652
 6774SOL     OW23214   5.388   0.898   4.242 -0.0036 -0.0625  0.2869
 6774SOL    HW123215   5.434   0.941   4.170 -0.9739 -0.6332 -0.7143
 6774SOL    HW223216   5.378   0.966   4.308 -0.4114  0.9127 -0.7433
 6775SOL     OW23217   8.316   2.773   0.676  0.4435  0.1545 -0.1348
 6775SOL    HW123218   8.398   2.817   0.698 -0.4985  0.7615  2.7245
 6775SOL    HW223219   8.249   2.829   0.716 -1.0345 -2.3928  1.1757
 6776SOL     OW23220   8.330   3.137   7.544 -0.1746  0.5154 -0.4041
 6776SOL    HW123221   8.416   3.098   7.561 -0.3352  0.4334  0.2509
 6776SOL    HW223222   8.310   3.112   7.454  1.1423  1.7884 -1.0999
 6777SOL     OW23223   2.799   6.347   2.448  0.2628  0.0535  0.3390
 6777SOL    HW123224   2.745   6.326   2.372 -0.5211  0.0694  0.8791
 6777SOL    HW223225   2.737   6.378   2.514  0.9652  0.3539  0.8802
 6778SOL     OW23226   2.777   3.708   8.418  0.0984  0.8082 -0.2463
 6778SOL    HW123227   2.803   3.765   8.491 -3.1157  1.1564  0.7684
 6778SOL    HW223228   2.818   3.624   8.437  0.2867  1.2353  1.3417
 6779SOL     OW23229   5.660   7.195   1.963 -0.0089 -0.1006 -0.1376
 6779SOL    HW123230   5.647   7.150   2.046 -2.7552  0.7778  0.0122
 6779SOL    HW223231   5.725   7.262   1.982  0.2476 -0.6423  0.9803
 6780SOL     OW23232   6.009   5.646   2.679  0.0457 -0.2302  0.2197
 6780SOL    HW123233   5.942   5.687   2.733 -1.3708 -1.3229 -0.6604
 6780SOL    HW223234   6.026   5.710   2.609 -0.2073 -0.0347  0.3363
 6781SOL     OW23235   9.800   2.413   8.544  0.1261 -0.3962 -0.1464
 6781SOL    HW123236   9.709   2.440   8.539  0.3105  0.1481 -0.7007
 6781SOL    HW223237   9.843   2.479   8.598  0.2041 -0.6283  0.0799
 6782SOL     OW23238   2.473   3.611   0.493 -0.4610 -0.0166  0.1557
 6782SOL    HW123239   2.471   3.681   0.428 -0.4056  1.6712  1.8737
 6782SOL    HW223240   2.383   3.582   0.500 -1.2710  2.5411  2.0380
 6783SOL     OW23241   4.305  10.701   8.227  0.0195  0.4267  0.2480
 6783SOL    HW123242   4.317  10.662   8.141  0.7853  1.3474 -0.0834
 6783SOL    HW223243   4.252  10.637   8.275  2.5445 -1.8346  0.2796
 6784SOL     OW23244   1.756   8.460   3.279  0.5113 -0.2178  0.0498
 6784SOL    HW123245   1.671   8.418   3.293  0.3605  0.2620  0.6194
 6784SOL    HW223246   1.805   8.399   3.225 -0.4492 -0.2047 -0.8718
 6785SOL     OW23247   4.251   6.842   5.237  0.2609  0.6490 -0.1811
 6785SOL    HW123248   4.239   6.749   5.217  1.6835  0.2169  0.7960
 6785SOL    HW223249   4.164   6.880   5.226 -0.6785 -1.0693  0.7098
 6786SOL     OW23250   3.830   7.695   4.014  0.7552 -1.1767 -0.1046
 6786SOL    HW123251   3.862   7.615   3.972  1.3213 -1.5022  0.9004
 6786SOL    HW223252   3.735   7.694   3.999  0.8180 -1.7794 -0.5163
 6787SOL     OW23253   8.691   7.003   5.276  0.5677 -0.4735 -1.0186
 6787SOL    HW123254   8.765   7.012   5.216  0.6862 -1.5742 -1.0443
 6787SOL    HW223255   8.669   7.094   5.299  0.3118  0.0112 -2.9533
 6788SOL     OW23256  10.753  10.029   8.110 -0.8379  0.2178  0.3136
 6788SOL    HW123257  10.803   9.968   8.056 -3.4244  0.1673 -2.3080
 6788SOL    HW223258  10.673   9.980   8.132 -0.8317  1.0434  2.3680
 6789SOL     OW23259   5.862   6.052   8.006  0.4659  0.1875  0.1002
 6789SOL    HW123260   5.914   5.975   7.984 -0.7853 -1.4787  2.6405
 6789SOL    HW223261   5.918   6.102   8.067  1.1158  1.1784 -1.2414
 6790SOL     OW23262   5.799   7.999   2.323 -0.0512 -0.0697  0.7038
 6790SOL    HW123263   5.781   8.062   2.253  1.5644  0.0722  0.3830
 6790SOL    HW223264   5.887   7.966   2.304  0.2296 -0.3890  2.3934
 6791SOL     OW23265   1.347   3.951   0.944  0.8623 -0.4624  0.0187
 6791SOL    HW123266   1.435   3.941   0.981  0.6068  1.0867  1.1624
 6791SOL    HW223267   1.353   4.029   0.888  0.1455 -0.0946  0.4346
 6792SOL     OW23268   7.946   8.327   1.674  0.0806  0.1785 -0.0603
 6792SOL    HW123269   7.914   8.372   1.596  0.4249 -0.3166 -0.4940
 6792SOL    HW223270   8.030   8.290   1.648 -0.1750 -0.6881  0.2877
 6793SOL     OW23271   9.851   0.296   8.937  0.3572  0.1123  0.5911
 6793SOL    HW123272   9.898   0.327   8.860 -1.1433 -1.0507 -0.8872
 6793SOL    HW223273   9.800   0.221   8.905 -2.7570  1.4656  1.8825
 6794SOL     OW23274   8.121   0.847   6.893  0.3292  0.3951  0.3712
 6794SOL    HW123275   8.161   0.766   6.925  0.3592  0.0667 -0.4822
 6794SOL    HW223276   8.049   0.863   6.954  0.3053 -0.2847  0.5346
 6795SOL     OW23277   4.693   8.292   9.165  0.2089  0.3573 -0.6694
 6795SOL    HW123278   4.685   8.220   9.102  0.0488 -0.3689  0.1594
 6795SOL    HW223279   4.759   8.261   9.227 -0.3172  0.6632  0.0441
 6796SOL     OW23280   7.399   7.340  10.359 -0.1194  0.3000  0.3545
 6796SOL    HW123281   7.337   7.412  10.370  0.4018  0.9427 -0.6556
 6796SOL    HW223282   7.409   7.333  10.264  1.6629  0.4967  0.5062
 6797SOL     OW23283   9.789   0.169  10.692  0.4698 -0.3870  0.3686
 6797SOL    HW123284   9.753   0.138  10.775 -0.0465  0.0128  0.3026
 6797SOL    HW223285   9.712   0.182  10.636  0.8214 -0.7898 -0.2246
 6798SOL     OW23286   0.159   7.945   5.442 -0.0973 -0.0583  0.2504
 6798SOL    HW123287   0.092   7.884   5.474 -2.2852  1.1192 -1.7231
 6798SOL    HW223288   0.200   7.899   5.369  1.1592 -0.6880  1.3153
 6799SOL     OW23289   7.441   5.900   7.889  0.5894 -0.3291 -0.2395
 6799SOL    HW123290   7.401   5.972   7.938  1.7726  0.5765 -0.5526
 6799SOL    HW223291   7.368   5.858   7.844  0.0659  2.0492 -1.8320
 6800SOL     OW23292   5.395  10.416   9.333 -0.2263  0.3561  0.5882
 6800SOL    HW123293   5.453  10.340   9.326 -0.5853  0.0814  0.5864
 6800SOL    HW223294   5.455  10.491   9.337  0.1363  0.2951 -1.7398
 6801SOL     OW23295  10.335   2.432   1.840 -0.1614 -0.4071  0.2682
 6801SOL    HW123296  10.374   2.464   1.922 -0.4680 -2.6575  1.3801
 6801SOL    HW223297  10.252   2.480   1.833 -0.1253 -0.1719  1.2699
 6802SOL     OW23298   1.706   0.909   4.268  0.6441  0.6213 -0.2714
 6802SOL    HW123299   1.735   0.819   4.250  2.9446  1.3472 -0.5599
 6802SOL    HW223300   1.707   0.951   4.182 -1.2983  0.7444 -0.2776
 6803SOL     OW23301   6.873   3.946   4.094  0.0083 -0.2944 -0.1023
 6803SOL    HW123302   6.921   3.987   4.166  0.1938  0.5343 -0.6959
 6803SOL    HW223303   6.882   3.852   4.111  0.0662 -0.1179  0.9448
 6804SOL     OW23304   2.245   4.924   9.409 -0.3643 -0.1345 -0.3903
 6804SOL    HW123305   2.222   4.874   9.487 -0.0554  0.0888 -0.1523
 6804SOL    HW223306   2.330   4.963   9.430  0.0697 -0.6697 -1.1105
 6805SOL     OW23307   9.728   7.517  10.671  0.3225  0.2375 -0.5739
 6805SOL    HW123308   9.696   7.446  10.727 -1.6291  0.1843 -1.6887
 6805SOL    HW223309   9.732   7.593  10.730 -0.2150 -0.1655 -0.0047
 6806SOL     OW23310   5.803   0.028   0.614 -0.2539  0.0042 -0.9332
 6806SOL    HW123311   5.796   0.042   0.708  0.1758 -2.0507 -0.5621
 6806SOL    HW223312   5.875   0.085   0.587  1.2808 -1.1893  0.4361
 6807SOL     OW23313   0.748   6.312   5.847 -0.8588 -0.6249 -0.4801
 6807SOL    HW123314   0.795   6.382   5.893 -1.6926 -0.9465  0.9126
 6807SOL    HW223315   0.816   6.246   5.829 -0.6581 -0.9068  1.1488
 6808SOL     OW23316   5.050   1.542   9.805 -0.0999  0.4280  0.4425
 6808SOL    HW123317   5.050   1.595   9.885 -1.7433  0.7729  0.2372
 6808SOL    HW223318   4.977   1.576   9.754  0.4460 -0.3159 -0.8718
 6809SOL     OW23319   5.880  10.557   4.978  0.0088 -0.5709  0.5682
 6809SOL    HW123320   5.850  10.544   4.888  1.0536  0.1363  0.1069
 6809SOL    HW223321   5.823  10.500   5.030 -1.6932  0.2056 -0.3435
 6810SOL     OW23322   9.883   6.091   4.129 -0.3463 -0.1386 -0.0403
 6810SOL    HW123323   9.848   6.057   4.212 -2.6896  0.5426 -0.6805
 6810SOL    HW223324   9.932   6.017   4.092 -0.4280 -0.8916  1.2862
 6811SOL     OW23325   6.120   9.970   4.703  0.3650 -0.3856  0.2686
 6811SOL    HW123326   6.114   9.883   4.663  0.1778 -1.1947  2.0005
 6811SOL    HW223327   6.176   9.958   4.779 -0.0144  0.9255  0.7743
 6812SOL     OW23328   2.822   0.203   5.068  0.6669  0.8012 -0.1081
 6812SOL    HW123329   2.879   0.223   4.994  0.0390  2.3618 -0.2015
 6812SOL    HW223330   2.827   0.108   5.077  3.1149  0.8595 -0.2304
 6813SOL     OW23331   2.464   4.247   5.278 -0.3822 -0.3991 -0.2909
 6813SOL    HW123332   2.444   4.233   5.370  0.3669 -0.5094 -0.1393
 6813SOL    HW223333   2.458   4.342   5.267  0.2768 -0.3155  0.0536
 6814SOL     OW23334   2.055  10.081   3.180 -0.0730 -0.6980 -0.2252
 6814SOL    HW123335   2.020  10.018   3.117  1.8624 -2.3445  0.2576
 6814SOL    HW223336   2.117  10.031   3.233  1.2232  1.5153  0.4930
 6815SOL     OW23337   2.550   3.945   5.787  0.0377 -0.2780  0.5763
 6815SOL    HW123338   2.518   3.864   5.748  0.4860 -0.8511  1.3583
 6815SOL    HW223339   2.636   3.923   5.822  0.0914  0.4902  0.9617
 6816SOL     OW23340   5.269   2.905   4.861  0.6149  0.2818  0.6354
 6816SOL    HW123341   5.219   2.825   4.872  1.9018 -0.6263  0.1906
 6816SOL    HW223342   5.342   2.897   4.924  0.1579  1.6393  1.3951
 6817SOL     OW23343   4.222   7.975   9.943 -0.1416 -0.2802  0.4128
 6817SOL    HW123344   4.161   8.044   9.970  0.2026 -0.0156  0.5205
 6817SOL    HW223345   4.176   7.929   9.873 -1.2656 -1.3030  1.7718
 6818SOL     OW23346   2.992   6.920   4.854 -0.6280 -0.9328  0.1805
 6818SOL    HW123347   2.995   6.876   4.769  0.4449 -0.2377 -0.1578
 6818SOL    HW223348   2.976   6.850   4.917  0.7370 -1.7890 -0.3737
 6819SOL     OW23349   7.179   3.224   7.125 -0.0237 -0.1179 -0.1320
 6819SOL    HW123350   7.244   3.272   7.176  1.6838  0.2119 -2.4471
 6819SOL    HW223351   7.203   3.132   7.138 -1.7654 -0.3195  2.3189
 6820SOL     OW23352   6.887   0.728  10.530  0.6494  0.9018  0.4521
 6820SOL    HW123353   6.819   0.762  10.472 -0.6336 -0.5699  1.0068
 6820SOL    HW223354   6.930   0.660  10.478  0.1629  0.2716  0.8544
 6821SOL     OW23355   5.331   2.027  10.615  0.2337 -0.0495 -0.0345
 6821SOL    HW123356   5.424   2.050  10.611  0.2717  0.1821  1.4348
 6821SOL    HW223357   5.329   1.939  10.653 -0.1395 -0.1362 -0.2460
 6822SOL     OW23358  10.418   8.770   1.810  0.1475  0.3342  0.5041
 6822SOL    HW123359  10.467   8.691   1.786 -0.5468  0.3679 -1.1816
 6822SOL    HW223360  10.454   8.838   1.752 -0.4871  0.8336  0.6885
 6823SOL     OW23361   2.789   5.756   1.381 -0.4646 -0.0609 -0.1773
 6823SOL    HW123362   2.737   5.763   1.461 -0.7672 -1.0341 -0.2741
 6823SOL    HW223363   2.812   5.847   1.359 -0.6418  0.2439  0.8310
 6824SOL     OW23364  10.697   2.539   9.998 -0.1880  0.5995  0.1527
 6824SOL    HW123365  10.731   2.561  10.085 -2.3683 -0.6172  1.4001
 6824SOL    HW223366  10.772   2.501   9.952  0.3901 -1.3677  2.5221
 6825SOL     OW23367   0.981   2.602   0.768  0.3491  0.3774  0.5128
 6825SOL    HW123368   0.961   2.544   0.842  1.2814  2.2037  2.2991
 6825SOL    HW223369   0.896   2.628   0.734 -0.0875 -1.0835  0.4405
 6826SOL     OW23370   6.489   3.415   5.111 -0.0075 -0.3405  1.2837
 6826SOL    HW123371   6.472   3.425   5.017 -1.3611  0.2343  1.5611
 6826SOL    HW223372   6.423   3.353   5.141  0.7871 -0.9688  1.7590
 6827SOL     OW23373   6.081   8.891   2.260 -0.3803  0.6239  0.4903
 6827SOL    HW123374   6.047   8.818   2.312 -1.0288  0.7477  0.2507
 6827SOL    HW223375   6.079   8.860   2.170  2.5090 -0.2890  0.6404
 6828SOL     OW23376   2.067   8.687   1.250  0.2249 -0.6754  0.1848
 6828SOL    HW123377   2.043   8.625   1.181 -1.4286  0.9604 -0.8210
 6828SOL    HW223378   2.146   8.730   1.217 -1.0659  0.7426 -1.2153
 6829SOL     OW23379   9.072   7.935   7.704 -0.5538  0.1643  0.0229
 6829SOL    HW123380   9.038   7.935   7.794 -1.3059  2.4462 -0.2151
 6829SOL    HW223381   9.036   7.854   7.666 -0.7904 -0.4921  1.5413
 6830SOL     OW23382  10.416   0.475   3.867  0.0278 -0.2166 -0.2081
 6830SOL    HW123383  10.324   0.488   3.892 -0.3432 -0.8957 -1.1573
 6830SOL    HW223384  10.457   0.560   3.881 -0.4660 -0.2084  1.3732
 6831SOL     OW23385   8.043   1.226   7.570 -0.2645 -0.2333 -0.2302
 6831SOL    HW123386   7.962   1.225   7.519  0.2168 -0.8710 -0.9995
 6831SOL    HW223387   8.014   1.243   7.660 -1.0323  2.0997 -0.8285
 6832SOL     OW23388   0.237   1.344   8.879 -0.1062 -0.1599  0.3194
 6832SOL    HW123389   0.304   1.278   8.860 -1.6895 -1.7371 -0.0613
 6832SOL    HW223390   0.209   1.375   8.793  0.9341  1.4255  0.4972
 6833SOL     OW23391   3.660   9.682   4.620 -0.3603  0.2278 -0.2668
 6833SOL    HW123392   3.581   9.736   4.625  0.4616  1.5069 -0.4473
 6833SOL    HW223393   3.631   9.594   4.642 -1.5009  1.0049  1.6179
 6834SOL     OW23394   4.146   3.723   0.302 -0.4466 -0.4308  0.7040
 6834SOL    HW123395   4.172   3.639   0.263 -0.2555 -0.5438  1.0660
 6834SOL    HW223396   4.119   3.701   0.391  1.0390  0.0799  1.3096
 6835SOL     OW23397   2.400  10.478   5.326  0.3538  0.4954 -0.4376
 6835SOL    HW123398   2.318  10.464   5.373  0.8737 -0.6419  0.1862
 6835SOL    HW223399   2.374  10.500   5.237 -0.6354  0.2979 -0.2007
 6836SOL     OW23400   2.685   8.593   1.313  0.5211  0.2961  0.0646
 6836SOL    HW123401   2.613   8.531   1.302 -1.2365  2.2841 -0.1749
 6836SOL    HW223402   2.716   8.578   1.403 -2.5229  1.6692  1.4662
 6837SOL     OW23403   3.665   7.756   8.218  0.1823 -0.0237  0.4750
 6837SOL    HW123404   3.585   7.732   8.173  1.4949  0.9411 -2.6302
 6837SOL    HW223405   3.721   7.678   8.212  0.0487 -0.2048  1.3481
 6838SOL     OW23406   4.300   9.008   9.305 -0.8467  0.3655  0.1220
 6838SOL    HW123407   4.223   9.055   9.273 -0.4865 -0.1681 -1.6348
 6838SOL    HW223408   4.372   9.070   9.292 -0.5807 -0.1361 -0.8884
 6839SOL     OW23409   3.713   9.219   9.536 -0.0346 -0.1972 -0.5873
 6839SOL    HW123410   3.683   9.163   9.464 -0.0232 -2.1029  0.8070
 6839SOL    HW223411   3.662   9.299   9.527 -1.7357 -1.3060 -1.3868
 6840SOL     OW23412   1.683   4.810   2.346  0.1159  0.3288  0.2872
 6840SOL    HW123413   1.720   4.878   2.402 -0.0295 -0.4759  1.3870
 6840SOL    HW223414   1.724   4.728   2.376  0.4094 -0.0704 -1.1145
 6841SOL     OW23415   5.743   9.376   7.799 -0.1577  0.1903 -0.2219
 6841SOL    HW123416   5.732   9.284   7.776 -0.8346  0.4813 -1.1179
 6841SOL    HW223417   5.722   9.380   7.892  0.3891 -0.6396 -0.0531
 6842SOL     OW23418   8.248   2.007   1.962 -0.0658 -0.7142 -0.1250
 6842SOL    HW123419   8.312   2.049   2.020 -0.7498  1.3338 -0.7780
 6842SOL    HW223420   8.287   1.922   1.940  0.8924 -0.9142  2.0982
 6843SOL     OW23421   6.820   5.327   2.160  0.4739 -0.4011 -0.1753
 6843SOL    HW123422   6.742   5.276   2.141  0.3059 -0.4382  0.5814
 6843SOL    HW223423   6.822   5.394   2.092 -1.1761  0.6715  0.7675
 6844SOL     OW23424   7.831   5.929   6.469  0.1601 -0.6478 -0.0748
 6844SOL    HW123425   7.866   5.962   6.552 -1.3545  0.3562  0.1890
 6844SOL    HW223426   7.828   5.834   6.480  1.9488 -0.7192  0.1950
 6845SOL     OW23427   9.914   8.936   7.840 -0.1532 -0.0997  0.6261
 6845SOL    HW123428   9.935   8.842   7.840  1.1328  0.1657  0.1624
 6845SOL    HW223429   9.970   8.973   7.771 -1.6171  0.8063 -0.1328
 6846SOL     OW23430   0.823   5.202   8.557 -0.4854 -0.7779 -0.1452
 6846SOL    HW123431   0.893   5.137   8.560  2.9795  2.6130 -0.0720
 6846SOL    HW223432   0.805   5.214   8.464  0.7337 -0.0949 -0.3149
 6847SOL     OW23433   2.020   4.407   9.405 -0.0003  0.1161 -0.0091
 6847SOL    HW123434   2.057   4.441   9.324 -1.8804  1.0824 -0.5085
 6847SOL    HW223435   2.029   4.478   9.468 -0.4873  0.1548  0.0191
 6848SOL     OW23436   2.138   5.085   5.058  0.2035 -0.2414  0.5647
 6848SOL    HW123437   2.105   5.083   4.968  0.7438  0.1260  0.3503
 6848SOL    HW223438   2.106   5.004   5.097  0.0242 -0.4408  0.0168
 6849SOL     OW23439   6.269  10.727   5.474 -0.3952 -0.2092  0.1225
 6849SOL    HW123440   6.345  10.670   5.489 -0.5523 -0.7751 -1.1051
 6849SOL    HW223441   6.265  10.737   5.378 -0.8232  1.2701  0.2662
 6850SOL     OW23442   9.511   9.365   3.812  0.1946  0.3516 -0.1026
 6850SOL    HW123443   9.555   9.339   3.892  1.4357 -0.1828 -0.9203
 6850SOL    HW223444   9.480   9.284   3.773 -0.0501  0.5604 -0.3501
 6851SOL     OW23445   7.796   4.421   7.890  0.3133  0.2280 -0.9855
 6851SOL    HW123446   7.722   4.360   7.878 -0.8000  1.2886  0.2320
 6851SOL    HW223447   7.855   4.400   7.818  0.1316 -2.5061 -0.4681
 6852SOL     OW23448   8.953   3.644   7.477 -0.0406  0.1551  0.3733
 6852SOL    HW123449   9.021   3.590   7.518 -0.5603 -0.4198  0.4964
 6852SOL    HW223450   8.883   3.582   7.456 -1.2566  0.9785  1.7921
 6853SOL     OW23451   9.393   2.624   2.759 -0.1385 -0.1949 -0.4555
 6853SOL    HW123452   9.337   2.692   2.723 -0.2762  0.5092  1.0073
 6853SOL    HW223453   9.467   2.619   2.698  0.0372  1.4958 -0.4313
 6854SOL     OW23454   5.105   4.111   3.175  0.3716  0.4736 -0.9115
 6854SOL    HW123455   5.134   4.152   3.093 -0.9136  1.9781 -0.6601
 6854SOL    HW223456   5.185   4.070   3.211  0.9149 -0.3932 -2.9693
 6855SOL     OW23457   1.459   7.349   4.934  0.0796 -0.3553 -0.0705
 6855SOL    HW123458   1.554   7.338   4.930  0.1403 -0.2863  0.9933
 6855SOL    HW223459   1.426   7.288   4.867  0.9199  0.7290 -1.5268
 6856SOL     OW23460   0.755   9.992   8.005 -0.4003 -0.1245 -0.3474
 6856SOL    HW123461   0.718  10.081   8.006  1.5882  0.7467 -0.3353
 6856SOL    HW223462   0.735   9.956   8.091  1.0810  1.3512  0.6688
 6857SOL     OW23463   0.613   1.984  10.068  0.5440  0.1018  0.0787
 6857SOL    HW123464   0.657   2.028   9.995  1.8446  0.0441  0.8210
 6857SOL    HW223465   0.634   2.037  10.145 -1.3094  0.5075  0.3712
 6858SOL     OW23466   3.599   9.180   4.830  0.2696  0.5517  0.3280
 6858SOL    HW123467   3.679   9.130   4.819  0.9050  1.5180  0.4591
 6858SOL    HW223468   3.529   9.114   4.832  1.0437 -0.2869  0.1255
 6859SOL     OW23469   5.776   4.618  10.325  0.1191 -0.1690 -0.0827
 6859SOL    HW123470   5.708   4.640  10.261 -0.1026 -1.6724 -0.4068
 6859SOL    HW223471   5.728   4.595  10.404  0.3677  1.0039  0.4271
 6860SOL     OW23472   6.410   8.120   3.078  0.1410  0.4056 -0.0129
 6860SOL    HW123473   6.338   8.168   3.037  0.2961  0.0570 -0.7035
 6860SOL    HW223474   6.477   8.115   3.010 -0.3367 -1.8558 -0.3981
 6861SOL     OW23475   8.216   3.061   6.471 -0.0204  0.1356  0.0060
 6861SOL    HW123476   8.148   3.111   6.425 -0.5012  0.3992  0.9740
 6861SOL    HW223477   8.169   2.988   6.511  0.7262 -1.2850 -1.6340
 6862SOL     OW23478   2.913   3.828   4.757 -0.6160  0.2958  0.7051
 6862SOL    HW123479   2.829   3.826   4.711  0.1619 -1.0604 -0.7441
 6862SOL    HW223480   2.967   3.888   4.706 -0.0480 -0.4710  0.3913
 6863SOL     OW23481   5.977   9.304  10.630  0.1404 -0.5242  0.1306
 6863SOL    HW123482   6.049   9.362  10.606  0.0971 -0.8503 -0.8688
 6863SOL    HW223483   5.906   9.362  10.656 -0.7857  0.1127 -3.2425
 6864SOL     OW23484  10.472   7.009   0.118 -0.5353 -0.1126 -0.0944
 6864SOL    HW123485  10.452   6.991   0.027 -0.3070 -0.7866 -0.0125
 6864SOL    HW223486  10.534   6.941   0.144 -0.9331 -0.1899  0.6915
 6865SOL     OW23487   0.048   1.777   7.907  0.0525 -0.3319  0.3426
 6865SOL    HW123488   0.099   1.737   7.837 -0.9575  1.2198 -1.3626
 6865SOL    HW223489   0.037   1.707   7.971  2.1519 -1.4157 -0.3898
 6866SOL     OW23490   2.326   1.256   4.360  0.0162  0.1448 -0.3462
 6866SOL    HW123491   2.327   1.343   4.321 -1.0110  1.0692  1.5772
 6866SOL    HW223492   2.284   1.268   4.445  1.0613 -1.9901  0.5466
 6867SOL     OW23493   1.617   0.713   7.971 -0.1185  0.1300 -0.4469
 6867SOL    HW123494   1.579   0.703   7.884  0.1286 -0.6446 -0.4698
 6867SOL    HW223495   1.550   0.678   8.031 -0.2476  0.5711 -0.3252
 6868SOL     OW23496   4.217   3.200   3.044  0.8063 -0.3137 -0.3599
 6868SOL    HW123497   4.227   3.295   3.036  3.4823 -0.5309 -0.5458
 6868SOL    HW223498   4.242   3.181   3.134 -0.1982 -0.8359 -0.1720
 6869SOL     OW23499   0.295   2.834   8.951  0.0488  0.0593 -0.1868
 6869SOL    HW123500   0.354   2.793   8.888  0.0746 -1.0551  0.5387
 6869SOL    HW223501   0.221   2.773   8.957  0.4874 -0.3566  1.5628
 6870SOL     OW23502   6.215   2.077   7.203 -0.2172  0.1651  0.2638
 6870SOL    HW123503   6.167   2.024   7.267  1.8082 -2.2959 -0.1075
 6870SOL    HW223504   6.303   2.083   7.238  0.7566 -0.6100 -1.8840
 6871SOL     OW23505   0.505   8.320   1.374  0.1033 -0.1868  0.2719
 6871SOL    HW123506   0.473   8.250   1.431  1.3501  0.3084  1.6450
 6871SOL    HW223507   0.557   8.377   1.432 -0.3746  1.5550 -0.9176
 6872SOL     OW23508   6.977   2.067   0.909 -0.0675 -0.3633  0.0604
 6872SOL    HW123509   6.988   1.974   0.889 -0.6231 -0.8158  1.6835
 6872SOL    HW223510   6.950   2.107   0.826  0.7905 -1.5308 -0.7964
 6873SOL     OW23511   1.376   8.901  10.206 -0.2166  0.2062  0.0727
 6873SOL    HW123512   1.437   8.841  10.248 -1.0806 -0.9519 -0.2693
 6873SOL    HW223513   1.347   8.959  10.276  0.7937  0.3725  0.3629
 6874SOL     OW23514   9.164   1.143   0.235 -0.3090 -0.3227 -0.1142
 6874SOL    HW123515   9.071   1.122   0.240 -0.3187 -0.0305  1.3529
 6874SOL    HW223516   9.189   1.162   0.326  0.3400  3.2610 -0.9205
 6875SOL     OW23517   9.348   0.393   3.143 -0.0300 -0.1329  0.2902
 6875SOL    HW123518   9.273   0.402   3.200 -0.0912 -0.3547  0.2439
 6875SOL    HW223519   9.315   0.415   3.056  0.1821  0.7130  0.4157
 6876SOL     OW23520   5.606   6.031   9.340 -0.2512  0.5134 -0.1768
 6876SOL    HW123521   5.562   6.116   9.348  1.0130  1.2951 -1.1594
 6876SOL    HW223522   5.542   5.968   9.374 -1.3762  1.7974  0.2014
 6877SOL     OW23523   5.711   2.236   1.161  0.2645  0.2592  0.0044
 6877SOL    HW123524   5.746   2.233   1.072 -0.4199  0.9577 -0.2970
 6877SOL    HW223525   5.722   2.327   1.189  1.2074 -0.1225  0.9472
 6878SOL     OW23526   8.831  10.342   8.099 -0.4695  0.2750 -0.4266
 6878SOL    HW123527   8.921  10.377   8.096 -0.4970  0.5057  0.9376
 6878SOL    HW223528   8.788  10.392   8.168 -1.4294 -0.3647 -0.5444
 6879SOL     OW23529   8.884   4.261   8.414 -0.0510  0.0170  0.4503
 6879SOL    HW123530   8.810   4.284   8.357 -0.5145 -0.4204  0.8694
 6879SOL    HW223531   8.940   4.206   8.359  0.3859  0.9899 -0.1259
 6880SOL     OW23532   6.091   0.627   7.905 -0.0979  0.0934 -0.4079
 6880SOL    HW123533   6.117   0.536   7.892  0.9355 -0.1027  2.3588
 6880SOL    HW223534   6.172   0.677   7.895  0.3184  0.1412  2.3752
 6881SOL     OW23535   5.703   0.465   2.988 -0.2273  0.2903 -0.0478
 6881SOL    HW123536   5.791   0.437   3.013  0.8018  2.0186 -1.4780
 6881SOL    HW223537   5.658   0.481   3.071  0.7964 -0.6391  0.7031
 6882SOL     OW23538   4.238   2.084   9.075 -0.5231 -0.0528  0.1615
 6882SOL    HW123539   4.248   2.179   9.067  0.5987  0.0798  2.2929
 6882SOL    HW223540   4.291   2.048   9.004 -0.3154  0.8986 -0.1862
 6883SOL     OW23541   9.009   9.415   4.073  0.2265 -0.1301 -0.4775
 6883SOL    HW123542   9.063   9.425   3.995  0.3263  0.9072 -0.2917
 6883SOL    HW223543   8.932   9.469   4.056 -0.9673 -1.9073 -0.9001
 6884SOL     OW23544   2.685   0.470   7.435  1.3260 -0.3495 -0.1418
 6884SOL    HW123545   2.726   0.482   7.520 -1.0202 -1.0652  1.1810
 6884SOL    HW223546   2.670   0.375   7.429 -0.2376 -0.1174 -0.4554
 6885SOL     OW23547   1.917   0.737   5.903  0.1710  0.2361  0.3820
 6885SOL    HW123548   1.993   0.783   5.939 -0.9745  1.7181  1.0082
 6885SOL    HW223549   1.856   0.729   5.977 -0.7345  0.0847 -0.3623
 6886SOL     OW23550   8.794  10.396   9.966 -0.2014  0.0954  0.1019
 6886SOL    HW123551   8.880  10.433   9.948 -0.3172  0.6455  0.6180
 6886SOL    HW223552   8.770  10.348   9.887  0.3306  0.4211 -0.2599
 6887SOL     OW23553  10.089   0.127   5.892 -0.2995  0.5409 -0.1401
 6887SOL    HW123554  10.083   0.202   5.951 -0.9001  0.6648 -0.3606
 6887SOL    HW223555  10.040   0.152   5.814 -1.2856 -0.4220  0.1446
 6888SOL     OW23556   1.960   0.889   5.238 -0.1127  0.0407  0.3166
 6888SOL    HW123557   2.034   0.830   5.228 -0.6826 -1.1975  2.6302
 6888SOL    HW223558   1.993   0.960   5.293 -0.0594  0.6721 -0.5175
 6889SOL     OW23559   7.759   2.280   1.292  0.3045 -0.1805  0.4633
 6889SOL    HW123560   7.731   2.234   1.372  0.6852  0.9755  1.3035
 6889SOL    HW223561   7.809   2.355   1.325  0.8454  0.0755 -0.8963
 6890SOL     OW23562   9.616   1.134   1.344  0.3399  0.4167 -0.0344
 6890SOL    HW123563   9.653   1.134   1.432 -0.2939 -0.4926  0.2473
 6890SOL    HW223564   9.667   1.070   1.295  0.3002  0.4787 -0.1599
 6891SOL     OW23565   9.004   5.010   4.538  0.3312 -0.8790  0.0678
 6891SOL    HW123566   8.987   4.916   4.528 -1.8020 -0.5912  0.3429
 6891SOL    HW223567   8.920   5.051   4.515  1.4562  1.0214 -0.8396
 6892SOL     OW23568   0.578   4.076   3.209  0.5576 -0.2109  0.4363
 6892SOL    HW123569   0.508   4.140   3.194  1.3233 -0.2397 -5.1024
 6892SOL    HW223570   0.656   4.130   3.223  1.0803  0.3716 -3.5908
 6893SOL     OW23571  10.094   3.376   3.890  0.1247 -0.6565 -0.4053
 6893SOL    HW123572  10.159   3.386   3.821  1.3660  0.1179  0.8240
 6893SOL    HW223573  10.114   3.290   3.928  1.5528  0.2398  1.0136
 6894SOL     OW23574  10.192   3.927   7.336 -0.5257  0.0259 -0.0011
 6894SOL    HW123575  10.165   3.993   7.399  2.5451  1.0705  0.3715
 6894SOL    HW223576  10.223   3.854   7.390  1.1836  0.5248 -0.2661
 6895SOL     OW23577  10.583   2.131   9.550 -0.5277 -0.4196 -0.2494
 6895SOL    HW123578  10.510   2.186   9.578  0.2079  0.4554 -0.0213
 6895SOL    HW223579  10.556   2.099   9.463 -1.1033  0.0288 -0.2450
 6896SOL     OW23580   6.259   9.296   0.136  0.1696  0.4185 -0.3506
 6896SOL    HW123581   6.276   9.383   0.101 -0.8860  0.1747 -1.5352
 6896SOL    HW223582   6.327   9.241   0.097  0.1156  0.4906 -0.5464
 6897SOL     OW23583   0.115   1.515   8.657  0.6014  0.1570 -0.0836
 6897SOL    HW123584   0.091   1.601   8.692  0.1298  0.1556 -0.4043
 6897SOL    HW223585   0.209   1.523   8.638  0.2974  1.0302 -1.3335
 6898SOL     OW23586   4.841  10.418   9.373  0.2837  0.1758 -0.1458
 6898SOL    HW123587   4.822  10.410   9.279  0.9427 -0.1745 -0.2574
 6898SOL    HW223588   4.937  10.426   9.377  0.6002 -2.7818  0.6440
 6899SOL     OW23589   9.818   7.633   5.920  0.0586  0.3685 -0.4536
 6899SOL    HW123590   9.846   7.544   5.900 -1.3800 -0.4201  0.8212
 6899SOL    HW223591   9.727   7.637   5.888 -0.4484  0.8158  0.9686
 6900SOL     OW23592   1.436   5.378   0.503 -0.2458  0.1187 -0.0346
 6900SOL    HW123593   1.406   5.287   0.498  0.3237 -0.1154  0.6598
 6900SOL    HW223594   1.528   5.371   0.525 -0.2611  0.8753  0.2751
 6901SOL     OW23595   0.317   4.350  10.385 -0.0339  0.4487  0.2805
 6901SOL    HW123596   0.281   4.431  10.421 -1.1277  0.9704 -1.7962
 6901SOL    HW223597   0.401   4.339  10.429  0.2803  2.8817  0.4206
 6902SOL     OW23598   4.688   5.563  10.545 -0.1647  0.2788 -0.0958
 6902SOL    HW123599   4.757   5.497  10.553  0.4623  0.9838  0.5225
 6902SOL    HW223600   4.733   5.641  10.513 -0.4513  1.0493  1.2776
 6903SOL     OW23601   9.114   3.586   2.403  0.1390  0.0524  0.3854
 6903SOL    HW123602   9.163   3.538   2.469  0.5745  1.1248  0.8604
 6903SOL    HW223603   9.181   3.630   2.350 -0.2481  2.0310  1.4155
 6904SOL     OW23604   0.843   8.748   5.930  0.1370 -0.5995 -0.2985
 6904SOL    HW123605   0.938   8.756   5.936 -0.0247  1.6482  0.3193
 6904SOL    HW223606   0.823   8.664   5.972  1.7735 -0.6052  0.5633
 6905SOL     OW23607   7.747   0.355   3.536 -0.4514 -0.1578 -0.4624
 6905SOL    HW123608   7.747   0.387   3.626 -2.1804 -0.4558 -0.3137
 6905SOL    HW223609   7.699   0.422   3.487  0.2992 -0.0992 -1.1283
 6906SOL     OW23610   9.945   1.242   1.244 -0.2446  1.2334 -0.3607
 6906SOL    HW123611   9.962   1.184   1.318  1.0264  0.1543 -1.4445
 6906SOL    HW223612   9.852   1.264   1.252 -0.0720  1.4283  1.7125
 6907SOL     OW23613   1.744   4.292   0.990 -0.6568  0.2330 -0.2209
 6907SOL    HW123614   1.681   4.293   0.918 -2.0729  1.2008  0.9544
 6907SOL    HW223615   1.741   4.381   1.026 -0.7132 -0.4461  1.5880
 6908SOL     OW23616   7.898   5.023   9.840  0.0985  0.2733  0.1123
 6908SOL    HW123617   7.962   5.089   9.812 -2.4786  3.1084  0.4494
 6908SOL    HW223618   7.872   4.979   9.759  0.9735  0.4829 -0.2922
 6909SOL     OW23619   3.135   8.913   6.920  0.0703 -0.7152  1.0931
 6909SOL    HW123620   3.148   8.883   6.831  1.9748  0.4036  0.9396
 6909SOL    HW223621   3.128   8.833   6.972  0.5523 -1.3890  0.1384
 6910SOL     OW23622   7.869   5.995   7.521  0.1264 -0.2057  0.1373
 6910SOL    HW123623   7.780   5.980   7.552  0.3269  2.0110  2.0073
 6910SOL    HW223624   7.858   6.043   7.440 -0.3697 -0.2975  0.1449
 6911SOL     OW23625   0.002   8.214  10.476 -0.0793 -0.0330 -0.2804
 6911SOL    HW123626  -0.060   8.161  10.527  0.2055  0.0525  0.1572
 6911SOL    HW223627   0.065   8.152  10.441  1.0581  0.1266  1.3550
 6912SOL     OW23628   7.927   8.216   0.194 -0.2782  0.0363 -0.2784
 6912SOL    HW123629   7.921   8.226   0.099  1.3333 -3.9886 -1.0068
 6912SOL    HW223630   7.850   8.164   0.217  0.0666 -0.1799  0.3977
 6913SOL     OW23631   4.640   3.466   9.142  0.1788  0.3986 -0.1373
 6913SOL    HW123632   4.563   3.516   9.115 -0.2259 -0.5766 -0.8696
 6913SOL    HW223633   4.666   3.417   9.063 -0.3836 -1.7093  0.9079
 6914SOL     OW23634   7.026   6.563   6.581 -0.0167  0.4750 -0.0726
 6914SOL    HW123635   7.091   6.629   6.604  0.5911 -0.0670 -0.2178
 6914SOL    HW223636   6.996   6.588   6.493 -1.1015  1.5693  0.5624
 6915SOL     OW23637   6.889   5.479   2.979 -0.3294 -0.3329 -0.5718
 6915SOL    HW123638   6.868   5.479   2.885 -1.0236 -0.2618 -0.4259
 6915SOL    HW223639   6.866   5.391   3.008  0.1964 -0.4587 -0.5303
 6916SOL     OW23640   6.801   8.861   3.691  0.0961 -0.1356  0.6919
 6916SOL    HW123641   6.880   8.910   3.668 -0.7304  1.9612  2.0475
 6916SOL    HW223642   6.735   8.928   3.707 -1.2748 -1.7221  2.0276
 6917SOL     OW23643   5.350   7.140  10.043  0.7310 -0.1470 -0.1265
 6917SOL    HW123644   5.315   7.229  10.049  2.3372  0.6345 -1.4257
 6917SOL    HW223645   5.289   7.087  10.093 -1.3645  1.3592 -0.9207
 6918SOL     OW23646   4.291   4.918   0.303  0.4165 -0.4653 -0.7478
 6918SOL    HW123647   4.330   5.003   0.322 -1.0352  0.0789 -0.0791
 6918SOL    HW223648   4.363   4.867   0.265  1.7271  0.5220  0.3081
 6919SOL     OW23649   6.024   4.048   2.244  0.4786 -0.1402 -0.0923
 6919SOL    HW123650   6.065   4.039   2.158  1.7492 -1.1579  0.5912
 6919SOL    HW223651   6.097   4.059   2.305 -0.3557 -0.3386  0.9751
 6920SOL     OW23652   5.263   6.953   7.102 -0.1610 -0.2254  0.2973
 6920SOL    HW123653   5.280   6.919   7.190 -1.5797  0.0999  0.7256
 6920SOL    HW223654   5.241   7.045   7.116 -1.4194 -0.4265 -0.2765
 6921SOL     OW23655   4.776   8.842   9.712 -0.0239  0.0739 -0.1187
 6921SOL    HW123656   4.868   8.863   9.729  0.0157 -0.8979  1.0502
 6921SOL    HW223657   4.767   8.849   9.618  1.7947 -1.7230 -0.5167
 6922SOL     OW23658   3.352   2.685  10.428 -0.2956 -0.2866 -0.4356
 6922SOL    HW123659   3.398   2.626  10.369 -0.2437 -1.2823  0.5764
 6922SOL    HW223660   3.282   2.724  10.374 -1.0036 -2.0622 -0.8577
 6923SOL     OW23661  10.059   7.933   2.746 -0.8839  0.2220  0.3126
 6923SOL    HW123662  10.094   7.947   2.658  0.0285  0.5181  0.7069
 6923SOL    HW223663  10.015   7.848   2.740  0.0365 -0.2475 -0.1832
 6924SOL     OW23664   4.573   2.832   1.377  0.4215 -0.0331  0.5869
 6924SOL    HW123665   4.642   2.776   1.412  1.6048  1.3119  0.5024
 6924SOL    HW223666   4.558   2.897   1.446  2.0488  2.0175 -0.8644
 6925SOL     OW23667   0.046   2.284   9.557  0.3855 -0.0676  0.4969
 6925SOL    HW123668  -0.019   2.343   9.519  1.1625 -0.1990 -1.1057
 6925SOL    HW223669   0.000   2.242   9.630 -1.0326  0.5121 -0.0240
 6926SOL     OW23670   8.601   3.221   2.199  0.0349 -0.3502  0.6413
 6926SOL    HW123671   8.562   3.213   2.112  1.5150 -0.3482 -0.0561
 6926SOL    HW223672   8.622   3.131   2.225  0.1613 -0.3004  0.7147
 6927SOL     OW23673   9.207   3.855   4.555  0.8131  0.3125  0.7341
 6927SOL    HW123674   9.243   3.936   4.520  0.5475 -0.3233 -1.1464
 6927SOL    HW223675   9.283   3.804   4.583  1.1653  0.3597 -0.0896
 6928SOL     OW23676   4.379   3.709   6.311 -0.2992 -0.3742 -0.2586
 6928SOL    HW123677   4.459   3.721   6.362 -0.6789  2.7142 -0.1608
 6928SOL    HW223678   4.398   3.638   6.250  2.5200  0.2450 -0.2096
 6929SOL     OW23679   0.145   2.877   1.544 -0.1154 -0.5657  0.5528
 6929SOL    HW123680   0.176   2.794   1.506 -2.1416 -0.9212 -0.4204
 6929SOL    HW223681   0.225   2.922   1.571  1.1216 -2.2260 -0.1732
 6930SOL     OW23682   9.915   3.341   6.365  0.3342 -0.2292 -0.7741
 6930SOL    HW123683   9.845   3.277   6.375 -0.4259  0.5994 -0.6211
 6930SOL    HW223684   9.885   3.400   6.296 -0.3219  1.6112  0.9652
 6931SOL     OW23685   3.633   7.405  10.767  0.2482  0.3177 -0.5567
 6931SOL    HW123686   3.554   7.453  10.792  1.1493  0.6467  1.9638
 6931SOL    HW223687   3.633   7.328  10.825  2.2130  0.8247  0.1959
 6932SOL     OW23688   6.493   0.224   4.705 -0.7110  0.2790 -0.3459
 6932SOL    HW123689   6.414   0.252   4.752 -1.5457 -1.3326 -0.6872
 6932SOL    HW223690   6.502   0.287   4.634 -1.4485  0.7456 -0.0435
 6933SOL     OW23691   3.451  10.432   0.296 -0.0960 -0.8745  0.8028
 6933SOL    HW123692   3.399  10.385   0.231 -1.7375  0.7901  0.8386
 6933SOL    HW223693   3.479  10.364   0.357 -1.4061 -1.9890  0.2354
 6934SOL     OW23694   2.578   1.551  10.241  0.2809 -0.2679 -0.4535
 6934SOL    HW123695   2.483   1.563  10.232  0.0304 -0.2976  1.5951
 6934SOL    HW223696   2.604   1.504  10.162 -1.3612 -0.0029 -1.1919
 6935SOL     OW23697   0.510   9.923   4.595 -0.2428 -0.7433 -0.7997
 6935SOL    HW123698   0.513   9.930   4.499 -1.3052 -0.1368 -0.8024
 6935SOL    HW223699   0.540  10.008   4.627 -2.6400  0.1498 -0.6754
 6936SOL     OW23700   2.136   9.498   7.150  0.3935 -0.0412 -0.4251
 6936SOL    HW123701   2.118   9.406   7.131  0.8679  0.2626 -2.6367
 6936SOL    HW223702   2.213   9.496   7.207 -0.2074 -1.0214  0.3883
 6937SOL     OW23703   9.157   9.644   0.551 -0.2185 -0.3178  0.5689
 6937SOL    HW123704   9.210   9.600   0.617 -0.0131 -0.9031  0.0285
 6937SOL    HW223705   9.067   9.626   0.577 -0.1911 -2.9164 -0.7667
 6938SOL     OW23706   4.602   3.431  10.069  0.1828 -0.3898  0.4362
 6938SOL    HW123707   4.689   3.468  10.085  0.4564 -0.8662  0.0856
 6938SOL    HW223708   4.611   3.384   9.986 -0.2638 -0.8927  0.6651
 6939SOL     OW23709   6.256   3.631   5.355  0.4083 -0.6285 -0.7247
 6939SOL    HW123710   6.210   3.639   5.271 -0.5532 -1.0010 -0.2601
 6939SOL    HW223711   6.187   3.605   5.416  0.9691  0.2860  0.3097
 6940SOL     OW23712   5.887   1.887   9.195  0.2328  0.3166  0.1488
 6940SOL    HW123713   5.847   1.803   9.171 -0.0801  0.2878  0.7413
 6940SOL    HW223714   5.918   1.923   9.112  0.8046 -0.6042 -0.0551
 6941SOL     OW23715   2.870   9.915   9.056  0.2045  0.1679  0.8217
 6941SOL    HW123716   2.845   9.951   9.141 -0.7411  1.1728  0.1440
 6941SOL    HW223717   2.902   9.990   9.006  0.6303 -0.3868  0.2302
 6942SOL     OW23718   8.428   7.566   8.153 -0.2720 -0.0246  0.4090
 6942SOL    HW123719   8.512   7.544   8.113 -0.5585 -2.1956  0.9089
 6942SOL    HW223720   8.447   7.577   8.246 -0.5603 -0.6596  0.5457
 6943SOL     OW23721   1.728   4.559   6.129  0.1894  0.3979  1.4763
 6943SOL    HW123722   1.672   4.525   6.199  0.1848  2.1946  2.4103
 6943SOL    HW223723   1.807   4.589   6.175 -0.3387  2.8096  0.9530
 6944SOL     OW23724   7.271   1.825   4.505  0.0677  0.0450 -0.6420
 6944SOL    HW123725   7.237   1.810   4.417 -0.0079 -0.3176 -0.5491
 6944SOL    HW223726   7.258   1.742   4.551 -0.7225  0.5055 -0.0092
 6945SOL     OW23727   7.028   5.476   0.863  0.2298 -0.0435 -0.6046
 6945SOL    HW123728   7.052   5.548   0.805  0.2711  0.9961  0.6434
 6945SOL    HW223729   7.091   5.481   0.935 -0.4495 -0.6265  0.0510
 6946SOL     OW23730   8.199   0.281   7.961  0.0597  0.5441  0.0692
 6946SOL    HW123731   8.273   0.340   7.974  0.4756  0.2727 -1.0279
 6946SOL    HW223732   8.122   0.337   7.976  0.4415  0.5710  2.3410
 6947SOL     OW23733  10.612   1.575   8.861 -0.2074 -0.1405 -0.2738
 6947SOL    HW123734  10.663   1.633   8.804 -1.4746  1.7084  0.3874
 6947SOL    HW223735  10.678   1.523   8.907  0.9972  0.8498 -0.8101
 6948SOL     OW23736   0.442   5.686   6.757  0.3628 -0.0745  0.2785
 6948SOL    HW123737   0.416   5.632   6.683  0.3333 -1.2807  1.1342
 6948SOL    HW223738   0.531   5.658   6.778  0.8229  1.0995 -0.0345
 6949SOL     OW23739   3.886   1.075   2.842  0.0540 -0.3787  0.0982
 6949SOL    HW123740   3.934   0.995   2.818 -0.0287 -0.6911  0.9354
 6949SOL    HW223741   3.944   1.120   2.903  0.7906  1.0224 -1.5652
 6950SOL     OW23742   4.259   1.976   6.287  0.2348 -0.1712 -0.7149
 6950SOL    HW123743   4.349   2.004   6.307  0.0566 -0.3386  0.3593
 6950SOL    HW223744   4.236   2.025   6.208  0.6093  1.3115  0.0509
 6951SOL     OW23745   8.700   2.073   8.417  0.0831 -0.4033 -0.2381
 6951SOL    HW123746   8.610   2.077   8.386  0.2281  0.2430 -0.5838
 6951SOL    HW223747   8.752   2.060   8.337  0.3312 -0.3600 -0.0845
 6952SOL     OW23748   8.643   5.923   3.895 -0.2104 -0.2481  0.4350
 6952SOL    HW123749   8.579   5.930   3.825 -0.0102 -0.7171  0.2001
 6952SOL    HW223750   8.596   5.880   3.967 -0.3035 -0.1196  0.4501
 6953SOL     OW23751   4.897   3.741   5.347  0.7318  0.1161 -0.3139
 6953SOL    HW123752   4.984   3.777   5.332  1.0425 -0.5621 -0.1732
 6953SOL    HW223753   4.840   3.792   5.289  1.3610 -0.0184 -1.0743
 6954SOL     OW23754  10.740   2.178   1.518 -0.6546  0.0956  0.0390
 6954SOL    HW123755  10.668   2.158   1.459 -0.0324  0.1318 -0.7583
 6954SOL    HW223756  10.731   2.272   1.535 -0.5049  0.2035 -0.4655
 6955SOL     OW23757   4.422   6.213   5.932 -0.2658 -0.0615 -0.0328
 6955SOL    HW123758   4.360   6.140   5.929 -0.9461  0.5214 -0.9816
 6955SOL    HW223759   4.508   6.173   5.923 -0.5749 -0.8154  0.3351
 6956SOL     OW23760   9.244   7.798  10.132 -0.2553  0.1216 -0.1621
 6956SOL    HW123761   9.277   7.781  10.044  0.2314  1.3674 -0.2417
 6956SOL    HW223762   9.284   7.731  10.186 -1.4309 -1.3594 -1.0406
 6957SOL     OW23763   5.996   4.890   7.641 -0.2442  0.2900 -0.0238
 6957SOL    HW123764   5.912   4.930   7.621 -0.0106  1.7390  1.6421
 6957SOL    HW223765   6.014   4.915   7.732  0.9566 -1.8493  0.4031
 6958SOL     OW23766   1.228   9.782   3.522 -0.1000 -0.1238 -0.1946
 6958SOL    HW123767   1.319   9.812   3.526 -0.0864 -0.2121  0.1878
 6958SOL    HW223768   1.215   9.760   3.430  0.4841 -0.7762 -0.1335
 6959SOL     OW23769   6.895   0.114   8.885 -0.7056 -0.6193 -0.1115
 6959SOL    HW123770   6.927   0.028   8.856 -3.0098 -1.3959 -0.5198
 6959SOL    HW223771   6.800   0.105   8.887 -0.9249  0.9625  2.8750
 6960SOL     OW23772   4.357   9.642   7.210 -0.3738 -0.2239 -0.1803
 6960SOL    HW123773   4.451   9.627   7.200  0.3172  3.0635  0.4477
 6960SOL    HW223774   4.332   9.690   7.132 -1.1201  0.5672  0.5295
 6961SOL     OW23775   7.439   4.993   2.475 -0.4620  0.0689 -0.2863
 6961SOL    HW123776   7.449   4.974   2.569 -0.5238 -1.0146 -0.4880
 6961SOL    HW223777   7.414   4.909   2.436 -0.3708  0.4946 -1.2887
 6962SOL     OW23778   6.875   9.025   5.007  0.1159  0.1453 -0.2653
 6962SOL    HW123779   6.821   9.053   4.934 -2.0756 -0.9536  0.8333
 6962SOL    HW223780   6.851   9.083   5.080  1.0979  0.2111  0.0329
 6963SOL     OW23781  10.017   6.163   1.629 -0.0596 -0.6941  0.2933
 6963SOL    HW123782   9.990   6.240   1.580 -0.3275 -0.5060  0.7294
 6963SOL    HW223783   9.948   6.099   1.612  0.6080 -1.1548 -0.7855
 6964SOL     OW23784   8.165   2.873   2.684 -0.0298  0.5760  0.1970
 6964SOL    HW123785   8.247   2.892   2.639  0.7861  0.1172  1.4486
 6964SOL    HW223786   8.103   2.853   2.613  1.5617 -1.4694 -0.7362
 6965SOL     OW23787   2.232   4.626   3.988  0.3962  0.4079  0.2809
 6965SOL    HW123788   2.217   4.567   4.062  0.1383  0.6014  0.3858
 6965SOL    HW223789   2.162   4.605   3.926  0.0840  0.8564  0.4795
 6966SOL     OW23790   9.504   0.278   7.182  0.4568 -0.2227 -0.2841
 6966SOL    HW123791   9.543   0.262   7.268  0.6985  1.9207  0.0407
 6966SOL    HW223792   9.576   0.310   7.128 -0.1210  0.4548 -0.6735
 6967SOL     OW23793   9.820  10.128   7.009 -0.0495  0.4818 -0.3580
 6967SOL    HW123794   9.810  10.093   6.920 -0.0514 -0.9254  0.1737
 6967SOL    HW223795   9.741  10.101   7.055  0.1394  0.8336  0.1893
 6968SOL     OW23796   5.771   2.004   2.164 -0.4544 -0.0866 -0.3569
 6968SOL    HW123797   5.716   1.984   2.240 -1.1834  2.0415 -0.2699
 6968SOL    HW223798   5.760   1.928   2.107 -3.9247  0.4002 -0.5398
 6969SOL     OW23799   8.772   7.169   9.387 -0.1989  0.1908 -0.4438
 6969SOL    HW123800   8.740   7.234   9.326 -2.6508  0.3614  0.8739
 6969SOL    HW223801   8.715   7.093   9.373  0.0418 -0.2276  0.7203
 6970SOL     OW23802  10.785   3.248   6.587 -0.8445  0.0013 -0.3921
 6970SOL    HW123803  10.786   3.311   6.659  1.9122  0.3297 -0.5923
 6970SOL    HW223804  10.800   3.301   6.509  0.0122 -0.7260 -0.7321
 6971SOL     OW23805   8.515   8.432   4.317  0.5337  0.0961  0.1300
 6971SOL    HW123806   8.548   8.398   4.234 -0.1838  1.1218 -0.5981
 6971SOL    HW223807   8.565   8.385   4.384  1.0732 -0.7987 -0.8695
 6972SOL     OW23808   3.612   4.034   3.565  0.0444 -0.2017 -0.5633
 6972SOL    HW123809   3.546   4.075   3.621  0.0499  1.5637 -1.7586
 6972SOL    HW223810   3.602   3.940   3.581 -0.6887  0.1811  1.5316
 6973SOL     OW23811   3.941   1.516   2.794 -0.3990 -0.0019  0.4787
 6973SOL    HW123812   3.869   1.517   2.857 -0.0757  0.8548  0.8542
 6973SOL    HW223813   3.931   1.433   2.747  0.1848 -1.3390  2.6001
 6974SOL     OW23814   7.147   6.778   6.663  0.0058  0.3208 -0.0077
 6974SOL    HW123815   7.138   6.807   6.754  0.9791  1.1958 -0.1821
 6974SOL    HW223816   7.189   6.851   6.618 -0.7000  0.0020 -1.2321
 6975SOL     OW23817   4.696   8.150   6.213 -0.9235 -0.3085  0.8469
 6975SOL    HW123818   4.720   8.184   6.300 -2.5230  0.4190  1.0397
 6975SOL    HW223819   4.752   8.073   6.201  1.3630  1.1818  1.2949
 6976SOL     OW23820   8.220   7.442   2.720 -0.0351 -0.0021  0.0560
 6976SOL    HW123821   8.294   7.414   2.774 -0.1172 -1.1263 -0.3667
 6976SOL    HW223822   8.226   7.537   2.717  0.8836 -0.0267  0.7441
 6977SOL     OW23823   7.692   2.008   8.115 -0.1657 -0.7574  0.2387
 6977SOL    HW123824   7.670   2.082   8.058  1.7666 -0.8496 -0.6824
 6977SOL    HW223825   7.700   1.934   8.056  3.2902 -0.5786  0.2967
 6978SOL     OW23826   6.419   9.502   5.342 -0.4791 -0.4050  0.1237
 6978SOL    HW123827   6.416   9.563   5.268  1.4246 -0.0288  0.3063
 6978SOL    HW223828   6.375   9.424   5.310  0.1597 -0.1858 -1.3647
 6979SOL     OW23829   6.747   3.227   9.680 -0.3338 -0.3602 -0.7189
 6979SOL    HW123830   6.662   3.242   9.639 -0.6554  0.5962  0.2529
 6979SOL    HW223831   6.727   3.175   9.758 -0.1317  0.4789 -0.0945
 6980SOL     OW23832  10.246   4.456   8.158  0.0142  0.3291 -0.2053
 6980SOL    HW123833  10.237   4.406   8.077  2.0766  0.8529 -0.8345
 6980SOL    HW223834  10.159   4.491   8.174 -0.7784 -0.9483 -1.4067
 6981SOL     OW23835   2.203   3.449   8.427 -0.0993 -0.6773 -0.1945
 6981SOL    HW123836   2.281   3.499   8.402 -0.0636 -1.1744 -1.1127
 6981SOL    HW223837   2.177   3.486   8.512 -0.4335  1.3137 -1.1218
 6982SOL     OW23838   4.389   3.446  10.544 -0.3660 -0.3374  0.0671
 6982SOL    HW123839   4.383   3.412  10.454 -0.4694  1.6686 -0.7370
 6982SOL    HW223840   4.333   3.524  10.544  0.8834  0.6141  1.4199
 6983SOL     OW23841   1.209   3.364   4.249 -0.3124  0.5523  0.3764
 6983SOL    HW123842   1.275   3.374   4.181 -0.3002  1.4074  0.5005
 6983SOL    HW223843   1.126   3.358   4.202 -0.1472 -0.6909  0.2121
 6984SOL     OW23844   3.096   4.618  10.674 -0.1506 -0.1418  0.5881
 6984SOL    HW123845   3.003   4.599  10.683 -0.1459 -0.5311 -0.0981
 6984SOL    HW223846   3.140   4.537  10.700  0.0078  0.1142  1.1262
 6985SOL     OW23847   6.420   0.269   5.760  0.0800 -0.2694 -0.1549
 6985SOL    HW123848   6.417   0.362   5.784 -0.3960  0.3101 -2.2181
 6985SOL    HW223849   6.494   0.262   5.700 -1.6071 -0.5435 -2.3460
 6986SOL     OW23850   7.704   8.752   1.787  0.6081 -0.3313  0.2524
 6986SOL    HW123851   7.724   8.685   1.852  0.3088 -2.1116 -1.4219
 6986SOL    HW223852   7.790   8.786   1.761  0.8317 -0.8340  0.3184
 6987SOL     OW23853   4.083   7.971   6.805  0.0855  0.0242 -0.2048
 6987SOL    HW123854   3.997   7.973   6.847  1.0615  1.5542  1.9240
 6987SOL    HW223855   4.111   7.880   6.812 -1.0029 -0.3330 -0.2196
 6988SOL     OW23856   4.605   7.842   8.925  0.5828 -0.0819  0.0304
 6988SOL    HW123857   4.609   7.769   8.988 -0.2034 -0.1066  0.0576
 6988SOL    HW223858   4.672   7.820   8.860  0.3590 -0.8426  0.0363
 6989SOL     OW23859   2.596   9.202   3.395  0.0814 -0.1444 -0.4507
 6989SOL    HW123860   2.549   9.182   3.476  0.9525  2.0588  0.6771
 6989SOL    HW223861   2.570   9.291   3.373  1.8250  0.2299 -1.1725
 6990SOL     OW23862   4.327   9.890   5.321  0.2724 -0.4733  0.3000
 6990SOL    HW123863   4.405   9.912   5.270 -0.0083 -2.3198 -1.0509
 6990SOL    HW223864   4.285   9.974   5.338  1.3968  0.3664 -0.8713
 6991SOL     OW23865   2.040   4.609   4.793  0.1033  0.2581 -0.5080
 6991SOL    HW123866   1.954   4.639   4.763 -0.4461 -0.3804  0.4112
 6991SOL    HW223867   2.089   4.690   4.810 -1.1469  0.6832  1.3350
 6992SOL     OW23868   4.687   1.547   1.539  0.4176  0.7237  0.4637
 6992SOL    HW123869   4.755   1.605   1.505  0.8464 -0.5751 -0.9799
 6992SOL    HW223870   4.616   1.554   1.476  0.4416 -0.2311  0.3235
 6993SOL     OW23871   0.764   1.485   4.859  0.6674 -0.0553  0.0545
 6993SOL    HW123872   0.728   1.473   4.771 -1.0506  0.5486  0.6511
 6993SOL    HW223873   0.787   1.396   4.887  1.5590 -0.2282 -1.0987
 6994SOL     OW23874   0.203   7.099   2.379 -0.2542 -0.1687 -0.2486
 6994SOL    HW123875   0.222   7.130   2.467  0.2039 -1.8938  0.3033
 6994SOL    HW223876   0.110   7.074   2.382 -0.4353  0.4377 -0.4930
 6995SOL     OW23877   7.083  10.471   2.073 -0.0519 -0.1549  0.4645
 6995SOL    HW123878   7.015  10.431   2.127 -0.0724  0.0506  0.5917
 6995SOL    HW223879   7.094  10.411   1.999 -2.3049  1.1275 -1.0402
 6996SOL     OW23880   7.460   3.656   5.641 -0.5182  0.1794  0.1088
 6996SOL    HW123881   7.433   3.729   5.696 -1.6701 -0.5723  0.5865
 6996SOL    HW223882   7.378   3.615   5.614 -0.1165  1.3227 -3.3796
 6997SOL     OW23883   0.879   2.226   4.485  0.4944  0.0420  0.1354
 6997SOL    HW123884   0.930   2.180   4.552  1.3577 -0.7890 -1.0439
 6997SOL    HW223885   0.865   2.314   4.521  2.0566  0.0261  0.8647
 6998SOL     OW23886   5.327   7.760   4.202 -0.1415  0.2266 -0.3034
 6998SOL    HW123887   5.314   7.852   4.226 -0.7295 -0.2526  1.3668
 6998SOL    HW223888   5.413   7.759   4.161 -0.1888  1.5454 -0.4989
 6999SOL     OW23889   9.839   2.772   7.118 -0.2192 -0.9068  0.9128
 6999SOL    HW123890   9.887   2.829   7.178  1.3231 -0.1321 -0.9704
 6999SOL    HW223891   9.781   2.831   7.070 -0.4968 -1.3313  0.7187
 7000SOL     OW23892   6.379   3.158  10.427 -0.3733 -0.2610  0.1544
 7000SOL    HW123893   6.416   3.178  10.513 -0.7367  1.6349 -0.0792
 7000SOL    HW223894   6.417   3.073  10.404  0.5869 -0.3001  1.6944
 7001SOL     OW23895   6.901   7.043   1.057 -0.6095  0.1582 -0.4484
 7001SOL    HW123896   6.936   7.017   1.142  0.5437  0.6287 -0.7636
 7001SOL    HW223897   6.812   7.075   1.076  0.3454  2.2117  0.9005
 7002SOL     OW23898   1.598   2.881   1.116  0.0649 -0.0160  0.6392
 7002SOL    HW123899   1.601   2.881   1.021 -2.9507 -1.0187  0.4503
 7002SOL    HW223900   1.663   2.947   1.142  1.3708 -0.1177 -2.0262
 7003SOL     OW23901   9.027   7.450   2.087  0.0683  0.6556 -0.4992
 7003SOL    HW123902   8.946   7.404   2.067  0.5214 -1.1007  1.3537
 7003SOL    HW223903   9.007   7.502   2.165  1.0282 -0.9517  0.8958
 7004SOL     OW23904   8.224   7.836   5.631 -0.3935  0.2456 -0.0902
 7004SOL    HW123905   8.236   7.909   5.571  3.0311 -0.3920 -0.3597
 7004SOL    HW223906   8.252   7.869   5.716 -0.3862 -0.3052  0.1262
 7005SOL     OW23907   5.752  10.537   3.708  0.4153 -0.0250  0.2067
 7005SOL    HW123908   5.844  10.548   3.729  0.2482 -2.2470  2.6715
 7005SOL    HW223909   5.725  10.460   3.759 -2.7646  0.4733 -0.5100
 7006SOL     OW23910   7.570   3.758   1.980  0.0823  0.2031 -0.4657
 7006SOL    HW123911   7.520   3.832   2.015  1.6639  0.6718  0.9494
 7006SOL    HW223912   7.522   3.680   2.009 -0.7819  0.6408 -0.6877
 7007SOL     OW23913   0.715   0.855   0.709 -0.3389 -0.1992  0.1842
 7007SOL    HW123914   0.657   0.826   0.639 -1.7812  1.8612  0.4468
 7007SOL    HW223915   0.658   0.868   0.784  0.7360  0.3467  0.9353
 7008SOL     OW23916   6.599   9.039   9.247 -0.3196 -0.2359  0.2571
 7008SOL    HW123917   6.517   9.084   9.264  0.7489  1.9543  0.0136
 7008SOL    HW223918   6.625   9.068   9.159  0.4518 -1.3480  0.0858
 7009SOL     OW23919   5.776   8.915  10.650 -0.3244 -0.9093  0.4312
 7009SOL    HW123920   5.817   8.955  10.727 -1.7770  0.5607  0.5024
 7009SOL    HW223921   5.686   8.947  10.653 -0.7979 -2.0383 -1.0744
 7010SOL     OW23922   7.442   1.128   8.274 -0.5618 -0.3267  0.3450
 7010SOL    HW123923   7.511   1.099   8.334 -1.0229  0.2608  1.1689
 7010SOL    HW223924   7.361   1.115   8.323 -0.8774  1.0235  0.1935
 7011SOL     OW23925   2.797   3.870   5.577  0.0845  0.2109 -0.4783
 7011SOL    HW123926   2.832   3.940   5.522 -0.2574  0.0371 -0.9250
 7011SOL    HW223927   2.704   3.868   5.558 -0.2826  1.0419  1.1405
 7012SOL     OW23928   6.451   6.037   0.072 -1.4439 -0.2565 -0.3569
 7012SOL    HW123929   6.450   6.126   0.108 -1.0307  0.2990 -1.6577
 7012SOL    HW223930   6.505   5.987   0.134 -0.2496  0.8102 -0.4802
 7013SOL     OW23931  10.563   4.257   9.715 -0.2219 -0.2048 -0.1702
 7013SOL    HW123932  10.500   4.328   9.699  0.0345  0.1930  0.5153
 7013SOL    HW223933  10.604   4.280   9.798 -0.1837 -1.2003  0.1028
 7014SOL     OW23934   4.594   2.066   9.389  0.8018  0.1757 -0.5335
 7014SOL    HW123935   4.631   2.022   9.312  0.2910 -0.3010 -0.5188
 7014SOL    HW223936   4.624   2.156   9.383  2.7231 -0.3917 -0.0335
 7015SOL     OW23937   3.632   9.098   5.620  0.1906 -0.5756 -0.6532
 7015SOL    HW123938   3.559   9.158   5.633  0.3950 -0.5311  0.3925
 7015SOL    HW223939   3.644   9.094   5.525 -1.8843 -1.4583 -0.9296
 7016SOL     OW23940   5.514   2.051   0.653 -0.1438  0.1267 -0.0197
 7016SOL    HW123941   5.495   2.077   0.563  1.1885 -0.0236 -0.3562
 7016SOL    HW223942   5.477   1.963   0.660  0.7138 -0.3122 -0.7800
 7017SOL     OW23943   8.358   8.776   8.157  0.3815 -0.2238 -0.1352
 7017SOL    HW123944   8.352   8.828   8.077 -1.9544 -0.3204 -0.1043
 7017SOL    HW223945   8.376   8.687   8.126  0.5392 -0.0791 -0.4668
 7018SOL     OW23946   8.313   0.728   5.503  0.1569 -0.4275 -0.4864
 7018SOL    HW123947   8.386   0.742   5.563 -0.3969 -0.1671  0.1351
 7018SOL    HW223948   8.335   0.779   5.425 -0.0576  0.8711  0.2766
 7019SOL     OW23949   8.258   5.650   9.657 -0.1453 -0.7661 -0.2266
 7019SOL    HW123950   8.249   5.555   9.652 -0.7958 -0.7755  0.7941
 7019SOL    HW223951   8.249   5.670   9.750  1.3385  0.1792 -0.2476
 7020SOL     OW23952   9.335   3.047   0.772 -0.0767 -0.3166  0.3723
 7020SOL    HW123953   9.430   3.039   0.773 -0.1684 -3.1188 -2.2374
 7020SOL    HW223954   9.306   2.997   0.848  0.4741 -1.5552 -0.2164
 7021SOL     OW23955   7.887   6.095   0.847  0.2945  0.4106  0.1905
 7021SOL    HW123956   7.975   6.059   0.849 -0.1687 -0.8230 -0.5566
 7021SOL    HW223957   7.857   6.082   0.757 -1.2164 -0.6592  0.7940
 7022SOL     OW23958   2.364  10.334   8.255 -0.3206  0.1455  0.2215
 7022SOL    HW123959   2.309  10.323   8.333 -1.7726 -1.0456 -0.9186
 7022SOL    HW223960   2.302  10.336   8.182  0.9955  1.3867 -0.9260
 7023SOL     OW23961   9.455   5.315   1.120  0.5395  0.2470  0.2013
 7023SOL    HW123962   9.389   5.341   1.056  0.1134  1.1431  0.9874
 7023SOL    HW223963   9.515   5.259   1.070  0.0607  0.6839 -0.9044
 7024SOL     OW23964   1.582   2.842   3.134 -0.2256 -0.5718  0.1357
 7024SOL    HW123965   1.603   2.749   3.125  1.0377 -0.1898 -1.3475
 7024SOL    HW223966   1.662   2.887   3.108 -1.1514  0.9470 -0.2022
 7025SOL     OW23967   9.270   9.131   2.414  0.4486  0.3141 -0.1942
 7025SOL    HW123968   9.187   9.127   2.461 -0.2885  0.3838 -1.4369
 7025SOL    HW223969   9.316   9.051   2.438 -0.0531  0.1876  0.3641
 7026SOL     OW23970   8.350   8.614   1.427  0.3486 -0.1909 -0.2807
 7026SOL    HW123971   8.325   8.550   1.494  0.8429  0.4351  0.5215
 7026SOL    HW223972   8.426   8.574   1.385  0.5410 -0.2243  0.0898
 7027SOL     OW23973   0.179   3.094   1.926 -0.0234 -0.4717 -0.2431
 7027SOL    HW123974   0.259   3.124   1.882 -0.6433  0.6760 -0.6228
 7027SOL    HW223975   0.193   3.115   2.018  0.8234 -1.8904 -0.0070
 7028SOL     OW23976   0.897  10.360   9.025  0.0021  0.5649  0.1625
 7028SOL    HW123977   0.951  10.314   8.961  0.4229  1.1304  0.1017
 7028SOL    HW223978   0.850  10.291   9.071 -0.4658  0.1565 -0.8971
 7029SOL     OW23979   5.074   2.099  10.076 -0.1977  0.1012  0.0585
 7029SOL    HW123980   5.095   2.027  10.016  2.5417  1.1935 -0.4534
 7029SOL    HW223981   5.016   2.060  10.141 -0.1156 -2.1267 -1.0927
 7030SOL     OW23982   0.142   8.919   1.397  0.1441  0.5248 -0.5055
 7030SOL    HW123983   0.142   8.827   1.421  0.6745  0.2182 -1.5911
 7030SOL    HW223984   0.051   8.948   1.410  0.2249  0.1827  0.9691
 7031SOL     OW23985  10.714   0.781   0.345  0.8735  0.2032 -0.1567
 7031SOL    HW123986  10.797   0.802   0.303 -0.3607  0.6486 -2.5556
 7031SOL    HW223987  10.672   0.719   0.286 -1.3097  1.4306 -0.0043
 7032SOL     OW23988   6.054   3.216   3.351 -0.4239  0.1936  0.0289
 7032SOL    HW123989   6.074   3.306   3.327 -1.9674  0.8255  0.9366
 7032SOL    HW223990   5.960   3.207   3.334 -0.6078 -0.7612  1.3254
 7033SOL     OW23991   4.461   4.941   1.859  0.7358  0.3588  0.2864
 7033SOL    HW123992   4.529   4.883   1.895  0.0056 -0.7803 -0.0907
 7033SOL    HW223993   4.459   4.919   1.766 -1.2053 -0.8065  0.5479
 7034SOL     OW23994   2.510   3.007   6.680 -0.0058 -0.2792  0.0604
 7034SOL    HW123995   2.441   2.945   6.655 -0.7765 -0.4606  2.3739
 7034SOL    HW223996   2.486   3.089   6.637 -0.6688 -0.8106 -0.6017
 7035SOL     OW23997   6.221   1.708   0.428  0.6670 -0.0024  0.0394
 7035SOL    HW123998   6.277   1.783   0.413  1.2929 -0.6141 -0.7464
 7035SOL    HW223999   6.140   1.745   0.463  1.8425  0.8192  2.0306
 7036SOL     OW24000   3.613   0.033  10.750  0.1341 -0.5766  0.5276
 7036SOL    HW124001   3.581  -0.020  10.822 -1.0635 -0.2344  0.2772
 7036SOL    HW224002   3.534   0.069  10.709  0.8247 -0.0195 -0.3828
 7037SOL     OW24003   6.313   8.300   5.572 -0.0028 -0.3412  0.0903
 7037SOL    HW124004   6.241   8.358   5.550  0.4783 -0.1859 -1.2104
 7037SOL    HW224005   6.275   8.232   5.628 -0.4899  1.4142  1.9944
 7038SOL     OW24006   0.489   1.007   9.927 -0.4932  0.0843  0.0162
 7038SOL    HW124007   0.422   1.075   9.917  0.7610  1.5140  0.9956
 7038SOL    HW224008   0.492   0.991  10.021  0.3628 -0.1665 -0.0515
 7039SOL     OW24009   7.446   4.006   2.011  0.6021  0.5215 -0.0829
 7039SOL    HW124010   7.386   4.011   2.086  0.2357 -1.5680 -0.1812
 7039SOL    HW224011   7.517   4.067   2.033 -1.0134  2.3054  0.4939
 7040SOL     OW24012   4.525   7.971  10.054  0.3976 -0.1686 -0.0506
 7040SOL    HW124013   4.472   7.972   9.975  1.4721  3.0898 -0.9160
 7040SOL    HW224014   4.557   7.882  10.061 -0.7988 -0.8804 -2.5357
 7041SOL     OW24015   3.130   1.236   4.267 -0.1437  0.0412  0.4136
 7041SOL    HW124016   3.205   1.276   4.223  0.2375 -1.2869 -0.1950
 7041SOL    HW224017   3.054   1.266   4.217  0.1946 -0.5107 -0.4636
 7042SOL     OW24018   6.484   8.331  10.778 -0.2032  0.1141 -0.0720
 7042SOL    HW124019   6.511   8.277  10.704 -2.3206  0.2301 -0.9905
 7042SOL    HW224020   6.389   8.331  10.774 -0.3142  1.8321  1.4453
 7043SOL     OW24021   8.197   5.902   6.825 -0.8394 -0.0265 -0.7382
 7043SOL    HW124022   8.292   5.889   6.826 -0.7872  0.4098  0.3125
 7043SOL    HW224023   8.167   5.849   6.750 -0.0072 -1.8304  0.1433
 7044SOL     OW24024   7.045   8.998   9.401  0.3043  0.2805  0.4277
 7044SOL    HW124025   6.976   9.020   9.464  1.4954  1.4678  1.3684
 7044SOL    HW224026   7.114   9.061   9.418  0.4248  1.0927 -2.5432
 7045SOL     OW24027   1.221   4.375   0.664 -0.2996 -0.6124  0.2773
 7045SOL    HW124028   1.255   4.462   0.645  0.4640 -0.9477  0.1050
 7045SOL    HW224029   1.139   4.369   0.614 -1.4626  0.7681  1.8765
 7046SOL     OW24030   0.926   3.801   9.919  0.1049 -0.8834 -0.0339
 7046SOL    HW124031   0.944   3.856   9.843  1.4186 -2.2419 -0.7586
 7046SOL    HW224032   0.831   3.796   9.923 -0.0040 -1.1715 -1.9229
 7047SOL     OW24033   7.443   1.010   9.819 -0.2850 -0.3408 -0.0128
 7047SOL    HW124034   7.497   1.067   9.874 -0.3521 -0.6680  0.3887
 7047SOL    HW224035   7.485   0.924   9.824  1.0021  0.0667 -2.2157
 7048SOL     OW24036  10.548   5.470   3.703 -0.6962 -0.5834 -0.8849
 7048SOL    HW124037  10.619   5.454   3.640 -0.9263  1.0720 -1.6325
 7048SOL    HW224038  10.592   5.500   3.782 -0.5142 -0.0548 -1.1781
 7049SOL     OW24039   3.216   9.284   1.859 -0.4614  0.4594 -0.1250
 7049SOL    HW124040   3.248   9.267   1.770  0.0205  0.0363  0.1271
 7049SOL    HW224041   3.200   9.197   1.895  1.9021  0.4812  1.1435
 7050SOL     OW24042   5.552   9.948   8.302  0.0776 -0.2135  0.1081
 7050SOL    HW124043   5.639   9.979   8.275  0.1345  1.2355  1.7625
 7050SOL    HW224044   5.570   9.877   8.363  0.0799 -0.3458 -0.0464
 7051SOL     OW24045   0.811   8.182   0.215  0.2350 -0.0331 -0.3629
 7051SOL    HW124046   0.802   8.172   0.309  0.3478 -0.2779 -0.3790
 7051SOL    HW224047   0.797   8.276   0.200  0.7094  0.0913 -0.0496
 7052SOL     OW24048   6.760   9.271  10.431  0.1253 -0.6108  0.1765
 7052SOL    HW124049   6.736   9.337  10.366  0.6749 -1.8530 -1.3555
 7052SOL    HW224050   6.677   9.245  10.471 -0.1953  0.3458  0.1556
 7053SOL     OW24051   9.330   8.627   9.673 -0.1310  0.0976 -0.4153
 7053SOL    HW124052   9.425   8.643   9.670  0.4330 -2.4981  0.8965
 7053SOL    HW224053   9.305   8.617   9.582  0.5662  2.1063 -0.8793
 7054SOL     OW24054   7.928   0.293   9.967 -1.2133 -0.3424  0.2711
 7054SOL    HW124055   7.961   0.222   9.912 -1.0801 -0.5324  0.5964
 7054SOL    HW224056   7.931   0.370   9.911 -1.4289 -0.6071 -0.1088
 7055SOL     OW24057  10.142   8.003   1.214  0.1585  0.1690 -0.2710
 7055SOL    HW124058  10.183   8.065   1.273  1.2218 -1.8744  1.2797
 7055SOL    HW224059  10.201   7.927   1.214 -0.5203 -0.4679 -2.8933
 7056SOL     OW24060  10.342   4.327   0.192 -0.4818 -0.2427  0.0090
 7056SOL    HW124061  10.276   4.266   0.226 -0.2449 -0.4221  0.1528
 7056SOL    HW224062  10.315   4.344   0.102 -1.8967  1.3102  0.6741
 7057SOL     OW24063   6.850   6.760   1.543  0.7202  0.2875  0.3627
 7057SOL    HW124064   6.770   6.709   1.547  1.7923 -1.5105 -0.0146
 7057SOL    HW224065   6.904   6.715   1.478  3.1434 -0.2402  2.5727
 7058SOL     OW24066   5.956   4.161   3.519  0.1054 -0.1779 -0.0646
 7058SOL    HW124067   5.973   4.069   3.497  0.5763 -0.1029 -0.0067
 7058SOL    HW224068   5.896   4.157   3.593  2.1244 -0.4750  1.6419
 7059SOL     OW24069   0.203   9.574   8.357 -0.2095 -0.3458  0.2331
 7059SOL    HW124070   0.256   9.495   8.344 -1.1311 -0.9103 -0.2039
 7059SOL    HW224071   0.195   9.582   8.452  1.4454  0.3128  0.3652
 7060SOL     OW24072   6.515   8.408   0.569  0.3563  0.3526  0.2149
 7060SOL    HW124073   6.542   8.316   0.565 -0.8273  0.0367 -2.6339
 7060SOL    HW224074   6.437   8.407   0.624  0.8921 -0.1767  0.9832
 7061SOL     OW24075  10.303   2.841   3.412 -0.1747  0.2039  0.2228
 7061SOL    HW124076  10.264   2.807   3.493  1.2302 -0.7922  0.5177
 7061SOL    HW224077  10.387   2.876   3.439  0.2511 -0.0053 -0.7894
 7062SOL     OW24078   0.441   2.895   7.898  0.1477  0.3500 -0.1795
 7062SOL    HW124079   0.531   2.867   7.883 -0.0854 -0.5727  0.0929
 7062SOL    HW224080   0.435   2.980   7.853  1.1943  0.5147 -0.0512
 7063SOL     OW24081   9.343   1.457   0.425 -0.1485  0.4266  0.2563
 7063SOL    HW124082   9.323   1.415   0.509 -0.9062 -2.9936 -1.4416
 7063SOL    HW224083   9.271   1.518   0.411 -1.5899 -1.0817  0.8342
 7064SOL     OW24084   5.719   2.993   8.433  0.6276  0.3565 -0.0633
 7064SOL    HW124085   5.778   3.006   8.508  1.8857 -0.6407 -0.8329
 7064SOL    HW224086   5.666   2.917   8.456  1.6934 -0.5639 -0.5506
 7065SOL     OW24087   0.906   4.506  10.683 -0.4336 -0.7298 -0.1614
 7065SOL    HW124088   0.839   4.502  10.614  0.4653 -2.8870 -1.0015
 7065SOL    HW224089   0.878   4.442  10.748 -1.2993  1.3281  1.6099
 7066SOL     OW24090   3.441   0.674   2.895  0.0704  0.3108 -0.3323
 7066SOL    HW124091   3.391   0.746   2.934 -0.1074  0.4387 -0.7933
 7066SOL    HW224092   3.405   0.664   2.807  0.7446  0.2930 -0.6162
 7067SOL     OW24093  10.458   3.159   0.160 -0.4046 -0.6482  0.1474
 7067SOL    HW124094  10.407   3.096   0.109 -0.7501 -0.8286  0.7119
 7067SOL    HW224095  10.394   3.224   0.189  0.2975  1.4677 -2.5836
 7068SOL     OW24096   5.709   0.522   8.356  0.4457 -0.8757 -0.0563
 7068SOL    HW124097   5.705   0.496   8.264 -2.1076 -0.7866 -0.0605
 7068SOL    HW224098   5.797   0.558   8.367  0.4369  0.2838 -2.7988
 7069SOL     OW24099   3.649   8.893   7.878 -0.2988  0.1783  0.0026
 7069SOL    HW124100   3.676   8.889   7.969  0.1462 -0.2870 -0.1417
 7069SOL    HW224101   3.662   8.803   7.845  2.2276  0.8876 -1.2507
 7070SOL     OW24102   2.166   7.285   5.616  0.3753  0.0983 -0.9014
 7070SOL    HW124103   2.230   7.342   5.658 -0.2661  0.5982 -0.5844
 7070SOL    HW224104   2.189   7.287   5.523 -0.0203  1.3727 -0.9816
 7071SOL     OW24105   4.642   0.778   7.355  0.3665  0.2039  0.7093
 7071SOL    HW124106   4.691   0.731   7.288 -0.5197  0.0815  0.1310
 7071SOL    HW224107   4.646   0.870   7.328  2.6280  0.6238  2.1691
 7072SOL     OW24108   5.755   3.704   0.942 -0.3667 -0.1665 -0.5321
 7072SOL    HW124109   5.671   3.657   0.948  0.2568 -1.2836 -0.1376
 7072SOL    HW224110   5.795   3.671   0.861  0.4963 -1.0696  0.2351
 7073SOL     OW24111   5.208   5.006   7.984 -0.0754 -0.5790  0.2187
 7073SOL    HW124112   5.174   5.085   8.026 -0.7283  0.3952 -1.9907
 7073SOL    HW224113   5.145   4.986   7.915  2.4608 -0.1159 -2.4766
 7074SOL     OW24114   9.398   3.531   2.548  0.2961 -0.1257  0.2929
 7074SOL    HW124115   9.378   3.530   2.642 -0.2720 -0.0243  0.1757
 7074SOL    HW224116   9.445   3.449   2.533  0.5198 -0.0737  0.6944
 7075SOL     OW24117   7.783   1.933  10.029  0.2669  0.0015  1.1656
 7075SOL    HW124118   7.718   1.911   9.962  1.5012  0.5266 -0.2675
 7075SOL    HW224119   7.755   2.018  10.063  1.1287  1.1123 -0.7505
 7076SOL     OW24120   8.249   2.217   9.141 -0.0476  0.5004  0.5272
 7076SOL    HW124121   8.163   2.258   9.130  0.1589  0.8428  0.1470
 7076SOL    HW224122   8.268   2.224   9.234 -1.2497 -1.2446  0.9428
 7077SOL     OW24123   2.067   7.978   6.207 -0.0207 -0.3349  0.3188
 7077SOL    HW124124   2.140   7.998   6.266  0.7961 -0.2987 -0.6809
 7077SOL    HW224125   2.001   8.044   6.228  0.4436 -0.0314  0.8591
 7078SOL     OW24126   3.183   9.065   5.308 -0.2457 -0.2875 -0.1213
 7078SOL    HW124127   3.123   9.058   5.233 -0.7715  0.0297  0.2652
 7078SOL    HW224128   3.195   9.160   5.320  1.7746 -0.3372 -1.3272
 7079SOL     OW24129   4.748   7.586   6.256 -0.5982 -0.1873 -0.3923
 7079SOL    HW124130   4.750   7.601   6.162  1.4963 -1.0503 -0.5463
 7079SOL    HW224131   4.829   7.625   6.289 -1.2759  0.0863  1.0816
 7080SOL     OW24132   1.698   1.051   8.130  0.0191  0.0769  0.3733
 7080SOL    HW124133   1.728   1.039   8.221  2.4266  1.2465 -0.1730
 7080SOL    HW224134   1.771   1.018   8.077 -0.6409  0.9433 -1.1084
 7081SOL     OW24135   3.440  10.580  10.391 -0.1990 -0.1402  0.9437
 7081SOL    HW124136   3.484  10.495  10.394 -0.4316 -0.2688  0.6706
 7081SOL    HW224137   3.512  10.643  10.387  0.0016 -0.4128 -1.7717
 7082SOL     OW24138  10.194  10.104   9.541 -0.3182  0.1388 -0.1802
 7082SOL    HW124139  10.251  10.060   9.479  1.2261  0.4822  0.9407
 7082SOL    HW224140  10.176  10.038   9.608  0.5466  0.6485  0.5784
 7083SOL     OW24141   4.166   7.930   2.634 -0.1445 -0.5062 -0.5519
 7083SOL    HW124142   4.260   7.951   2.630  0.2561 -2.2034 -0.6338
 7083SOL    HW224143   4.151   7.873   2.559 -0.3427 -3.4915  1.6053
 7084SOL     OW24144   2.867   5.106   1.580 -0.3997 -0.1729 -0.2170
 7084SOL    HW124145   2.901   5.017   1.575 -0.9795 -0.3489 -1.1080
 7084SOL    HW224146   2.810   5.105   1.658 -0.7728 -0.7140 -0.4865
 7085SOL     OW24147   9.902  10.738   3.437 -0.5788  0.1189 -0.3236
 7085SOL    HW124148   9.959  10.786   3.498  1.3542 -1.5462 -0.6886
 7085SOL    HW224149   9.877  10.659   3.485 -1.6679  0.2866 -0.5995
 7086SOL     OW24150   3.484   3.567   6.850  0.2911  0.0430  0.1159
 7086SOL    HW124151   3.566   3.611   6.828 -0.0994  1.1862  0.8350
 7086SOL    HW224152   3.502   3.474   6.837  0.6669  0.4737 -3.0028
 7087SOL     OW24153  10.149   1.299   6.352 -0.0919 -0.4697  0.0505
 7087SOL    HW124154  10.144   1.299   6.257  0.1022  0.0654  0.0350
 7087SOL    HW224155  10.224   1.242   6.372 -0.3463 -0.8611 -0.0991
 7088SOL     OW24156   8.060   4.717   8.784  0.4795  0.5422  0.4040
 7088SOL    HW124157   8.033   4.808   8.770  1.9132  0.8471 -0.5811
 7088SOL    HW224158   7.993   4.665   8.742  0.6543  1.2200 -0.7432
 7089SOL     OW24159   4.165   1.290   3.177 -0.4819 -0.1606  0.3176
 7089SOL    HW124160   4.104   1.271   3.105 -0.8729  0.9793  0.3399
 7089SOL    HW224161   4.225   1.355   3.141  1.8117 -2.4350 -0.2662
 7090SOL     OW24162   6.105   9.326   2.089  0.7089  0.5894  0.2131
 7090SOL    HW124163   6.021   9.293   2.120  0.8121  0.3128  0.2060
 7090SOL    HW224164   6.111   9.296   1.998 -0.8041  3.6659 -1.0341
 7091SOL     OW24165   6.485   0.762   2.606 -0.4810  0.1202 -0.0219
 7091SOL    HW124166   6.405   0.788   2.560 -1.1879  1.1823  1.7150
 7091SOL    HW224167   6.556   0.793   2.550 -1.1945 -1.5865 -2.0236
 7092SOL     OW24168   3.842  10.312   6.979  0.3715  0.2505  0.2416
 7092SOL    HW124169   3.788  10.248   6.933 -0.9624  1.3318  0.2140
 7092SOL    HW224170   3.915  10.262   7.014 -1.1938 -1.4999  1.2009
 7093SOL     OW24171  10.627   3.961   6.441 -0.5496  0.2737 -0.4588
 7093SOL    HW124172  10.613   4.005   6.525 -0.8117 -0.6521 -0.0029
 7093SOL    HW224173  10.716   3.928   6.446 -0.8369 -0.4862 -0.1983
 7094SOL     OW24174   3.093   0.058   7.704  0.2586  0.6161 -0.3732
 7094SOL    HW124175   3.019   0.051   7.644  1.0385  2.3581 -1.6343
 7094SOL    HW224176   3.078  -0.010   7.770 -2.8041  1.3345 -0.1856
 7095SOL     OW24177   2.619   3.111   3.038 -0.0838 -0.5268  0.5635
 7095SOL    HW124178   2.596   3.025   3.002 -2.1851  0.7171 -1.3497
 7095SOL    HW224179   2.546   3.133   3.096 -0.1865  0.4364  0.0970
 7096SOL     OW24180   2.730   5.884   0.411  0.4508 -0.0379  0.3846
 7096SOL    HW124181   2.722   5.931   0.328 -0.8424 -1.7856 -0.5424
 7096SOL    HW224182   2.821   5.852   0.411  1.1408  1.8042  0.7230
 7097SOL     OW24183   6.866   3.187   0.946 -0.3284 -0.1920 -0.1452
 7097SOL    HW124184   6.832   3.242   0.875 -1.9969 -0.9360  0.0203
 7097SOL    HW224185   6.961   3.191   0.936 -0.4543  1.5319 -1.0183
 7098SOL     OW24186   0.871   1.796   0.445  0.9324 -0.3957  0.4845
 7098SOL    HW124187   0.820   1.802   0.526 -0.0298  1.6754 -0.2030
 7098SOL    HW224188   0.910   1.883   0.435  2.3020 -1.0823 -0.5125
 7099SOL     OW24189  10.527   1.705   9.684  0.2194  0.2838 -0.1313
 7099SOL    HW124190  10.611   1.672   9.654  0.3047  2.4614 -2.6840
 7099SOL    HW224191  10.481   1.731   9.604 -2.5591 -0.0138  1.2180
 7100SOL     OW24192   6.339   6.549   2.273  0.6008  0.3877  0.4993
 7100SOL    HW124193   6.248   6.530   2.248  0.0200  0.7374  2.1960
 7100SOL    HW224194   6.347   6.511   2.361  2.3962 -0.4305  0.0145
 7101SOL     OW24195   3.177   7.210   5.773 -0.0340 -0.6489  0.0913
 7101SOL    HW124196   3.176   7.298   5.736  1.0709 -0.7097 -0.1130
 7101SOL    HW224197   3.134   7.219   5.858  1.2925  0.3829  0.6856
 7102SOL     OW24198   7.770   6.504   8.597 -0.1597  0.4363 -0.1120
 7102SOL    HW124199   7.825   6.579   8.571  1.8687 -1.3504 -1.2989
 7102SOL    HW224200   7.829   6.449   8.648 -1.6967 -0.2644  0.9524
 7103SOL     OW24201   6.950   9.291   6.630  0.2839 -0.1941  0.4202
 7103SOL    HW124202   6.899   9.372   6.641  1.7434  0.7677  0.3951
 7103SOL    HW224203   7.022   9.316   6.572  0.7008 -1.5646  0.3130
 7104SOL     OW24204   3.479  10.351   1.042  0.1581 -0.2095 -0.4590
 7104SOL    HW124205   3.408  10.374   1.102  0.1724  1.4540 -1.0482
 7104SOL    HW224206   3.435  10.306   0.969 -0.2938  0.7495 -0.7894
 7105SOL     OW24207   3.593   1.124   0.334 -0.4827  0.3437 -0.3855
 7105SOL    HW124208   3.645   1.146   0.256 -2.3958 -0.3482 -1.9369
 7105SOL    HW224209   3.634   1.045   0.369 -1.2506 -1.0018 -2.3931
 7106SOL     OW24210   6.058   8.930   6.289  0.2970 -0.0545  0.1950
 7106SOL    HW124211   6.118   8.880   6.345 -1.6733 -2.0142  0.7056
 7106SOL    HW224212   6.112   8.959   6.216  2.1132 -0.6965  1.2135
 7107SOL     OW24213   6.569   8.043  10.173  0.2301 -0.3219  0.7922
 7107SOL    HW124214   6.664   8.031  10.172  0.4926  1.2928 -1.1694
 7107SOL    HW224215   6.537   7.989  10.101 -0.0440  0.7663  0.0700
 7108SOL     OW24216   6.514   9.425   6.684  0.2850 -0.0157  0.5695
 7108SOL    HW124217   6.454   9.459   6.617 -0.3501 -0.2013  1.0369
 7108SOL    HW224218   6.459   9.369   6.739  0.7181  0.4395  1.4767
 7109SOL     OW24219   7.681   2.510   6.100  0.4079 -0.0466  0.2185
 7109SOL    HW124220   7.722   2.558   6.029 -0.0470 -0.0636 -0.0615
 7109SOL    HW224221   7.749   2.452   6.133  1.0235  0.9182  0.6941
 7110SOL     OW24222   7.167   1.439   2.005  0.2525 -0.1441  0.2761
 7110SOL    HW124223   7.116   1.364   1.976 -0.8549  1.2165 -1.5074
 7110SOL    HW224224   7.122   1.471   2.083 -0.2549 -0.3328  0.0621
 7111SOL     OW24225   6.100   3.098   6.511 -0.2026 -0.2925 -0.1464
 7111SOL    HW124226   6.110   3.104   6.606 -0.6458  0.1956 -0.1300
 7111SOL    HW224227   6.190   3.088   6.478 -0.1998 -3.0735  0.4774
 7112SOL     OW24228   1.336   8.445   8.458  0.1422 -0.0649 -0.6069
 7112SOL    HW124229   1.302   8.460   8.370 -0.2767  0.7501 -0.3192
 7112SOL    HW224230   1.405   8.511   8.469 -0.7419  0.7639  0.1612
 7113SOL     OW24231   1.165   2.001   9.896 -0.6158  0.0762  0.0072
 7113SOL    HW124232   1.099   1.939   9.867  0.7493 -0.6245 -1.7680
 7113SOL    HW224233   1.201   2.037   9.815 -0.0525  1.7896  0.9637
 7114SOL     OW24234  10.074   1.618   3.772 -0.0736  0.7115  0.2481
 7114SOL    HW124235  10.111   1.532   3.752  1.2631  1.2115  0.4753
 7114SOL    HW224236  10.030   1.645   3.691  1.1148  0.6137 -0.4529
 7115SOL     OW24237   0.931   5.776   2.321  0.2912  0.0920  0.1083
 7115SOL    HW124238   0.922   5.785   2.416 -0.0368 -0.2123  0.1064
 7115SOL    HW224239   0.857   5.722   2.295  1.2283 -1.0974 -0.1253
 7116SOL     OW24240   7.005   4.654   9.047  0.1341 -0.4087 -0.0190
 7116SOL    HW124241   6.949   4.670   8.972 -3.1304 -1.5621  1.9443
 7116SOL    HW224242   7.071   4.723   9.044 -1.8649  1.5567 -2.1215
 7117SOL     OW24243   7.779   0.610   9.534  0.3633 -0.0139 -0.3620
 7117SOL    HW124244   7.797   0.659   9.614  0.1003  2.8584 -1.9412
 7117SOL    HW224245   7.689   0.580   9.543 -0.1371  1.5070 -0.1341
 7118SOL     OW24246   9.407  10.046   1.165 -0.0268 -0.1190  0.2061
 7118SOL    HW124247   9.423  10.031   1.259 -0.9302 -1.4056  0.1793
 7118SOL    HW224248   9.315  10.074   1.161 -0.4596 -1.5566 -0.4179
 7119SOL     OW24249   2.896   5.059   2.164  0.1202  0.0459 -0.2492
 7119SOL    HW124250   2.914   5.128   2.228  0.7862 -1.1442  0.8981
 7119SOL    HW224251   2.893   5.105   2.080 -1.6462  1.7907  0.6843
 7120SOL     OW24252   8.328   5.266   7.187  0.2431 -0.3815 -0.4253
 7120SOL    HW124253   8.423   5.281   7.182  0.2741 -0.1277  0.6670
 7120SOL    HW224254   8.292   5.351   7.211 -0.2141 -0.6062 -0.3180
 7121SOL     OW24255   3.241   3.192   5.779 -0.2210 -0.0003 -0.4011
 7121SOL    HW124256   3.327   3.166   5.747 -0.2361  1.1431 -1.4198
 7121SOL    HW224257   3.258   3.267   5.836 -0.6575  1.1344 -1.7333
 7122SOL     OW24258   0.899   9.888   2.790 -0.0805 -0.5257 -0.6309
 7122SOL    HW124259   0.823   9.916   2.738 -0.5808 -0.8823 -0.1114
 7122SOL    HW224260   0.967   9.952   2.770 -0.1958 -0.7623 -1.8673
 7123SOL     OW24261   8.894   9.277   7.307 -0.0734  0.2027 -0.1757
 7123SOL    HW124262   8.898   9.201   7.366  1.5459 -0.5591 -1.1727
 7123SOL    HW224263   8.828   9.253   7.242  0.5679 -0.4696 -0.5974
 7124SOL     OW24264   6.200   0.116   6.173 -0.1330 -0.2013 -0.3160
 7124SOL    HW124265   6.110   0.082   6.173 -0.6797  1.1830 -0.7040
 7124SOL    HW224266   6.233   0.094   6.085  0.6668 -2.4953  0.4692
 7125SOL     OW24267   6.231   3.532   0.761  0.0659  0.2338  0.0650
 7125SOL    HW124268   6.202   3.441   0.756  0.4846  0.0811  0.3817
 7125SOL    HW224269   6.224   3.564   0.672  0.2186 -0.2065 -0.1081
 7126SOL     OW24270   1.390   6.612   1.689  0.2570 -0.3332 -0.3710
 7126SOL    HW124271   1.484   6.633   1.687  0.5033 -0.2321  3.8514
 7126SOL    HW224272   1.348   6.691   1.723 -0.7753 -1.6605  1.5805
 7127SOL     OW24273   5.872   9.348  10.192  0.3133  0.2035  0.1464
 7127SOL    HW124274   5.777   9.340  10.195  0.2364  0.7558 -0.4446
 7127SOL    HW224275   5.897   9.307  10.109  0.7781 -1.4484  1.0567
 7128SOL     OW24276   8.409  10.485   2.135 -0.3927  0.5769  0.2307
 7128SOL    HW124277   8.336  10.440   2.176 -0.7120 -0.0534 -0.9758
 7128SOL    HW224278   8.427  10.560   2.192 -0.1083 -0.8350  2.0704
 7129SOL     OW24279   9.968  10.164   8.339  0.0613  0.0618  0.3820
 7129SOL    HW124280   9.903  10.188   8.405  0.3245 -0.8777  0.9961
 7129SOL    HW224281  10.052  10.178   8.383  0.2813  0.8375 -0.2585
 7130SOL     OW24282  10.562   5.023   8.516  0.0604  0.5045 -0.5158
 7130SOL    HW124283  10.537   5.044   8.426 -0.9674  0.6100 -0.2111
 7130SOL    HW224284  10.586   4.930   8.513  0.8730  0.7221 -1.0686
 7131SOL     OW24285   7.271   6.681   1.572 -0.1063  0.2241  0.4910
 7131SOL    HW124286   7.238   6.714   1.655  0.9314 -0.1284  1.0597
 7131SOL    HW224287   7.281   6.587   1.587 -0.3339  0.0865 -0.1861
 7132SOL     OW24288   6.783   8.354   7.644 -0.0853  0.2961  0.3970
 7132SOL    HW124289   6.715   8.420   7.634 -0.1238  0.0844 -0.8430
 7132SOL    HW224290   6.800   8.351   7.738 -1.8765  0.2456  0.7531
 7133SOL     OW24291   5.672   3.347   2.276 -0.6496 -0.4152 -0.1696
 7133SOL    HW124292   5.731   3.420   2.292 -0.5914 -0.0938 -1.6556
 7133SOL    HW224293   5.599   3.361   2.336 -1.0848  1.4054 -1.0589
 7134SOL     OW24294   0.382   4.421   9.960 -0.3134 -0.3402 -0.7203
 7134SOL    HW124295   0.338   4.336   9.973 -1.2119  0.1480 -0.4576
 7134SOL    HW224296   0.416   4.444  10.046 -1.5048  0.3196 -0.3968
 7135SOL     OW24297   5.037   6.056   9.532 -0.1536 -0.4870 -0.1130
 7135SOL    HW124298   5.026   6.146   9.562  1.5551 -0.9316  2.1434
 7135SOL    HW224299   4.950   6.018   9.539 -0.4865  0.4251  1.0811
 7136SOL     OW24300   8.451   2.247  10.087  0.3930 -0.0481  0.4053
 7136SOL    HW124301   8.487   2.312  10.147  2.6819  0.1750 -1.0846
 7136SOL    HW224302   8.511   2.172  10.094  1.4972  0.4406 -2.3680
 7137SOL     OW24303   8.446   5.441   5.684  0.3958  0.4800 -0.1761
 7137SOL    HW124304   8.491   5.433   5.600  0.0348 -1.4258 -0.2342
 7137SOL    HW224305   8.354   5.424   5.664  0.4925 -1.4250  0.7612
 7138SOL     OW24306  10.326   7.361   6.899 -0.5474  0.1488 -0.4307
 7138SOL    HW124307  10.378   7.301   6.846  0.2345 -0.2150  0.7044
 7138SOL    HW224308  10.377   7.443   6.899 -0.4742  0.1058 -0.1443
 7139SOL     OW24309   7.233   3.656   2.437  0.1054  0.4302 -0.0672
 7139SOL    HW124310   7.302   3.719   2.457  0.2326  0.6951 -1.2617
 7139SOL    HW224311   7.169   3.705   2.386 -0.2267 -0.1834 -0.2609
 7140SOL     OW24312   3.901   3.459   7.764 -0.1342 -0.4624 -0.3093
 7140SOL    HW124313   3.949   3.379   7.786  2.3369  1.0877  0.3973
 7140SOL    HW224314   3.867   3.443   7.676  0.2743 -2.2872 -0.1840
 7141SOL     OW24315   6.298   4.670   7.653 -0.6106 -0.3654 -0.2642
 7141SOL    HW124316   6.268   4.636   7.569  0.2094 -2.4352  0.2241
 7141SOL    HW224317   6.323   4.593   7.704  3.3333  0.9730  0.2037
 7142SOL     OW24318  10.754   6.628   6.444 -0.7183 -0.2172  0.0990
 7142SOL    HW124319  10.774   6.604   6.354  0.2621  1.3395 -0.1475
 7142SOL    HW224320  10.823   6.690   6.468  0.5467 -2.4562  2.8036
 7143SOL     OW24321   7.952   0.904   7.107 -0.4998  0.0906  0.2847
 7143SOL    HW124322   7.890   0.972   7.134 -0.6064 -0.8054  2.5528
 7143SOL    HW224323   8.028   0.918   7.163 -0.1770 -1.0918  0.1662
 7144SOL     OW24324  10.694  10.082   8.501  0.0002  0.3564  0.9486
 7144SOL    HW124325  10.737  10.082   8.586 -1.3651 -1.9080  1.7299
 7144SOL    HW224326  10.672   9.990   8.485  3.1775  0.0523 -3.4716
 7145SOL     OW24327   5.667   7.735   4.107 -0.1703 -0.4097 -0.0450
 7145SOL    HW124328   5.700   7.651   4.077  2.7514  0.9174 -0.9098
 7145SOL    HW224329   5.662   7.728   4.202 -0.6695 -1.7505 -0.1570
 7146SOL     OW24330   8.460   5.492   7.483  0.1876 -0.1548  0.3906
 7146SOL    HW124331   8.551   5.523   7.489  1.7101 -3.3817 -2.6865
 7146SOL    HW224332   8.451   5.429   7.555 -0.2006  1.1556  1.5538
 7147SOL     OW24333   6.411   5.803   0.412 -0.0647  0.4230 -0.2047
 7147SOL    HW124334   6.329   5.804   0.362  0.5735 -2.4950 -1.5013
 7147SOL    HW224335   6.404   5.726   0.468  2.4029 -0.8528 -1.5309
 7148SOL     OW24336   8.426   0.768   9.291  0.1358  0.0376 -0.0656
 7148SOL    HW124337   8.346   0.729   9.256 -0.7795 -0.1416  2.0831
 7148SOL    HW224338   8.446   0.717   9.369  4.2522 -2.0236 -2.1705
 7149SOL     OW24339   2.494   3.166   6.138 -0.2998 -1.1925 -0.7655
 7149SOL    HW124340   2.517   3.149   6.047  0.6728  0.3331 -0.8394
 7149SOL    HW224341   2.475   3.260   6.141 -1.2359 -1.3969  0.4235
 7150SOL     OW24342   8.322  10.415   2.975 -0.0645 -0.0756  0.2576
 7150SOL    HW124343   8.314  10.485   3.039 -0.0666 -1.9652  2.4816
 7150SOL    HW224344   8.413  10.418   2.947 -0.0536  0.7778  0.3701
 7151SOL     OW24345   5.749   5.259   1.721 -0.3244  0.1295  0.3437
 7151SOL    HW124346   5.796   5.236   1.641  0.9669  1.1058  0.7981
 7151SOL    HW224347   5.784   5.344   1.747 -0.9790  0.0020  1.7583
 7152SOL     OW24348   8.663   1.601   2.524  0.2502  0.1864 -0.2471
 7152SOL    HW124349   8.728   1.534   2.502  0.5424  0.6149 -0.6907
 7152SOL    HW224350   8.683   1.624   2.615  0.6387  0.2281 -0.3417
 7153SOL     OW24351   4.197   2.501   7.348 -0.1635  0.0421  0.1899
 7153SOL    HW124352   4.174   2.428   7.405  0.9705 -1.3414 -1.0492
 7153SOL    HW224353   4.289   2.519   7.368  0.2318 -0.4297 -1.1515
 7154SOL     OW24354   2.709   3.119   8.999 -0.2253  0.3517 -0.6196
 7154SOL    HW124355   2.654   3.169   9.059 -1.3253 -0.9348 -0.5211
 7154SOL    HW224356   2.648   3.065   8.949  0.8967 -0.6610 -0.9417
 7155SOL     OW24357   8.983   6.244   5.759 -0.3836  0.4203 -0.0247
 7155SOL    HW124358   8.996   6.301   5.835 -0.6336  1.9914 -1.1166
 7155SOL    HW224359   9.061   6.190   5.756  0.7761  2.0265 -0.0524
 7156SOL     OW24360   4.149   8.645   8.663  0.3830 -0.2077 -0.0323
 7156SOL    HW124361   4.170   8.585   8.734 -0.4893  0.2707  0.6510
 7156SOL    HW224362   4.063   8.616   8.632 -0.0100  0.6072  0.2482
 7157SOL     OW24363   3.410   2.156   4.921  0.2357  0.2078 -0.6208
 7157SOL    HW124364   3.390   2.145   5.014  3.5661 -5.1660 -0.1532
 7157SOL    HW224365   3.504   2.173   4.918  0.1220  0.8198 -3.0531
 7158SOL     OW24366  10.286   6.179   4.876 -0.3229  0.3292 -0.1352
 7158SOL    HW124367  10.216   6.135   4.827 -0.1837  1.1110 -1.0569
 7158SOL    HW224368  10.364   6.167   4.822 -0.3146  1.8363 -0.4846
 7159SOL     OW24369   8.075   6.118   0.431 -0.0458  0.4698 -0.1274
 7159SOL    HW124370   8.130   6.110   0.509  2.0940 -1.1239 -1.6724
 7159SOL    HW224371   8.009   6.049   0.441 -0.0230  0.5256  0.4413
 7160SOL     OW24372   1.835   4.076   8.425  0.0052  0.3623 -0.4361
 7160SOL    HW124373   1.771   4.147   8.422 -1.5176 -0.9209  0.0832
 7160SOL    HW224374   1.793   4.009   8.480  1.5046 -0.8151 -0.6764
 7161SOL     OW24375   3.802   9.771   9.235  0.3789  0.1777 -0.4190
 7161SOL    HW124376   3.851   9.696   9.268  0.9564 -0.0904 -1.8321
 7161SOL    HW224377   3.863   9.815   9.176 -1.1926 -0.3940 -2.5545
 7162SOL     OW24378   9.286   5.722  10.319  0.4130  0.1506  0.0768
 7162SOL    HW124379   9.286   5.702  10.413 -1.2400 -2.3700 -0.3467
 7162SOL    HW224380   9.220   5.790  10.309 -1.5723 -1.6065  0.4937
 7163SOL     OW24381   5.705   3.039   6.737 -0.1484 -0.0900 -0.0659
 7163SOL    HW124382   5.794   3.009   6.722 -0.2756 -1.5840  1.8282
 7163SOL    HW224383   5.694   3.037   6.832 -1.5121  2.2121 -0.1091
 7164SOL     OW24384   6.196   5.348   8.063 -0.7900  0.0105  0.5356
 7164SOL    HW124385   6.115   5.319   8.021 -0.8215  0.6516  0.1476
 7164SOL    HW224386   6.252   5.377   7.990 -0.0538 -0.7955  0.7612
 7165SOL     OW24387  10.275   5.277   7.812 -0.5262  0.0588 -0.2727
 7165SOL    HW124388  10.369   5.265   7.827 -0.2086  2.2080 -0.1349
 7165SOL    HW224389  10.237   5.190   7.822  1.4012 -0.7908  0.0514
 7166SOL     OW24390   6.040   4.968   7.916  0.9221  0.7115 -0.0623
 7166SOL    HW124391   5.986   4.907   7.966  1.0902  0.1716 -0.5278
 7166SOL    HW224392   5.999   5.054   7.931 -0.1317  0.3035 -0.4798
 7167SOL     OW24393  10.633   4.418   0.106  0.0545  0.1184 -0.2025
 7167SOL    HW124394  10.665   4.491   0.053  0.4265  0.5640  0.6184
 7167SOL    HW224395  10.701   4.351   0.099 -1.4715 -1.3121 -3.1595
 7168SOL     OW24396   7.475   5.301   1.194  0.2808  0.7027  0.7102
 7168SOL    HW124397   7.553   5.250   1.171 -0.3487  0.3378 -0.7992
 7168SOL    HW224398   7.403   5.252   1.153 -0.7191  1.1188  1.9399
 7169SOL     OW24399   8.241   2.612   9.100 -0.8998  0.3767 -0.3448
 7169SOL    HW124400   8.296   2.538   9.124 -3.1029 -1.2270  0.0909
 7169SOL    HW224401   8.298   2.668   9.048  1.3260 -0.7725  0.7092
 7170SOL     OW24402   0.855  10.022   0.844  0.4770 -0.0913  0.0123
 7170SOL    HW124403   0.925  10.044   0.783  0.6435  0.2130  0.3079
 7170SOL    HW224404   0.776  10.017   0.790  0.6629 -0.0559 -0.2628
 7171SOL     OW24405   2.008   4.924   5.645  0.1691 -0.1159  0.0926
 7171SOL    HW124406   2.046   4.883   5.723 -0.9088  1.2181  1.3597
 7171SOL    HW224407   2.079   4.924   5.581  0.9549 -1.6058  0.9144
 7172SOL     OW24408   9.719   4.806   6.581  0.0879 -0.0962 -0.1466
 7172SOL    HW124409   9.737   4.749   6.506  0.6000  0.1633 -0.2209
 7172SOL    HW224410   9.740   4.894   6.551  0.2432  0.0190  0.2855
 7173SOL     OW24411  10.209   3.520   2.866  0.5755 -0.2369  0.0948
 7173SOL    HW124412  10.204   3.425   2.855 -2.5404 -0.4133  1.8154
 7173SOL    HW224413  10.165   3.536   2.949  0.8472  2.7582 -0.2436
 7174SOL     OW24414   8.361  10.010   5.371 -0.0546 -0.7006  0.3584
 7174SOL    HW124415   8.291  10.067   5.337 -0.8652 -0.7566  1.8468
 7174SOL    HW224416   8.439  10.035   5.321 -1.4853 -1.9865 -2.7462
 7175SOL     OW24417   1.529   8.182   4.367 -0.0935 -0.2690  0.2616
 7175SOL    HW124418   1.582   8.124   4.312 -0.6873  0.8119 -1.5267
 7175SOL    HW224419   1.492   8.124   4.434  1.7198 -1.3923  0.3607
 7176SOL     OW24420   3.214   4.343   4.907 -0.3385 -0.5813 -0.1595
 7176SOL    HW124421   3.164   4.417   4.871  1.0691  0.3088 -0.3606
 7176SOL    HW224422   3.195   4.346   5.001 -2.5609 -1.7835 -0.4869
 7177SOL     OW24423  10.097   2.316   8.840 -0.0929 -0.1359 -0.7726
 7177SOL    HW124424  10.101   2.324   8.935  0.4005 -2.0213 -0.5966
 7177SOL    HW224425  10.184   2.343   8.810 -0.3843  0.8742 -0.7522
 7178SOL     OW24426   3.764   2.199   3.499 -0.0266 -0.3375 -0.2273
 7178SOL    HW124427   3.706   2.246   3.559  1.7539  1.6451  0.0360
 7178SOL    HW224428   3.717   2.201   3.415 -0.7429  0.4561  0.1732
 7179SOL     OW24429   6.362   4.149   4.643 -0.3174 -1.0343  0.2048
 7179SOL    HW124430   6.300   4.217   4.671 -0.2278 -0.3133 -1.2509
 7179SOL    HW224431   6.444   4.172   4.687 -0.2221 -0.0286 -0.4664
 7180SOL     OW24432   4.491   9.260  10.225  0.1982 -0.4816 -0.4478
 7180SOL    HW124433   4.483   9.355  10.214  2.7987  0.2219  2.3081
 7180SOL    HW224434   4.450   9.242  10.309  1.8416 -1.3344  0.2166
 7181SOL     OW24435   1.816   3.903   3.801 -0.1813 -0.0213 -0.1385
 7181SOL    HW124436   1.748   3.965   3.827 -1.8468 -2.6538  2.3554
 7181SOL    HW224437   1.775   3.817   3.810  2.5037 -1.6294 -1.8084
 7182SOL     OW24438   2.430   7.329   2.369 -0.7194  0.3745 -0.3987
 7182SOL    HW124439   2.439   7.354   2.461  0.8850  0.7436 -0.6186
 7182SOL    HW224440   2.445   7.235   2.368 -1.2052  0.2925 -0.2369
 7183SOL     OW24441   7.187   5.682   4.993 -0.2519 -0.0429  0.4894
 7183SOL    HW124442   7.150   5.698   4.906 -0.7237  0.0797  0.7058
 7183SOL    HW224443   7.142   5.605   5.025  0.3099 -0.4083  0.4133
 7184SOL     OW24444  10.511   5.542  10.760  0.0844 -0.1712 -0.1193
 7184SOL    HW124445  10.584   5.604  10.771  0.7572 -1.1787  1.4676
 7184SOL    HW224446  10.434   5.590  10.792  0.7396 -0.3846  1.9122
 7185SOL     OW24447   1.404   7.518   6.792 -0.3195 -0.3698  0.9375
 7185SOL    HW124448   1.382   7.543   6.702  0.5830 -1.2328  0.4561
 7185SOL    HW224449   1.348   7.574   6.847  0.6224  1.7038 -0.0893
 7186SOL     OW24450   3.648   4.116   7.549  0.0279  0.2295  0.0754
 7186SOL    HW124451   3.644   4.079   7.637  0.5803 -1.0744 -0.4200
 7186SOL    HW224452   3.736   4.154   7.543 -0.2996  1.0477  0.3530
 7187SOL     OW24453  10.418   1.466   7.954  0.1228 -0.0185  0.0088
 7187SOL    HW124454  10.370   1.412   7.891 -0.0077 -0.8458  0.7904
 7187SOL    HW224455  10.406   1.556   7.923  0.3246 -0.4167 -1.3155
 7188SOL     OW24456   8.496   2.576  10.728  0.3728  0.2686 -0.3066
 7188SOL    HW124457   8.508   2.630  10.649 -0.9157 -0.2749 -0.8982
 7188SOL    HW224458   8.524   2.489  10.701  0.6519  0.2351  0.0813
 7189SOL     OW24459  10.193   4.013   1.688 -0.4557 -0.6519 -0.5618
 7189SOL    HW124460  10.102   4.042   1.696 -0.2262  0.4862 -1.6145
 7189SOL    HW224461  10.230   4.072   1.622  0.5372 -2.3315 -1.5664
 7190SOL     OW24462   1.820   8.950   4.210 -0.5704  0.0167 -0.0071
 7190SOL    HW124463   1.735   8.963   4.252 -0.3739  2.9787 -0.2719
 7190SOL    HW224464   1.879   9.007   4.258  1.2910 -1.8437  0.0423
 7191SOL     OW24465   4.526   8.974   2.069  0.4076  0.5421 -0.2196
 7191SOL    HW124466   4.542   8.908   2.002  1.1060  1.7733 -1.3065
 7191SOL    HW224467   4.461   9.032   2.030  0.6552  1.1499  0.2630
 7192SOL     OW24468  10.562   2.844   2.364 -0.4122  0.1058 -0.2088
 7192SOL    HW124469  10.499   2.891   2.311  1.3733  1.9091 -0.8659
 7192SOL    HW224470  10.606   2.913   2.416  1.9411 -0.8311 -0.8132
 7193SOL     OW24471   5.506   2.794   4.213  0.6937  0.0746  0.2512
 7193SOL    HW124472   5.440   2.861   4.200  1.4073  1.1754  1.9604
 7193SOL    HW224473   5.516   2.753   4.127 -2.0063  0.0025 -0.1168
 7194SOL     OW24474   3.501   5.828   8.221 -0.2762 -0.8076 -0.0458
 7194SOL    HW124475   3.534   5.845   8.133  0.0613  0.5224  0.3017
 7194SOL    HW224476   3.552   5.754   8.253  0.5450 -0.4349 -0.4754
 7195SOL     OW24477   7.974   0.981   1.458 -0.1294 -0.3925 -0.3934
 7195SOL    HW124478   8.064   0.987   1.425  0.0126  1.4312  0.2524
 7195SOL    HW224479   7.983   0.932   1.540  0.0531 -1.4008 -0.9877
 7196SOL     OW24480   5.617   5.306   5.478  0.1319  0.0312 -0.1054
 7196SOL    HW124481   5.687   5.334   5.537  0.4196  0.2480 -0.5457
 7196SOL    HW224482   5.622   5.366   5.405 -0.7698  0.2936  0.0345
 7197SOL     OW24483   1.873   8.102   6.875  0.5130 -0.1529  0.5308
 7197SOL    HW124484   1.904   8.180   6.830  0.7686  0.3971  1.6415
 7197SOL    HW224485   1.952   8.052   6.894  0.3823 -0.5063  0.1764
 7198SOL     OW24486   3.539   7.804   9.377  0.5446  0.4735 -0.6281
 7198SOL    HW124487   3.464   7.784   9.322  1.0697  2.1423 -2.0451
 7198SOL    HW224488   3.507   7.871   9.438  0.3737 -0.2695  0.1184
 7199SOL     OW24489   8.502   9.625   2.949  0.8323 -0.2090 -0.1250
 7199SOL    HW124490   8.532   9.560   3.012  1.0702 -1.6886 -1.6958
 7199SOL    HW224491   8.407   9.614   2.946  0.4444  1.8512  2.0274
 7200SOL     OW24492   5.885   7.774  10.067  0.0518  0.2721 -0.5198
 7200SOL    HW124493   5.815   7.763  10.132  1.2853 -0.0372  0.8124
 7200SOL    HW224494   5.928   7.689  10.064  0.7980  0.6514 -0.8028
 7201SOL     OW24495   2.304   6.687   7.051  0.0799  0.3053 -0.1412
 7201SOL    HW124496   2.273   6.597   7.039  1.6002 -0.2344 -0.1765
 7201SOL    HW224497   2.224   6.737   7.069 -0.7857 -1.0557 -0.0284
 7202SOL     OW24498   5.520   0.115   6.055  0.6763 -0.5688 -0.1835
 7202SOL    HW124499   5.431   0.113   6.092 -0.4715 -3.2248 -2.7275
 7202SOL    HW224500   5.535   0.207   6.033 -1.4487 -0.0600  0.3042
 7203SOL     OW24501   9.235   0.908   0.077  0.2124  0.4732 -0.2186
 7203SOL    HW124502   9.155   0.857   0.089  0.2314  0.1159 -1.4666
 7203SOL    HW224503   9.236   0.969   0.150  0.2045 -1.3384  1.3598
 7204SOL     OW24504   9.545   9.274   2.447  0.1779  0.6283 -0.0478
 7204SOL    HW124505   9.596   9.256   2.368 -1.3538  1.0082 -1.1675
 7204SOL    HW224506   9.458   9.239   2.428  0.3405 -1.4832  2.4179
 7205SOL     OW24507   3.414   2.015   1.622 -0.2307  0.1549 -0.2742
 7205SOL    HW124508   3.473   1.956   1.669 -1.9186 -1.1261  0.3422
 7205SOL    HW224509   3.471   2.066   1.565  1.5191 -0.6233  0.7092
 7206SOL     OW24510  10.119  10.750   1.868 -0.4745  0.4599  0.1099
 7206SOL    HW124511  10.098  10.792   1.784 -0.0610 -0.6182 -0.5610
 7206SOL    HW224512  10.112  10.820   1.933  1.6573  1.9363 -1.1253
 7207SOL     OW24513   0.374   6.973   8.533 -0.3577 -0.7493  0.4084
 7207SOL    HW124514   0.307   7.027   8.492  0.6780 -1.0593 -1.8957
 7207SOL    HW224515   0.379   6.895   8.478  0.7118 -1.5180  1.5316
 7208SOL     OW24516   2.790   9.074   6.280  0.0698  0.2293  0.2164
 7208SOL    HW124517   2.734   9.145   6.312 -0.5338 -0.2642  0.2782
 7208SOL    HW224518   2.804   9.018   6.356 -1.0273 -0.7242 -0.2436
 7209SOL     OW24519   5.089   9.142   1.440  0.1663 -0.3278 -0.1936
 7209SOL    HW124520   5.091   9.075   1.509 -0.9687  1.2390  1.4715
 7209SOL    HW224521   5.142   9.214   1.475 -0.7076  0.6274 -0.7796
 7210SOL     OW24522   9.965   4.048  10.519  0.0094 -0.2614  0.0523
 7210SOL    HW124523   9.877   4.085  10.507 -0.1312 -0.4394  0.5094
 7210SOL    HW224524  10.014   4.078  10.443 -0.6502 -0.7683 -0.5839
 7211SOL     OW24525  10.584  10.358   0.555 -0.4732 -0.5374 -0.1388
 7211SOL    HW124526  10.497  10.318   0.548 -0.4031 -0.8109  0.5235
 7211SOL    HW224527  10.566  10.453   0.553 -0.8439 -0.5846  0.5984
 7212SOL     OW24528   0.120   3.602   4.832 -1.0735 -0.6073 -0.2650
 7212SOL    HW124529   0.144   3.677   4.777 -1.5959 -0.5380 -0.4046
 7212SOL    HW224530   0.182   3.533   4.808  1.3927  0.6377  1.9374
 7213SOL     OW24531   8.206  10.303   6.916 -0.3700 -0.0798 -0.2022
 7213SOL    HW124532   8.224  10.397   6.928  1.0816 -0.1381 -1.5463
 7213SOL    HW224533   8.288  10.267   6.882  0.2920 -2.5680  3.5201
 7214SOL     OW24534   3.137   9.987   9.747  0.7211  0.1014 -0.2173
 7214SOL    HW124535   3.159  10.080   9.740  1.6672 -0.2403 -4.0140
 7214SOL    HW224536   3.169   9.961   9.833  0.5948  3.1977  0.9054
 7215SOL     OW24537   9.504   3.843   6.879  0.1624 -0.4173  0.1038
 7215SOL    HW124538   9.489   3.910   6.813 -1.5203 -2.7722 -2.0747
 7215SOL    HW224539   9.441   3.864   6.949  0.8430  1.1763  0.2808
 7216SOL     OW24540   3.612   6.689   5.366  0.0080 -0.3858  0.6963
 7216SOL    HW124541   3.543   6.720   5.424  2.5400  3.2682  2.0793
 7216SOL    HW224542   3.595   6.732   5.282 -1.2908 -2.3558 -0.1180
 7217SOL     OW24543   8.896   1.277   2.133  0.2368  0.1290 -0.1454
 7217SOL    HW124544   8.940   1.258   2.216  2.4932 -1.9031 -1.6845
 7217SOL    HW224545   8.954   1.337   2.088  0.2480 -0.6661 -1.2255
 7218SOL     OW24546  10.508   8.950   4.006 -0.1260  0.2003  0.1931
 7218SOL    HW124547  10.466   8.921   3.925 -0.6803 -0.8997  0.8510
 7218SOL    HW224548  10.490   9.044   4.010  1.3558  0.6428 -1.7961
 7219SOL     OW24549   5.398   6.205   0.629 -0.4079  0.0150 -0.3623
 7219SOL    HW124550   5.359   6.225   0.544  0.3993  2.1376 -0.3095
 7219SOL    HW224551   5.488   6.180   0.609  0.2220  1.9155 -0.1068
 7220SOL     OW24552   8.939   4.876   9.722  0.1877 -0.1458  0.3118
 7220SOL    HW124553   9.025   4.919   9.722 -0.0384  0.3387 -0.4380
 7220SOL    HW224554   8.884   4.936   9.671 -0.6558 -0.3287  1.0059
 7221SOL     OW24555   9.897   5.134   7.591 -0.2682 -0.3292  0.0693
 7221SOL    HW124556   9.876   5.160   7.681  1.4538  0.3692  0.3124
 7221SOL    HW224557   9.839   5.186   7.536 -1.3710 -0.7956  0.7542
 7222SOL     OW24558   9.676   3.806   1.338 -0.5756 -0.7023 -0.1795
 7222SOL    HW124559   9.612   3.867   1.375 -0.7078 -1.3812  0.7377
 7222SOL    HW224560   9.623   3.739   1.295 -0.4291 -0.1394 -1.2764
 7223SOL     OW24561  10.672   4.773  10.007 -0.0035  0.0079 -0.0230
 7223SOL    HW124562  10.751   4.724  10.028  0.6848  1.1601  0.1689
 7223SOL    HW224563  10.623   4.774  10.090 -0.6142 -1.3764 -0.3471
 7224SOL     OW24564   5.158   3.390   3.652  0.2418  0.0678  0.0782
 7224SOL    HW124565   5.064   3.393   3.632  0.2456  0.2069  0.0788
 7224SOL    HW224566   5.181   3.481   3.672  0.6757  0.2939 -1.3150
 7225SOL     OW24567   9.060   7.167   4.946  0.4454  0.1918  0.4803
 7225SOL    HW124568   9.022   7.228   4.883  0.7654  1.0928  1.1327
 7225SOL    HW224569   9.120   7.221   4.998 -1.2736 -0.0103  2.8840
 7226SOL     OW24570   6.898   2.687   3.386 -0.0490  0.4841 -0.2206
 7226SOL    HW124571   6.939   2.773   3.394 -0.3049  0.6430 -0.5910
 7226SOL    HW224572   6.938   2.649   3.308 -1.1586  0.9622 -1.0645
 7227SOL     OW24573   2.763   6.286   8.516 -0.6551 -0.0974  0.0941
 7227SOL    HW124574   2.768   6.377   8.546 -1.0042  0.0675 -0.3430
 7227SOL    HW224575   2.834   6.242   8.563  1.1980  0.9326 -1.6020
 7228SOL     OW24576   6.616  10.293   8.627  0.0713 -0.6102 -0.2956
 7228SOL    HW124577   6.604  10.199   8.614  1.8162 -0.7600 -1.0788
 7228SOL    HW224578   6.669  10.322   8.553 -0.3648  0.9909 -0.0320
 7229SOL     OW24579   8.068   8.351   6.601 -0.1048 -0.3808 -0.0116
 7229SOL    HW124580   8.071   8.267   6.646  0.1336 -0.2458  0.2274
 7229SOL    HW224581   8.061   8.328   6.508  1.8760 -0.6970 -0.1230
 7230SOL     OW24582   7.946   3.317   6.078  0.1366 -0.3896  0.2434
 7230SOL    HW124583   7.899   3.394   6.112  2.4310  1.3508 -0.2993
 7230SOL    HW224584   7.901   3.297   5.996 -1.3027 -0.4954  1.0128
 7231SOL     OW24585   7.913   7.630   6.052  0.2921  0.2454 -0.2456
 7231SOL    HW124586   7.887   7.644   5.961 -0.0511  0.1353 -0.1650
 7231SOL    HW224587   7.855   7.561   6.084 -0.3095  1.0179  0.3683
 7232SOL     OW24588   8.185   5.251   5.366  0.4428 -0.1788 -0.1307
 7232SOL    HW124589   8.279   5.253   5.352  0.9120 -2.7853  1.9430
 7232SOL    HW224590   8.158   5.162   5.343 -1.4542  0.3770 -0.2584
 7233SOL     OW24591   3.027   9.653   2.827 -0.7966  0.3853  0.3936
 7233SOL    HW124592   3.090   9.610   2.769 -0.6929  1.3614 -0.2591
 7233SOL    HW224593   2.958   9.588   2.840 -0.8526  0.1578 -0.8944
 7234SOL     OW24594   8.931   3.300   6.464  0.0053  0.0640 -0.3700
 7234SOL    HW124595   8.882   3.231   6.420  0.8268  0.7402 -2.4907
 7234SOL    HW224596   8.873   3.331   6.533 -1.2884 -1.1906 -0.8578
 7235SOL     OW24597   1.588   9.680   4.401 -0.1342  0.1417 -0.7593
 7235SOL    HW124598   1.658   9.725   4.448 -0.7020  2.3405 -1.8955
 7235SOL    HW224599   1.594   9.589   4.431  0.3454  1.1338  2.5462
 7236SOL     OW24600   5.870   2.196   4.752 -0.0417 -0.0362  0.5557
 7236SOL    HW124601   5.916   2.113   4.740  0.3901  0.5667 -3.0572
 7236SOL    HW224602   5.922   2.243   4.817  2.0404 -1.0619 -0.2635
 7237SOL     OW24603   5.393   3.234   6.848  0.5673  0.0609  0.0603
 7237SOL    HW124604   5.383   3.146   6.810  0.0563 -0.0096  0.3496
 7237SOL    HW224605   5.371   3.223   6.940  1.9845  0.1971  0.4304
 7238SOL     OW24606   3.851   0.700   1.182  0.3219 -0.4347 -0.2329
 7238SOL    HW124607   3.789   0.738   1.245  0.6038  0.1642 -0.3105
 7238SOL    HW224608   3.867   0.611   1.215 -1.2259 -0.9098 -0.6709
 7239SOL     OW24609   6.867   7.686   3.091  0.1795 -0.1279  0.3116
 7239SOL    HW124610   6.811   7.762   3.103 -1.9956 -0.7763 -3.8427
 7239SOL    HW224611   6.813   7.612   3.118  0.0213 -0.5628 -1.1291
 7240SOL     OW24612  10.338   3.977   0.484 -0.6088 -0.6531 -0.4046
 7240SOL    HW124613  10.320   4.054   0.538  0.1550 -0.9185  0.2414
 7240SOL    HW224614  10.332   4.010   0.394 -0.7489  0.0574 -0.1463
 7241SOL     OW24615   9.154   5.164   1.186  0.0777 -0.5485 -0.5491
 7241SOL    HW124616   9.088   5.096   1.201 -0.2533  0.2335  1.9500
 7241SOL    HW224617   9.235   5.115   1.170 -0.5924 -1.5051 -1.2221
 7242SOL     OW24618   4.158   0.135   8.457  0.1523 -0.4144  0.4411
 7242SOL    HW124619   4.188   0.193   8.386  0.1278 -2.4287 -1.3041
 7242SOL    HW224620   4.064   0.126   8.443 -0.1421  0.4287  1.7396
 7243SOL     OW24621   4.844   9.196   5.890  0.4826  0.1747 -0.5659
 7243SOL    HW124622   4.795   9.179   5.971  1.7584 -1.2188 -0.0461
 7243SOL    HW224623   4.930   9.225   5.919  0.9739 -0.3815 -1.4065
 7244SOL     OW24624   2.041   2.649   1.319  0.2870  0.2003 -0.4226
 7244SOL    HW124625   2.063   2.673   1.229  0.4466  3.3997  0.3428
 7244SOL    HW224626   1.997   2.726   1.355 -0.9614 -1.4329  1.8980
 7245SOL     OW24627   5.095   1.763   6.469 -0.1832  0.2663  0.1042
 7245SOL    HW124628   5.027   1.830   6.461  0.1234  0.4333 -1.3340
 7245SOL    HW224629   5.161   1.789   6.405  0.8960 -0.3001  0.9609
 7246SOL     OW24630  10.706  10.377   8.620 -0.5833 -0.2899  0.0362
 7246SOL    HW124631  10.652  10.315   8.670  0.5806 -0.7588  0.7591
 7246SOL    HW224632  10.793  10.336   8.617  0.4106  1.5808  1.1202
 7247SOL     OW24633   5.394   0.298   0.552  0.0928  0.1455 -0.0169
 7247SOL    HW124634   5.384   0.387   0.518  1.9983  0.4465  0.1400
 7247SOL    HW224635   5.468   0.303   0.612 -0.9669 -1.1555  1.4844
 7248SOL     OW24636   5.330   8.326   6.424 -0.0134 -0.1965 -0.0525
 7248SOL    HW124637   5.387   8.400   6.443  2.9196 -2.2271 -0.3427
 7248SOL    HW224638   5.326   8.322   6.328 -1.0630  0.1586 -0.0451
 7249SOL     OW24639   9.930   8.963   4.278 -0.0092 -0.8815  0.2561
 7249SOL    HW124640   9.917   9.050   4.316 -0.4681 -0.8628  0.0682
 7249SOL    HW224641   9.865   8.908   4.322 -1.6061 -0.5438 -1.5334
 7250SOL     OW24642   7.290   9.239   5.419  0.2674 -0.2795 -0.2164
 7250SOL    HW124643   7.322   9.238   5.329 -2.2450 -0.6873 -1.2005
 7250SOL    HW224644   7.297   9.148   5.449 -0.9245 -0.6009 -0.8428
 7251SOL     OW24645   2.336   9.213   3.920  0.0505  0.2402  0.3705
 7251SOL    HW124646   2.399   9.141   3.919  2.4678  2.2199 -0.3892
 7251SOL    HW224647   2.289   9.206   3.836  0.1915 -0.4869  0.3506
 7252SOL     OW24648   6.012   6.464   9.746  0.0236  0.5248  0.8299
 7252SOL    HW124649   6.048   6.375   9.755  0.2085  0.6157  1.0067
 7252SOL    HW224650   5.922   6.456   9.777 -0.2853  0.1753 -0.1459
 7253SOL     OW24651   0.782   6.877  10.670  0.4144 -0.0982 -0.3704
 7253SOL    HW124652   0.850   6.858  10.606 -0.0596 -2.4664 -0.2390
 7253SOL    HW224653   0.721   6.934  10.624 -0.4202 -2.4929 -2.4295
 7254SOL     OW24654   9.814   8.974  10.268 -0.1582  0.0453 -0.2429
 7254SOL    HW124655   9.905   8.957  10.244 -0.2194 -0.4006 -0.1708
 7254SOL    HW224656   9.817   8.996  10.361 -0.1913 -0.6061 -0.0810
 7255SOL     OW24657   4.305   4.181   4.578  0.4026  0.2566  0.0424
 7255SOL    HW124658   4.239   4.218   4.636 -0.0062  1.3942 -1.1188
 7255SOL    HW224659   4.271   4.195   4.490  1.3384 -0.8062 -0.5192
 7256SOL     OW24660   2.061   2.037   4.517 -0.0989 -0.8898 -0.1952
 7256SOL    HW124661   2.101   1.983   4.585  0.9578 -0.7091 -0.6482
 7256SOL    HW224662   2.064   1.982   4.438 -0.0879 -0.6051 -0.3936
 7257SOL     OW24663   9.119   3.974   0.422  0.3170 -0.5010  0.0728
 7257SOL    HW124664   9.048   3.910   0.410  0.0457  0.2074 -2.7664
 7257SOL    HW224665   9.088   4.031   0.491 -1.2943 -1.0277 -0.1636
 7258SOL     OW24666   0.293   1.408   0.197 -0.0883 -0.1196  0.1327
 7258SOL    HW124667   0.273   1.380   0.107 -2.8527  1.7850  0.0239
 7258SOL    HW224668   0.244   1.348   0.252  0.3036 -0.2967  0.2884
 7259SOL     OW24669   8.963   7.365   4.514 -0.0872  0.4123  0.1289
 7259SOL    HW124670   9.052   7.330   4.516 -0.0802  0.4672  1.6627
 7259SOL    HW224671   8.973   7.451   4.472  1.0061  1.4387  2.3089
 7260SOL     OW24672   3.273   3.141   3.702 -0.0770 -0.3276  0.4352
 7260SOL    HW124673   3.290   3.135   3.796  2.4608 -0.9100  0.0197
 7260SOL    HW224674   3.359   3.126   3.661 -1.2376 -0.8105 -2.0073
 7261SOL     OW24675   9.081   0.038   5.994 -0.2172 -0.1241 -0.0646
 7261SOL    HW124676   9.039   0.005   5.915 -0.0190  0.9852 -0.6592
 7261SOL    HW224677   9.174   0.044   5.971  0.2732 -2.2694  1.1375
 7262SOL     OW24678   2.162  10.350   0.687  0.3876 -0.4544 -0.7222
 7262SOL    HW124679   2.173  10.379   0.778 -0.2493 -0.3818 -0.6689
 7262SOL    HW224680   2.072  10.373   0.665  0.6759 -0.0551 -1.5242
 7263SOL     OW24681   9.682   5.527   6.424  0.0647 -0.4653 -0.1936
 7263SOL    HW124682   9.763   5.477   6.409 -1.7139 -3.5472 -0.2454
 7263SOL    HW224683   9.670   5.525   6.519 -0.1924 -0.3757 -0.2250
 7264SOL     OW24684   5.273  10.189   3.033  0.1439  0.0155 -0.2339
 7264SOL    HW124685   5.291  10.187   3.126 -2.8138  0.3540  0.4409
 7264SOL    HW224686   5.286  10.281   3.008 -2.8202  0.8474  0.8311
 7265SOL     OW24687   1.109   2.396  10.575  0.3332  0.0580  0.5712
 7265SOL    HW124688   1.139   2.325  10.519  0.4661  1.4188 -1.1467
 7265SOL    HW224689   1.013   2.387  10.575  0.2648  0.6085 -0.6861
 7266SOL     OW24690   3.822   2.332   8.038  0.0035  0.0608 -0.2402
 7266SOL    HW124691   3.909   2.372   8.044  0.8843 -1.5591 -1.4538
 7266SOL    HW224692   3.812   2.312   7.945 -0.3988 -2.4336  0.2912
 7267SOL     OW24693   3.724   0.882   7.977 -0.3848  0.0802 -0.2731
 7267SOL    HW124694   3.701   0.822   7.905 -1.5068 -1.2319  1.1050
 7267SOL    HW224695   3.817   0.868   7.990 -0.3582 -0.3830 -0.8567
 7268SOL     OW24696   4.166   9.164   0.150 -0.2417  0.0060 -0.1060
 7268SOL    HW124697   4.128   9.207   0.226  0.3299  2.2567 -1.0089
 7268SOL    HW224698   4.251   9.132   0.180  0.1836  1.2972  0.1335
 7269SOL     OW24699   7.523   3.904  10.017  0.7885  0.0719 -0.4343
 7269SOL    HW124700   7.440   3.950  10.002 -0.9734 -3.1788 -1.4783
 7269SOL    HW224701   7.589   3.962   9.979 -0.8868  2.8344  0.5087
 7270SOL     OW24702   5.693   8.692   6.915  0.2265 -0.3604 -0.4864
 7270SOL    HW124703   5.670   8.602   6.939  0.7515 -0.2692  0.4153
 7270SOL    HW224704   5.671   8.743   6.993 -0.7249  0.4177 -1.2328
 7271SOL     OW24705   5.043  10.467   6.623  0.0676 -0.5241  0.5187
 7271SOL    HW124706   5.128  10.449   6.582  0.3005  1.6575 -0.0865
 7271SOL    HW224707   5.008  10.541   6.574 -2.1296 -1.2573  0.8865
 7272SOL     OW24708   9.168   1.873   9.292  0.1104  0.0949  0.6704
 7272SOL    HW124709   9.148   1.872   9.198  0.1307 -1.8139  0.6548
 7272SOL    HW224710   9.130   1.955   9.324  0.2731  0.8665 -1.0244
 7273SOL     OW24711   7.732   6.117   4.457  0.1892 -0.1679 -0.1701
 7273SOL    HW124712   7.781   6.077   4.385  1.2129  2.1199 -0.8478
 7273SOL    HW224713   7.796   6.126   4.528 -0.0446  0.1117  0.0108
 7274SOL     OW24714   8.062   9.828   9.722 -0.3012  0.0992  0.6008
 7274SOL    HW124715   7.974   9.861   9.742  0.1077  0.1059  2.6008
 7274SOL    HW224716   8.110   9.838   9.805  1.6174  0.1990 -0.4805
 7275SOL     OW24717   9.101  10.498   1.211  0.4874  0.1032  0.3023
 7275SOL    HW124718   9.107  10.430   1.279 -2.9633  0.5782  1.2940
 7275SOL    HW224719   9.151  10.571   1.246  0.9831 -0.5777  1.0603
 7276SOL     OW24720   9.197  10.346   7.850  0.0664 -0.2276  0.0421
 7276SOL    HW124721   9.225  10.261   7.816 -0.6342  1.0441 -4.3076
 7276SOL    HW224722   9.263  10.408   7.819 -1.2569  1.2359  0.0115
 7277SOL     OW24723  10.782   8.893   4.889 -0.1739  0.4952  0.3205
 7277SOL    HW124724  10.809   8.960   4.952 -2.1158  2.1984 -0.5280
 7277SOL    HW224725  10.708   8.849   4.930  1.2421 -1.4148  0.9771
 7278SOL     OW24726  10.574   6.493   5.006 -0.1710 -0.6582 -0.2613
 7278SOL    HW124727  10.510   6.563   4.989  0.8780 -0.2020 -2.6738
 7278SOL    HW224728  10.521   6.420   5.037 -1.3852  0.9254  1.6821
 7279SOL     OW24729   7.835   5.496   1.230 -0.0676 -0.3192 -0.1550
 7279SOL    HW124730   7.865   5.427   1.171 -0.5442 -0.9616  0.3450
 7279SOL    HW224731   7.911   5.555   1.238 -0.0350 -0.1495 -1.4841
 7280SOL     OW24732   5.881  10.109   8.958  0.0811 -0.2449 -0.0530
 7280SOL    HW124733   5.924  10.193   8.974 -1.6595  0.4877  1.1162
 7280SOL    HW224734   5.795  10.133   8.923 -0.7603 -1.4716  1.0571
 7281SOL     OW24735   3.690   4.048   5.165 -0.1488  0.3526 -0.3389
 7281SOL    HW124736   3.610   4.040   5.217 -0.2248  0.1193 -0.4899
 7281SOL    HW224737   3.732   4.127   5.197 -0.4096  0.4403 -0.2151
 7282SOL     OW24738   5.031   6.307   9.949  0.0434 -0.6996 -0.4026
 7282SOL    HW124739   5.104   6.263   9.993  1.2511 -0.0724 -1.7330
 7282SOL    HW224740   5.010   6.381  10.006  0.5733 -0.7615 -0.1214
 7283SOL     OW24741   5.548   3.536   0.925 -0.3617  0.0504  0.0211
 7283SOL    HW124742   5.468   3.507   0.969 -0.3361 -0.8817 -0.5196
 7283SOL    HW224743   5.556   3.478   0.849  0.7893  0.1617  0.0393
 7284SOL     OW24744  10.435   9.966  10.740 -0.0392 -1.0580  0.2527
 7284SOL    HW124745  10.374   9.990  10.670  0.1227  0.5120  0.6011
 7284SOL    HW224746  10.468   9.880  10.715  0.2722 -0.4038 -1.8089
 7285SOL     OW24747  10.513   6.680   6.243  0.1611  0.3977  0.0061
 7285SOL    HW124748  10.602   6.648   6.231  0.6965  0.7991  2.3366
 7285SOL    HW224749  10.504   6.691   6.338 -1.9240  1.6556 -0.2621
 7286SOL     OW24750   5.759   1.449  10.750 -0.4400 -0.1144  0.1910
 7286SOL    HW124751   5.677   1.406  10.725 -0.7720  0.6663 -0.0996
 7286SOL    HW224752   5.767   1.521  10.689  0.2881  0.0293  0.4536
 7287SOL     OW24753   7.468   9.190   7.494 -0.0684 -0.4410 -0.4067
 7287SOL    HW124754   7.426   9.275   7.507  0.1198 -0.5290  0.9867
 7287SOL    HW224755   7.416   9.129   7.547  1.6370 -0.5804  1.2259
 7288SOL     OW24756   2.241   1.244   2.012  0.8624  0.5095  0.4105
 7288SOL    HW124757   2.321   1.246   2.065  1.4809 -0.3392 -0.4500
 7288SOL    HW224758   2.193   1.322   2.037  2.7884  1.9912 -0.3001
 7289SOL     OW24759   9.422   8.967  10.492 -0.0879  0.0596 -0.3619
 7289SOL    HW124760   9.431   9.008  10.406  0.5438  1.5050  0.3611
 7289SOL    HW224761   9.360   9.024  10.539  1.0011  0.3768  0.7507
 7290SOL     OW24762   8.743   5.935   1.231 -0.2010  0.6470  0.2129
 7290SOL    HW124763   8.752   6.001   1.300 -1.1087  0.4087  0.5725
 7290SOL    HW224764   8.652   5.904   1.238 -0.2082  0.3655 -0.8622
 7291SOL     OW24765   8.657   5.344   4.631 -0.2920  0.1768 -0.3217
 7291SOL    HW124766   8.735   5.372   4.583  1.0826  0.0575  1.7211
 7291SOL    HW224767   8.629   5.423   4.677 -0.2594 -0.2178  0.3894
 7292SOL     OW24768   7.929   5.833   1.513 -0.0071 -0.0315 -0.1597
 7292SOL    HW124769   8.001   5.773   1.494  1.4209  0.8996  1.9581
 7292SOL    HW224770   7.850   5.783   1.492  1.1674 -0.8829 -3.1389
 7293SOL     OW24771   6.167   0.388   0.941 -0.1862 -0.2200 -0.2708
 7293SOL    HW124772   6.190   0.442   0.865  0.1689 -0.0474 -0.0423
 7293SOL    HW224773   6.136   0.306   0.904 -0.5597  0.0745 -0.6192
 7294SOL     OW24774   2.121   1.644   2.266  0.0782 -0.4300  0.4483
 7294SOL    HW124775   2.060   1.647   2.340 -0.0602 -2.2500  0.4526
 7294SOL    HW224776   2.198   1.599   2.300  1.0018  0.8307  0.1148
 7295SOL     OW24777   1.889   0.504   3.059  0.1706 -0.4958 -0.1820
 7295SOL    HW124778   1.943   0.568   3.105 -0.7613  0.1660  0.0041
 7295SOL    HW224779   1.951   0.435   3.034  1.0472  0.0979  0.2875
 7296SOL     OW24780   3.094   0.928   2.803 -0.0382  0.0470  0.1008
 7296SOL    HW124781   3.058   0.841   2.820  0.4286 -0.3583 -0.8919
 7296SOL    HW224782   3.175   0.931   2.855 -1.0439  0.6569  1.6977
 7297SOL     OW24783   2.918  10.008   1.514 -0.3057  0.6926 -1.1084
 7297SOL    HW124784   2.903  10.047   1.600  0.6669 -0.9752 -0.1272
 7297SOL    HW224785   2.910  10.081   1.453 -2.2689  1.7020  0.2495
 7298SOL     OW24786   4.142   6.721   0.668 -0.0581  0.1873 -0.1243
 7298SOL    HW124787   4.219   6.778   0.667  0.9914 -1.1529  0.5435
 7298SOL    HW224788   4.163   6.651   0.607  0.3359 -1.4665  1.7840
 7299SOL     OW24789   8.096   7.913   2.715 -0.4357  0.2748 -0.2271
 7299SOL    HW124790   8.178   7.863   2.715 -0.8445 -0.4257 -1.4590
 7299SOL    HW224791   8.072   7.919   2.623 -0.4587  2.6774 -0.1277
 7300SOL     OW24792   6.764   7.442   4.249  1.1320 -0.0883  0.1584
 7300SOL    HW124793   6.787   7.532   4.271 -0.4479  0.0592  1.3585
 7300SOL    HW224794   6.687   7.423   4.302  2.8745 -3.0149  1.9133
 7301SOL     OW24795   8.191  10.235   0.151 -0.0701  0.2122  0.9601
 7301SOL    HW124796   8.214  10.145   0.173  0.3319 -0.2913 -1.2407
 7301SOL    HW224797   8.100  10.231   0.123 -0.0658  0.4795  0.9000
 7302SOL     OW24798   4.016  10.086   3.784 -0.5809  0.0410  0.3193
 7302SOL    HW124799   4.088  10.037   3.743 -0.4498  0.1738  0.3880
 7302SOL    HW224800   4.059  10.163   3.822 -0.8492  0.4327 -0.1649
 7303SOL     OW24801  10.048   8.711  10.625 -0.0884 -0.0512  0.4582
 7303SOL    HW124802  10.068   8.799  10.658 -0.0427  0.4383 -0.8172
 7303SOL    HW224803  10.134   8.672  10.608 -0.1167 -0.2600  0.7676
 7304SOL     OW24804   6.425   3.997   4.364  0.3354  0.2112  0.1438
 7304SOL    HW124805   6.397   3.986   4.455  0.3046 -1.4043 -0.0266
 7304SOL    HW224806   6.347   3.977   4.312  0.4633  0.7068 -0.2512
 7305SOL     OW24807   2.313   5.584   0.602 -0.1724 -0.0548  0.0234
 7305SOL    HW124808   2.351   5.627   0.525  1.2595 -0.5934  0.3969
 7305SOL    HW224809   2.229   5.629   0.615 -0.2210  0.3870 -1.5340
 7306SOL     OW24810   8.567   6.806   7.710 -0.0072  0.3117 -0.0230
 7306SOL    HW124811   8.559   6.781   7.802  0.7687  0.7831  0.1796
 7306SOL    HW224812   8.645   6.760   7.679  0.2326  0.8394 -0.2101
 7307SOL     OW24813  10.034   4.559   5.537 -0.6144  0.0859 -0.0897
 7307SOL    HW124814  10.026   4.639   5.485 -1.9424  1.3164  1.8681
 7307SOL    HW224815  10.100   4.580   5.603 -1.5276 -0.1143  0.9162
 7308SOL     OW24816   0.354   7.243   5.389  0.2381  0.6129  0.2979
 7308SOL    HW124817   0.348   7.170   5.450  0.1215  1.0950  0.8688
 7308SOL    HW224818   0.335   7.320   5.442  0.7866  1.1003 -0.2010
 7309SOL     OW24819   2.711   4.139   2.324 -0.2771 -0.2417  0.2997
 7309SOL    HW124820   2.744   4.127   2.413 -1.5733 -1.1575  0.6830
 7309SOL    HW224821   2.636   4.080   2.318 -1.6140  1.4531 -0.6425
 7310SOL     OW24822   3.870   7.746   6.696 -0.2004 -0.0844 -0.0069
 7310SOL    HW124823   3.792   7.725   6.643 -0.2640  1.0393 -0.3925
 7310SOL    HW224824   3.890   7.837   6.673  2.8561 -1.0989 -1.9991
 7311SOL     OW24825   0.599   9.551   7.496 -0.1057  0.1761 -0.6202
 7311SOL    HW124826   0.538   9.573   7.425  0.1903 -1.0499 -1.2809
 7311SOL    HW224827   0.676   9.516   7.452  0.7457  0.9024  0.2517
 7312SOL     OW24828   1.203   0.509   8.618 -0.1554  0.0290 -0.0169
 7312SOL    HW124829   1.183   0.558   8.698 -0.1911  0.9375 -0.5743
 7312SOL    HW224830   1.141   0.436   8.619 -0.2257  0.0898  0.7308
 7313SOL     OW24831   4.872   4.812   6.279 -0.1204  0.0417  0.6982
 7313SOL    HW124832   4.897   4.858   6.199 -0.5948  0.2741  0.6813
 7313SOL    HW224833   4.869   4.720   6.254 -2.0299  0.2616 -0.0342
 7314SOL     OW24834   9.675  10.096   1.373  0.1415  0.1094 -0.1246
 7314SOL    HW124835   9.633  10.176   1.342 -2.0166 -1.1510 -0.6851
 7314SOL    HW224836   9.726  10.123   1.449 -1.0203  1.9353  0.0634
 7315SOL     OW24837   7.970   7.650   2.032 -0.4551 -0.0560  0.5636
 7315SOL    HW124838   8.052   7.676   1.990 -1.5660  1.7469 -0.6095
 7315SOL    HW224839   7.990   7.646   2.125  0.5242  2.3193  0.5167
 7316SOL     OW24840   2.328   3.306   3.987 -0.2480  0.0974 -0.0970
 7316SOL    HW124841   2.321   3.210   3.986  0.3683  0.0259  0.8978
 7316SOL    HW224842   2.354   3.327   4.077 -1.9048  1.3145  0.1369
 7317SOL     OW24843   9.357  10.697   4.338  0.1279 -0.1321  0.7876
 7317SOL    HW124844   9.407  10.760   4.390  1.2081 -1.3995  1.3243
 7317SOL    HW224845   9.418  10.626   4.321 -0.9050 -0.7937 -0.2888
 7318SOL     OW24846   8.248   9.136   1.396  0.6771 -0.3502  0.3861
 7318SOL    HW124847   8.343   9.146   1.389  0.5963  1.1857  1.0172
 7318SOL    HW224848   8.230   9.047   1.364  1.8625  0.6512 -3.6196
 7319SOL     OW24849   2.051   7.296  10.631  0.2499  0.1004 -0.2103
 7319SOL    HW124850   2.038   7.242  10.709  0.5735 -1.1161 -0.9676
 7319SOL    HW224851   1.963   7.317  10.601  0.0866 -0.9872 -0.5445
 7320SOL     OW24852   1.442   4.635   4.112  0.2127 -0.0234  0.3340
 7320SOL    HW124853   1.492   4.633   4.193  0.1816  0.2708  0.3612
 7320SOL    HW224854   1.353   4.609   4.138  0.0952  0.5125  0.4741
 7321SOL     OW24855   2.535   7.853  10.684  0.8021 -0.4985 -0.0132
 7321SOL    HW124856   2.521   7.815  10.597  0.0177 -1.6423  0.5789
 7321SOL    HW224857   2.544   7.947  10.668  0.9126 -0.7134 -1.3525
 7322SOL     OW24858   0.776   9.844   3.946 -0.7642 -0.5854 -0.4708
 7322SOL    HW124859   0.814   9.885   3.868 -1.5810  0.0914 -0.5236
 7322SOL    HW224860   0.710   9.906   3.976 -0.6720 -0.9780  0.5900
 7323SOL     OW24861   9.217  10.555   7.585  0.1204 -0.2379 -0.2606
 7323SOL    HW124862   9.279  10.543   7.658 -1.5020  0.4890  1.3005
 7323SOL    HW224863   9.213  10.650   7.573  1.2616 -0.3712 -2.1726
 7324SOL     OW24864   3.526   6.104   2.350 -0.6128 -0.6147  0.5536
 7324SOL    HW124865   3.516   6.040   2.420  1.3522  1.1594  2.6456
 7324SOL    HW224866   3.611   6.084   2.312 -1.5817 -1.4372 -1.3041
 7325SOL     OW24867   2.197  10.114   6.029  0.2616  0.2086 -0.3377
 7325SOL    HW124868   2.117  10.158   6.000  0.0395  2.7533  3.4092
 7325SOL    HW224869   2.267  10.166   5.991  0.0977  0.1091 -0.7845
 7326SOL     OW24870   1.416   5.166   8.326 -0.3564 -0.3903  0.4313
 7326SOL    HW124871   1.375   5.116   8.255 -0.4844 -2.4441  1.8626
 7326SOL    HW224872   1.457   5.099   8.381  0.1343  1.1749  2.0511
 7327SOL     OW24873   2.722   4.590   7.406  0.3267 -0.3029 -0.2361
 7327SOL    HW124874   2.671   4.670   7.417 -0.7471 -0.9218 -0.5520
 7327SOL    HW224875   2.791   4.614   7.345 -1.0532 -0.0418 -1.7759
 7328SOL     OW24876   0.691   2.856   6.026  0.4913 -0.1545  0.2429
 7328SOL    HW124877   0.606   2.880   6.063 -0.0639 -0.5137 -0.7553
 7328SOL    HW224878   0.681   2.870   5.932  1.8853  0.8022  0.2020
 7329SOL     OW24879   4.731   1.394   3.056  0.8678 -0.0008  0.2793
 7329SOL    HW124880   4.672   1.350   3.117  0.2011  1.5965  0.8359
 7329SOL    HW224881   4.697   1.369   2.969  0.1584 -0.1258  0.5825
 7330SOL     OW24882   9.536   5.316   3.668 -0.3017 -0.5171 -0.6845
 7330SOL    HW124883   9.557   5.408   3.685 -1.9283 -0.2792  0.2659
 7330SOL    HW224884   9.535   5.276   3.755 -0.8736 -1.1338 -0.9723
 7331SOL     OW24885   9.349   6.987   2.287 -0.8439 -0.2909  0.4946
 7331SOL    HW124886   9.270   7.032   2.258 -0.4181  1.1361  1.4309
 7331SOL    HW224887   9.384   7.043   2.356  1.7617 -0.1160 -0.8669
 7332SOL     OW24888   5.652   1.471   5.604 -0.4359 -0.6805 -0.4075
 7332SOL    HW124889   5.599   1.394   5.587  0.3154 -1.2196 -0.3892
 7332SOL    HW224890   5.627   1.534   5.536 -0.5583 -1.2029 -0.8511
 7333SOL     OW24891   6.436   3.995   8.464 -0.3594 -0.0937 -0.1421
 7333SOL    HW124892   6.373   4.064   8.485  0.2444  0.6384 -0.6582
 7333SOL    HW224893   6.396   3.915   8.496 -0.0633  0.7565  2.6380
 7334SOL     OW24894   1.360   9.190   5.865  0.0276  0.1474  0.4194
 7334SOL    HW124895   1.293   9.122   5.862 -0.5102  0.6749  0.2601
 7334SOL    HW224896   1.420   9.161   5.933  1.7668 -2.2738 -1.8918
 7335SOL     OW24897   0.046   5.060   9.700  0.1582  0.2066  0.4865
 7335SOL    HW124898  -0.012   5.106   9.760 -0.9737 -1.2801  0.5917
 7335SOL    HW224899   0.064   4.976   9.743  0.5114 -0.2934 -0.5753
 7336SOL     OW24900   4.500   0.859   3.761 -0.0931  0.3167 -0.2019
 7336SOL    HW124901   4.406   0.871   3.768 -0.2494 -1.4244  1.4332
 7336SOL    HW224902   4.536   0.948   3.760 -1.6003  1.0129  1.7417
 7337SOL     OW24903  10.372   0.863   3.442 -0.6038 -0.5481 -0.3639
 7337SOL    HW124904  10.413   0.853   3.357 -1.7519 -0.7425 -0.9136
 7337SOL    HW224905  10.300   0.799   3.442 -2.3531  1.2957 -0.3613
 7338SOL     OW24906   1.730   4.111   1.191  0.2024 -0.3905  0.5001
 7338SOL    HW124907   1.744   4.184   1.131 -1.1909 -0.3753  0.1552
 7338SOL    HW224908   1.663   4.142   1.252 -2.2476 -2.1267 -1.1084
 7339SOL     OW24909   8.609   8.753   3.741  0.5822 -0.0640 -0.4486
 7339SOL    HW124910   8.656   8.736   3.823 -0.6047 -0.6025  0.1482
 7339SOL    HW224911   8.678   8.766   3.676  1.5595  1.0279  0.7549
 7340SOL     OW24912   6.702   6.154  10.145  0.5464  0.0669 -0.3678
 7340SOL    HW124913   6.652   6.209  10.206 -0.9496 -0.7612 -0.7791
 7340SOL    HW224914   6.777   6.207  10.121  0.9538  0.6082  1.8306
 7341SOL     OW24915   0.791   9.398   4.339 -0.4723 -0.4937 -0.3791
 7341SOL    HW124916   0.872   9.350   4.357 -1.0431 -1.0503  0.7647
 7341SOL    HW224917   0.789   9.405   4.244  0.0634 -1.9920 -0.5328
 7342SOL     OW24918   8.142   3.134   7.767 -0.0046  0.7389 -0.3857
 7342SOL    HW124919   8.206   3.148   7.698  0.3722  0.8216 -0.0266
 7342SOL    HW224920   8.097   3.054   7.743  0.4802  0.4851 -0.4573
 7343SOL     OW24921   1.110   5.219   6.848  0.3454  0.0803 -0.1060
 7343SOL    HW124922   1.145   5.304   6.823  0.5708  0.2838  0.8677
 7343SOL    HW224923   1.123   5.164   6.771  1.5312  0.5327 -0.2485
 7344SOL     OW24924   0.246   8.641   8.217  0.1996  0.4906  0.3145
 7344SOL    HW124925   0.331   8.683   8.208  0.2059  0.8710  1.8692
 7344SOL    HW224926   0.260   8.571   8.281 -1.4319  3.1973  4.0485
 7345SOL     OW24927   0.761   0.373   1.367 -0.0795 -0.2739  0.5861
 7345SOL    HW124928   0.752   0.355   1.461 -2.8075 -0.1867  0.4379
 7345SOL    HW224929   0.749   0.288   1.325 -1.0954 -0.0075  0.2936
 7346SOL     OW24930   6.184   4.707   1.028 -0.1403 -0.4700 -0.5200
 7346SOL    HW124931   6.175   4.796   0.993 -1.3189 -0.5450 -0.4388
 7346SOL    HW224932   6.116   4.701   1.095 -0.4917 -1.6516 -0.9721
 7347SOL     OW24933   7.808   9.878   1.740 -0.0311 -0.3363 -0.3430
 7347SOL    HW124934   7.721   9.862   1.703 -1.4868 -1.2644  3.0552
 7347SOL    HW224935   7.829   9.798   1.788  3.1192 -0.4155 -1.5749
 7348SOL     OW24936   4.271   7.182  10.074  0.2413  0.3415  0.2135
 7348SOL    HW124937   4.196   7.187  10.015  0.8517  1.2384 -0.5192
 7348SOL    HW224938   4.234   7.202  10.161 -0.2746  1.3672 -0.2247
 7349SOL     OW24939   8.014   1.290   7.059 -0.5589  0.1318  0.6554
 7349SOL    HW124940   7.968   1.322   6.982  0.6632 -1.4337 -0.7876
 7349SOL    HW224941   8.003   1.360   7.124 -1.0428  1.8053 -1.1326
 7350SOL     OW24942   8.271   2.900  10.208  0.2211 -0.0064 -0.4490
 7350SOL    HW124943   8.220   2.904  10.290  0.3350  0.3588 -0.3951
 7350SOL    HW224944   8.362   2.897  10.236  0.2271 -1.1589 -0.5342
 7351SOL     OW24945   2.405   6.383   5.358 -0.5046 -0.1732  0.0126
 7351SOL    HW124946   2.313   6.360   5.357 -0.2339 -1.4149  0.8992
 7351SOL    HW224947   2.429   6.393   5.266 -1.5059  0.1729 -0.2264
 7352SOL     OW24948   9.374   1.202   8.378  0.0954 -0.3169 -0.3125
 7352SOL    HW124949   9.378   1.297   8.391  1.0034 -0.3269 -0.5052
 7352SOL    HW224950   9.349   1.167   8.463  1.2407 -0.0087  0.1670
 7353SOL     OW24951   9.342   1.580   7.749 -0.1656 -0.0672 -0.1603
 7353SOL    HW124952   9.437   1.583   7.761 -0.0125 -0.3283 -1.1715
 7353SOL    HW224953   9.324   1.489   7.722 -0.4982  0.3426 -1.3866
 7354SOL     OW24954   2.766   3.192   3.824 -0.2781 -0.0671  0.9685
 7354SOL    HW124955   2.751   3.242   3.904  0.9707  2.3300 -0.1840
 7354SOL    HW224956   2.852   3.222   3.794 -2.0235  1.6218 -2.9470
 7355SOL     OW24957   8.240   2.582  10.449 -0.5765 -0.0357  0.6587
 7355SOL    HW124958   8.245   2.677  10.433  0.0761  0.1127  1.6154
 7355SOL    HW224959   8.156   2.569  10.492 -0.0515  0.3457  1.8457
 7356SOL     OW24960   5.249   4.804   1.919  0.3334  0.5778 -0.3530
 7356SOL    HW124961   5.264   4.711   1.903 -1.7355  0.1498 -0.0230
 7356SOL    HW224962   5.237   4.842   1.832  1.1789  0.5531 -0.4870
 7357SOL     OW24963   1.602   2.606   0.432  0.1014 -0.5562 -0.2721
 7357SOL    HW124964   1.574   2.690   0.394 -1.3785 -1.2020 -0.6997
 7357SOL    HW224965   1.625   2.552   0.356  0.9643 -0.5737 -0.0038
 7358SOL     OW24966   9.102   2.056   1.769  0.3040 -0.6322 -0.3339
 7358SOL    HW124967   9.190   2.048   1.805 -0.3235  1.2762  1.8830
 7358SOL    HW224968   9.093   2.149   1.748 -0.8053 -1.0043 -1.6509
 7359SOL     OW24969   1.216   8.792   5.364  0.3719 -0.5072 -0.0622
 7359SOL    HW124970   1.195   8.877   5.325  0.7582 -1.0093 -1.4505
 7359SOL    HW224971   1.269   8.812   5.440  0.5318  0.5005 -0.4332
 7360SOL     OW24972  10.758   3.258   3.990  0.3622 -0.7809 -0.3331
 7360SOL    HW124973  10.818   3.295   4.054  0.4244 -1.9722  0.3407
 7360SOL    HW224974  10.801   3.271   3.905 -0.2872  1.9270 -0.3139
 7361SOL     OW24975  10.723   6.428   6.968 -0.1598  0.3256 -0.3011
 7361SOL    HW124976  10.694   6.338   6.948  0.5659 -0.1814  0.8678
 7361SOL    HW224977  10.642   6.476   6.984 -0.5289 -0.2230 -0.4800
 7362SOL     OW24978   7.223   8.980   8.766 -0.0554 -0.0666 -0.1969
 7362SOL    HW124979   7.193   8.898   8.726 -0.2764 -0.5440  0.8894
 7362SOL    HW224980   7.146   9.012   8.813 -0.1125  1.0376 -1.0296
 7363SOL     OW24981   4.197  10.394   7.634 -0.3965 -0.1978  0.5701
 7363SOL    HW124982   4.211  10.488   7.647  0.3993 -0.1918 -0.2346
 7363SOL    HW224983   4.278  10.363   7.592 -0.2416 -1.4414  1.7336
 7364SOL     OW24984   2.626   5.100   6.532  0.0628  0.3533 -0.0881
 7364SOL    HW124985   2.539   5.084   6.568  0.2622  0.1317  0.2923
 7364SOL    HW224986   2.637   5.033   6.465 -0.7237  1.3852 -1.3140
 7365SOL     OW24987   6.810   3.026   1.615 -0.3142  0.2755  0.3752
 7365SOL    HW124988   6.804   3.097   1.679  0.1224  0.7951 -0.1500
 7365SOL    HW224989   6.784   3.067   1.532 -0.6711 -0.3412  0.1793
 7366SOL     OW24990   5.808  10.559   6.214 -0.1636  0.2877  0.3971
 7366SOL    HW124991   5.745  10.500   6.172 -2.0927  1.1040  1.9981
 7366SOL    HW224992   5.818  10.524   6.302  1.9240  0.0084  0.1017
 7367SOL     OW24993   6.994   1.904   8.224  0.0524  0.6971 -0.3164
 7367SOL    HW124994   6.966   1.822   8.265  0.5826  0.9353  0.5407
 7367SOL    HW224995   7.076   1.882   8.180  0.8752  1.0391  0.9874
 7368SOL     OW24996   9.007   3.961   3.594  0.5246 -0.5199 -0.1132
 7368SOL    HW124997   9.075   4.011   3.637  0.2931 -1.4321  1.3867
 7368SOL    HW224998   8.934   4.022   3.585  0.8320 -0.1138  0.1389
 7369SOL     OW24999   0.321  10.424   1.338 -0.3189 -0.1107 -0.2919
 7369SOL    HW125000   0.271  10.485   1.283  1.4230  0.6928 -1.0588
 7369SOL    HW225001   0.280  10.432   1.424 -0.5141  1.7689 -0.5028
 7370SOL     OW25002   2.189   0.931   9.936  0.0303  0.4349  0.2095
 7370SOL    HW125003   2.277   0.967   9.938 -0.3006  1.2605  0.3550
 7370SOL    HW225004   2.199   0.841   9.970  0.9283  0.2289 -0.5585
 7371SOL     OW25005   7.167   4.279   4.711  0.2757 -0.0068 -0.0201
 7371SOL    HW125006   7.083   4.307   4.676  1.3747 -0.2114 -3.1655
 7371SOL    HW225007   7.190   4.202   4.659  2.3685 -0.0116  0.7981
 7372SOL     OW25008   9.706   8.334   7.546  0.4135 -0.7067  0.5245
 7372SOL    HW125009   9.773   8.333   7.479  0.8038 -1.3673  0.9140
 7372SOL    HW225010   9.660   8.250   7.536 -0.5195 -0.1596  0.1016
 7373SOL     OW25011   5.086   2.209   0.224  0.0801  0.1832  0.4799
 7373SOL    HW125012   5.124   2.235   0.308 -2.2502 -0.7531  1.9403
 7373SOL    HW225013   5.044   2.125   0.243 -1.5590  0.5460 -1.3006
 7374SOL     OW25014   0.472   8.793   3.857  0.2597  0.1654 -0.2245
 7374SOL    HW125015   0.442   8.736   3.786 -0.2916  0.9234 -0.6193
 7374SOL    HW225016   0.419   8.768   3.932  0.7795 -0.5781 -0.0934
 7375SOL     OW25017   4.907   9.969   9.431  0.0924 -0.1101 -0.1483
 7375SOL    HW125018   4.928   9.910   9.503  0.5459  0.1672 -0.0502
 7375SOL    HW225019   4.990  10.014   9.411  0.2057 -0.8547 -1.4599
 7376SOL     OW25020   9.526   4.756   3.431 -0.1288  0.7171  0.4505
 7376SOL    HW125021   9.573   4.805   3.499 -0.0352  2.4621 -0.8193
 7376SOL    HW225022   9.592   4.737   3.365 -0.0741 -1.5430  1.0811
 7377SOL     OW25023   4.144   7.699   3.575  0.6731 -0.1916  0.1870
 7377SOL    HW125024   4.123   7.715   3.483 -1.2732  0.8598  0.7679
 7377SOL    HW225025   4.146   7.786   3.614 -1.3204 -0.7424  1.6665
 7378SOL     OW25026   5.568   8.314   4.411  0.2089  0.2100 -0.1707
 7378SOL    HW125027   5.494   8.293   4.468 -0.4357  0.2666 -0.9639
 7378SOL    HW225028   5.596   8.229   4.377  0.7345  0.1535  0.3848
 7379SOL     OW25029   0.060   0.596   1.281  0.1244 -0.2799 -0.7690
 7379SOL    HW125030   0.131   0.641   1.236  0.2173  0.1251 -0.2276
 7379SOL    HW225031   0.006   0.666   1.318  1.6739 -0.5283  2.3072
 7380SOL     OW25032   9.110   0.018   8.885  0.0952 -0.4823  0.7800
 7380SOL    HW125033   9.146   0.029   8.972  1.1979  0.6472  0.2148
 7380SOL    HW225034   9.157   0.082   8.831  0.3242 -1.9955 -0.8996
 7381SOL     OW25035   5.902   2.838   6.613  0.3574 -0.3206  0.1094
 7381SOL    HW125036   5.854   2.825   6.532  0.6362 -0.6203 -0.0125
 7381SOL    HW225037   5.970   2.902   6.591 -0.4853  0.7374  0.4923
 7382SOL     OW25038   3.257   8.732   0.556  0.0364  0.3882  0.4646
 7382SOL    HW125039   3.307   8.793   0.611 -0.8778  1.0188  0.6137
 7382SOL    HW225040   3.185   8.703   0.613  0.3920 -0.7533  0.3567
 7383SOL     OW25041   4.093   2.599   5.601  0.3571 -0.5108 -0.4516
 7383SOL    HW125042   4.145   2.675   5.572 -0.7579  0.1659 -0.7464
 7383SOL    HW225043   4.023   2.637   5.653  1.0868 -1.5445  1.3984
 7384SOL     OW25044   3.936   5.708   7.615 -0.4678  0.4072 -0.7455
 7384SOL    HW125045   3.972   5.674   7.533 -0.3723  0.5174 -0.7493
 7384SOL    HW225046   4.012   5.732   7.667 -0.5414  0.8859 -0.8575
 7385SOL     OW25047   2.759  10.408   4.833 -0.6251  0.4316  0.2214
 7385SOL    HW125048   2.751  10.321   4.794 -1.3590 -0.2603  1.7870
 7385SOL    HW225049   2.799  10.392   4.919  0.4668  1.8108  0.0094
 7386SOL     OW25050   1.676   2.563  10.436 -0.1855 -0.9276  0.2711
 7386SOL    HW125051   1.725   2.637  10.400  0.8456 -0.8112  1.8224
 7386SOL    HW225052   1.743   2.508  10.476 -1.0311 -2.3163 -0.1729
 7387SOL     OW25053   5.841   0.252   4.648  0.0058 -0.0884 -0.7742
 7387SOL    HW125054   5.921   0.252   4.597  0.2342 -0.7137 -0.4243
 7387SOL    HW225055   5.831   0.343   4.677  0.5163  0.0197 -0.9261
 7388SOL     OW25056   1.719   7.325   1.245  0.3062 -0.7913 -0.0204
 7388SOL    HW125057   1.776   7.316   1.321  0.8828  0.5225 -0.2641
 7388SOL    HW225058   1.747   7.407   1.203 -3.2880  1.3075  1.1921
 7389SOL     OW25059   4.157   7.428   1.797  0.7017  0.2445  0.6794
 7389SOL    HW125060   4.108   7.384   1.728  0.3010  1.8055 -0.0679
 7389SOL    HW225061   4.100   7.498   1.828  0.6587 -0.7177  3.0002
 7390SOL     OW25062  10.628   5.980   3.334 -0.3813 -0.0156  0.1985
 7390SOL    HW125063  10.585   6.065   3.337  0.2684  0.4985 -2.4259
 7390SOL    HW225064  10.569   5.921   3.381 -0.5909  1.9119  2.5722
 7391SOL     OW25065   5.740   3.621   1.919 -0.2831  0.3146  0.2894
 7391SOL    HW125066   5.710   3.538   1.956 -2.2220 -0.0027 -1.8047
 7391SOL    HW225067   5.821   3.598   1.873  0.3961  0.0804  1.5556
 7392SOL     OW25068   1.130   6.562   7.022 -0.0708 -0.8603 -0.2055
 7392SOL    HW125069   1.224   6.571   7.008 -0.2799  0.6682 -0.8727
 7392SOL    HW225070   1.120   6.563   7.117  0.4594  1.0263 -0.1318
 7393SOL     OW25071  10.224   9.257   3.298  0.3156 -0.2320 -0.0921
 7393SOL    HW125072  10.219   9.272   3.392  2.5415 -0.7808  0.1522
 7393SOL    HW225073  10.282   9.325   3.265  1.9963 -1.8336 -0.5759
 7394SOL     OW25074   7.838   3.617   8.892  0.3418  0.0655 -0.1641
 7394SOL    HW125075   7.882   3.565   8.824  1.1092  1.3333 -0.6860
 7394SOL    HW225076   7.793   3.686   8.843 -0.5414 -0.0079  0.5236
 7395SOL     OW25077   3.659   4.357   1.116  0.1174 -0.4716  0.0085
 7395SOL    HW125078   3.736   4.308   1.145 -0.3090 -1.1363  0.0421
 7395SOL    HW225079   3.627   4.307   1.041 -1.4874 -1.4035  1.2453
 7396SOL     OW25080   4.297   3.140   6.008  0.6347  0.3376  0.2912
 7396SOL    HW125081   4.308   3.208   6.074  1.1405  1.0135 -0.4758
 7396SOL    HW225082   4.218   3.165   5.961 -0.0054 -0.4102  0.9333
 7397SOL     OW25083   1.877   8.180   3.449 -0.8328  0.2330  0.5960
 7397SOL    HW125084   1.954   8.208   3.497 -1.3603  3.6032 -0.2990
 7397SOL    HW225085   1.910   8.113   3.388  0.9867  0.2571  1.4954
 7398SOL     OW25086   0.445   3.714   7.998  0.2903  0.1164 -0.1264
 7398SOL    HW125087   0.482   3.797   7.968  0.2423 -0.1098 -0.8364
 7398SOL    HW225088   0.351   3.723   7.983  0.4642 -0.8058 -2.1597
 7399SOL     OW25089   5.690   4.838   3.308 -0.5669  0.1391 -0.3218
 7399SOL    HW125090   5.670   4.773   3.375 -1.5592  0.0498 -0.6860
 7399SOL    HW225091   5.614   4.836   3.250  0.2504  0.2426 -1.4281
 7400SOL     OW25092   9.532   3.036   8.711  0.0320 -0.3197  0.2117
 7400SOL    HW125093   9.453   3.034   8.765 -0.9362  0.9994 -1.0709
 7400SOL    HW225094   9.554   3.128   8.703  0.7940 -0.5620 -0.7195
 7401SOL     OW25095   6.513   8.751  10.414  0.0862  0.2015  0.1576
 7401SOL    HW125096   6.553   8.838  10.412  2.1870 -0.6848  0.2550
 7401SOL    HW225097   6.470   8.747  10.500  1.4279  0.5827  0.8880
 7402SOL     OW25098   5.184   8.805   7.969  0.1425  0.4371  0.2428
 7402SOL    HW125099   5.211   8.865   8.038  1.1303  0.8320 -0.4695
 7402SOL    HW225100   5.223   8.841   7.889  0.0134 -0.6712 -0.3376
 7403SOL     OW25101   9.040   6.822   7.025 -0.0703 -0.1820 -0.1468
 7403SOL    HW125102   8.961   6.824   7.080 -0.4881 -1.5745 -0.6406
 7403SOL    HW225103   9.028   6.894   6.963 -0.9938 -0.4005 -0.2422
 7404SOL     OW25104   6.252   5.280   1.789 -0.7072  0.0408  0.6269
 7404SOL    HW125105   6.158   5.269   1.774 -0.7453  2.3916 -1.3848
 7404SOL    HW225106   6.292   5.211   1.737 -1.2832 -1.2002  1.7704
 7405SOL     OW25107   1.418   4.117   6.307  0.6855 -0.0872  0.1811
 7405SOL    HW125108   1.359   4.067   6.250  0.3229  0.0598  0.4279
 7405SOL    HW225109   1.361   4.156   6.373  1.1770 -0.7977  1.0526
 7406SOL     OW25110   4.250   3.776   7.007  0.3590  0.5915 -0.7376
 7406SOL    HW125111   4.230   3.683   6.997  1.8269 -0.0280  1.5192
 7406SOL    HW225112   4.277   3.804   6.920 -0.3720 -1.0093 -1.5240
 7407SOL     OW25113   0.314   9.215   0.853 -0.4549 -0.0987  0.0455
 7407SOL    HW125114   0.252   9.176   0.914 -2.4730 -0.2169 -1.9643
 7407SOL    HW225115   0.368   9.272   0.907 -1.3119 -1.1362  2.1121
 7408SOL     OW25116   5.050   3.206   1.196 -0.3267 -0.1215  0.0668
 7408SOL    HW125117   5.144   3.198   1.179 -0.1200  1.2202  0.4621
 7408SOL    HW225118   5.016   3.257   1.122 -0.3116  1.3688  1.0302
 7409SOL     OW25119  10.663   2.310   5.296 -0.7654  0.3463  0.0810
 7409SOL    HW125120  10.701   2.381   5.348  0.6999  0.5567 -1.2216
 7409SOL    HW225121  10.572   2.304   5.327  0.2283 -0.1303  3.2717
 7410SOL     OW25122   4.422   6.436   1.054 -0.4198 -0.2553  0.0552
 7410SOL    HW125123   4.442   6.507   0.992 -1.0354  0.7332  0.9592
 7410SOL    HW225124   4.483   6.366   1.030  0.7037  0.8407 -0.3993
 7411SOL     OW25125   1.494   8.213   2.588  0.1682  0.0262  0.1941
 7411SOL    HW125126   1.431   8.223   2.517  0.0082  1.1104  0.4774
 7411SOL    HW225127   1.552   8.143   2.558 -0.3077 -0.0045 -0.7005
 7412SOL     OW25128   9.832   0.238   6.731 -0.2480  0.2017 -0.1578
 7412SOL    HW125129   9.757   0.257   6.674 -1.4108  1.9299  1.8002
 7412SOL    HW225130   9.805   0.162   6.782  1.2460 -2.0764 -2.5356
 7413SOL     OW25131   7.827   2.241   3.166  0.2251  0.3606  0.2321
 7413SOL    HW125132   7.867   2.303   3.227 -1.1933  1.0683  0.4763
 7413SOL    HW225133   7.789   2.295   3.097 -2.2123 -0.0681  1.1428
 7414SOL     OW25134   8.948   9.781   2.098  0.0348 -0.5732  0.8510
 7414SOL    HW125135   8.997   9.753   2.020 -0.9805 -0.2867  0.0988
 7414SOL    HW225136   9.012   9.774   2.169  0.6710 -1.9354  0.1981
 7415SOL     OW25137   1.555   3.040   8.839  0.1070  0.8501 -0.0235
 7415SOL    HW125138   1.622   2.976   8.863 -0.9902 -0.1477  0.5329
 7415SOL    HW225139   1.583   3.074   8.755  1.6721  0.9900  0.5317
 7416SOL     OW25140   6.884   2.079   7.230  0.0650 -0.2914 -0.5005
 7416SOL    HW125141   6.807   2.124   7.265 -0.9425 -2.6885  0.5684
 7416SOL    HW225142   6.864   2.067   7.137 -0.8565 -0.8282 -0.2496
 7417SOL     OW25143   9.054  10.068   4.260  0.1840 -0.1946  0.1184
 7417SOL    HW125144   9.001  10.148   4.270 -1.1340 -0.9113 -0.8648
 7417SOL    HW225145   9.016  10.023   4.185  2.5155 -0.5315 -0.9493
 7418SOL     OW25146   7.712   9.608   7.560 -0.0701  0.0565 -0.3441
 7418SOL    HW125147   7.636   9.665   7.568 -0.1827 -0.2694  1.3656
 7418SOL    HW225148   7.784   9.658   7.599  0.8419  0.7145 -2.7291
 7419SOL     OW25149   8.497   4.435   8.134 -0.0473 -0.2396  0.3893
 7419SOL    HW125150   8.469   4.519   8.172  2.9741  0.6437  0.9063
 7419SOL    HW225151   8.513   4.454   8.042  1.4430  0.0312  0.6773
 7420SOL     OW25152   5.698   6.312   0.535 -0.2131 -0.0783 -0.0307
 7420SOL    HW125153   5.751   6.376   0.582  0.0349 -0.5453  0.3382
 7420SOL    HW225154   5.660   6.361   0.462 -0.6746  0.6765  0.7035
 7421SOL     OW25155   7.957   4.680   2.434 -0.0336 -0.5551 -0.3969
 7421SOL    HW125156   8.033   4.709   2.485  0.2463 -1.5459 -0.2394
 7421SOL    HW225157   7.934   4.596   2.472 -0.2807 -0.9612 -1.4317
 7422SOL     OW25158   9.392   0.513   5.468 -0.0857  0.1622 -0.3259
 7422SOL    HW125159   9.332   0.583   5.442 -0.1118  0.1685 -0.2490
 7422SOL    HW225160   9.357   0.434   5.428 -0.4722  0.0621  0.1974
 7423SOL     OW25161   7.571   3.552   6.829 -0.4113  0.7150  0.6903
 7423SOL    HW125162   7.583   3.501   6.909 -1.7771 -0.1302  0.3906
 7423SOL    HW225163   7.658   3.553   6.788 -0.1376 -0.5844  1.1842
 7424SOL     OW25164   1.484   7.215  10.407 -0.5068  0.2369  0.0235
 7424SOL    HW125165   1.557   7.171  10.364 -1.1214 -0.0702 -0.7397
 7424SOL    HW225166   1.488   7.305  10.374  0.9114  0.8812  1.7899
 7425SOL     OW25167   4.738   7.865   1.466  0.6337 -0.6637 -0.3826
 7425SOL    HW125168   4.783   7.855   1.549  0.4174  0.7124 -0.0857
 7425SOL    HW225169   4.756   7.955   1.438 -2.4302  0.2130  0.0909
 7426SOL     OW25170  10.727  10.579   1.243  0.3354 -0.8506  0.1890
 7426SOL    HW125171  10.766  10.530   1.172  1.4821  2.1461 -1.4336
 7426SOL    HW225172  10.637  10.596   1.215  0.4059 -0.7251  0.0398
 7427SOL     OW25173  10.673   2.059   0.663  0.2773 -0.1488 -0.2405
 7427SOL    HW125174  10.610   2.061   0.592  2.1305  1.0237 -1.9663
 7427SOL    HW225175  10.628   2.098   0.738 -1.4929 -0.7606 -0.9548
 7428SOL     OW25176   6.735   3.832   9.058 -0.0442 -0.2566  0.0635
 7428SOL    HW125177   6.666   3.886   9.099  2.2773  2.7292  0.3760
 7428SOL    HW225178   6.732   3.856   8.966  0.3892 -0.3022  0.0374
 7429SOL     OW25179   5.923   8.230   3.425  0.0556 -0.0114  0.8269
 7429SOL    HW125180   5.903   8.295   3.493 -1.7721  0.1315  0.2065
 7429SOL    HW225181   6.014   8.249   3.401 -0.6138  2.8892  0.1348
 7430SOL     OW25182   0.938   9.879   8.982 -0.2400 -0.5143 -0.1713
 7430SOL    HW125183   0.894   9.855   8.901 -1.0836  1.1836 -0.2639
 7430SOL    HW225184   0.880   9.943   9.023  0.8979 -0.1867  1.0193
 7431SOL     OW25185   2.350   5.281   8.182 -0.0930 -0.3264 -0.6562
 7431SOL    HW125186   2.416   5.275   8.251  0.4937 -1.2377 -1.2801
 7431SOL    HW225187   2.396   5.257   8.102 -1.4216 -2.1066 -0.9510
 7432SOL     OW25188   9.444   0.423   9.315  0.3895 -0.2295  0.1166
 7432SOL    HW125189   9.531   0.460   9.330  1.0110 -1.2923 -0.7735
 7432SOL    HW225190   9.390   0.499   9.293  0.5368  0.7651  2.7834
 7433SOL     OW25191   3.984   1.659   4.997  0.9760 -0.4422 -0.0838
 7433SOL    HW125192   3.908   1.712   5.022 -0.1881 -2.1685  0.2255
 7433SOL    HW225193   4.059   1.704   5.038 -0.0093  0.6479  0.6003
 7434SOL     OW25194   7.131   3.571  10.332  0.0792  0.3949  0.2940
 7434SOL    HW125195   7.140   3.640  10.398 -2.3450  0.4007  0.6980
 7434SOL    HW225196   7.121   3.619  10.249  0.7655  0.4430  0.2321
 7435SOL     OW25197   1.752   4.963   0.488 -0.5961  0.2678  0.2398
 7435SOL    HW125198   1.830   4.969   0.434  0.2993  2.2932  1.6292
 7435SOL    HW225199   1.689   4.914   0.435  0.5625  1.2646 -2.1735
 7436SOL     OW25200   1.137   8.548  10.775 -0.4607 -0.1157  0.1021
 7436SOL    HW125201   1.223   8.526  10.811  0.7490  0.8183 -2.0303
 7436SOL    HW225202   1.101   8.611  10.838  1.7367  1.7792 -0.3869
 7437SOL     OW25203   3.827   3.578   2.023 -0.4622  0.6534 -0.4676
 7437SOL    HW125204   3.920   3.556   2.021 -0.1699  1.6971  0.5405
 7437SOL    HW225205   3.817   3.634   2.100 -2.4221 -1.6161  1.0530
 7438SOL     OW25206   4.887   2.269   5.049 -0.3350 -0.6354  0.9657
 7438SOL    HW125207   4.893   2.181   5.012 -0.7783 -0.2894  0.0277
 7438SOL    HW225208   4.967   2.313   5.019  0.0931 -0.8392  1.7885
 7439SOL     OW25209  10.367   6.171   8.588 -0.2049  0.2013 -0.1646
 7439SOL    HW125210  10.396   6.099   8.533  1.1095  0.3636  0.2761
 7439SOL    HW225211  10.296   6.133   8.641 -0.1855 -0.4858 -0.6129
 7440SOL     OW25212   9.517   3.424  10.156 -0.8146 -0.2532 -0.2872
 7440SOL    HW125213   9.518   3.517  10.180  0.2498 -0.1741 -0.5703
 7440SOL    HW225214   9.435   3.412  10.109 -1.2249  0.4122  0.2413
 7441SOL     OW25215  10.393   7.811   9.046 -0.2875 -0.0686 -0.4517
 7441SOL    HW125216  10.356   7.737   9.093 -2.4828  0.9829 -0.4175
 7441SOL    HW225217  10.486   7.809   9.067 -0.6624 -1.5360  1.2768
 7442SOL     OW25218   1.563   1.070   9.965  0.0944  0.5995  0.3792
 7442SOL    HW125219   1.596   1.087   9.877  2.7411  1.3921  1.4312
 7442SOL    HW225220   1.562   1.155  10.008  1.4685 -0.0683  1.8857
 7443SOL     OW25221   2.944   0.203   8.042  0.5106 -0.0944  0.2167
 7443SOL    HW125222   2.998   0.157   7.977 -1.5000 -0.7101 -1.0981
 7443SOL    HW225223   2.916   0.133   8.102  3.3649  0.6432  2.6303
 7444SOL     OW25224   7.477   7.534   1.273  0.3456 -0.4621 -0.3831
 7444SOL    HW125225   7.389   7.570   1.262 -0.3066 -1.4520  1.2150
 7444SOL    HW225226   7.536   7.604   1.244 -0.9083  1.1943  0.8741
 7445SOL     OW25227   5.524   2.803   0.132  0.3552  0.3295  0.1243
 7445SOL    HW125228   5.599   2.853   0.100  0.0936  0.7802  0.2043
 7445SOL    HW225229   5.480   2.772   0.053 -0.3456  1.5239  0.0238
 7446SOL     OW25230   3.339   5.986  10.380 -0.3404  0.3529 -0.1865
 7446SOL    HW125231   3.316   6.018  10.293 -1.6339  2.4638  0.8552
 7446SOL    HW225232   3.262   5.936  10.408 -0.4947  0.8532  0.2842
 7447SOL     OW25233   9.745   2.496   4.561 -0.5989  0.2160  0.2674
 7447SOL    HW125234   9.753   2.401   4.566  1.2027  0.3958  2.0013
 7447SOL    HW225235   9.805   2.522   4.492 -1.3939  0.1087 -0.4910
 7448SOL     OW25236   1.813   8.006   2.268  0.2016  0.0341  0.0320
 7448SOL    HW125237   1.721   8.021   2.246  0.1106  0.6234  0.7841
 7448SOL    HW225238   1.861   8.037   2.192 -0.1148  1.8935  0.5416
 7449SOL     OW25239   5.116   9.852  10.292  0.6673 -0.2270 -0.7845
 7449SOL    HW125240   5.153   9.897  10.216  0.1881 -1.5179 -1.8214
 7449SOL    HW225241   5.136   9.909  10.366  0.1795  1.6323 -2.0070
 7450SOL     OW25242   4.781   6.010   0.466 -0.1337  1.2918  0.3784
 7450SOL    HW125243   4.745   5.998   0.553 -0.0842 -1.0099  0.1545
 7450SOL    HW225244   4.874   5.988   0.476 -0.7430 -2.4547 -0.7880
 7451SOL     OW25245  10.761   5.553   7.216 -0.0140  0.6080 -0.2447
 7451SOL    HW125246  10.811   5.484   7.172 -0.3754  0.3189 -0.2069
 7451SOL    HW225247  10.749   5.620   7.149 -0.7477  0.0750 -0.6708
 7452SOL     OW25248   3.197   8.631   2.556 -0.4977  0.2891  0.1617
 7452SOL    HW125249   3.273   8.690   2.553 -0.2101 -0.1156 -1.3007
 7452SOL    HW225250   3.152   8.647   2.474 -0.6385 -1.2491 -0.0851
 7453SOL     OW25251   2.501   2.469   1.676  0.7219 -0.0414 -0.4309
 7453SOL    HW125252   2.444   2.393   1.690 -0.1402  0.4640 -1.0805
 7453SOL    HW225253   2.539   2.455   1.589 -0.3702  0.8212 -1.0784
 7454SOL     OW25254   3.580   5.229   9.702  0.0707  0.3372 -0.2891
 7454SOL    HW125255   3.514   5.262   9.763  0.7189  2.1780 -0.5325
 7454SOL    HW225256   3.530   5.185   9.634 -0.6723 -1.9060  1.5824
 7455SOL     OW25257  10.359   0.068   3.619  0.3522  0.2798  0.1055
 7455SOL    HW125258  10.438   0.107   3.655  1.7304 -0.4547 -1.9057
 7455SOL    HW225259  10.387  -0.017   3.586 -1.3823 -0.1946 -0.2531
 7456SOL     OW25260   7.990   0.057   9.845 -0.0438  0.3060  0.1578
 7456SOL    HW125261   8.075   0.049   9.887  0.5764  0.6810 -0.9953
 7456SOL    HW225262   8.006   0.111   9.768 -0.9971 -0.9202 -0.9467
 7457SOL     OW25263   7.643   9.693   5.480 -0.6913  0.2993  0.2202
 7457SOL    HW125264   7.636   9.638   5.558  1.0222  0.8028  0.7843
 7457SOL    HW225265   7.667   9.632   5.410  2.3802  0.3511  1.0743
 7458SOL     OW25266   8.245   1.137   0.384  0.1782  0.3910  0.6150
 7458SOL    HW125267   8.339   1.150   0.394  0.3695  0.2846 -0.8727
 7458SOL    HW225268   8.235   1.093   0.300 -1.0001 -2.2564  2.0035
 7459SOL     OW25269   2.425   7.653   8.268 -0.4607 -0.5592  0.2213
 7459SOL    HW125270   2.494   7.644   8.203 -0.9471 -0.9651 -0.2483
 7459SOL    HW225271   2.365   7.718   8.232 -0.8269 -0.9189  0.1719
 7460SOL     OW25272   1.820   7.004   6.488 -0.0377  0.2247  0.2105
 7460SOL    HW125273   1.792   7.091   6.513 -1.3726 -0.2013  0.2636
 7460SOL    HW225274   1.875   6.974   6.561 -0.2410  0.7082  0.5638
 7461SOL     OW25275   8.756   1.878  10.494  0.3932  0.0814  0.3002
 7461SOL    HW125276   8.679   1.845  10.448  0.1680 -0.7036  1.2159
 7461SOL    HW225277   8.816   1.804  10.496  0.3656  0.0774  1.3249
 7462SOL     OW25278  10.654   0.833   1.035 -0.5468 -0.4123 -0.0667
 7462SOL    HW125279  10.659   0.738   1.031  0.3194 -0.5445  2.4607
 7462SOL    HW225280  10.565   0.852   1.065 -0.4805 -0.4684  0.1678
 7463SOL     OW25281   8.128   7.561   3.201 -0.1216 -0.8908  0.1110
 7463SOL    HW125282   8.162   7.648   3.221  0.2344 -1.2852  1.3056
 7463SOL    HW225283   8.115   7.561   3.107  2.6295 -0.5120 -0.3322
 7464SOL     OW25284   0.095   2.180   6.466  0.0222  0.2343 -0.2880
 7464SOL    HW125285   0.140   2.120   6.406 -0.9401 -0.7665 -0.0505
 7464SOL    HW225286   0.104   2.138   6.552  1.3045  1.6000  0.2895
 7465SOL     OW25287   6.475   0.867   4.891 -0.5040  0.1016  0.2418
 7465SOL    HW125288   6.543   0.809   4.859  0.3131  1.3335 -0.3403
 7465SOL    HW225289   6.393   0.826   4.863  0.0400 -0.7933 -0.0745
 7466SOL     OW25290  10.028   2.659  10.562  0.4973 -0.3936 -0.7235
 7466SOL    HW125291  10.070   2.585  10.518  0.8089  0.1047 -1.2810
 7466SOL    HW225292  10.101   2.706  10.603  0.3621 -0.1090 -0.8079
 7467SOL     OW25293   6.697   3.786  10.361 -0.6247 -0.0115 -0.1948
 7467SOL    HW125294   6.628   3.726  10.333  0.0286 -0.5457 -0.7006
 7467SOL    HW225295   6.697   3.782  10.456 -2.0354  0.8489 -0.1330
 7468SOL     OW25296   3.008   1.325   5.191  0.5519 -0.0376 -0.5881
 7468SOL    HW125297   3.055   1.355   5.269 -0.5507  2.1215 -0.6983
 7468SOL    HW225298   3.001   1.402   5.135 -2.3807 -0.4264 -0.9308
 7469SOL     OW25299   2.989  10.528   8.819  0.0691  0.1051  0.1177
 7469SOL    HW125300   2.924  10.458   8.808 -0.7798  0.8883  0.0386
 7469SOL    HW225301   3.069  10.482   8.842 -0.6033 -0.8647  0.6162
 7470SOL     OW25302   3.534   3.288   2.359  0.1073  0.0740  0.3908
 7470SOL    HW125303   3.466   3.233   2.320  0.4993 -0.6466  0.6993
 7470SOL    HW225304   3.597   3.301   2.288 -0.0746  0.2811  0.2656
 7471SOL     OW25305   2.404   3.653  10.763  0.5522  0.3315  0.1811
 7471SOL    HW125306   2.449   3.592  10.822  1.5347  0.7083 -0.1580
 7471SOL    HW225307   2.311   3.633  10.774  0.6670  0.6869  2.1942
 7472SOL     OW25308   7.247   2.062   0.892  0.5106 -0.0950 -0.1777
 7472SOL    HW125309   7.220   1.988   0.837 -0.8987  0.7885 -0.7423
 7472SOL    HW225310   7.167   2.087   0.939  1.0807  0.7663  0.3615
 7473SOL     OW25311   9.042   8.200   8.762 -0.4368  0.3368 -0.0653
 7473SOL    HW125312   9.132   8.184   8.732 -0.9758 -1.8423 -0.7393
 7473SOL    HW225313   9.051   8.214   8.856  0.5515 -0.9913  0.0827
 7474SOL     OW25314   1.136   2.067   1.812 -0.0226  0.1697 -0.1766
 7474SOL    HW125315   1.127   2.154   1.774  0.4220  0.1535 -0.3217
 7474SOL    HW225316   1.213   2.030   1.770  0.5609  0.1963  0.8334
 7475SOL     OW25317   8.363   3.167   9.626 -0.0358  0.0877 -0.1954
 7475SOL    HW125318   8.275   3.137   9.649 -0.7974  2.8874  1.0277
 7475SOL    HW225319   8.419   3.091   9.642 -2.0474 -1.3707  0.3449
 7476SOL     OW25320   7.138   7.173   4.541  0.3443 -0.5497 -0.2780
 7476SOL    HW125321   7.130   7.082   4.511 -5.0484 -1.2952  2.1646
 7476SOL    HW225322   7.095   7.225   4.473  0.8075 -0.1982 -0.3110
 7477SOL     OW25323   7.647   4.446   2.610 -0.2182 -0.1703  0.6036
 7477SOL    HW125324   7.564   4.489   2.630 -0.6541 -0.3471 -0.7446
 7477SOL    HW225325   7.655   4.450   2.515  2.1920  1.4264  0.7692
 7478SOL     OW25326   3.382   2.101   4.189  0.3214  0.4832  0.1801
 7478SOL    HW125327   3.295   2.068   4.166  0.6458  0.7125 -1.4946
 7478SOL    HW225328   3.365   2.178   4.243 -0.4884 -0.0373  0.6905
 7479SOL     OW25329  10.107   3.295   1.575 -0.2186 -0.0209 -0.2436
 7479SOL    HW125330  10.084   3.376   1.528 -0.1468  0.4236  0.4684
 7479SOL    HW225331  10.034   3.236   1.559 -1.6668  1.1669  1.5104
 7480SOL     OW25332   7.448   9.329   4.293  0.1964 -0.2670 -0.1685
 7480SOL    HW125333   7.494   9.368   4.368 -0.9226 -1.2991  1.1100
 7480SOL    HW225334   7.388   9.266   4.332 -2.4752  1.1230 -1.7211
 7481SOL     OW25335   8.222   5.171   8.035 -0.0234  0.0400 -0.3099
 7481SOL    HW125336   8.228   5.082   8.071 -0.1888  0.2910  0.3618
 7481SOL    HW225337   8.269   5.226   8.098 -1.8372  0.7537  0.5127
 7482SOL     OW25338   1.381   6.654   4.502 -0.6438  0.4109  0.3346
 7482SOL    HW125339   1.332   6.732   4.477 -2.0439 -0.9611 -1.4694
 7482SOL    HW225340   1.328   6.581   4.470  2.4522 -1.2027 -1.6202
 7483SOL     OW25341   0.425   3.451   2.082  0.3139 -0.2986 -0.4561
 7483SOL    HW125342   0.462   3.389   2.145  0.1175  0.0388 -0.0037
 7483SOL    HW225343   0.362   3.399   2.032  0.8655 -0.6996 -0.7450
 7484SOL     OW25344   0.670   3.190   2.848 -0.0746 -0.3417  0.3826
 7484SOL    HW125345   0.666   3.129   2.921  0.3090  1.9706  2.4832
 7484SOL    HW225346   0.753   3.236   2.860 -1.7474  2.8269  0.9207
 7485SOL     OW25347   2.645   5.934   8.949  0.5209 -0.2622  0.1879
 7485SOL    HW125348   2.650   5.871   8.878  1.5985  0.7078 -0.6361
 7485SOL    HW225349   2.602   5.887   9.020  1.6598 -2.0633 -0.2548
 7486SOL     OW25350   0.573   9.704   6.295  0.0702 -0.2391 -0.3203
 7486SOL    HW125351   0.588   9.787   6.341  0.1862 -0.2629 -0.3164
 7486SOL    HW225352   0.659   9.678   6.261 -0.0010 -0.2594 -0.4885
 7487SOL     OW25353   9.062  10.721   9.553  0.2257  0.1760  0.2228
 7487SOL    HW125354   9.058  10.801   9.499  1.0456 -1.4496 -2.4643
 7487SOL    HW225355   9.141  10.731   9.605 -0.3090  1.5985  0.8011
 7488SOL     OW25356  10.147   6.242   2.863 -0.3980  0.4258  0.2756
 7488SOL    HW125357  10.240   6.261   2.878 -1.1622  3.1071  2.3792
 7488SOL    HW225358  10.117   6.199   2.943 -0.8336 -1.3296 -0.7693
 7489SOL     OW25359   5.415   4.059   2.632  0.5716  0.1372  0.0997
 7489SOL    HW125360   5.470   4.018   2.699  1.7012 -1.7818 -1.8353
 7489SOL    HW225361   5.475   4.074   2.558 -0.7802  1.3872 -0.7967
 7490SOL     OW25362   7.750   5.731   5.300  0.1175  0.3236  0.2707
 7490SOL    HW125363   7.806   5.778   5.238 -1.4041  1.0749 -0.5838
 7490SOL    HW225364   7.674   5.788   5.312 -0.8939 -1.0618  0.6951
 7491SOL     OW25365   8.770   3.145   1.121 -0.1248  0.0755  0.6756
 7491SOL    HW125366   8.810   3.136   1.034 -1.1855 -1.5080  0.2934
 7491SOL    HW225367   8.830   3.099   1.180  0.2473  0.5533  0.6779
 7492SOL     OW25368   0.472  10.258   4.525  1.1772 -0.1796 -0.0194
 7492SOL    HW125369   0.546  10.224   4.475  2.5474  1.1685  0.9756
 7492SOL    HW225370   0.465  10.350   4.498  0.1833 -0.1696  0.2518
 7493SOL     OW25371   7.700   9.226   8.968  0.5253 -0.1470  0.1884
 7493SOL    HW125372   7.687   9.223   9.063 -0.6601 -0.8013  0.0208
 7493SOL    HW225373   7.658   9.146   8.936  3.2420 -1.3659 -0.6364
 7494SOL     OW25374   6.674   6.168   3.981 -0.3603 -0.3967 -0.0019
 7494SOL    HW125375   6.690   6.208   4.067 -2.8724 -0.7210  0.7141
 7494SOL    HW225376   6.752   6.116   3.964  1.2320  1.5466  0.9492
 7495SOL     OW25377   6.668   8.254   4.009  0.0846  0.4362  0.5370
 7495SOL    HW125378   6.676   8.336   4.059  0.5515  2.0835 -2.0727
 7495SOL    HW225379   6.750   8.247   3.961  0.1121 -1.6958  0.8077
 7496SOL     OW25380   6.585   4.623   1.200 -0.7508  0.2843  0.3157
 7496SOL    HW125381   6.517   4.583   1.146 -1.3025  0.6473  0.7355
 7496SOL    HW225382   6.667   4.605   1.153 -0.9942 -1.2630  0.4527
 7497SOL     OW25383   5.450   1.954   1.789  0.0901 -0.4687 -0.0939
 7497SOL    HW125384   5.483   1.987   1.705  0.0754  0.0534  0.0960
 7497SOL    HW225385   5.405   2.030   1.827  0.4268 -0.5900  0.5569
 7498SOL     OW25386   9.148   3.343   1.707  0.0107  0.3422  0.1758
 7498SOL    HW125387   9.064   3.352   1.752 -0.6627 -1.3870 -0.6446
 7498SOL    HW225388   9.210   3.321   1.777 -0.6966 -0.6700  0.5116
 7499SOL     OW25389   8.279   7.987   7.350 -0.4846 -0.5686 -0.1717
 7499SOL    HW125390   8.284   7.908   7.404  1.6140 -0.7713 -0.5725
 7499SOL    HW225391   8.293   8.059   7.413  2.6426 -0.8363 -0.3993
 7500SOL     OW25392   7.565   5.891   9.545  0.0015 -0.1520 -0.4727
 7500SOL    HW125393   7.592   5.801   9.526 -0.3469 -0.7059  1.4743
 7500SOL    HW225394   7.494   5.907   9.483 -1.6241 -2.1379  0.7498
 7501SOL     OW25395   6.638   1.866   5.463  0.0063  0.1987  0.0085
 7501SOL    HW125396   6.718   1.894   5.421  0.1216 -0.8476 -0.5041
 7501SOL    HW225397   6.570   1.924   5.429  0.2970  0.1120 -0.7271
 7502SOL     OW25398  10.234   3.312   8.843 -0.1006  0.9983 -0.0850
 7502SOL    HW125399  10.307   3.251   8.832 -0.2545  0.5443  1.2297
 7502SOL    HW225400  10.162   3.272   8.795 -0.1863  0.1350  0.7343
 7503SOL     OW25401   5.238   2.720   8.985  0.6464  0.0373 -0.0240
 7503SOL    HW125402   5.276   2.726   8.897  0.3178  0.3862 -0.1456
 7503SOL    HW225403   5.275   2.793   9.033  0.9469 -0.2471  0.1744
 7504SOL     OW25404   9.648   5.243   0.647  0.0523 -0.2018 -0.2787
 7504SOL    HW125405   9.648   5.329   0.606  0.4687 -0.7223 -1.3948
 7504SOL    HW225406   9.666   5.260   0.740  1.0390  0.8269 -0.6533
 7505SOL     OW25407   1.546   2.746   5.057  0.1549 -0.1260 -0.3715
 7505SOL    HW125408   1.541   2.751   4.961 -0.2213 -0.4563 -0.3686
 7505SOL    HW225409   1.455   2.753   5.086  0.2400 -0.3489 -0.0516
 7506SOL     OW25410   9.279   8.761   8.337  0.9667  0.0641  0.0323
 7506SOL    HW125411   9.246   8.808   8.413 -0.0558 -0.5597  0.0003
 7506SOL    HW225412   9.252   8.815   8.262  0.3611 -0.2347  0.0286
 7507SOL     OW25413   7.575   3.646   5.223 -0.1780  0.1749  0.3191
 7507SOL    HW125414   7.599   3.641   5.315 -1.4490  2.2094  0.8274
 7507SOL    HW225415   7.494   3.696   5.222  0.0296  0.5872 -1.9510
 7508SOL     OW25416   5.255   0.954   4.646  0.2530  0.0660 -0.1930
 7508SOL    HW125417   5.288   1.004   4.571  0.0065  0.4600 -0.0412
 7508SOL    HW225418   5.174   0.998   4.671 -0.7409 -1.2588 -0.9494
 7509SOL     OW25419   3.625   2.353   5.958  0.7866 -0.0898  0.3846
 7509SOL    HW125420   3.571   2.380   6.032 -0.0485  0.0893 -0.2656
 7509SOL    HW225421   3.707   2.324   5.997 -0.1687 -1.4239  1.5137
 7510SOL     OW25422   1.038   7.470   3.926 -0.0149 -0.7523  0.2260
 7510SOL    HW125423   1.072   7.552   3.962 -0.5507  0.2326 -1.3755
 7510SOL    HW225424   0.949   7.463   3.962 -0.3876 -0.0053 -0.5036
 7511SOL     OW25425   3.591   9.244   8.441  0.1142  0.7389  0.7963
 7511SOL    HW125426   3.588   9.203   8.528  0.9078  0.7039  0.8108
 7511SOL    HW225427   3.499   9.251   8.415 -0.0212 -1.9845  0.3252
 7512SOL     OW25428   4.376   1.124   8.529 -0.3968  0.1258  1.2208
 7512SOL    HW125429   4.408   1.075   8.454  0.0277  0.7199  1.0104
 7512SOL    HW225430   4.291   1.158   8.501  0.3691  1.5361  0.4634
 7513SOL     OW25431   6.137   5.785   3.067 -0.7495  0.4732  0.1644
 7513SOL    HW125432   6.152   5.843   2.992 -1.4455  0.6152  0.1270
 7513SOL    HW225433   6.054   5.742   3.048 -0.1191 -0.7407  0.0747
 7514SOL     OW25434   2.045   4.796   6.725  0.0274 -0.1483 -0.6912
 7514SOL    HW125435   2.008   4.884   6.732  0.4264  0.0209 -0.6799
 7514SOL    HW225436   2.025   4.769   6.635  2.2633  1.0439 -1.6120
 7515SOL     OW25437   0.161   2.754   2.024 -0.4406  0.5199  0.0308
 7515SOL    HW125438   0.255   2.773   2.036 -0.3157  0.9676 -1.4507
 7515SOL    HW225439   0.158   2.701   1.944 -1.6478  3.1321 -1.8232
 7516SOL     OW25440   3.883   1.469   2.408  0.3008  0.2814  0.6787
 7516SOL    HW125441   3.856   1.560   2.413  2.3717  1.0997 -1.3692
 7516SOL    HW225442   3.811   1.424   2.365  0.0517  1.3697 -0.0686
 7517SOL     OW25443   7.567   9.159   3.903  0.0495 -0.3664  0.7312
 7517SOL    HW125444   7.561   9.196   3.815  0.6367  3.7239  2.1481
 7517SOL    HW225445   7.482   9.119   3.918 -0.2464 -0.6840 -1.4719
 7518SOL     OW25446   6.502   9.522   4.167  1.1692  0.3387  0.2843
 7518SOL    HW125447   6.461   9.447   4.210 -0.0673  0.1032 -1.2253
 7518SOL    HW225448   6.450   9.598   4.196  0.3617  0.1846 -0.7024
 7519SOL     OW25449   0.096   9.614   9.106 -0.2973  0.3958 -0.5430
 7519SOL    HW125450   0.097   9.573   9.193 -2.2523 -1.3932 -1.2681
 7519SOL    HW225451   0.180   9.658   9.099  0.3907 -0.4097  1.8006
 7520SOL     OW25452   9.702  10.676   0.475  0.1237 -0.3764  0.2751
 7520SOL    HW125453   9.752  10.677   0.393 -1.8274  0.9517 -1.0003
 7520SOL    HW225454   9.714  10.763   0.511 -0.7917 -0.2231  0.2277
 7521SOL     OW25455   0.087   6.081   1.081  0.1027 -0.0300 -0.5148
 7521SOL    HW125456   0.147   6.152   1.106  0.3620 -0.2462 -0.5121
 7521SOL    HW225457   0.145   6.010   1.054 -0.1613 -0.1016 -0.9038
 7522SOL     OW25458  10.720   5.843   0.230  0.1806  0.0352 -0.9012
 7522SOL    HW125459  10.691   5.815   0.143  0.8115 -2.0245 -0.4827
 7522SOL    HW225460  10.742   5.762   0.276  1.1948  1.1719  0.7224
 7523SOL     OW25461   5.765   2.422   5.451  0.6851  0.5715  0.4926
 7523SOL    HW125462   5.777   2.431   5.546  3.5625  0.0426  0.2394
 7523SOL    HW225463   5.767   2.512   5.418 -0.9835  0.8143  0.9244
 7524SOL     OW25464   4.060   7.211   8.222 -0.2460 -0.4913 -0.5337
 7524SOL    HW125465   4.120   7.243   8.289 -0.0623  0.6207 -1.1979
 7524SOL    HW225466   4.033   7.125   8.253 -3.7064  1.6036  3.3823
 7525SOL     OW25467   5.651   7.791   1.050  0.4089  0.2019  0.0565
 7525SOL    HW125468   5.641   7.858   0.983 -0.3495 -1.9849 -2.2135
 7525SOL    HW225469   5.719   7.733   1.015 -1.9297 -2.5367 -0.3187
 7526SOL     OW25470   6.628   4.225   3.246 -0.1416  0.3207 -0.3446
 7526SOL    HW125471   6.656   4.308   3.287  3.1931 -0.8729  0.1363
 7526SOL    HW225472   6.643   4.239   3.153 -1.1968  0.7768 -0.4586
 7527SOL     OW25473  10.641   9.260   3.087  0.3640  0.4665 -0.3302
 7527SOL    HW125474  10.668   9.205   3.161  0.6834 -1.4730 -1.8249
 7527SOL    HW225475  10.547   9.273   3.101  0.3615 -0.1088  0.2701
 7528SOL     OW25476   7.058   9.410   1.479 -0.4391 -0.0795  0.1645
 7528SOL    HW125477   7.070   9.427   1.386  0.0128 -0.0090  0.2308
 7528SOL    HW225478   7.139   9.367   1.506 -0.1777  0.7295  0.7213
 7529SOL     OW25479   9.373   4.899   2.835  0.4158  0.4261 -0.2730
 7529SOL    HW125480   9.403   4.873   2.922 -0.5189 -0.0438 -0.0736
 7529SOL    HW225481   9.404   4.829   2.777 -3.9250 -2.6124  0.5576
 7530SOL     OW25482  10.500   5.781   3.476  0.1723 -0.3517 -0.2878
 7530SOL    HW125483  10.405   5.792   3.477  0.0686 -1.2103  0.0463
 7530SOL    HW225484  10.515   5.706   3.419  0.7091  0.2018 -0.8941
 7531SOL     OW25485   5.848  10.626   8.568  0.2558  0.2694 -0.2708
 7531SOL    HW125486   5.908  10.691   8.607 -0.5395  0.7714  0.1534
 7531SOL    HW225487   5.848  10.553   8.630  0.0885  0.4594 -0.0462
 7532SOL     OW25488   2.340   4.130   1.045  0.7600 -0.4857  0.1643
 7532SOL    HW125489   2.270   4.194   1.058  1.7431  0.8382 -0.7854
 7532SOL    HW225490   2.379   4.120   1.132 -0.7363 -1.4804  0.7775
 7533SOL     OW25491   7.526   3.712   6.396  0.0752  0.2864 -0.4478
 7533SOL    HW125492   7.590   3.731   6.464 -0.2274  1.8377 -0.5684
 7533SOL    HW225493   7.578   3.672   6.325  0.5907 -0.1754  0.1809
 7534SOL     OW25494   0.473   0.152   3.109 -0.8087 -0.2930  0.5513
 7534SOL    HW125495   0.419   0.157   3.030 -0.0749  2.4936  0.1324
 7534SOL    HW225496   0.533   0.079   3.093 -2.2602 -1.3311 -0.3676
 7535SOL     OW25497   6.319   3.772   9.413  0.2257 -0.2024  0.1736
 7535SOL    HW125498   6.388   3.837   9.396 -0.0685  0.4792  1.4335
 7535SOL    HW225499   6.255   3.787   9.344  1.9491 -1.8471 -1.9609
 7536SOL     OW25500   1.166   4.229   5.987 -0.3229 -0.3471 -0.0240
 7536SOL    HW125501   1.244   4.175   6.003  0.2854 -0.1916 -2.0736
 7536SOL    HW225502   1.199   4.319   5.989 -0.4668 -0.2732 -0.7377
 7537SOL     OW25503   3.556   3.405   8.227 -0.8601  0.5415 -0.0324
 7537SOL    HW125504   3.497   3.412   8.152 -1.5070 -0.9100  0.3107
 7537SOL    HW225505   3.571   3.495   8.255 -0.9534  1.0735 -1.6264
 7538SOL     OW25506   4.280   0.641   5.503  0.4522  0.3874  0.1624
 7538SOL    HW125507   4.300   0.653   5.410  1.5569  0.0360  0.3463
 7538SOL    HW225508   4.207   0.701   5.519 -2.3774 -2.1931 -1.8257
 7539SOL     OW25509   2.681   1.532   4.388 -0.1950 -0.3941  0.2049
 7539SOL    HW125510   2.587   1.537   4.373 -0.1424  1.9279  0.3758
 7539SOL    HW225511   2.704   1.615   4.430  1.9366 -0.9028  0.1842
 7540SOL     OW25512   9.643  10.331  10.526  0.4287 -0.4379  0.0553
 7540SOL    HW125513   9.568  10.339  10.585  0.1179 -0.1185 -0.3709
 7540SOL    HW225514   9.715  10.302  10.581  0.5694  1.4266  0.9274
 7541SOL     OW25515   6.370   3.531   1.972 -0.1201  0.4293  0.2039
 7541SOL    HW125516   6.397   3.619   1.999 -0.9043  0.5963  0.4485
 7541SOL    HW225517   6.339   3.542   1.882  1.0057  0.1564 -0.2375
 7542SOL     OW25518   6.979   2.511  10.249 -0.1091  0.1485 -0.0255
 7542SOL    HW125519   6.946   2.422  10.254  0.4998 -0.0296  1.2555
 7542SOL    HW225520   7.061   2.503  10.201  0.2934 -0.1123  0.6797
 7543SOL     OW25521   5.561   8.634   6.024 -0.6263  0.0210 -0.2112
 7543SOL    HW125522   5.574   8.677   5.939  1.2219  0.6528  0.3442
 7543SOL    HW225523   5.468   8.648   6.044 -0.8795  0.6633 -1.6955
 7544SOL     OW25524   8.233   7.258   7.105 -0.3994  0.1488  0.2417
 7544SOL    HW125525   8.188   7.214   7.033 -1.1576  1.9713 -0.4750
 7544SOL    HW225526   8.289   7.322   7.061  0.6362 -0.0559  1.2366
 7545SOL     OW25527   3.341  10.720   0.347  0.3158  0.4153  0.1952
 7545SOL    HW125528   3.400  10.649   0.323 -0.1351  0.4804 -1.2179
 7545SOL    HW225529   3.306  10.695   0.432 -1.6950 -2.3128 -1.2908
 7546SOL     OW25530   2.336   7.095   7.957  0.0376 -0.4445  0.5382
 7546SOL    HW125531   2.249   7.117   7.991  0.2420  0.2572  0.6270
 7546SOL    HW225532   2.393   7.163   7.992  0.6625 -1.0097  0.6378
 7547SOL     OW25533   7.644   7.833   5.182  0.1115  0.4743  0.0480
 7547SOL    HW125534   7.623   7.809   5.272 -1.7307  2.3313  0.1822
 7547SOL    HW225535   7.594   7.772   5.128  0.9353 -0.4062  0.2520
 7548SOL     OW25536   1.075   4.765   8.719 -0.6426 -0.4358 -0.1605
 7548SOL    HW125537   1.092   4.748   8.626  0.4124 -0.6601  0.0676
 7548SOL    HW225538   1.082   4.679   8.760 -0.4193 -0.2287  0.2318
 7549SOL     OW25539  10.541   2.763   9.957  0.0870  0.1142  0.6678
 7549SOL    HW125540  10.598   2.807   9.894 -0.1263  0.4406  0.7001
 7549SOL    HW225541  10.584   2.679   9.974  1.4854  1.0586  2.0062
 7550SOL     OW25542   5.907   3.726   0.553  0.5976 -0.6401 -0.3466
 7550SOL    HW125543   5.895   3.821   0.561 -0.4434 -0.8417  1.0378
 7550SOL    HW225544   5.843   3.699   0.487 -1.6531 -0.7416  1.6958
 7551SOL     OW25545   3.053   5.081   5.394 -0.2141  0.1069 -0.2067
 7551SOL    HW125546   3.013   5.069   5.480 -0.8141  0.3232 -0.4444
 7551SOL    HW225547   2.981   5.066   5.332  0.2046 -0.0215 -0.6650
 7552SOL     OW25548   3.291   2.341   5.939 -0.1303  0.2485 -0.4324
 7552SOL    HW125549   3.302   2.435   5.952  1.2571  0.1609 -0.8036
 7552SOL    HW225550   3.314   2.302   6.024 -1.0784  0.2555 -0.1644
 7553SOL     OW25551   2.605   8.954   3.289  0.4156 -0.0672 -0.1980
 7553SOL    HW125552   2.539   8.984   3.226 -0.5611 -0.2720  0.6948
 7553SOL    HW225553   2.636   9.035   3.330 -1.3179 -0.1104  1.3272
 7554SOL     OW25554   9.064   8.267   6.402  0.4427  0.4317  0.6093
 7554SOL    HW125555   9.099   8.312   6.325  0.4518  0.9815  0.9305
 7554SOL    HW225556   9.016   8.192   6.366  1.0622  0.2655  0.1098
 7555SOL     OW25557   9.881   5.387   1.451  0.1725 -0.2318 -0.0874
 7555SOL    HW125558   9.905   5.350   1.536  2.3426  0.3599 -0.3754
 7555SOL    HW225559   9.838   5.316   1.405 -2.4625 -0.1383  2.0053
 7556SOL     OW25560   5.863   4.016   5.894  0.8455  0.0625 -0.2880
 7556SOL    HW125561   5.819   3.942   5.935 -0.2395  0.0390 -1.4355
 7556SOL    HW225562   5.808   4.092   5.915  2.1254  0.6379  1.1615
 7557SOL     OW25563   2.704   7.616   2.140 -0.0202 -0.3015 -0.4560
 7557SOL    HW125564   2.683   7.697   2.095  1.0625  0.0104 -0.4377
 7557SOL    HW225565   2.758   7.643   2.214 -0.4535 -0.9531  0.1104
 7558SOL     OW25566   5.178   0.642   1.337  0.0315  0.0777  0.0259
 7558SOL    HW125567   5.100   0.609   1.293 -0.1320 -0.1122  0.4447
 7558SOL    HW225568   5.182   0.734   1.313 -1.0783  0.4266  1.0541
 7559SOL     OW25569   8.701   4.733   7.259  0.3899 -0.2482  0.0212
 7559SOL    HW125570   8.775   4.793   7.261  1.4581 -1.5116 -0.3128
 7559SOL    HW225571   8.734   4.653   7.300 -0.6926 -0.9415 -0.4177
 7560SOL     OW25572   0.288   9.248   9.181  0.2416 -0.5581 -0.4705
 7560SOL    HW125573   0.355   9.314   9.200  2.4358 -1.6627 -3.5269
 7560SOL    HW225574   0.237   9.285   9.109  1.8532 -2.2043 -2.6146
 7561SOL     OW25575   4.262   4.881   5.559  0.1550 -0.7788 -0.1184
 7561SOL    HW125576   4.310   4.939   5.619  0.2977 -1.3400  0.3192
 7561SOL    HW225577   4.305   4.894   5.475  2.2210 -2.4884  0.5753
 7562SOL     OW25578   0.085   2.830   9.966  0.1898  0.2591 -0.1752
 7562SOL    HW125579   0.109   2.922   9.955  0.4831  0.2084  0.0258
 7562SOL    HW225580   0.074   2.798   9.876  3.1446 -0.3081 -0.4346
 7563SOL     OW25581   1.389  10.337   9.353  0.3029 -0.1724 -0.4414
 7563SOL    HW125582   1.403  10.431   9.367 -1.7772 -0.0712  1.5394
 7563SOL    HW225583   1.301  10.331   9.317  0.0929 -1.3808  0.2137
 7564SOL     OW25584   6.790   0.712   2.914  0.4919 -0.2063 -0.0829
 7564SOL    HW125585   6.756   0.638   2.965  0.9295  1.2735  2.5345
 7564SOL    HW225586   6.861   0.748   2.967  2.7648 -0.0356 -2.9849
 7565SOL     OW25587  10.147  10.141   7.682 -0.0281  0.0700 -0.6322
 7565SOL    HW125588  10.133  10.225   7.727 -0.7925 -0.3408 -0.0807
 7565SOL    HW225589  10.242  10.139   7.666  0.2146  0.4275  0.5951
 7566SOL     OW25590   3.688   8.239   2.640 -0.1902  0.0373 -0.0213
 7566SOL    HW125591   3.685   8.206   2.730  0.7053  0.9818  0.3772
 7566SOL    HW225592   3.767   8.201   2.603 -0.0579  0.3900 -0.1050
 7567SOL     OW25593   0.951   3.586   7.447 -0.1557  0.0302 -0.2562
 7567SOL    HW125594   0.865   3.605   7.411  0.3719  0.1403 -1.5190
 7567SOL    HW225595   1.000   3.668   7.439 -0.4343  0.4905  2.0779
 7568SOL     OW25596   4.785   7.923   4.823 -0.3747  0.1814 -0.2926
 7568SOL    HW125597   4.837   7.908   4.744 -0.1840 -1.9351  0.1569
 7568SOL    HW225598   4.702   7.958   4.791 -0.1936 -0.3744 -1.4148
 7569SOL     OW25599   2.967   0.966   8.767 -0.5411  0.4408 -0.2761
 7569SOL    HW125600   2.954   0.930   8.855  0.9044  0.4767 -0.0202
 7569SOL    HW225601   2.963   0.891   8.709  0.0556  0.1969 -0.0068
 7570SOL     OW25602   1.170   7.854   1.039 -0.0096 -0.0874  0.4687
 7570SOL    HW125603   1.228   7.869   0.964 -0.4368 -1.5229 -0.1673
 7570SOL    HW225604   1.228   7.858   1.115  0.4599  1.1671  0.0802
 7571SOL     OW25605   2.505   8.389   4.442  0.2013 -0.3328  0.7188
 7571SOL    HW125606   2.487   8.394   4.348  2.3398  2.0482  0.3167
 7571SOL    HW225607   2.577   8.326   4.448 -0.0325 -0.5945  0.7944
 7572SOL     OW25608   7.789   3.307   5.851  0.3071 -0.1604 -0.0687
 7572SOL    HW125609   7.730   3.383   5.853  1.9891  1.3598 -2.2456
 7572SOL    HW225610   7.774   3.268   5.765  0.9308 -1.0774  0.2274
 7573SOL     OW25611   1.551  10.369   5.823 -0.0868  0.0814 -0.2853
 7573SOL    HW125612   1.622  10.329   5.773  1.3034 -1.0106  2.3661
 7573SOL    HW225613   1.585  10.377   5.912 -2.8062  0.8425  0.7983
 7574SOL     OW25614  10.619   9.387   3.397  0.5750  0.1862 -0.6160
 7574SOL    HW125615  10.598   9.456   3.335 -0.7668  2.0446  1.7228
 7574SOL    HW225616  10.599   9.425   3.483  2.3679 -2.1980  0.9928
 7575SOL     OW25617   1.959   5.452   8.476  0.0480 -0.1055  0.3368
 7575SOL    HW125618   2.005   5.441   8.560 -0.6452  1.1721  0.9050
 7575SOL    HW225619   2.025   5.429   8.410  0.5001 -1.4835  1.2237
 7576SOL     OW25620   3.445  10.416   0.695 -0.5226  0.1639  0.0974
 7576SOL    HW125621   3.454  10.390   0.603 -3.1723 -0.9264  0.0551
 7576SOL    HW225622   3.494  10.350   0.744 -0.4120 -0.1712 -0.4575
 7577SOL     OW25623   0.706  10.744   8.542 -0.2002  0.6839 -0.2290
 7577SOL    HW125624   0.709  10.763   8.448 -2.0373  0.7934 -0.2933
 7577SOL    HW225625   0.660  10.819   8.580 -3.1092 -1.1766  0.1750
 7578SOL     OW25626   3.355   9.547   0.525  0.3105  0.4278  0.4437
 7578SOL    HW125627   3.356   9.491   0.448  1.7745  2.2209 -0.9417
 7578SOL    HW225628   3.268   9.587   0.525 -0.5535 -1.3559  1.1464
 7579SOL     OW25629   0.615   6.004   7.169  0.4875 -0.3781 -0.2784
 7579SOL    HW125630   0.599   6.047   7.085 -0.0418 -1.7552 -0.9106
 7579SOL    HW225631   0.545   6.036   7.226  1.4683  1.3941 -0.0008
 7580SOL     OW25632   6.983   9.976   8.451  0.0065  0.6859  0.1496
 7580SOL    HW125633   7.070   9.963   8.412  0.2454  1.5541  0.3591
 7580SOL    HW225634   6.928  10.002   8.377 -0.2466 -0.4857 -0.0992
 7581SOL     OW25635   9.667   5.544   0.478 -0.0206  0.0765 -0.0505
 7581SOL    HW125636   9.758   5.562   0.501  0.1478 -0.0455 -0.6320
 7581SOL    HW225637   9.618   5.574   0.555  0.4442  0.8532 -0.0499
 7582SOL     OW25638   4.789   0.822   2.913 -0.1261  0.3772  0.0534
 7582SOL    HW125639   4.837   0.767   2.850  0.4396  1.7201 -0.7240
 7582SOL    HW225640   4.741   0.759   2.967  1.2175 -0.9362 -0.2057
 7583SOL     OW25641   6.542   1.933   3.669  0.1673 -0.2706  0.3116
 7583SOL    HW125642   6.450   1.944   3.693  0.2280 -0.3528  0.5860
 7583SOL    HW225643   6.572   2.021   3.647 -0.5834 -0.5179 -2.0544
 7584SOL     OW25644   9.309   4.655   9.379  0.1314  0.0723 -0.0683
 7584SOL    HW125645   9.218   4.625   9.371  0.2338 -0.4052  0.5442
 7584SOL    HW225646   9.310   4.739   9.333  0.0134 -1.1630 -2.5487
 7585SOL     OW25647   5.576   2.109   1.570 -0.1334  0.2626 -0.2092
 7585SOL    HW125648   5.567   2.204   1.567  0.0115  0.2519 -1.9203
 7585SOL    HW225649   5.586   2.083   1.478  0.2358 -1.3651  0.2629
 7586SOL     OW25650   6.101   7.392   3.427 -0.4227  0.4870  0.1544
 7586SOL    HW125651   6.093   7.443   3.507 -1.3033  1.0303 -0.2625
 7586SOL    HW225652   6.065   7.306   3.448  0.9624  0.0452  0.8294
 7587SOL     OW25653   8.973   8.242   7.067 -0.3539 -0.3283  0.4608
 7587SOL    HW125654   8.984   8.299   6.991  0.9149 -2.1617 -0.7963
 7587SOL    HW225655   8.882   8.213   7.062 -1.0539  1.5400  1.1674
 7588SOL     OW25656   5.391   1.846   1.127 -0.1935 -0.2846 -0.0662
 7588SOL    HW125657   5.391   1.923   1.069 -0.5410 -0.1957  0.0531
 7588SOL    HW225658   5.433   1.777   1.075 -1.0028 -0.3605 -0.6300
 7589SOL     OW25659   4.344   9.927   0.146 -0.1395  0.7040 -0.3584
 7589SOL    HW125660   4.258   9.891   0.170 -0.1622  1.5665  0.9973
 7589SOL    HW225661   4.366   9.884   0.064 -0.8778 -1.1546  0.3647
 7590SOL     OW25662   7.709   7.908   0.452  0.0865  0.2596 -0.3192
 7590SOL    HW125663   7.737   7.898   0.543 -0.3082 -1.0394 -0.3312
 7590SOL    HW225664   7.634   7.849   0.443  0.9577 -0.6515 -1.8566
 7591SOL     OW25665   2.021   2.019   7.289  0.0943 -0.2971  0.5241
 7591SOL    HW125666   2.041   2.097   7.341  0.3272  0.7097 -1.0125
 7591SOL    HW225667   1.972   2.052   7.214 -2.2218 -1.9958  1.2003
 7592SOL     OW25668   9.238   8.223   7.128  0.1600  0.1698  0.2264
 7592SOL    HW125669   9.146   8.246   7.118  0.3631  1.2388  0.6847
 7592SOL    HW225670   9.241   8.129   7.110 -0.9276  0.2225 -0.3320
 7593SOL     OW25671   3.444   8.395   4.349 -0.3057 -0.2054 -0.4768
 7593SOL    HW125672   3.495   8.331   4.300  1.3762 -0.0665  0.9962
 7593SOL    HW225673   3.414   8.347   4.426 -1.7467 -0.0451 -0.8950
 7594SOL     OW25674   1.418   4.686  10.622  0.1136 -0.2717  0.9938
 7594SOL    HW125675   1.415   4.659  10.530  1.6894 -3.4662  1.7423
 7594SOL    HW225676   1.346   4.638  10.663  0.1624  0.2040  1.6508
 7595SOL     OW25677   2.353   0.869   1.146 -0.4159 -0.2144 -0.6356
 7595SOL    HW125678   2.367   0.813   1.222  2.9744  1.5632  0.2568
 7595SOL    HW225679   2.381   0.956   1.175 -1.9049  1.1906 -3.0717
 7596SOL     OW25680   0.763   3.935   1.094  0.1708 -0.1162  0.1590
 7596SOL    HW125681   0.829   3.867   1.108  0.0010 -0.1047  1.0331
 7596SOL    HW225682   0.686   3.904   1.142 -0.0352  0.5033  0.2309
 7597SOL     OW25683   3.882   0.265   9.711 -0.2729  0.6250  0.3262
 7597SOL    HW125684   3.964   0.242   9.668  0.0414 -2.5176  2.3095
 7597SOL    HW225685   3.815   0.251   9.644  0.5888  0.6968 -0.5700
 7598SOL     OW25686   9.364   9.456   0.038 -0.0399  0.3473 -0.3128
 7598SOL    HW125687   9.334   9.453   0.129  0.4631 -0.9813 -0.1617
 7598SOL    HW225688   9.284   9.450  -0.014 -0.1797 -2.3860  0.0807
 7599SOL     OW25689   2.347   6.666   2.192 -0.0203 -0.0001  0.2630
 7599SOL    HW125690   2.396   6.742   2.161 -0.4013  0.6824  1.2717
 7599SOL    HW225691   2.403   6.592   2.172 -0.7142  0.2098 -3.1079
 7600SOL     OW25692   9.130  10.344   2.777 -0.2218  0.0639 -0.1121
 7600SOL    HW125693   9.066  10.327   2.846 -2.0925 -0.6133 -1.9036
 7600SOL    HW225694   9.205  10.381   2.823 -1.5330  0.0559  2.2155
 7601SOL     OW25695   7.134   0.738   6.679  0.1036  0.1563  0.2966
 7601SOL    HW125696   7.213   0.746   6.625 -0.4214 -0.4594 -0.5893
 7601SOL    HW225697   7.064   0.718   6.617 -0.4011 -1.2185  1.2531
 7602SOL     OW25698   7.344   0.703   3.811 -0.0017 -0.1478 -0.5500
 7602SOL    HW125699   7.290   0.635   3.851  1.2595 -0.9689 -0.1740
 7602SOL    HW225700   7.316   0.706   3.720  0.7220 -2.0498 -0.8762
 7603SOL     OW25701   7.967   1.274   4.134 -0.9804  0.3028  0.4650
 7603SOL    HW125702   7.915   1.204   4.095  1.3648 -0.6317 -1.2188
 7603SOL    HW225703   7.961   1.346   4.071 -0.6148  0.3489  0.4808
 7604SOL     OW25704   2.123   1.812   9.035 -0.4558 -0.2780  0.1481
 7604SOL    HW125705   2.173   1.891   9.057 -0.7377  0.0932 -0.4877
 7604SOL    HW225706   2.165   1.742   9.084  0.6200  0.0446 -0.2858
 7605SOL     OW25707   0.474   9.551   8.096  0.2420 -0.1721 -0.1651
 7605SOL    HW125708   0.389   9.543   8.053 -0.4506 -0.5745  1.2206
 7605SOL    HW225709   0.502   9.640   8.077 -1.9693  1.0754  1.9059
 7606SOL     OW25710   4.012   2.403   7.035 -0.4897  0.0655 -0.4138
 7606SOL    HW125711   4.087   2.366   6.989  1.1949  1.2976  1.1820
 7606SOL    HW225712   4.041   2.490   7.062 -2.1013  0.1629  1.2163
 7607SOL     OW25713   9.518   0.993   9.425 -0.1696 -0.0571 -0.7883
 7607SOL    HW125714   9.540   1.043   9.346 -2.0204  1.4748 -0.4389
 7607SOL    HW225715   9.558   1.042   9.496 -1.1109  0.3691 -0.5331
 7608SOL     OW25716   6.094   3.789   1.771 -0.5827  0.2467  0.0967
 7608SOL    HW125717   6.138   3.798   1.686 -0.8203 -1.5284 -0.2484
 7608SOL    HW225718   6.085   3.695   1.784 -1.5955  0.5066  1.5732
 7609SOL     OW25719   4.922   9.510   2.274 -0.1531  0.1340 -0.2870
 7609SOL    HW125720   4.953   9.569   2.205  1.0914 -0.9106 -0.6392
 7609SOL    HW225721   4.827   9.513   2.266 -0.0832  1.3673 -0.9128
 7610SOL     OW25722   9.014  10.262   4.878  0.3845 -0.1451  0.4531
 7610SOL    HW125723   9.087  10.257   4.816  1.4578 -1.9673  1.7974
 7610SOL    HW225724   9.004  10.356   4.895 -0.4834  0.5481 -2.9966
 7611SOL     OW25725   3.098   4.442   1.620 -0.7709 -0.3871  0.2209
 7611SOL    HW125726   3.092   4.378   1.549  0.4324  2.5167 -2.7689
 7611SOL    HW225727   3.008   4.468   1.637 -1.1561 -1.8781  0.5651
 7612SOL     OW25728   2.948  10.473   9.865 -0.2472  0.6968 -0.1126
 7612SOL    HW125729   3.003  10.534   9.816 -0.5969  0.2684 -1.0573
 7612SOL    HW225730   2.970  10.490   9.957  0.7705  1.1731 -0.4256
 7613SOL     OW25731   1.955   8.351   0.605  0.0592 -0.1087 -0.1479
 7613SOL    HW125732   1.979   8.291   0.535  1.2114 -0.9066  0.8743
 7613SOL    HW225733   1.971   8.301   0.685 -1.6312  0.6187  0.6894
 7614SOL     OW25734   8.543   4.114  10.314  0.6582  0.4036  0.6523
 7614SOL    HW125735   8.522   4.103  10.221  0.5466 -0.8157  0.8052
 7614SOL    HW225736   8.635   4.088  10.320  0.0474 -1.7791  1.2363
 7615SOL     OW25737   1.826   4.789   9.193  0.7585  0.6788  0.4153
 7615SOL    HW125738   1.742   4.826   9.218 -0.3747 -0.9619 -0.7696
 7615SOL    HW225739   1.891   4.848   9.232 -0.9177  2.2359  0.9731
 7616SOL     OW25740   5.047   0.939   7.503 -0.6216 -0.1251  0.1787
 7616SOL    HW125741   5.042   1.000   7.429 -0.6586 -0.1121  0.1922
 7616SOL    HW225742   5.141   0.921   7.512 -0.7344 -1.5617 -1.0473
 7617SOL     OW25743   7.939   0.697   6.620 -0.1108  0.1540  0.2454
 7617SOL    HW125744   8.032   0.717   6.612 -0.1312 -0.2115 -1.4375
 7617SOL    HW225745   7.936   0.605   6.648  0.0121  0.4181  1.1537
 7618SOL     OW25746   5.904   4.682   0.440  0.2958 -0.6324  0.3363
 7618SOL    HW125747   5.845   4.661   0.513  0.5746  1.0815  1.1171
 7618SOL    HW225748   5.991   4.685   0.480  0.4239  0.5547  0.0114
 7619SOL     OW25749   6.950   0.545   4.344  0.4934 -0.1332 -0.2680
 7619SOL    HW125750   6.934   0.533   4.250 -0.5575  0.2599 -0.1508
 7619SOL    HW225751   7.041   0.575   4.349 -0.1329  2.1319 -1.3597
 7620SOL     OW25752   0.887   0.574   4.452 -0.1616 -0.0731 -0.9436
 7620SOL    HW125753   0.894   0.480   4.471 -1.0513 -0.3791 -2.0027
 7620SOL    HW225754   0.939   0.586   4.373  0.7411  0.5320 -0.2809
 7621SOL     OW25755   7.497   7.119   2.173 -0.4183  0.6045  0.5606
 7621SOL    HW125756   7.499   7.044   2.113 -0.3594 -0.1126  1.4467
 7621SOL    HW225757   7.404   7.142   2.179 -0.4241  0.6917  0.1870
 7622SOL     OW25758   4.452   2.395   0.788 -0.0887  0.2406 -0.6505
 7622SOL    HW125759   4.404   2.475   0.808 -0.7877 -0.3485  0.1014
 7622SOL    HW225760   4.525   2.394   0.849 -0.2258  0.1751 -0.4886
 7623SOL     OW25761   0.634   1.782   0.943 -0.3237 -0.7248  0.1122
 7623SOL    HW125762   0.645   1.843   1.016 -1.2666 -0.5994  0.1574
 7623SOL    HW225763   0.668   1.699   0.976  1.4728 -0.1228 -0.1321
 7624SOL     OW25764   9.432   2.801   2.548  0.6177 -0.1513 -0.2866
 7624SOL    HW125765   9.450   2.893   2.565 -0.5564  0.2730 -1.2064
 7624SOL    HW225766   9.342   2.799   2.514 -0.2387 -1.8904  1.8533
 7625SOL     OW25767  10.240   3.760   4.910  0.4560  0.3830  0.1278
 7625SOL    HW125768  10.325   3.749   4.953  0.7652  2.0009 -0.0190
 7625SOL    HW225769  10.255   3.729   4.820  0.5695 -0.3879  0.4037
 7626SOL     OW25770   2.947   1.827   8.645 -0.6936 -0.7200 -0.2544
 7626SOL    HW125771   2.944   1.807   8.552  0.0763 -0.6000 -0.3099
 7626SOL    HW225772   2.925   1.920   8.650 -0.3384 -0.6283 -0.3579
 7627SOL     OW25773   9.529   4.188   4.485 -0.0679 -0.0660 -0.1341
 7627SOL    HW125774   9.453   4.145   4.446  0.6111  0.1838 -1.8104
 7627SOL    HW225775   9.519   4.280   4.463  0.5155  0.0332 -0.0111
 7628SOL     OW25776   3.482   4.934   8.508 -0.3570  0.2910 -0.1311
 7628SOL    HW125777   3.405   4.928   8.452 -0.4453 -1.1690  0.1073
 7628SOL    HW225778   3.516   4.845   8.511  0.9278  0.7795  0.3591
 7629SOL     OW25779   6.787   6.692   0.821  0.3524  0.3770  0.3554
 7629SOL    HW125780   6.882   6.696   0.807  0.9416  0.3603  3.5287
 7629SOL    HW225781   6.759   6.783   0.819  0.7629  0.5292  0.9685
 7630SOL     OW25782   9.957   4.041   4.279 -0.0882 -0.2046 -0.4660
 7630SOL    HW125783   9.945   4.122   4.228 -0.2008 -0.7323 -1.2837
 7630SOL    HW225784   9.892   4.049   4.350 -1.1335 -0.2387 -1.3849
 7631SOL     OW25785   5.626   2.566   0.852  0.0205 -0.7629  0.1214
 7631SOL    HW125786   5.534   2.557   0.828 -0.4923  0.3869  1.5291
 7631SOL    HW225787   5.625   2.598   0.942  1.8139 -1.6086  0.4921
 7632SOL     OW25788   1.375   6.773   8.331 -0.5305  0.0630 -0.7101
 7632SOL    HW125789   1.330   6.789   8.414 -0.1849  0.0094 -0.5115
 7632SOL    HW225790   1.467   6.793   8.349  0.0009 -2.4272 -0.3386
 7633SOL     OW25791  10.659   7.817   7.116 -0.4421 -0.1933 -0.2133
 7633SOL    HW125792  10.718   7.890   7.132  2.1512 -2.8287  4.8464
 7633SOL    HW225793  10.605   7.812   7.195 -2.2466 -2.3641 -1.4429
 7634SOL     OW25794   8.379   6.678   4.839 -0.0808 -0.4311 -0.1049
 7634SOL    HW125795   8.348   6.763   4.871  0.2686 -0.0565 -0.7647
 7634SOL    HW225796   8.305   6.619   4.856 -0.8107  0.2564 -0.7692
 7635SOL     OW25797   2.774   1.496  10.451  0.0855  0.2784 -0.1164
 7635SOL    HW125798   2.801   1.573  10.501 -3.9408  0.9898  1.2790
 7635SOL    HW225799   2.735   1.532  10.371  1.0983 -0.5586 -1.0189
 7636SOL     OW25800   7.697   9.445   0.935 -0.2241  0.4422 -0.0679
 7636SOL    HW125801   7.707   9.539   0.944 -1.2750  0.5655 -0.0658
 7636SOL    HW225802   7.686   9.413   1.025 -0.8113  0.4393 -0.1380
 7637SOL     OW25803   2.951   5.161   8.156 -0.4740  0.4721  0.0570
 7637SOL    HW125804   3.026   5.111   8.190 -0.8401 -0.4778 -0.4992
 7637SOL    HW225805   2.874   5.118   8.194 -0.9478 -1.1103 -2.4512
 7638SOL     OW25806   0.695   9.508   8.415  0.2714 -0.1535  0.2536
 7638SOL    HW125807   0.689   9.498   8.320  0.0040 -0.4443  0.2996
 7638SOL    HW225808   0.762   9.576   8.427  0.2296 -0.0360 -0.1432
 7639SOL     OW25809   9.975   7.823   3.199 -0.0523  0.2108  0.6407
 7639SOL    HW125810  10.038   7.799   3.131 -0.1277  1.9867 -0.1029
 7639SOL    HW225811   9.963   7.742   3.250  0.5702 -0.9542 -0.9805
 7640SOL     OW25812   1.993   4.863   5.040  0.4710  0.3286 -0.4035
 7640SOL    HW125813   2.051   4.810   5.093 -0.9879  0.3863  1.3561
 7640SOL    HW225814   1.910   4.816   5.041  0.3046  0.5096 -2.4022
 7641SOL     OW25815   6.148   7.018   8.772  0.1858 -0.4478 -0.2125
 7641SOL    HW125816   6.219   6.960   8.799 -0.0736 -0.2861  0.8718
 7641SOL    HW225817   6.184   7.106   8.779  0.7289 -0.4624 -2.3162
 7642SOL     OW25818   1.385   8.221   3.872  0.1061 -0.3130  0.1805
 7642SOL    HW125819   1.461   8.206   3.927 -0.0558  1.8802  1.0833
 7642SOL    HW225820   1.323   8.152   3.897  0.9600 -0.8055  0.9775
 7643SOL     OW25821  10.671   0.352  10.513  0.1872 -0.3531 -0.3100
 7643SOL    HW125822  10.681   0.437  10.471  1.6998 -0.6844 -0.6771
 7643SOL    HW225823  10.708   0.363  10.600 -1.1540 -0.2069  0.2715
 7644SOL     OW25824   0.224   9.725   7.292 -0.4612  0.0897 -0.3140
 7644SOL    HW125825   0.193   9.774   7.368  1.0099  0.4900  0.0557
 7644SOL    HW225826   0.145   9.684   7.257 -1.1283 -0.4650  1.6801
 7645SOL     OW25827   9.356  10.075   5.307 -0.0706  0.0529 -0.4997
 7645SOL    HW125828   9.365  10.080   5.402 -0.9602 -1.3178 -0.3162
 7645SOL    HW225829   9.383   9.986   5.286  1.4336  0.7518 -1.7199
 7646SOL     OW25830   0.980   6.308   3.065 -0.4192  0.2477  0.0042
 7646SOL    HW125831   0.950   6.304   3.156 -0.7765  1.8722 -0.0007
 7646SOL    HW225832   0.973   6.219   3.033 -1.8867 -0.0595  1.0703
 7647SOL     OW25833   0.231   5.084   3.418 -0.2469 -0.5907 -0.6718
 7647SOL    HW125834   0.256   5.168   3.379  3.0015 -1.0169  0.1833
 7647SOL    HW225835   0.215   5.105   3.510 -1.1086 -0.6514 -0.8074
 7648SOL     OW25836   6.279  10.262   3.286 -0.7240 -0.1298  0.7163
 7648SOL    HW125837   6.188  10.252   3.313 -1.0287  1.0826  0.2165
 7648SOL    HW225838   6.328  10.263   3.368 -1.5508  2.7329  1.2974
 7649SOL     OW25839   3.387   8.017   8.127  0.1107  0.5028 -0.3762
 7649SOL    HW125840   3.407   7.968   8.047  0.3440 -2.2956  1.2426
 7649SOL    HW225841   3.306   7.977   8.159  0.2754  1.2230  1.0227
 7650SOL     OW25842   1.355   6.491   1.946 -0.2683 -0.3865 -0.7513
 7650SOL    HW125843   1.409   6.417   1.974  0.1663 -1.0798 -3.2214
 7650SOL    HW225844   1.395   6.520   1.864 -1.3868  1.5934 -0.6528
 7651SOL     OW25845   0.359   4.482   2.208  0.2967  0.2875  0.0083
 7651SOL    HW125846   0.348   4.567   2.251  0.6572  1.1564 -1.5496
 7651SOL    HW225847   0.282   4.473   2.152  1.7894  1.1535 -2.3192
 7652SOL     OW25848   3.501  10.250   7.654  0.1916  0.2107 -0.0253
 7652SOL    HW125849   3.419  10.225   7.697 -0.3783  0.3925 -0.9819
 7652SOL    HW225850   3.524  10.335   7.693 -2.1146  2.0793 -2.3636
 7653SOL     OW25851   7.330   8.580   8.828 -0.7056 -0.2258 -0.6270
 7653SOL    HW125852   7.237   8.600   8.835 -0.2651  1.5027  1.0412
 7653SOL    HW225853   7.340   8.545   8.739 -2.8799 -0.2025 -0.9360
 7654SOL     OW25854   2.413   4.420   2.945 -0.2427 -0.0268 -0.1413
 7654SOL    HW125855   2.415   4.498   3.000 -0.4213 -0.7496  0.9377
 7654SOL    HW225856   2.423   4.452   2.856  1.1049  1.0992  0.3870
 7655SOL     OW25857   2.171   8.500   3.961  0.1445  0.0721  0.0176
 7655SOL    HW125858   2.093   8.539   3.999  0.0779  0.1004 -0.1486
 7655SOL    HW225859   2.238   8.568   3.970  0.3391 -0.2203  0.8206
 7656SOL     OW25860   2.507   9.900   2.310 -0.0628  0.1266  0.3344
 7656SOL    HW125861   2.484   9.820   2.265 -0.6398 -0.1778  1.1503
 7656SOL    HW225862   2.439   9.963   2.286 -0.5327 -0.1199  0.9862
 7657SOL     OW25863   1.013   7.844   5.954 -0.7580  0.2398 -0.0285
 7657SOL    HW125864   0.921   7.856   5.927 -0.6914  1.4952  0.2417
 7657SOL    HW225865   1.059   7.918   5.915 -0.4340  1.4616  2.4555
 7658SOL     OW25866   3.287   2.257   8.543 -0.5177  0.2085  0.0453
 7658SOL    HW125867   3.335   2.200   8.603  1.2409  0.3810 -1.1473
 7658SOL    HW225868   3.309   2.346   8.572 -0.1936  0.2881 -0.4389
 7659SOL     OW25869   4.920   3.368   3.326 -0.5820  0.6584 -0.0688
 7659SOL    HW125870   4.879   3.369   3.240  1.1594  1.2390 -0.9331
 7659SOL    HW225871   4.920   3.277   3.353 -0.8167  0.4270 -0.8491
 7660SOL     OW25872   6.103   5.768   7.671  0.0929  0.6104  0.1274
 7660SOL    HW125873   6.194   5.739   7.673  0.2865  0.8533 -2.2435
 7660SOL    HW225874   6.088   5.805   7.758  2.2633  0.5965  0.5652
 7661SOL     OW25875   7.775   6.984  10.610 -0.4331 -0.3079  0.1176
 7661SOL    HW125876   7.722   6.987  10.689 -0.5684 -2.1141  0.1412
 7661SOL    HW225877   7.842   7.052  10.623 -0.6029 -0.4131  1.6642
 7662SOL     OW25878   9.420   6.375   0.708  0.2922 -1.0970  0.5891
 7662SOL    HW125879   9.462   6.295   0.738 -0.2395 -1.1246  1.2925
 7662SOL    HW225880   9.405   6.361   0.615  1.2198 -1.3539  0.4652
 7663SOL     OW25881   7.478   9.777   1.790 -0.5390 -0.2546  0.2089
 7663SOL    HW125882   7.529   9.770   1.871 -0.4013  0.2175  0.1678
 7663SOL    HW225883   7.387   9.775   1.818 -0.5247  2.1102  0.6199
 7664SOL     OW25884   7.216   6.799   3.102 -0.1597 -0.7134  0.1195
 7664SOL    HW125885   7.220   6.709   3.070  0.5070 -1.1161  1.2790
 7664SOL    HW225886   7.304   6.833   3.086 -1.2426  0.9061 -3.4352
 7665SOL     OW25887   9.329   7.342   6.225 -0.2706  0.2040 -0.4002
 7665SOL    HW125888   9.267   7.409   6.195 -0.5396 -0.6318 -1.8324
 7665SOL    HW225889   9.410   7.362   6.179  0.9629  1.9481  2.2925
 7666SOL     OW25890   8.485   2.071   2.111  0.2954  0.2653 -0.2700
 7666SOL    HW125891   8.559   2.013   2.128  0.1057  0.5635  1.7732
 7666SOL    HW225892   8.514   2.158   2.139 -0.2488  0.7151 -1.0438
 7667SOL     OW25893   9.545   5.830   8.966 -0.1707  0.1803  0.1599
 7667SOL    HW125894   9.583   5.793   9.045 -1.9377 -0.7452  0.6279
 7667SOL    HW225895   9.461   5.866   8.994  0.8860  3.5568 -0.5231
 7668SOL     OW25896   4.058   8.879  10.106  0.3422  0.5112  0.0177
 7668SOL    HW125897   4.023   8.820  10.172  0.3614 -1.4208 -1.5922
 7668SOL    HW225898   4.021   8.964  10.128 -2.5082 -0.7172  0.4952
 7669SOL     OW25899   1.839   1.333   9.051  0.0429 -0.5781 -0.6264
 7669SOL    HW125900   1.892   1.344   8.973 -0.7190 -0.9139 -1.2071
 7669SOL    HW225901   1.760   1.385   9.034  0.9113  1.3885  0.9699
 7670SOL     OW25902   4.024   3.202   7.499  0.4110  1.0171 -0.1973
 7670SOL    HW125903   4.003   3.219   7.591  1.4874 -0.3374  0.3358
 7670SOL    HW225904   3.945   3.226   7.452 -0.3683  1.2104  1.1407
 7671SOL     OW25905   2.528   9.404   4.012  0.3094 -0.6343  0.1188
 7671SOL    HW125906   2.478   9.322   4.002 -0.6492  0.0197 -0.6494
 7671SOL    HW225907   2.476   9.456   4.073 -0.0995  0.1558 -0.8814
 7672SOL     OW25908   2.984   0.417   5.839  0.0289  0.1843 -0.0867
 7672SOL    HW125909   3.034   0.379   5.766  1.2691  1.4634  0.0607
 7672SOL    HW225910   2.981   0.347   5.905 -1.0719 -0.9722 -1.3065
 7673SOL     OW25911   6.502   2.073   3.978 -0.7166 -0.1834  0.0140
 7673SOL    HW125912   6.481   2.155   4.022 -2.3799 -1.2283  1.3132
 7673SOL    HW225913   6.453   2.076   3.896 -0.8581  0.0859  0.1081
 7674SOL     OW25914   0.590  10.439   2.042  0.2537  0.5058 -0.3377
 7674SOL    HW125915   0.631  10.437   1.956 -0.9149  0.1487 -0.9081
 7674SOL    HW225916   0.543  10.522   2.045 -2.2521 -0.7420 -1.3335
 7675SOL     OW25917  10.401   0.340   1.787  0.4563 -0.6355  0.0350
 7675SOL    HW125918  10.416   0.338   1.882 -1.0694 -0.6187  0.3089
 7675SOL    HW225919  10.306   0.330   1.778  0.6887 -1.8467 -1.5438
 7676SOL     OW25920   2.356   2.266   7.349 -0.1399 -0.3836  0.4600
 7676SOL    HW125921   2.414   2.342   7.336 -2.9998  1.7981 -0.7200
 7676SOL    HW225922   2.346   2.228   7.262 -2.6503  1.1259 -0.0208
 7677SOL     OW25923   5.275   3.080   5.631  0.5564  0.2725 -0.0415
 7677SOL    HW125924   5.289   3.150   5.695 -2.0170  0.6355  0.2280
 7677SOL    HW225925   5.299   3.120   5.547 -0.2932  1.3121  0.1844
 7678SOL     OW25926   7.878   5.356   8.861 -0.1592 -0.2072 -0.1580
 7678SOL    HW125927   7.834   5.295   8.920  0.7478 -0.8285 -0.1035
 7678SOL    HW225928   7.951   5.391   8.912 -0.6971  1.0082 -0.1613
 7679SOL     OW25929   7.459   2.025   3.859  0.3928 -0.0750 -0.0603
 7679SOL    HW125930   7.509   2.063   3.787  1.3450  0.3491  0.8054
 7679SOL    HW225931   7.441   1.935   3.831  1.5582 -0.2076 -0.4299
 7680SOL     OW25932   8.138   9.824   1.093 -0.9586  0.0085 -0.4170
 7680SOL    HW125933   8.168   9.736   1.069  0.0818 -0.2006  1.3894
 7680SOL    HW225934   8.057   9.836   1.044 -1.5461 -2.2785 -0.1560
 7681SOL     OW25935   5.283   3.297   7.290  0.1761  0.5151 -0.6299
 7681SOL    HW125936   5.279   3.388   7.261  1.3383  0.5252 -0.7688
 7681SOL    HW225937   5.369   3.287   7.330  0.6764 -0.8891 -1.9145
 7682SOL     OW25938   6.940   4.643   5.227  0.1822 -0.2401  0.1066
 7682SOL    HW125939   6.992   4.714   5.264  0.3884  0.3242 -1.2256
 7682SOL    HW225940   6.990   4.615   5.150 -0.3058 -1.2915  0.1606
 7683SOL     OW25941   7.616   8.464   7.980  0.1820  0.4379  0.3322
 7683SOL    HW125942   7.623   8.387   7.924 -2.9506 -0.1337  0.5491
 7683SOL    HW225943   7.671   8.530   7.938  0.9290 -1.1341 -1.2522
 7684SOL     OW25944   0.080   6.069   0.228  0.4259  0.1431 -0.3280
 7684SOL    HW125945   0.065   5.976   0.211  3.3000 -0.3202 -0.8480
 7684SOL    HW225946   0.127   6.101   0.151  0.9234  1.6154  0.5358
 7685SOL     OW25947   7.094   8.100   1.922  0.6136 -0.0823 -0.5264
 7685SOL    HW125948   7.006   8.096   1.959  0.7612 -0.2841 -0.1891
 7685SOL    HW225949   7.098   8.025   1.862  0.2932  0.3821 -1.1381
 7686SOL     OW25950   2.072  10.709   6.521  0.2856 -0.1078 -0.0429
 7686SOL    HW125951   2.008  10.768   6.482  0.7491 -0.6090 -1.6496
 7686SOL    HW225952   2.029  10.624   6.524  0.9022 -0.4897 -1.3136
 7687SOL     OW25953   1.412   4.511   8.036  0.0238 -0.6175 -0.1903
 7687SOL    HW125954   1.491   4.480   8.080  0.4792 -1.0559 -1.2908
 7687SOL    HW225955   1.350   4.528   8.107  1.6965  1.5437  0.8447
 7688SOL     OW25956   1.652   3.380   2.820  0.0874  0.4279  0.0568
 7688SOL    HW125957   1.629   3.316   2.752 -2.0058 -0.2797  1.3279
 7688SOL    HW225958   1.641   3.333   2.902  1.4725  1.5948  0.9653
 7689SOL     OW25959   7.631   2.082   4.465  0.1525  0.1335 -0.1917
 7689SOL    HW125960   7.567   2.076   4.535 -1.9620 -5.0264 -2.0326
 7689SOL    HW225961   7.595   2.147   4.404 -1.7557 -0.3998  0.2957
 7690SOL     OW25962   6.816   8.120   0.168  0.3388  0.0073  0.3128
 7690SOL    HW125963   6.782   8.057   0.105  0.0764 -0.6418  1.0739
 7690SOL    HW225964   6.765   8.199   0.155 -0.0823 -0.3010  0.0851
 7691SOL     OW25965   6.192   6.294   7.930 -0.3188  0.4601 -0.5987
 7691SOL    HW125966   6.174   6.209   7.972  0.0248  2.1499  3.3810
 7691SOL    HW225967   6.251   6.272   7.858  1.9097 -2.5439  1.8208
 7692SOL     OW25968   1.414   6.509   6.728  0.0079 -0.0887 -0.4579
 7692SOL    HW125969   1.480   6.440   6.735 -1.3318 -1.2497  1.5254
 7692SOL    HW225970   1.344   6.470   6.676  0.5394  0.9371 -2.0368
 7693SOL     OW25971   6.584   0.251   1.306  0.7884  0.1776  0.1212
 7693SOL    HW125972   6.584   0.258   1.210 -0.0826  3.6208  0.2500
 7693SOL    HW225973   6.673   0.277   1.331  0.4498  1.1993  0.2927
 7694SOL     OW25974   2.912   8.304   1.148  0.6058 -0.3046 -0.0881
 7694SOL    HW125975   2.830   8.257   1.133  1.3664 -1.2510 -1.4476
 7694SOL    HW225976   2.895   8.392   1.115  0.1953 -0.5585 -0.5796
 7695SOL     OW25977   2.480   3.557   4.774 -0.1501 -0.3126 -0.2477
 7695SOL    HW125978   2.473   3.588   4.864  1.6463 -3.4688  1.1535
 7695SOL    HW225979   2.470   3.462   4.781  1.6670 -0.8330 -3.1419
 7696SOL     OW25980   2.801   5.713   8.151  0.1509  0.8345  0.1688
 7696SOL    HW125981   2.723   5.678   8.194  0.6539  0.7774  1.0630
 7696SOL    HW225982   2.865   5.723   8.222  0.9838  0.8079 -0.5626
 7697SOL     OW25983   6.912   4.426   1.870 -0.4792  0.1328  0.2008
 7697SOL    HW125984   6.989   4.455   1.919 -0.0455  0.0828 -0.4387
 7697SOL    HW225985   6.917   4.473   1.787  0.7184 -2.3264 -1.2472
 7698SOL     OW25986   0.273   8.876   7.914  0.4223 -0.0749 -0.0238
 7698SOL    HW125987   0.251   8.964   7.945  1.2288  0.1930 -0.2031
 7698SOL    HW225988   0.263   8.882   7.819  0.7694 -0.0940 -0.0612
 7699SOL     OW25989   5.611   0.811   1.598 -0.1157  0.2781  0.0056
 7699SOL    HW125990   5.634   0.903   1.614  0.9067  0.3350 -1.5354
 7699SOL    HW225991   5.642   0.764   1.676  1.7267  0.9185 -0.3018
 7700SOL     OW25992   5.252   9.800   7.065 -0.5867  0.3202 -0.2113
 7700SOL    HW125993   5.203   9.739   7.120 -0.6384  0.8851  0.3808
 7700SOL    HW225994   5.302   9.853   7.127  1.2291 -0.6061 -0.8041
 7701SOL     OW25995   3.980  10.066   6.173  0.2109  0.4328  0.0385
 7701SOL    HW125996   3.989  10.094   6.264  1.6135  1.3810 -0.3667
 7701SOL    HW225997   4.028   9.983   6.169 -0.5760 -0.0489  0.3368
 7702SOL     OW25998   1.207   1.055   2.450  0.1786  0.7243  0.1472
 7702SOL    HW125999   1.176   1.012   2.370  1.8230  1.8268 -1.1322
 7702SOL    HW226000   1.166   1.004   2.521 -2.3761  0.5004 -1.3506
 7703SOL     OW26001   5.990   9.822  10.359 -0.2636  0.3442  0.5258
 7703SOL    HW126002   5.996   9.894  10.421 -2.4396  0.5722  0.5305
 7703SOL    HW226003   5.981   9.865  10.273 -1.0388  0.0767  0.4710
 7704SOL     OW26004   7.204   9.726   5.521 -0.5250 -0.0902 -0.3753
 7704SOL    HW126005   7.237   9.642   5.553  0.2573 -0.2752 -1.6271
 7704SOL    HW226006   7.114   9.708   5.496 -1.1069  0.0127  1.4651
 7705SOL     OW26007   6.789   9.881  10.167 -0.0602  0.0380 -0.2904
 7705SOL    HW126008   6.708   9.917  10.130  0.1829 -0.1579 -1.0273
 7705SOL    HW226009   6.760   9.812  10.227 -0.4918  0.8824  0.4967
 7706SOL     OW26010   2.882   4.718   2.129 -0.3402 -0.4909  0.0166
 7706SOL    HW126011   2.842   4.805   2.135 -0.2494 -0.3943 -0.6985
 7706SOL    HW226012   2.853   4.673   2.209 -3.1036 -0.9522 -1.1322
 7707SOL     OW26013   2.459   7.538   2.209 -0.0603 -0.3771  0.3855
 7707SOL    HW126014   2.552   7.559   2.196 -0.3842  1.2065  0.4190
 7707SOL    HW226015   2.460   7.456   2.259  1.3543  0.0774  1.1719
 7708SOL     OW26016   5.539   9.311   2.702  0.1188 -0.1277 -0.4783
 7708SOL    HW126017   5.477   9.297   2.631 -0.3250  1.1321 -0.3696
 7708SOL    HW226018   5.625   9.313   2.658 -0.0561 -0.3599 -0.8356
 7709SOL     OW26019   1.396   0.356   5.226  0.4593  0.1330  0.1121
 7709SOL    HW126020   1.491   0.354   5.216  0.4690 -1.4953  0.3506
 7709SOL    HW226021   1.381   0.411   5.304  1.3623 -1.4983  1.4983
 7710SOL     OW26022   5.495   0.541   0.139  0.4654 -0.0471 -0.3175
 7710SOL    HW126023   5.590   0.553   0.136  0.7155 -1.7099 -0.2815
 7710SOL    HW226024   5.460   0.612   0.086  1.6542  1.2376  0.5619
 7711SOL     OW26025   7.216   0.233   2.703 -0.2174  0.0185 -0.3507
 7711SOL    HW126026   7.253   0.195   2.623  3.3512  3.9566 -0.9542
 7711SOL    HW226027   7.261   0.188   2.774 -0.9545 -1.2646 -0.6731
 7712SOL     OW26028   2.621   0.273   0.682 -0.1572  0.0253  0.0904
 7712SOL    HW126029   2.619   0.209   0.611  0.6425  0.1229 -0.0301
 7712SOL    HW226030   2.684   0.237   0.745 -0.9882 -0.1430  0.8360
 7713SOL     OW26031   3.740   2.087   8.899 -0.1397 -0.3243 -0.0605
 7713SOL    HW126032   3.716   2.164   8.847  1.4378  0.2002 -0.0598
 7713SOL    HW226033   3.799   2.121   8.965  0.0740 -1.4522  0.3432
 7714SOL     OW26034   3.006   3.107   9.922  0.0252 -0.3180  0.5686
 7714SOL    HW126035   3.074   3.142   9.865 -2.2577 -0.4130 -2.4047
 7714SOL    HW226036   2.948   3.181   9.938 -0.1177 -0.6503  1.7090
 7715SOL     OW26037   7.309   9.782   1.116  0.6549 -0.0115 -0.2739
 7715SOL    HW126038   7.368   9.754   1.187  0.0012  0.2206  0.3750
 7715SOL    HW226039   7.358   9.850   1.070 -0.1704  2.3200  2.0462
 7716SOL     OW26040   4.257   3.034   6.744 -0.3662 -0.1040  0.1354
 7716SOL    HW126041   4.342   3.069   6.771  0.5627 -1.3306 -1.0937
 7716SOL    HW226042   4.195   3.104   6.765  0.9983  1.0010  0.6282
 7717SOL     OW26043   2.509   6.000   9.894  0.0533 -0.1263 -0.6815
 7717SOL    HW126044   2.549   6.017   9.979  0.0706 -0.4836 -0.6161
 7717SOL    HW226045   2.544   6.068   9.837  0.7895 -0.4546 -0.6360
 7718SOL     OW26046  10.463   8.731   1.199  0.0391 -0.4426 -0.5528
 7718SOL    HW126047  10.474   8.757   1.108  2.1760 -1.3347 -0.5990
 7718SOL    HW226048  10.443   8.637   1.195 -1.6612 -0.1408 -0.1330
 7719SOL     OW26049   6.327   8.882  10.729  0.1024 -0.1294  0.5673
 7719SOL    HW126050   6.286   8.882  10.815 -1.5684  0.0837 -0.2046
 7719SOL    HW226051   6.265   8.925  10.672  1.8257  1.0863 -0.4937
 7720SOL     OW26052  10.343   8.185   2.695 -0.9773 -0.0907  0.0032
 7720SOL    HW126053  10.287   8.222   2.763 -0.8741 -2.2309  1.3635
 7720SOL    HW226054  10.430   8.221   2.712 -1.3504  0.9600 -0.2791
 7721SOL     OW26055   4.686   1.146   5.940 -0.0833 -0.3597  0.1849
 7721SOL    HW126056   4.637   1.209   5.991  0.5765  0.5196 -0.2383
 7721SOL    HW226057   4.729   1.090   6.005  0.2858  0.3830  0.5943
 7722SOL     OW26058   4.837  10.447   9.758 -0.5229 -0.0410  0.0992
 7722SOL    HW126059   4.858  10.413   9.671  2.4665  2.4288 -0.3340
 7722SOL    HW226060   4.874  10.384   9.819 -1.9559 -1.3968 -0.3592
 7723SOL     OW26061   7.807   3.192   9.303 -0.1564 -0.6517 -0.5089
 7723SOL    HW126062   7.887   3.178   9.252  0.9243  0.1307  0.8873
 7723SOL    HW226063   7.838   3.205   9.392 -2.0210 -2.4477  0.4655
 7724SOL     OW26064   4.265   4.148   4.296 -0.1934  0.4729 -0.9435
 7724SOL    HW126065   4.255   4.240   4.272  0.3697  0.2254 -2.2068
 7724SOL    HW226066   4.351   4.123   4.263 -0.5316 -0.6297 -1.0476
 7725SOL     OW26067   8.709   2.785   3.447  0.0408  0.7090 -0.7033
 7725SOL    HW126068   8.697   2.697   3.483  0.8153  0.4233 -1.1080
 7725SOL    HW226069   8.735   2.838   3.522  1.8213  0.0769 -0.8220
 7726SOL     OW26070   1.672   8.722   2.101 -0.3700  0.1472  0.0907
 7726SOL    HW126071   1.638   8.811   2.090 -0.0615  0.2309 -0.1819
 7726SOL    HW226072   1.638   8.695   2.186 -1.0886  0.2461 -0.1569
 7727SOL     OW26073   2.034   2.098   1.058  0.0900  0.7592 -0.3820
 7727SOL    HW126074   1.965   2.151   1.017  0.0844  1.1684  0.1561
 7727SOL    HW226075   2.101   2.091   0.990 -0.8624 -0.4131 -1.2488
 7728SOL     OW26076   6.701   8.402   6.635 -0.1513  0.1354 -0.6303
 7728SOL    HW126077   6.660   8.415   6.549 -0.2072 -1.2024 -0.8199
 7728SOL    HW226078   6.642   8.447   6.696 -3.3062 -3.5655 -0.5796
 7729SOL     OW26079   7.139   7.568   1.235 -0.4938 -0.0553  0.2417
 7729SOL    HW126080   7.150   7.489   1.289 -1.1861  0.3396  0.9940
 7729SOL    HW226081   7.053   7.602   1.261 -1.2229 -0.2866 -1.7031
 7730SOL     OW26082   8.437   3.350   1.586 -0.3494  0.3121 -0.0696
 7730SOL    HW126083   8.445   3.256   1.567  0.9338  0.4776 -0.4141
 7730SOL    HW226084   8.525   3.385   1.573 -1.2700  2.0241 -2.4791
 7731SOL     OW26085   8.217   7.780   2.085  0.2082  0.0444  0.7573
 7731SOL    HW126086   8.227   7.692   2.122  0.1479 -0.2603  0.0842
 7731SOL    HW226087   8.284   7.832   2.128 -0.9823  0.1508  2.5500
 7732SOL     OW26088   6.725   4.236   8.809  0.0553  0.3350 -0.1118
 7732SOL    HW126089   6.735   4.301   8.879  0.5839  0.0268  0.1097
 7732SOL    HW226090   6.632   4.214   8.809  0.2486 -0.6435  1.4123
 7733SOL     OW26091   0.367   6.403   9.368 -0.2883 -0.0932 -0.1092
 7733SOL    HW126092   0.325   6.477   9.324  0.0791  0.0689 -0.1835
 7733SOL    HW226093   0.457   6.403   9.336 -0.2381 -0.4677  0.0232
 7734SOL     OW26094   8.064   9.693   1.675  0.4137 -0.2367  0.8057
 7734SOL    HW126095   7.976   9.666   1.702 -0.0182 -0.6831 -0.9265
 7734SOL    HW226096   8.111   9.611   1.661  0.8728 -0.0014  0.9413
 7735SOL     OW26097   5.102  10.103   8.336 -0.5316  0.3025  0.0515
 7735SOL    HW126098   5.112  10.108   8.241  1.0733 -0.0791  0.1804
 7735SOL    HW226099   5.036  10.035   8.349 -0.0981 -0.2870 -0.7680
 7736SOL     OW26100   7.028   7.397   4.716  0.1516 -0.5151 -0.0256
 7736SOL    HW126101   6.963   7.462   4.744 -0.4661 -0.8587 -0.6509
 7736SOL    HW226102   7.106   7.449   4.696  0.0886 -0.1018  0.7562
 7737SOL     OW26103   4.497   3.956   7.237 -0.4866 -0.8652  0.0533
 7737SOL    HW126104   4.587   3.937   7.264 -0.4918  0.9969  1.5487
 7737SOL    HW226105   4.506   4.025   7.171 -0.7862 -1.3498 -0.5030
 7738SOL     OW26106   0.405   4.527   2.875 -0.0707 -0.4303  0.1114
 7738SOL    HW126107   0.452   4.563   2.950 -0.0311  0.3673 -0.2817
 7738SOL    HW226108   0.451   4.445   2.855 -0.4031 -0.9176  1.2609
 7739SOL     OW26109   4.836   7.615   4.894  0.5206 -0.6860  0.5006
 7739SOL    HW126110   4.839   7.693   4.840 -2.1790 -1.0023 -0.2439
 7739SOL    HW226111   4.834   7.542   4.832  1.1480 -1.2564  1.1320
 7740SOL     OW26112   6.812   5.782   9.576  0.1169 -0.3489 -0.1521
 7740SOL    HW126113   6.882   5.731   9.616 -0.1037 -0.8211 -0.3677
 7740SOL    HW226114   6.786   5.845   9.643  0.8576 -0.0611 -0.1247
 7741SOL     OW26115   4.245   6.192   8.884 -0.0164 -0.4064  0.7533
 7741SOL    HW126116   4.312   6.202   8.816  0.3318 -2.5243  0.7208
 7741SOL    HW226117   4.295   6.197   8.966 -0.3271  1.3311  0.8788
 7742SOL     OW26118   3.414   6.097   5.537 -0.4934 -0.1944  0.2929
 7742SOL    HW126119   3.451   6.068   5.454 -0.7621 -1.2664  0.5304
 7742SOL    HW226120   3.459   6.045   5.603  0.8874  1.7887  0.9979
 7743SOL     OW26121   3.223   2.680   1.756 -0.1017  0.0181  0.0026
 7743SOL    HW126122   3.171   2.625   1.697  1.7286 -1.0879 -0.6661
 7743SOL    HW226123   3.202   2.647   1.843 -2.1469  1.0620 -0.0422
 7744SOL     OW26124   4.012   0.211   7.442  0.3137 -0.1444  0.2929
 7744SOL    HW126125   4.077   0.180   7.379  0.7820  0.9493  0.2149
 7744SOL    HW226126   3.943   0.251   7.389 -0.0919 -0.6619  0.4126
 7745SOL     OW26127   4.408   8.389   1.641  0.4415 -0.1706 -0.0362
 7745SOL    HW126128   4.453   8.318   1.596  0.0648 -0.8086  0.5789
 7745SOL    HW226129   4.324   8.397   1.596  0.3225 -0.3794  0.1511
 7746SOL     OW26130   9.606   5.399   8.771 -0.0724 -0.4849  0.4325
 7746SOL    HW126131   9.624   5.375   8.680  2.7125  2.0760  0.1377
 7746SOL    HW226132   9.549   5.475   8.765 -0.8116 -0.9902  0.9144
 7747SOL     OW26133   0.782   5.444  10.291  0.2028 -0.4102 -0.5492
 7747SOL    HW126134   0.763   5.538  10.290  0.3770 -0.3758 -0.5923
 7747SOL    HW226135   0.872   5.438  10.323 -0.4129 -0.6684  1.2473
 7748SOL     OW26136   0.654   7.788   1.758  0.0611 -0.1857  0.3233
 7748SOL    HW126137   0.659   7.882   1.741  2.4003 -0.4020 -0.6134
 7748SOL    HW226138   0.690   7.777   1.846 -0.2546 -0.1864  0.4505
 7749SOL     OW26139  10.702   4.449   5.122 -0.5207 -0.7748 -0.2482
 7749SOL    HW126140  10.612   4.452   5.155  0.1476  0.4756  1.6476
 7749SOL    HW226141  10.698   4.492   5.037 -1.8743 -1.6439 -0.6433
 7750SOL     OW26142   2.788   1.182   4.185  0.7036  0.6056  0.5413
 7750SOL    HW126143   2.829   1.105   4.145  0.1381  0.7847 -0.4051
 7750SOL    HW226144   2.780   1.159   4.278  0.6741 -0.4120  0.3015
 7751SOL     OW26145   0.256   2.213   4.522  0.2502  0.0855  0.2222
 7751SOL    HW126146   0.303   2.211   4.605 -0.8577  0.8492  0.8993
 7751SOL    HW226147   0.236   2.122   4.503  0.8864 -0.1315  0.5642
 7752SOL     OW26148   1.622   5.348   8.694  0.5468  0.1597 -0.4738
 7752SOL    HW126149   1.547   5.353   8.635 -0.2131 -0.5660  0.3984
 7752SOL    HW226150   1.594   5.395   8.773  0.1625 -1.9251  0.6928
 7753SOL     OW26151   5.517   1.650   5.392  0.1208 -0.4607  0.7274
 7753SOL    HW126152   5.445   1.633   5.453 -0.8467 -0.0712 -0.2859
 7753SOL    HW226153   5.481   1.632   5.306  0.9434  0.6743  0.1170
 7754SOL     OW26154   9.857   7.855   6.380 -0.2611 -0.0599  0.0470
 7754SOL    HW126155   9.865   7.773   6.428  0.3678 -0.0819 -0.0884
 7754SOL    HW226156   9.909   7.842   6.301 -1.2702 -0.0225 -0.6525
 7755SOL     OW26157   5.025   5.195   4.902  0.3474  0.3024  0.4643
 7755SOL    HW126158   5.105   5.189   4.850 -0.8632  1.0336 -1.5816
 7755SOL    HW226159   5.027   5.284   4.938  0.2073  0.4849  0.0175
 7756SOL     OW26160   5.387   9.133   6.587 -0.5254 -0.1284 -0.0822
 7756SOL    HW126161   5.423   9.048   6.564 -0.8587 -0.2749 -0.0576
 7756SOL    HW226162   5.362   9.125   6.679 -0.6076 -0.0216 -0.0946
 7757SOL     OW26163   6.918   7.249   1.703  0.2682 -0.0748  0.4679
 7757SOL    HW126164   6.871   7.167   1.711  1.1536 -0.5892  0.5676
 7757SOL    HW226165   6.928   7.280   1.793 -0.7587  0.5689  0.3833
 7758SOL     OW26166   4.884  10.400   7.164 -0.1433  0.3217  0.3747
 7758SOL    HW126167   4.859  10.386   7.072 -0.2949  0.2009  0.4321
 7758SOL    HW226168   4.973  10.435   7.160  0.0350 -0.1371  0.1987
 7759SOL     OW26169   4.434   3.156   3.889 -0.4824  0.4252  0.0035
 7759SOL    HW126170   4.424   3.207   3.808  1.0660  2.2010  0.8516
 7759SOL    HW226171   4.468   3.072   3.860  0.0914  1.0439 -1.1992
 7760SOL     OW26172   2.879   5.275   5.081 -0.4371  0.1062 -0.5481
 7760SOL    HW126173   2.956   5.297   5.132 -0.5544  0.3274 -0.4674
 7760SOL    HW226174   2.913   5.224   5.007 -0.0536  1.2891 -1.2212
 7761SOL     OW26175   8.143   9.977   2.422  0.2308  0.3508  0.2854
 7761SOL    HW126176   8.177  10.037   2.489  0.3302  1.2136 -0.5110
 7761SOL    HW226177   8.054   9.956   2.451  0.7642 -0.4489  1.4263
 7762SOL     OW26178   5.543   2.497   9.290 -0.1975 -0.1103 -0.4170
 7762SOL    HW126179   5.608   2.566   9.276 -0.7773  0.4561 -0.3571
 7762SOL    HW226180   5.566   2.459   9.375  0.1882 -0.0740 -0.5030
 7763SOL     OW26181   4.402  10.538   4.689 -0.2202 -0.4010  0.1517
 7763SOL    HW126182   4.329  10.576   4.738 -0.0399 -0.1158  0.2014
 7763SOL    HW226183   4.368  10.529   4.600  0.2813  1.4801 -0.2610
 7764SOL     OW26184   2.222   7.911   2.799  0.3124  0.1322 -0.5141
 7764SOL    HW126185   2.211   7.997   2.757  0.6147 -0.0323 -0.9361
 7764SOL    HW226186   2.239   7.851   2.726 -0.2440 -0.3506 -0.2553
 7765SOL     OW26187   8.245   3.097   0.224 -0.5076 -0.1861 -0.4947
 7765SOL    HW126188   8.319   3.058   0.178  1.6374  2.1679  0.7258
 7765SOL    HW226189   8.242   3.051   0.308  0.6289  0.7225  0.0739
 7766SOL     OW26190   4.626   5.603   5.117  0.1414  0.3636  0.6630
 7766SOL    HW126191   4.711   5.647   5.107 -0.0860  0.9360  1.1751
 7766SOL    HW226192   4.578   5.626   5.037  0.2104  0.6336  0.6975
 7767SOL     OW26193   7.597   0.231   9.712 -0.0526  0.4028 -0.2672
 7767SOL    HW126194   7.567   0.145   9.741  0.0507  0.0998 -1.0109
 7767SOL    HW226195   7.538   0.293   9.754  0.7659  0.0812  1.4476
 7768SOL     OW26196   2.681   4.594   5.105  0.1558  0.2103  0.2325
 7768SOL    HW126197   2.687   4.542   5.024 -0.3121  0.8842 -0.2452
 7768SOL    HW226198   2.589   4.585   5.132 -0.1210  1.3652 -0.2607
 7769SOL     OW26199   4.458   3.656   1.958  0.0025  0.8161 -0.1116
 7769SOL    HW126200   4.390   3.719   1.980  0.6322  0.3930  3.6238
 7769SOL    HW226201   4.540   3.698   1.986  0.5845 -1.0145  1.0999
 7770SOL     OW26202   8.118   7.047  10.148  0.1071 -0.0637  0.3476
 7770SOL    HW126203   8.201   7.085  10.175  0.3108  0.1357 -0.5391
 7770SOL    HW226204   8.052   7.110  10.179  0.1210 -1.0084  2.5187
 7771SOL     OW26205   2.747   9.497   1.628 -0.1528  0.5719 -0.2421
 7771SOL    HW126206   2.786   9.485   1.541  0.3796  0.9454 -0.0592
 7771SOL    HW226207   2.652   9.497   1.611 -0.0498  1.4236 -0.9459
 7772SOL     OW26208   5.977   4.280   9.714  0.5870  0.1653  0.0150
 7772SOL    HW126209   5.936   4.264   9.799  0.8390  1.4939  0.4171
 7772SOL    HW226210   5.947   4.368   9.690 -2.0922 -1.3230 -2.8194
 7773SOL     OW26211   0.673  10.378   0.313  0.1223  0.6338  0.4036
 7773SOL    HW126212   0.647  10.446   0.251 -0.0362  1.9316  1.8488
 7773SOL    HW226213   0.705  10.425   0.390  0.6531 -0.9292  1.1973
 7774SOL     OW26214   8.017   3.773   9.823 -0.1499 -0.5367  0.8766
 7774SOL    HW126215   8.072   3.696   9.830  1.3799  0.6626  3.3846
 7774SOL    HW226216   7.933   3.746   9.861  0.4187 -0.9454  1.8649
 7775SOL     OW26217   8.997   8.920   8.714  0.1889  0.1150  0.7804
 7775SOL    HW126218   8.963   8.969   8.789 -0.5284  1.8912 -0.6187
 7775SOL    HW226219   8.967   8.970   8.638  1.9537 -0.9022 -0.6569
 7776SOL     OW26220   9.369   6.549   7.805  0.1450 -0.3208 -0.0256
 7776SOL    HW126221   9.299   6.610   7.780  0.4121 -0.7601 -2.0510
 7776SOL    HW226222   9.373   6.554   7.900 -1.6630  0.7988  0.0360
 7777SOL     OW26223   5.862   1.135   0.874 -0.3005  0.0159  0.2994
 7777SOL    HW126224   5.829   1.185   0.948 -1.6027  0.3180 -0.4466
 7777SOL    HW226225   5.861   1.196   0.800  1.9619  0.0267  0.2032
 7778SOL     OW26226   9.560   6.568   1.905 -0.0943 -0.3722 -0.2840
 7778SOL    HW126227   9.487   6.600   1.958 -0.8140  1.9130 -2.4601
 7778SOL    HW226228   9.569   6.476   1.930 -3.4116 -0.6305  0.4548
 7779SOL     OW26229   6.220   4.373   0.717 -0.0778  0.1424  0.1173
 7779SOL    HW126230   6.158   4.317   0.670  0.8163  0.6637 -1.8051
 7779SOL    HW226231   6.165   4.426   0.775 -1.2754 -0.4144 -0.4663
 7780SOL     OW26232   7.886   5.979   4.256  0.0963 -0.0895 -0.3532
 7780SOL    HW126233   7.855   5.893   4.227  0.7501 -0.8738  1.1621
 7780SOL    HW226234   7.977   5.984   4.227  0.4726 -0.4924  0.7331
 7781SOL     OW26235   2.695   4.179   6.456 -0.0813 -0.5432  0.4451
 7781SOL    HW126236   2.611   4.189   6.411 -0.5502 -1.3286  1.1396
 7781SOL    HW226237   2.750   4.133   6.393  0.0643  0.5935 -0.2846
 7782SOL     OW26238   7.516   0.585   9.639  0.3254  0.4554  0.6442
 7782SOL    HW126239   7.467   0.546   9.567 -1.9974  3.1116  0.6322
 7782SOL    HW226240   7.494   0.532   9.715 -0.1294 -0.1790  0.0792
 7783SOL     OW26241   5.978   7.157   0.235 -0.1154 -0.2105  0.4876
 7783SOL    HW126242   5.953   7.068   0.208  0.3093  0.2717 -1.7002
 7783SOL    HW226243   6.045   7.183   0.172 -0.5338  1.8333  0.8197
 7784SOL     OW26244   4.733  10.504   8.911  0.2127 -0.1397  0.6289
 7784SOL    HW126245   4.737  10.461   8.825 -0.3420 -0.8099  0.9256
 7784SOL    HW226246   4.790  10.580   8.902  0.5489 -0.4685 -0.1839
 7785SOL     OW26247   9.500   5.466   8.090 -0.6694  0.5924 -0.4826
 7785SOL    HW126248   9.572   5.506   8.041 -0.6297  0.1656 -0.7807
 7785SOL    HW226249   9.488   5.381   8.049  0.9119 -0.7821  1.7030
 7786SOL     OW26250   0.579   5.570  10.490  0.0942 -0.2242  0.1523
 7786SOL    HW126251   0.630   5.638  10.445 -0.4065  1.2237  1.6789
 7786SOL    HW226252   0.490   5.581  10.455 -0.0292  0.0566  0.5493
 7787SOL     OW26253   4.107   7.164   5.833  0.0385  0.4844 -0.2875
 7787SOL    HW126254   4.180   7.103   5.820  1.0768  1.5188  0.5909
 7787SOL    HW226255   4.094   7.204   5.747 -2.3949 -2.7422 -1.6500
 7788SOL     OW26256   9.494   5.174   0.196  0.1529  0.3378 -0.3473
 7788SOL    HW126257   9.542   5.148   0.118  1.3114 -0.1576  0.5086
 7788SOL    HW226258   9.555   5.160   0.268 -1.8653 -2.2794  1.0409
 7789SOL     OW26259   3.273   2.050   7.947  0.2968 -0.3453 -0.6404
 7789SOL    HW126260   3.270   2.109   7.872  0.1784  0.5892  0.0848
 7789SOL    HW226261   3.180   2.032   7.966 -0.1349  3.5876  2.4278
 7790SOL     OW26262   8.706   6.240   6.598 -0.0919 -0.1560 -0.3277
 7790SOL    HW126263   8.785   6.213   6.645  0.2039 -1.7904 -1.6434
 7790SOL    HW226264   8.678   6.161   6.551 -1.9293  0.6649 -0.7112
 7791SOL     OW26265   8.846   0.683   3.075  0.4476 -0.2311 -0.0964
 7791SOL    HW126266   8.803   0.714   2.995 -0.3693 -0.3702  0.2767
 7791SOL    HW226267   8.808   0.597   3.090  0.2139  0.0129  0.7252
 7792SOL     OW26268   6.277   3.624   7.156  0.0572  0.3935  0.3347
 7792SOL    HW126269   6.367   3.593   7.154  0.0681  0.4568 -0.5253
 7792SOL    HW226270   6.224   3.545   7.139 -0.1149  0.1794  1.7153
 7793SOL     OW26271   8.922   6.272   8.166 -0.0071 -0.7609  0.1596
 7793SOL    HW126272   8.917   6.181   8.137  1.8477 -0.4827 -1.2848
 7793SOL    HW226273   9.016   6.287   8.183 -0.0958  1.1395 -0.6683
 7794SOL     OW26274   4.570   1.471   2.251  0.7984 -0.1920 -0.3297
 7794SOL    HW126275   4.611   1.433   2.173  1.4090  0.0886 -0.1548
 7794SOL    HW226276   4.590   1.408   2.321  1.4006  0.2070 -0.1356
 7795SOL     OW26277   3.888   0.939   9.139  0.4560  0.0753  0.0573
 7795SOL    HW126278   3.914   0.914   9.050 -1.2049 -1.0217 -0.1769
 7795SOL    HW226279   3.818   1.002   9.126  1.5219  1.4166  0.6408
 7796SOL     OW26280   4.941   2.673   2.692 -0.2025 -0.3793 -0.0986
 7796SOL    HW126281   4.864   2.619   2.711  0.6970 -0.8862  2.5619
 7796SOL    HW226282   4.984   2.684   2.776  1.2090  2.1855 -1.0376
 7797SOL     OW26283   8.361   1.072  10.162  0.2152 -0.3971  0.2167
 7797SOL    HW126284   8.360   0.976  10.156 -1.6372 -0.3257 -1.6598
 7797SOL    HW226285   8.281   1.093  10.211  0.9882  0.1881  1.2493
 7798SOL     OW26286   8.990   3.501   0.571  0.5120  0.5813  0.0787
 7798SOL    HW126287   9.046   3.525   0.498 -0.6771 -1.0037 -1.4383
 7798SOL    HW226288   9.005   3.569   0.636  1.8217  1.9043 -1.5197
 7799SOL     OW26289   7.443   4.363   9.007 -0.2779 -0.5396 -0.5971
 7799SOL    HW126290   7.499   4.408   9.069 -0.0894 -1.1245 -0.3380
 7799SOL    HW226291   7.472   4.272   9.009 -1.1593 -0.8348 -0.5295
 7800SOL     OW26292   1.279  10.142   2.293  0.3802  0.0444 -0.3656
 7800SOL    HW126293   1.356  10.159   2.347  0.4554 -0.4406 -0.3142
 7800SOL    HW226294   1.216  10.103   2.354  0.0633  0.5146 -0.3890
 7801SOL     OW26295   2.170   2.932   9.982  0.5871  0.4202 -0.3693
 7801SOL    HW126296   2.143   2.879   9.907  0.5015 -0.8181  0.4956
 7801SOL    HW226297   2.156   2.875  10.058  1.7227  1.2353  0.4946
 7802SOL     OW26298   6.328   8.866   5.457 -0.3708 -0.4244 -0.6613
 7802SOL    HW126299   6.269   8.806   5.412 -0.2506  0.4622 -2.0408
 7802SOL    HW226300   6.299   8.953   5.431  0.1695  0.0992  0.4080
 7803SOL     OW26301   9.558   0.203  10.563 -0.2630 -0.7323  0.2719
 7803SOL    HW126302   9.538   0.269  10.496 -1.3544 -1.8878 -0.6207
 7803SOL    HW226303   9.479   0.200  10.617  0.1753 -0.6009  0.9200
 7804SOL     OW26304   5.032   8.571  10.529  0.5150  0.0122 -0.3265
 7804SOL    HW126305   5.113   8.521  10.534  0.2444 -0.4517 -0.5524
 7804SOL    HW226306   5.027   8.598  10.437  0.5340  0.2450 -0.2595
 7805SOL     OW26307   4.403   4.276   9.364 -0.6116 -0.2028  0.3309
 7805SOL    HW126308   4.497   4.287   9.370 -0.2957 -2.0540 -0.3258
 7805SOL    HW226309   4.369   4.302   9.449  0.8129 -1.9591  1.5217
 7806SOL     OW26310   6.552   6.907   2.265 -0.0800 -0.3740 -0.2442
 7806SOL    HW126311   6.556   7.000   2.287 -2.4642 -0.1147 -0.6265
 7806SOL    HW226312   6.641   6.875   2.280  0.9550  2.0746 -0.6668
 7807SOL     OW26313   4.896   7.344   1.331  0.4300  0.2789  0.4128
 7807SOL    HW126314   4.984   7.380   1.322  0.4631 -0.0304 -0.6715
 7807SOL    HW226315   4.839   7.406   1.284 -0.1481  1.1845  2.2231
 7808SOL     OW26316   7.165   6.371   6.272  0.0138 -0.3430  0.2407
 7808SOL    HW126317   7.227   6.414   6.331 -0.2076  0.3591 -0.0298
 7808SOL    HW226318   7.209   6.372   6.187 -0.4731  0.4083 -0.0127
 7809SOL     OW26319   0.615  10.666   4.359 -0.4209 -0.3185  0.9196
 7809SOL    HW126320   0.567  10.730   4.306  0.6912 -1.0253 -1.0456
 7809SOL    HW226321   0.706  10.695   4.354 -0.0309 -1.5207  0.7510
 7810SOL     OW26322   6.891  10.488   3.695 -0.7901  0.4906  0.3694
 7810SOL    HW126323   6.968  10.544   3.708 -0.3715  0.1008 -0.3848
 7810SOL    HW226324   6.898  10.421   3.763 -0.6181  0.6268  0.4861
 7811SOL     OW26325   3.404   2.330   2.542  0.3605 -0.0229  0.0458
 7811SOL    HW126326   3.417   2.415   2.499  1.3152  2.5031  4.6089
 7811SOL    HW226327   3.320   2.339   2.587  1.6325 -0.3446  2.6449
 7812SOL     OW26328   9.057   3.876   4.864 -0.2786 -0.2178  0.2724
 7812SOL    HW126329   9.145   3.909   4.847 -0.3531 -0.4572 -0.6121
 7812SOL    HW226330   9.064   3.781   4.854 -0.5335 -0.2793  0.6650
 7813SOL     OW26331   8.909   5.128   0.911 -0.3294  0.0240 -0.4997
 7813SOL    HW126332   8.915   5.085   0.996  0.8192  0.0196 -0.5654
 7813SOL    HW226333   9.000   5.145   0.886 -0.6774  0.6509 -1.4111
 7814SOL     OW26334   0.210   2.041   6.277  0.3132  0.0116  0.0130
 7814SOL    HW126335   0.139   2.020   6.217 -1.4773  0.0969  1.9690
 7814SOL    HW226336   0.250   1.957   6.298 -0.9320 -0.4076  0.8437
 7815SOL     OW26337   2.825   0.678   9.561  0.3048  0.3517 -0.2525
 7815SOL    HW126338   2.779   0.730   9.627 -0.1852  0.4070 -0.6331
 7815SOL    HW226339   2.914   0.669   9.595  0.3036  1.1608 -0.0304
 7816SOL     OW26340   8.631   8.428   6.936  0.3353  0.4061  0.7091
 7816SOL    HW126341   8.562   8.480   6.894  0.3041  1.2621  1.7902
 7816SOL    HW226342   8.590   8.342   6.952  0.5255 -0.1497 -1.4789
 7817SOL     OW26343   9.610   1.782   4.978  0.3661 -0.3278  0.1918
 7817SOL    HW126344   9.608   1.694   5.015 -0.3540 -0.4179 -0.0354
 7817SOL    HW226345   9.595   1.770   4.885 -1.1052  0.1118  0.3417
 7818SOL     OW26346   9.887   6.747   5.078 -0.0067 -0.7098  0.2354
 7818SOL    HW126347   9.869   6.659   5.046  0.0732 -0.2469 -1.1522
 7818SOL    HW226348   9.820   6.762   5.145 -1.4929 -1.0066 -1.1004
 7819SOL     OW26349   5.498   0.972   9.350  0.1987 -0.2859 -0.4893
 7819SOL    HW126350   5.426   0.918   9.318  0.5658  0.1120 -2.0620
 7819SOL    HW226351   5.561   0.910   9.387 -1.7876 -0.5437  2.9458
 7820SOL     OW26352   7.133   0.854   4.203 -0.0852  0.0722 -0.2916
 7820SOL    HW126353   7.175   0.786   4.256 -0.0140 -0.0054 -0.4471
 7820SOL    HW226354   7.072   0.896   4.263  2.0781  1.9520  0.7447
 7821SOL     OW26355   8.168   6.400   2.054  0.4638 -0.2449  0.1403
 7821SOL    HW126356   8.219   6.454   2.114  1.8840 -1.1641 -0.1786
 7821SOL    HW226357   8.088   6.449   2.039  0.8411  0.8070  1.4225
 7822SOL     OW26358   9.274   2.245   3.553  0.2527  0.3539 -0.2088
 7822SOL    HW126359   9.353   2.192   3.543 -0.3635 -0.9429  1.4780
 7822SOL    HW226360   9.290   2.296   3.632 -0.3819  0.4842 -0.1636
 7823SOL     OW26361   5.645   7.504   4.888  0.3195 -0.3654 -0.6616
 7823SOL    HW126362   5.578   7.569   4.868  1.5567  0.9792 -0.6110
 7823SOL    HW226363   5.653   7.506   4.984 -0.0244 -1.0003 -0.6170
 7824SOL     OW26364   4.977   3.046   5.470  0.0285  0.2559 -0.3279
 7824SOL    HW126365   5.008   2.964   5.433  0.6570  1.1307 -1.8201
 7824SOL    HW226366   5.056   3.095   5.491  0.0254  3.1180 -5.4883
 7825SOL     OW26367  10.732   2.532   4.556 -0.3331 -0.2936  0.2623
 7825SOL    HW126368  10.726   2.443   4.522 -1.3783  0.1723 -0.8984
 7825SOL    HW226369  10.643   2.552   4.585 -0.2624  0.5798 -0.0832
 7826SOL     OW26370  10.092   0.959   9.564  0.0923  0.2355 -0.0161
 7826SOL    HW126371  10.090   0.879   9.512  0.2315 -0.7001  1.3421
 7826SOL    HW226372  10.185   0.979   9.576  0.0627  0.4350 -0.1132
 7827SOL     OW26373   8.763   7.996   4.635 -0.1546 -0.6386  0.0799
 7827SOL    HW126374   8.801   8.018   4.551  1.4832 -0.6100  0.7989
 7827SOL    HW226375   8.812   7.919   4.665 -0.2171 -0.2148  1.3322
 7828SOL     OW26376   2.709   1.266  10.281  0.2156  0.2862  0.7484
 7828SOL    HW126377   2.805   1.262  10.284  0.2632  1.0953  0.5549
 7828SOL    HW226378   2.685   1.330  10.348 -0.2481 -0.5217  1.3637
 7829SOL     OW26379  10.544   8.854  10.742 -0.3616  0.2307  0.9629
 7829SOL    HW126380  10.501   8.770  10.730 -0.1682  0.4446 -1.8365
 7829SOL    HW226381  10.633   8.841  10.710  0.0679  1.1684  1.7160
 7830SOL     OW26382   3.952   9.531   8.761  0.1230  0.1954  0.3899
 7830SOL    HW126383   3.978   9.474   8.833 -2.3419 -0.8789  0.5197
 7830SOL    HW226384   4.035   9.553   8.717  1.4464 -0.9717  2.1595
 7831SOL     OW26385  10.492   8.096   5.551 -0.0129  0.1706  0.2937
 7831SOL    HW126386  10.450   8.030   5.496 -2.4318  1.1289  0.8424
 7831SOL    HW226387  10.436   8.173   5.542  1.7620  1.6016  1.0090
 7832SOL     OW26388   0.246   1.144   6.976 -0.1672  0.1082  0.1118
 7832SOL    HW126389   0.257   1.174   7.067 -2.6321 -0.4239  0.6425
 7832SOL    HW226390   0.167   1.188   6.946 -0.3307 -1.0438 -1.2184
 7833SOL     OW26391   0.937   3.312   1.939 -0.6181  0.5558 -0.6936
 7833SOL    HW126392   1.030   3.324   1.955 -0.3799 -0.8859 -0.8543
 7833SOL    HW226393   0.908   3.395   1.901  0.4406  1.2669 -0.0131
 7834SOL     OW26394   8.996   8.575   8.940  0.0939  0.1808  0.1337
 7834SOL    HW126395   9.056   8.634   8.985 -1.7584  1.8144  0.6165
 7834SOL    HW226396   9.023   8.578   8.849  1.2627  0.1913  0.4666
 7835SOL     OW26397   6.364   4.888   8.145  0.3466  0.1240 -0.1526
 7835SOL    HW126398   6.322   4.874   8.229 -1.5781 -1.3576 -1.2673
 7835SOL    HW226399   6.414   4.807   8.130  0.6458  0.3624 -0.4417
 7836SOL     OW26400   1.329   6.603   7.461  0.0597  0.5248  0.0723
 7836SOL    HW126401   1.365   6.563   7.382 -0.8691  0.6559 -0.4218
 7836SOL    HW226402   1.234   6.600   7.449 -0.1254  0.0232  1.4309
 7837SOL     OW26403   0.177   0.879   6.332 -0.3675  0.0146 -0.1325
 7837SOL    HW126404   0.197   0.786   6.342 -0.7620 -0.0641 -0.0619
 7837SOL    HW226405   0.223   0.905   6.252 -1.2114 -0.5202 -0.8029
 7838SOL     OW26406   5.622   8.385   9.560  0.1157  1.0336  0.1142
 7838SOL    HW126407   5.674   8.308   9.584 -0.4501  0.6240  0.0450
 7838SOL    HW226408   5.652   8.454   9.619  2.1637  1.3775 -1.2194
 7839SOL     OW26409  10.267   7.576   4.302 -0.4203  0.0673 -0.0497
 7839SOL    HW126410  10.348   7.596   4.350 -0.9359 -0.1261  0.9208
 7839SOL    HW226411  10.245   7.487   4.328  0.3008 -0.7752 -2.1409
 7840SOL     OW26412   0.371   0.935   1.148  0.3675 -0.2468 -0.0096
 7840SOL    HW126413   0.441   0.920   1.212  1.7118 -0.8054 -1.5391
 7840SOL    HW226414   0.354   1.029   1.154  2.4904  0.2604 -0.7523
 7841SOL     OW26415   7.522   1.240   6.138 -0.3644 -0.0140  0.1739
 7841SOL    HW126416   7.551   1.292   6.063  0.0807  0.0465  0.3885
 7841SOL    HW226417   7.529   1.300   6.212 -0.6335 -0.1307  0.2950
 7842SOL     OW26418   0.353   2.958   3.274 -0.8831  0.1264 -0.3527
 7842SOL    HW126419   0.296   2.951   3.350 -0.2413 -0.5454  0.0876
 7842SOL    HW226420   0.434   2.995   3.309  0.4765 -2.8163 -0.0697
 7843SOL     OW26421   2.066   2.344   7.704  0.0787 -0.2663 -0.6225
 7843SOL    HW126422   2.072   2.439   7.711 -0.2695 -0.3668  1.8825
 7843SOL    HW226423   2.157   2.314   7.699  0.2541  0.1310  0.0978
 7844SOL     OW26424   2.363   5.379  10.455 -0.2621 -0.0932  0.3966
 7844SOL    HW126425   2.419   5.328  10.514 -1.3845 -0.9748  0.7363
 7844SOL    HW226426   2.330   5.450  10.511 -2.3667 -1.6676  1.2753
 7845SOL     OW26427   9.838   2.478   9.333 -0.4143 -0.1309 -0.4246
 7845SOL    HW126428   9.933   2.482   9.347 -0.2851 -0.2925 -1.2164
 7845SOL    HW226429   9.807   2.566   9.356 -0.0054  0.0759 -0.6531
 7846SOL     OW26430   2.689  10.655   4.570 -0.1595  0.0633 -0.3669
 7846SOL    HW126431   2.698  10.662   4.665 -0.0672 -0.8404 -0.3010
 7846SOL    HW226432   2.597  10.635   4.556 -0.2287  0.4632 -0.4847
 7847SOL     OW26433   9.723   9.357   6.222  0.0069 -0.0114 -0.6950
 7847SOL    HW126434   9.664   9.331   6.151 -1.6492 -2.5738  1.4407
 7847SOL    HW226435   9.665   9.400   6.286  1.0935  0.4761 -0.0150
 7848SOL     OW26436   5.240   3.289   5.057  0.4087  0.3539 -0.7564
 7848SOL    HW126437   5.150   3.257   5.065 -0.4056  2.7886  1.6332
 7848SOL    HW226438   5.243   3.330   4.971 -0.4479 -0.5893 -1.2606
 7849SOL     OW26439   7.727   6.790   3.745  0.1424 -0.5425  0.1982
 7849SOL    HW126440   7.635   6.788   3.774 -0.0506  0.3693 -0.3340
 7849SOL    HW226441   7.736   6.873   3.699  1.9072  0.5890  2.4174
 7850SOL     OW26442   2.540   1.102   0.779  1.2039 -0.4805  0.2493
 7850SOL    HW126443   2.559   1.134   0.691  1.6619 -1.2218  0.0652
 7850SOL    HW226444   2.529   1.007   0.768  0.5818 -0.4909  0.8803
 7851SOL     OW26445   7.663   4.116   9.300  0.0803  0.0634 -0.4899
 7851SOL    HW126446   7.600   4.173   9.343  0.6320 -1.4553  2.5840
 7851SOL    HW226447   7.745   4.165   9.301 -0.0669  0.3138 -0.5128
 7852SOL     OW26448   0.247   3.526   5.528 -0.8947  0.8477 -0.1198
 7852SOL    HW126449   0.164   3.510   5.482  0.0471 -0.0906 -1.5737
 7852SOL    HW226450   0.253   3.457   5.593 -0.8897  0.4227 -0.5651
 7853SOL     OW26451   0.303   8.675   0.280  0.2414  0.2878  0.0900
 7853SOL    HW126452   0.330   8.595   0.324 -0.7782 -0.1992 -0.1200
 7853SOL    HW226453   0.296   8.741   0.349 -1.5057 -0.5059  0.7246
 7854SOL     OW26454   8.962   8.470   1.162  0.1144 -0.0129 -0.0687
 7854SOL    HW126455   8.905   8.538   1.124 -0.6868  0.3312  1.6484
 7854SOL    HW226456   9.007   8.514   1.234  1.0757 -0.8208 -0.1592
 7855SOL     OW26457   7.185   6.673   1.857 -0.1142 -0.1571  0.0612
 7855SOL    HW126458   7.193   6.585   1.894 -1.3122 -0.1952  0.2668
 7855SOL    HW226459   7.263   6.719   1.889  0.8324 -1.3011 -0.5347
 7856SOL     OW26460   1.624   1.262   2.397  0.3766 -0.2071  0.0837
 7856SOL    HW126461   1.571   1.222   2.466 -0.3624 -0.3940 -0.5831
 7856SOL    HW226462   1.712   1.225   2.411  0.9144  1.7104  2.4910
 7857SOL     OW26463   7.395   1.430   6.857  0.0915  0.6139  0.3991
 7857SOL    HW126464   7.394   1.489   6.932 -0.8988  1.9601 -0.6121
 7857SOL    HW226465   7.312   1.381   6.864 -0.4928  1.4642 -0.3213
 7858SOL     OW26466   1.161   5.969   9.330  0.0763 -0.1688 -0.3835
 7858SOL    HW126467   1.156   5.875   9.309  3.2795 -0.5913  0.1620
 7858SOL    HW226468   1.220   5.973   9.405  1.9997  2.4055 -1.8659
 7859SOL     OW26469   5.533   5.464   6.655  0.1248 -0.1989 -0.1030
 7859SOL    HW126470   5.542   5.538   6.595 -0.7728  1.4563  1.6512
 7859SOL    HW226471   5.440   5.463   6.677  0.1411 -1.8392 -0.0305
 7860SOL     OW26472   7.146   9.825   6.173  0.2234 -0.2088  0.1757
 7860SOL    HW126473   7.131   9.769   6.249  0.2648  0.1884  0.4806
 7860SOL    HW226474   7.060   9.859   6.151  0.3963  0.7501  0.8945
 7861SOL     OW26475   6.216  10.791   7.893  0.0436 -0.1683 -0.1031
 7861SOL    HW126476   6.248  10.873   7.856  1.8398 -1.0369 -0.5681
 7861SOL    HW226477   6.227  10.727   7.822  0.8650 -1.2797  0.9854
 7862SOL     OW26478   8.778   0.487   1.607  0.4447 -0.5861  0.0841
 7862SOL    HW126479   8.843   0.484   1.536  0.9113 -2.4821  0.5503
 7862SOL    HW226480   8.784   0.577   1.639  2.2324 -0.4494 -0.4651
 7863SOL     OW26481   4.598   2.698   7.803 -0.1270 -0.5024  0.0621
 7863SOL    HW126482   4.576   2.605   7.796 -0.9205 -0.2302 -1.2664
 7863SOL    HW226483   4.632   2.721   7.717 -0.7181  0.6374  0.1199
 7864SOL     OW26484   2.653   3.441   9.764  0.6651  0.6578 -0.3314
 7864SOL    HW126485   2.601   3.387   9.823 -0.4703  1.8829 -0.1431
 7864SOL    HW226486   2.729   3.388   9.743 -0.3555 -0.9601 -0.1005
 7865SOL     OW26487  10.080  10.345   1.482 -0.3799 -0.2485  0.4320
 7865SOL    HW126488  10.165  10.335   1.439  0.1860  2.1959  0.8009
 7865SOL    HW226489  10.046  10.256   1.489  2.1402 -1.3282  0.2489
 7866SOL     OW26490   4.129   1.697   9.286  0.1498 -0.3560  0.0616
 7866SOL    HW126491   4.110   1.670   9.376 -0.4722 -0.5788 -0.1313
 7866SOL    HW226492   4.178   1.623   9.249  0.2915 -0.3207  0.1789
 7867SOL     OW26493   9.258   2.719   7.834 -0.1562  0.0406  0.3774
 7867SOL    HW126494   9.283   2.632   7.801  0.5963  0.3168  0.2258
 7867SOL    HW226495   9.259   2.709   7.929  0.4219  0.0200  0.3717
 7868SOL     OW26496   1.334   0.041   5.069 -0.0763 -0.6824  0.0445
 7868SOL    HW126497   1.410   0.099   5.062  0.1490 -0.8965  0.6559
 7868SOL    HW226498   1.263   0.100   5.095  0.1345 -0.6585  0.5855
 7869SOL     OW26499   6.771   5.579   8.129 -0.2094 -0.2901 -0.4305
 7869SOL    HW126500   6.807   5.494   8.105  0.3474 -0.7184  1.7510
 7869SOL    HW226501   6.847   5.633   8.149 -0.6388 -0.0125  0.4779
 7870SOL     OW26502   3.048   1.556   9.002  0.2930  0.3095  0.4080
 7870SOL    HW126503   2.988   1.518   8.938  0.3826  0.7835  0.0462
 7870SOL    HW226504   3.054   1.648   8.980  1.1463  0.2773  0.4490
 7871SOL     OW26505   0.331  10.375   9.039 -0.2141  0.6153 -0.3947
 7871SOL    HW126506   0.391  10.446   9.015 -0.0296  0.6690  0.2088
 7871SOL    HW226507   0.248  10.418   9.054  0.1150  0.8391  0.8643
 7872SOL     OW26508   0.370   2.097   7.121 -0.3153  0.3359 -0.0887
 7872SOL    HW126509   0.275   2.103   7.109 -0.3047  0.7499  0.0077
 7872SOL    HW226510   0.407   2.142   7.044 -0.1916 -0.0953 -0.2831
 7873SOL     OW26511  10.255   4.998   7.376  0.3526 -0.1429 -0.2817
 7873SOL    HW126512  10.194   4.989   7.450  0.2266  0.0668 -0.3580
 7873SOL    HW226513  10.284   5.089   7.381 -1.0474  0.4157 -1.5556
 7874SOL     OW26514   9.486   3.764   5.309 -0.0627  0.4019 -0.3473
 7874SOL    HW126515   9.481   3.847   5.357 -1.0055 -0.1015  0.4523
 7874SOL    HW226516   9.426   3.776   5.235 -0.7084  0.2086  0.1375
 7875SOL     OW26517   5.309   2.371   1.308  0.2604  0.1270 -0.4166
 7875SOL    HW126518   5.403   2.356   1.297  0.5819 -0.7517  2.6188
 7875SOL    HW226519   5.270   2.284   1.298 -0.0518  0.2651 -0.3859
 7876SOL     OW26520   6.432   0.583  10.093  0.5020  0.1281 -0.1158
 7876SOL    HW126521   6.521   0.580  10.058  0.3433  2.1131 -0.7849
 7876SOL    HW226522   6.375   0.570  10.018  0.2002  0.3756  0.0670
 7877SOL     OW26523   7.304   6.304   8.184  0.0990  0.2861 -0.2291
 7877SOL    HW126524   7.215   6.325   8.214  0.3823 -0.4568  1.2152
 7877SOL    HW226525   7.348   6.389   8.182 -0.3030  0.5147  0.2162
 7878SOL     OW26526   4.009   3.062   7.046 -0.0185  0.9873 -0.0016
 7878SOL    HW126527   4.042   3.100   6.965  1.5019  1.0718  0.6342
 7878SOL    HW226528   4.077   3.002   7.075 -0.9382  0.2714  0.7533
 7879SOL     OW26529   0.834   1.356   0.124  0.4453 -0.2461 -0.0738
 7879SOL    HW126530   0.862   1.419   0.190  0.2864 -1.6217  1.3689
 7879SOL    HW226531   0.914   1.313   0.094  0.3000 -1.8042  1.5762
 7880SOL     OW26532   3.815   5.191   9.175  0.1019 -0.2523 -0.3622
 7880SOL    HW126533   3.888   5.183   9.115 -0.3631  0.6445 -1.0772
 7880SOL    HW226534   3.783   5.280   9.162  0.3369  0.1760  1.6354
 7881SOL     OW26535   8.864   5.591   5.563 -0.0662 -0.0128  0.5340
 7881SOL    HW126536   8.822   5.624   5.642 -0.8855 -0.5571  0.3426
 7881SOL    HW226537   8.928   5.658   5.540  0.6408 -0.1488  2.0139
 7882SOL     OW26538   1.117   2.597  10.347 -0.1100  0.3425 -0.1803
 7882SOL    HW126539   1.206   2.572  10.374 -0.1014  0.0138 -0.5026
 7882SOL    HW226540   1.060   2.545  10.404 -0.1077  1.1886  0.6145
 7883SOL     OW26541   8.737   7.898   9.232  0.3660 -0.1799  0.0799
 7883SOL    HW126542   8.771   7.930   9.149 -0.1909 -0.1881 -0.1567
 7883SOL    HW226543   8.692   7.816   9.211  0.9599 -0.6342  0.5314
 7884SOL     OW26544   6.185   8.626   4.826 -0.4759 -0.6031 -0.4591
 7884SOL    HW126545   6.156   8.690   4.891 -0.4831 -1.1117  0.0498
 7884SOL    HW226546   6.161   8.664   4.742  0.0422  0.3228 -0.1964
 7885SOL     OW26547  10.466   1.826   7.219  0.2056  0.1577 -0.4250
 7885SOL    HW126548  10.492   1.907   7.263  1.8507 -0.0353 -0.9747
 7885SOL    HW226549  10.459   1.762   7.289 -0.3569  0.5831 -0.0800
 7886SOL     OW26550   6.677   0.936   2.039  0.1935  0.3581  0.1014
 7886SOL    HW126551   6.598   0.988   2.056 -0.5574 -0.6058 -0.3670
 7886SOL    HW226552   6.692   0.889   2.121 -1.1895 -1.3420 -0.5487
 7887SOL     OW26553  10.553   3.139   8.516 -0.5304 -0.6989  0.4542
 7887SOL    HW126554  10.505   3.065   8.553 -0.9888 -0.0907  1.1027
 7887SOL    HW226555  10.516   3.216   8.559 -1.7323  0.1492 -1.9394
 7888SOL     OW26556   2.118  10.145   1.626  0.2470 -0.0305  0.1745
 7888SOL    HW126557   2.063  10.145   1.705  0.4143  1.5972  0.3252
 7888SOL    HW226558   2.134  10.238   1.609  0.4829 -0.3723 -1.5957
 7889SOL     OW26559   0.915   4.684   1.623 -0.1701 -0.4716  0.6176
 7889SOL    HW126560   0.820   4.682   1.636 -0.2763 -2.2815 -0.1802
 7889SOL    HW226561   0.928   4.662   1.531  1.0873 -3.3595  1.3639
 7890SOL     OW26562   8.544   0.375   9.186  0.6238 -0.1332  0.3501
 7890SOL    HW126563   8.595   0.454   9.165 -1.4681  1.3478  0.4805
 7890SOL    HW226564   8.574   0.310   9.123  0.9315  1.4222 -1.1977
 7891SOL     OW26565   5.624   3.636   6.734 -0.6909 -0.3259  0.1679
 7891SOL    HW126566   5.664   3.685   6.806  0.5833 -0.4235 -0.4354
 7891SOL    HW226567   5.604   3.551   6.771  3.1414 -1.6484 -0.3296
 7892SOL     OW26568   0.024   1.243   1.417 -0.2128 -0.2039  0.5326
 7892SOL    HW126569   0.054   1.156   1.391  0.9363  0.3057  0.0499
 7892SOL    HW226570   0.042   1.248   1.511  0.5548 -0.1852  0.3947
 7893SOL     OW26571   7.546   6.900   6.895 -0.5067  0.0411  0.4141
 7893SOL    HW126572   7.487   6.966   6.933 -1.0587  1.0688 -2.0673
 7893SOL    HW226573   7.498   6.818   6.903 -1.2003  0.4594  0.6402
 7894SOL     OW26574   2.148   9.977   4.615  0.0590  0.3130 -0.0872
 7894SOL    HW126575   2.054   9.983   4.632 -0.5386 -2.9725 -1.3494
 7894SOL    HW226576   2.154   9.956   4.522  1.9078 -1.0637  0.2908
 7895SOL     OW26577   3.175  10.127  10.132  0.2741  0.5367 -0.0538
 7895SOL    HW126578   3.167  10.032  10.137  0.3699  0.5974  1.5040
 7895SOL    HW226579   3.207  10.143  10.043 -0.4961 -0.8181 -0.5992
 7896SOL     OW26580   9.328   2.474   5.618 -0.4537 -0.0095 -0.0827
 7896SOL    HW126581   9.356   2.475   5.710 -0.1094 -1.8527 -0.1187
 7896SOL    HW226582   9.366   2.553   5.580 -0.7839  0.9011  1.3946
 7897SOL     OW26583   4.199   4.906   6.495 -0.2844  0.2096  0.2083
 7897SOL    HW126584   4.234   4.941   6.577 -0.6432  1.8201 -0.2911
 7897SOL    HW226585   4.133   4.843   6.522  0.2148  0.0646  1.1524
 7898SOL     OW26586   7.706   7.414   1.778 -0.0385  0.0175  0.2958
 7898SOL    HW126587   7.689   7.481   1.844 -0.1562  0.3550 -0.0706
 7898SOL    HW226588   7.628   7.359   1.780 -0.4364  0.5500 -0.1744
 7899SOL     OW26589   3.941   3.829  10.156  0.4019  0.1181  0.2910
 7899SOL    HW126590   3.881   3.858  10.087  0.3661 -0.1546  0.2070
 7899SOL    HW226591   4.019   3.798  10.109  1.2661  1.9114  0.4436
 7900SOL     OW26592   6.751   8.662   2.023  0.1607 -0.8116 -0.5016
 7900SOL    HW126593   6.685   8.595   2.006  0.4608 -1.1841 -0.2278
 7900SOL    HW226594   6.794   8.675   1.938 -0.9143  0.1584 -0.9182
 7901SOL     OW26595   5.410  10.524   1.463  0.0323  0.1738 -0.5347
 7901SOL    HW126596   5.454  10.597   1.420  1.1254 -1.1101 -1.6548
 7901SOL    HW226597   5.423  10.450   1.404  0.6374 -1.3968  1.4873
 7902SOL     OW26598   6.927  10.661   5.310 -0.3071 -0.1545  0.3213
 7902SOL    HW126599   6.874  10.654   5.389 -0.0965 -1.1067  0.3920
 7902SOL    HW226600   6.984  10.735   5.326  0.1886 -0.7348  1.3511
 7903SOL     OW26601   1.196   4.002   6.149  0.5710  0.5800  0.6360
 7903SOL    HW126602   1.172   3.957   6.068  1.6591 -3.2673  2.2174
 7903SOL    HW226603   1.130   3.972   6.212  0.8737  1.9539  1.6211
 7904SOL     OW26604   6.861   9.234   1.670  0.5720 -0.2237 -0.1636
 7904SOL    HW126605   6.905   9.296   1.613  0.8870  1.4594  1.7785
 7904SOL    HW226606   6.882   9.264   1.759 -1.2822 -1.6824  0.8497
 7905SOL     OW26607   5.836   1.003   6.130 -0.2107  0.6630 -0.5324
 7905SOL    HW126608   5.784   0.926   6.155  0.1701  0.5924  0.0561
 7905SOL    HW226609   5.817   1.067   6.198 -0.1269  0.9078 -0.7409
 7906SOL     OW26610   9.896   6.548   5.497  0.4563 -0.2895  0.3891
 7906SOL    HW126611   9.854   6.472   5.457 -0.3954  0.4335 -0.1256
 7906SOL    HW226612   9.825   6.596   5.539  0.7612  0.8725 -0.3580
 7907SOL     OW26613   3.884   6.336   6.512  0.1753 -0.0715  0.6587
 7907SOL    HW126614   3.918   6.288   6.587 -0.6403  0.0411  1.1246
 7907SOL    HW226615   3.961   6.372   6.468  0.8987 -2.5980 -0.2893
 7908SOL     OW26616   8.802   7.608   9.324 -0.2806 -0.1365 -0.4542
 7908SOL    HW126617   8.714   7.577   9.304 -0.4208 -1.2677  1.5855
 7908SOL    HW226618   8.850   7.600   9.242 -1.3699 -2.0941 -0.9594
 7909SOL     OW26619   1.135   9.212   0.999 -0.1979  0.5564 -0.0542
 7909SOL    HW126620   1.069   9.143   1.005  0.8714 -0.3455  2.9700
 7909SOL    HW226621   1.217   9.167   0.978  0.0622  1.2799 -0.6818
 7910SOL     OW26622   6.592   8.953   6.702  0.6014  0.6422  0.2973
 7910SOL    HW126623   6.587   8.997   6.787  0.1372  0.4668  0.3638
 7910SOL    HW226624   6.632   9.017   6.643  0.6309  0.8749  0.5708
 7911SOL     OW26625   7.223   4.663   1.204 -0.1672  0.8593 -0.0969
 7911SOL    HW126626   7.262   4.742   1.243 -0.5787  0.6151  0.8324
 7911SOL    HW226627   7.159   4.633   1.269 -1.0208  0.5495 -1.0481
 7912SOL     OW26628   7.724   7.879   8.069 -0.5135  0.1463  0.3624
 7912SOL    HW126629   7.748   7.786   8.071 -2.7220 -0.4862  0.2800
 7912SOL    HW226630   7.807   7.926   8.075  0.5761 -1.8273  1.9162
 7913SOL     OW26631   4.654   8.105   8.993 -0.1695  0.0128  0.1147
 7913SOL    HW126632   4.638   8.013   8.972  1.6095 -0.1037 -0.8812
 7913SOL    HW226633   4.571   8.148   8.971 -0.5460 -1.1228 -0.8481
 7914SOL     OW26634   9.697   2.394   7.269 -0.3147  0.2311  0.0685
 7914SOL    HW126635   9.754   2.419   7.196  0.5146 -2.3701 -0.2640
 7914SOL    HW226636   9.732   2.310   7.300 -2.4048 -0.1762  1.5855
 7915SOL     OW26637   1.695   8.264   1.450  0.1313  0.8011  0.1065
 7915SOL    HW126638   1.741   8.181   1.437  1.8023  1.6658  0.2255
 7915SOL    HW226639   1.655   8.256   1.537 -0.4560 -0.1843 -0.2375
 7916SOL     OW26640   5.533   0.770   0.667 -0.3096 -0.1705 -0.0814
 7916SOL    HW126641   5.491   0.705   0.723 -1.6028  0.8766  0.2259
 7916SOL    HW226642   5.581   0.826   0.727 -1.9455  1.1385  0.1008
 7917SOL     OW26643   3.323   4.175   0.030 -0.1927  0.3600 -0.5147
 7917SOL    HW126644   3.387   4.168  -0.040 -0.9276  1.6724 -1.3671
 7917SOL    HW226645   3.374   4.204   0.106  0.4000  0.2500 -0.8604
 7918SOL     OW26646   4.893   8.747   4.828 -0.5099 -0.0377 -0.1580
 7918SOL    HW126647   4.980   8.779   4.803 -0.3375 -0.8438 -0.6190
 7918SOL    HW226648   4.910   8.681   4.894 -0.6761 -1.0364 -1.0816
 7919SOL     OW26649   1.787   5.650   0.893 -0.1577  0.0016 -0.2884
 7919SOL    HW126650   1.700   5.647   0.854 -0.7955  0.3406  1.0611
 7919SOL    HW226651   1.822   5.735   0.866 -0.9385  0.6084  0.5623
 7920SOL     OW26652   5.490   5.102   1.040 -0.1689 -0.2467 -0.4252
 7920SOL    HW126653   5.514   5.145   0.959  0.5421 -1.1516 -0.7128
 7920SOL    HW226654   5.453   5.018   1.013  1.0983 -1.0421  0.1902
 7921SOL     OW26655   3.079   0.526   0.634 -0.4589  0.1648 -0.3943
 7921SOL    HW126656   3.136   0.486   0.568  0.2839  0.6546 -0.0620
 7921SOL    HW226657   2.994   0.532   0.592 -0.2126 -0.3606 -0.9849
 7922SOL     OW26658   7.847   7.279  10.627 -0.5683 -0.1869 -0.0336
 7922SOL    HW126659   7.899   7.283  10.707 -0.3138 -0.4126 -0.1828
 7922SOL    HW226660   7.911   7.294  10.557 -0.2090 -2.8612 -0.3954
 7923SOL     OW26661   3.058   6.410   2.358  0.0174 -0.0689 -0.0410
 7923SOL    HW126662   3.032   6.438   2.270  0.1437 -1.6954 -0.6322
 7923SOL    HW226663   2.976   6.395   2.404 -0.0564  0.1619 -0.0982
 7924SOL     OW26664   4.697   6.488   7.835  0.1617  0.1305 -0.2644
 7924SOL    HW126665   4.646   6.470   7.914  0.5848  0.8810  0.1965
 7924SOL    HW226666   4.769   6.544   7.866 -0.5321  1.7437 -1.4335
 7925SOL     OW26667   3.371   0.137   5.473  0.8458 -0.3425  0.3552
 7925SOL    HW126668   3.461   0.109   5.484  0.5386 -1.3798  0.3835
 7925SOL    HW226669   3.320   0.075   5.525  0.0631 -0.2502 -0.2755
 7926SOL     OW26670   9.219   0.864  10.322 -0.5065 -0.4337 -0.3577
 7926SOL    HW126671   9.145   0.910  10.362 -0.5910 -1.2456  0.4330
 7926SOL    HW226672   9.269   0.933  10.280  0.1816  0.6397  2.0475
 7927SOL     OW26673   1.065   8.553   0.322  0.1307 -0.4336 -0.2440
 7927SOL    HW126674   1.021   8.571   0.405 -0.5963  1.5723 -1.0141
 7927SOL    HW226675   1.101   8.465   0.333 -0.5445 -0.4975  1.9257
 7928SOL     OW26676   7.322   8.120   6.918  0.2735 -0.0212  0.3946
 7928SOL    HW126677   7.370   8.134   6.837 -1.2923  1.9939 -0.2686
 7928SOL    HW226678   7.309   8.208   6.954 -3.9310 -0.1799 -0.1822
 7929SOL     OW26679   4.647   9.789   8.209 -0.1220 -0.0086 -0.0411
 7929SOL    HW126680   4.621   9.711   8.159 -1.5038 -0.5154  1.3880
 7929SOL    HW226681   4.600   9.781   8.292  0.0781  2.1171  0.3339
 7930SOL     OW26682   0.575   2.045   0.832  0.1707 -0.4783  0.4726
 7930SOL    HW126683   0.637   1.981   0.797  2.0938  1.8728 -0.7321
 7930SOL    HW226684   0.489   2.004   0.822  1.0345 -1.8247 -2.7603
 7931SOL     OW26685   9.391   1.764   4.446 -0.0312  0.2751 -0.0192
 7931SOL    HW126686   9.315   1.723   4.404 -0.3985  1.5648 -0.6600
 7931SOL    HW226687   9.363   1.781   4.536  0.2580 -1.1747  0.3736
 7932SOL     OW26688   0.972   0.747   8.258  0.7702  0.1668 -0.5581
 7932SOL    HW126689   0.893   0.782   8.299  0.6822 -0.4269 -0.2200
 7932SOL    HW226690   1.042   0.767   8.320  0.5465 -1.2698  0.1838
 7933SOL     OW26691   0.928   0.712   9.130 -0.2660 -0.1839 -0.1869
 7933SOL    HW126692   0.988   0.745   9.197  0.5063  1.0130 -1.4090
 7933SOL    HW226693   0.853   0.771   9.134 -0.5525 -0.5612  0.1013
 7934SOL     OW26694   9.759  10.737   3.929  0.1681  0.2186  1.0984
 7934SOL    HW126695   9.781  10.680   4.003 -0.3509 -0.6062  0.6323
 7934SOL    HW226696   9.844  10.771   3.899  0.5077 -0.4940  1.2333
 7935SOL     OW26697   9.892   9.721   2.297  0.1527  0.0104 -0.3655
 7935SOL    HW126698   9.985   9.721   2.275  0.1830  0.8519 -0.2688
 7935SOL    HW226699   9.879   9.641   2.348  0.7329 -0.3230 -0.7329
 7936SOL     OW26700   9.513   9.668   0.012  0.4200 -0.2841 -0.2296
 7936SOL    HW126701   9.461   9.589   0.026 -1.2015  0.8393  0.4203
 7936SOL    HW226702   9.499   9.690  -0.080 -3.8691  2.2623  0.7169
 7937SOL     OW26703   6.380   8.890   4.329 -0.0616 -0.2780 -0.4517
 7937SOL    HW126704   6.455   8.943   4.302 -1.6744  2.6576  0.3403
 7937SOL    HW226705   6.416   8.827   4.391  1.6050  2.0507  1.1209
 7938SOL     OW26706   5.147   1.911   4.081 -0.1544 -0.3207  0.1177
 7938SOL    HW126707   5.161   1.873   3.994  0.0183 -0.2586  0.1170
 7938SOL    HW226708   5.160   1.838   4.142 -2.3704 -0.8756 -0.0013
 7939SOL     OW26709   6.334   7.161   4.763  0.3455  0.0252  0.3357
 7939SOL    HW126710   6.328   7.185   4.855  0.7922 -0.4627  0.4959
 7939SOL    HW226711   6.246   7.177   4.728  0.4193  1.1130  0.6177
 7940SOL     OW26712   7.156   7.450  10.745  0.0774  0.6375 -0.7303
 7940SOL    HW126713   7.234   7.461  10.691 -0.3367 -0.2912 -1.5663
 7940SOL    HW226714   7.093   7.514  10.710 -0.2426 -0.0665 -1.4837
 7941SOL     OW26715   7.150   6.211   0.661 -0.0957  0.0146  0.4863
 7941SOL    HW126716   7.096   6.137   0.689  0.0269 -0.1004  0.4159
 7941SOL    HW226717   7.145   6.273   0.734 -2.9195  1.4262 -0.7419
 7942SOL     OW26718   2.069  10.675   6.188  0.0027  0.1854  0.1313
 7942SOL    HW126719   2.089  10.674   6.094 -1.0790  0.9057 -0.1342
 7942SOL    HW226720   2.116  10.752   6.221 -1.0526  0.9963 -0.1957
 7943SOL     OW26721   4.813   3.583   1.075  0.0320 -0.6042  0.7166
 7943SOL    HW126722   4.815   3.619   0.987 -0.9259  0.4586  1.1104
 7943SOL    HW226723   4.806   3.488   1.062 -0.9369 -0.3977 -0.3581
 7944SOL     OW26724   7.467   2.563   9.808 -0.0087  0.2662 -0.3308
 7944SOL    HW126725   7.486   2.488   9.865 -0.9004  1.7613  2.0788
 7944SOL    HW226726   7.430   2.525   9.729  0.6672 -1.8848  0.3268
 7945SOL     OW26727   7.547   9.252   7.139 -0.2143  0.0150 -0.2658
 7945SOL    HW126728   7.628   9.201   7.144 -0.3514 -0.2555 -0.7814
 7945SOL    HW226729   7.576   9.343   7.147  0.0632 -0.1161  0.3249
 7946SOL     OW26730   5.343   3.761   6.644  0.1772 -0.8627  0.2079
 7946SOL    HW126731   5.430   3.744   6.680  0.1635  0.6972  1.0796
 7946SOL    HW226732   5.296   3.805   6.715 -0.9056 -0.5556 -0.6735
 7947SOL     OW26733  10.267   0.191   0.338 -0.0979  0.6077 -0.0553
 7947SOL    HW126734  10.351   0.206   0.383 -0.4401  3.4646 -0.1560
 7947SOL    HW226735  10.205   0.246   0.386 -1.7414 -0.7759 -0.5424
 7948SOL     OW26736   5.611   6.325   5.178  0.0893 -0.1049 -0.3614
 7948SOL    HW126737   5.515   6.320   5.180 -0.0375  0.4079 -2.5419
 7948SOL    HW226738   5.630   6.417   5.159  1.1542  0.4187  2.7542
 7949SOL     OW26739   5.087   6.430   0.842  0.4994 -0.1802 -0.2548
 7949SOL    HW126740   5.098   6.474   0.926 -1.0095  0.8478 -0.5427
 7949SOL    HW226741   5.142   6.480   0.782 -0.5734  0.8705 -0.4104
 7950SOL     OW26742   0.773   1.770   8.481 -0.3461  0.1876  0.2003
 7950SOL    HW126743   0.746   1.697   8.537  0.2923 -0.5676 -0.4646
 7950SOL    HW226744   0.730   1.753   8.397 -0.0997  0.5156  0.0075
 7951SOL     OW26745   5.329   2.674   8.739 -0.0300 -0.7591 -0.5226
 7951SOL    HW126746   5.399   2.609   8.738 -0.6970 -1.7499  3.0374
 7951SOL    HW226747   5.248   2.622   8.738 -0.5821 -0.0238  1.1669
 7952SOL     OW26748   4.088   3.122   8.724  0.0056 -0.2334  0.3148
 7952SOL    HW126749   3.995   3.134   8.744  0.0334 -0.2232  0.4370
 7952SOL    HW226750   4.125   3.210   8.731 -0.0889 -0.1365 -0.3221
 7953SOL     OW26751   7.871   7.311   7.108  0.4434  0.0542 -0.1683
 7953SOL    HW126752   7.865   7.271   7.022  1.0106 -0.2193 -0.0872
 7953SOL    HW226753   7.863   7.237   7.169 -1.3632  0.3987  0.0570
 7954SOL     OW26754   9.505   2.186   9.954  0.3190  0.3455 -0.1645
 7954SOL    HW126755   9.536   2.190  10.044  1.8873 -1.5592 -0.5673
 7954SOL    HW226756   9.497   2.093   9.935 -1.1632  0.7123 -1.6407
 7955SOL     OW26757   9.289   6.278   8.596  0.4886 -0.0533  0.4075
 7955SOL    HW126758   9.366   6.336   8.604  0.9249 -0.8163  2.5226
 7955SOL    HW226759   9.225   6.317   8.656  0.3986 -1.1263  1.0347
 7956SOL     OW26760   0.236   3.327   5.724 -0.0235 -0.2606  0.0055
 7956SOL    HW126761   0.210   3.267   5.655 -1.4408  0.0166  0.2827
 7956SOL    HW226762   0.168   3.318   5.791  0.6502  0.4057  0.8033
 7957SOL     OW26763   7.075   9.485  10.706 -0.4047  0.6662 -0.4577
 7957SOL    HW126764   7.038   9.397  10.710 -2.1197  1.2715 -1.8035
 7957SOL    HW226765   7.145   9.479  10.642 -1.4179  0.5326 -1.5944
 7958SOL     OW26766   3.742   0.953   4.700  0.6585  0.2565 -0.1987
 7958SOL    HW126767   3.661   0.902   4.697  1.2339 -0.7237  0.6116
 7958SOL    HW226768   3.714   1.039   4.732 -0.2106  0.2444 -0.8915
 7959SOL     OW26769   2.461   0.789  10.647  0.3069 -0.0015 -0.0077
 7959SOL    HW126770   2.527   0.837  10.596  0.4989 -1.6095 -1.3569
 7959SOL    HW226771   2.451   0.706  10.601 -0.8299 -0.8190  1.6250
 7960SOL     OW26772   3.601   3.034   5.301 -0.4230  0.6169 -0.2997
 7960SOL    HW126773   3.597   3.062   5.209  0.3113  0.7936 -0.2825
 7960SOL    HW226774   3.665   3.092   5.341 -1.8299  1.5365  0.7012
 7961SOL     OW26775   1.029   7.917   0.551  0.0603  0.8710  0.5136
 7961SOL    HW126776   0.953   7.874   0.511  2.2838 -0.9925 -2.0187
 7961SOL    HW226777   0.992   7.995   0.593 -3.1202  0.6435 -1.4940
 7962SOL     OW26778   5.152   0.951   7.048  0.0261 -0.3131  0.1834
 7962SOL    HW126779   5.170   1.008   6.973  1.8090 -1.5878 -0.4310
 7962SOL    HW226780   5.111   0.874   7.009 -1.5859  0.1445  0.9012
 7963SOL     OW26781   5.852  10.644   9.357 -0.7802  0.3542 -0.1482
 7963SOL    HW126782   5.833  10.648   9.263  0.7021  1.5007 -0.4494
 7963SOL    HW226783   5.838  10.734   9.388 -1.6887 -0.1083  0.8434
 7964SOL     OW26784   4.974   6.655   5.526  0.5693 -0.0897  0.2506
 7964SOL    HW126785   4.881   6.649   5.503 -0.4098  0.1719  3.6425
 7964SOL    HW226786   5.004   6.564   5.531  0.4809 -0.1797 -0.7189
 7965SOL     OW26787   6.829   5.181   2.791  0.1634 -0.5989 -0.0335
 7965SOL    HW126788   6.795   5.104   2.836 -0.5862 -1.0347 -1.2834
 7965SOL    HW226789   6.750   5.228   2.763  0.6146  0.2002  0.0073
 7966SOL     OW26790   0.370   9.868   5.201  0.3314 -0.2420 -0.0574
 7966SOL    HW126791   0.378   9.791   5.144 -2.7340 -0.2064 -0.7178
 7966SOL    HW226792   0.397   9.942   5.146  1.5591 -0.6126  0.0084
 7967SOL     OW26793   0.804   5.562   5.369 -0.0728  0.0969  0.3208
 7967SOL    HW126794   0.724   5.606   5.342 -0.0553 -0.1702 -0.1708
 7967SOL    HW226795   0.868   5.583   5.301 -0.1714 -1.0063 -0.1439
 7968SOL     OW26796   4.939   8.834   3.219  0.1259  0.1216  0.4485
 7968SOL    HW126797   4.968   8.824   3.128 -1.0459  0.6179 -0.0105
 7968SOL    HW226798   4.862   8.890   3.213 -0.1464 -0.0845  1.7250
 7969SOL     OW26799  10.392   3.022   2.703 -0.0991  0.6818  0.3091
 7969SOL    HW126800  10.333   2.954   2.735  0.2184  1.1396  1.9843
 7969SOL    HW226801  10.471   2.974   2.676 -0.2428  0.2819  0.5803
 7970SOL     OW26802   9.204   0.005   2.563  0.2034  0.2009  0.6739
 7970SOL    HW126803   9.185  -0.077   2.608 -1.1110  0.5152  0.7112
 7970SOL    HW226804   9.182   0.074   2.626 -0.5119  0.6136 -0.0065
 7971SOL     OW26805   1.557   7.060   7.911  0.3421 -0.1663  0.2510
 7971SOL    HW126806   1.507   7.122   7.964  0.5547  0.1052  0.1333
 7971SOL    HW226807   1.635   7.042   7.963  0.6442  0.2493 -0.0534
 7972SOL     OW26808   4.847   4.042   2.414 -0.2481 -0.4099  0.0447
 7972SOL    HW126809   4.934   4.079   2.428 -0.3053  0.1333 -0.9323
 7972SOL    HW226810   4.789   4.094   2.469 -0.0955 -0.0952 -0.0901
 7973SOL     OW26811   9.241   6.742   9.179  0.3393  0.2255 -0.2364
 7973SOL    HW126812   9.294   6.820   9.162 -2.0342  1.8176 -0.8810
 7973SOL    HW226813   9.174   6.771   9.240 -1.4293 -0.8876 -1.5282
 7974SOL     OW26814   6.209   5.824   5.114  0.4519 -0.1192  0.0057
 7974SOL    HW126815   6.125   5.779   5.099  0.4418  0.1804 -0.9498
 7974SOL    HW226816   6.274   5.767   5.072  0.8212 -0.6773  1.3075
 7975SOL     OW26817   7.695   5.695   4.114 -0.2441 -0.1962 -0.0102
 7975SOL    HW126818   7.676   5.711   4.022  1.7744  1.0887 -0.2770
 7975SOL    HW226819   7.618   5.727   4.161 -0.8744  0.0754 -1.2052
 7976SOL     OW26820   9.013   7.223   5.244 -0.1929 -0.2604  0.4863
 7976SOL    HW126821   8.934   7.250   5.196 -0.9009 -1.2835  1.0245
 7976SOL    HW226822   9.081   7.284   5.215 -1.4757  1.5063  0.9839
 7977SOL     OW26823   7.999   1.206   9.800  0.5721 -0.2830  0.2197
 7977SOL    HW126824   8.023   1.121   9.836  0.8706 -0.2539  0.0865
 7977SOL    HW226825   7.970   1.257   9.876  0.6154 -0.4255  0.3308
 7978SOL     OW26826   4.112  10.402  10.012 -0.2615 -0.4912  0.1599
 7978SOL    HW126827   4.077  10.316   9.989  0.1717 -0.2535 -1.5849
 7978SOL    HW226828   4.196  10.384  10.055 -0.5742 -0.9502  0.5838
 7979SOL     OW26829  10.292   4.663   6.689  0.9581  0.2933 -0.0626
 7979SOL    HW126830  10.259   4.665   6.778  1.4766 -0.2053  0.1490
 7979SOL    HW226831  10.362   4.597   6.691  0.1335 -0.6368 -1.1262
 7980SOL     OW26832   6.283   8.790   7.112  0.2470  0.2441  0.0142
 7980SOL    HW126833   6.360   8.827   7.070  0.3510 -1.6658 -1.6412
 7980SOL    HW226834   6.314   8.761   7.198  1.0743  0.5483 -0.1756
 7981SOL     OW26835   7.098  10.647   3.751  0.2848  0.1383 -1.0845
 7981SOL    HW126836   7.120  10.674   3.840  0.8928  0.5405 -1.3555
 7981SOL    HW226837   7.042  10.716   3.718 -0.1390 -0.1299 -0.9345
 7982SOL     OW26838   1.341   9.048   0.969  0.6605  0.7319 -0.0381
 7982SOL    HW126839   1.317   8.956   0.953  1.5367  0.6498 -0.9974
 7982SOL    HW226840   1.412   9.043   1.034  0.4399  0.7537  0.2037
 7983SOL     OW26841   1.642   0.484   4.715 -0.2428 -0.1253 -0.1946
 7983SOL    HW126842   1.712   0.450   4.769 -0.3251 -1.1130 -0.6797
 7983SOL    HW226843   1.564   0.478   4.770  0.0100  0.7429  0.2591
 7984SOL     OW26844   3.667   9.279   3.733 -0.1003  0.1527 -0.4352
 7984SOL    HW126845   3.619   9.303   3.654 -1.3480  2.0206  0.8218
 7984SOL    HW226846   3.693   9.362   3.772  0.3278 -0.7056  1.2112
 7985SOL     OW26847   9.073  10.765   3.874 -0.0820 -0.6942 -0.1986
 7985SOL    HW126848   9.144  10.750   3.812  0.0197  1.7444 -0.7876
 7985SOL    HW226849   9.008  10.698   3.853  0.3158 -0.4775 -2.4030
 7986SOL     OW26850   9.057   6.297   0.034  0.6964  0.5211  0.2536
 7986SOL    HW126851   9.114   6.256  -0.030 -1.4686  0.8644 -2.0396
 7986SOL    HW226852   9.031   6.380  -0.006  0.1683  1.3073  2.1069
 7987SOL     OW26853   9.380   2.915   3.954 -0.5898 -0.3140  0.0741
 7987SOL    HW126854   9.306   2.863   3.921 -1.0863  2.2184 -3.3206
 7987SOL    HW226855   9.455   2.884   3.903 -0.7146  1.4997 -1.3128
 7988SOL     OW26856   8.096   1.288   6.410 -0.3434  0.1143 -0.3451
 7988SOL    HW126857   8.118   1.266   6.501 -0.9633  1.6352  0.1942
 7988SOL    HW226858   8.000   1.289   6.408 -0.3580 -0.7274 -1.2514
 7989SOL     OW26859   9.811   3.723   9.565  0.7598 -0.2000  0.1714
 7989SOL    HW126860   9.859   3.641   9.573  0.2152 -0.4091  1.6239
 7989SOL    HW226861   9.732   3.710   9.618  0.0967  0.8588 -0.5016
 7990SOL     OW26862   3.211   4.997   3.464  0.9049  0.5047 -0.3405
 7990SOL    HW126863   3.232   5.084   3.499 -1.3350  0.9014  0.1708
 7990SOL    HW226864   3.219   5.007   3.369  2.2190  0.7909 -0.2253
 7991SOL     OW26865   9.981   1.012   2.231  0.0065  0.1057  0.2928
 7991SOL    HW126866   9.889   1.011   2.258  0.3809 -0.4129  1.6101
 7991SOL    HW226867  10.025   0.952   2.291  0.8447 -1.4086 -1.6970
 7992SOL     OW26868   3.948   2.392  10.575 -0.1164  0.2019 -0.0036
 7992SOL    HW126869   4.038   2.419  10.593  0.0931 -1.6297  2.2115
 7992SOL    HW226870   3.945   2.300  10.601 -2.5120  0.0731 -0.4788
 7993SOL     OW26871   4.389   9.159   0.428 -0.2159 -0.0239 -0.2414
 7993SOL    HW126872   4.441   9.170   0.349  0.2227  2.2855  0.2864
 7993SOL    HW226873   4.313   9.216   0.414  1.1859  2.6068  2.0036
 7994SOL     OW26874   9.442   8.747   5.621 -0.9109 -0.2012 -0.3831
 7994SOL    HW126875   9.493   8.666   5.623 -0.0964  0.2888 -0.7108
 7994SOL    HW226876   9.508   8.816   5.616 -1.4598  0.6570  2.4786
 7995SOL     OW26877   2.023   3.324   2.816 -0.0929 -0.7468  0.2229
 7995SOL    HW126878   2.027   3.234   2.849 -1.4418 -0.6975  0.5862
 7995SOL    HW226879   1.976   3.318   2.733 -1.2642 -0.2506  0.8281
 7996SOL     OW26880   4.981   1.522   1.614  0.5330 -0.3907 -0.0335
 7996SOL    HW126881   5.045   1.574   1.565 -1.4841  1.1045 -1.2488
 7996SOL    HW226882   4.935   1.586   1.669  1.1157 -1.6769  2.0384
 7997SOL     OW26883   5.263   9.786   8.772  0.0086  0.1351  0.0429
 7997SOL    HW126884   5.169   9.802   8.779  0.3513  2.0537  0.9339
 7997SOL    HW226885   5.301   9.834   8.845  1.6481 -1.1608  0.1085
 7998SOL     OW26886   2.359   0.399   1.670  0.0729 -0.7175 -0.0978
 7998SOL    HW126887   2.328   0.373   1.584  0.9518 -1.5202 -0.1931
 7998SOL    HW226888   2.355   0.494   1.670 -1.6407 -0.7741 -0.3620
 7999SOL     OW26889   7.353   0.559   0.015  0.2463 -0.3949 -0.1603
 7999SOL    HW126890   7.303   0.634  -0.017  1.6662  0.5702 -0.2117
 7999SOL    HW226891   7.335   0.489  -0.049  0.9143  0.6882 -1.5962
 8000SOL     OW26892   8.974   5.222   7.401  0.3367  0.3595  0.2656
 8000SOL    HW126893   9.034   5.287   7.365 -0.9888  0.8265 -1.2256
 8000SOL    HW226894   8.924   5.191   7.326 -1.1137 -0.1901  1.4024
 8001SOL     OW26895   2.101   4.051   7.716 -0.0311  0.0610 -0.2843
 8001SOL    HW126896   2.191   4.020   7.727 -0.2062 -0.5008 -0.3967
 8001SOL    HW226897   2.047   3.981   7.754 -0.4898 -0.2630 -1.4801
 8002SOL     OW26898   2.508   2.387   4.006 -0.5421  0.0320 -0.2533
 8002SOL    HW126899   2.560   2.330   4.062 -0.6634  0.0461 -0.1273
 8002SOL    HW226900   2.529   2.359   3.917  0.0591  0.3630 -0.2192
 8003SOL     OW26901   6.639  10.411   6.028 -0.1788  0.1031 -0.6201
 8003SOL    HW126902   6.560  10.417   6.081  0.4938 -0.1271  0.4398
 8003SOL    HW226903   6.615  10.450   5.944 -0.8577  1.8286  0.3351
 8004SOL     OW26904   5.315   2.377   7.774 -0.1937  0.3886 -0.2229
 8004SOL    HW126905   5.337   2.296   7.728  1.0200  0.0415  0.9094
 8004SOL    HW226906   5.287   2.437   7.705 -0.8712 -0.9019 -1.1121
 8005SOL     OW26907   4.709   7.682  10.733 -0.3850 -0.0149 -0.5501
 8005SOL    HW126908   4.673   7.620  10.795 -1.4751  1.1210 -0.0015
 8005SOL    HW226909   4.775   7.731  10.782 -1.6274  1.2564 -0.0494
 8006SOL     OW26910  10.795   2.638   6.528  0.4982  0.0322 -0.5411
 8006SOL    HW126911  10.758   2.572   6.469 -2.1618  0.7616  0.1811
 8006SOL    HW226912  10.888   2.642   6.503  0.4352 -2.7799 -1.6929
 8007SOL     OW26913   3.367   5.412   9.496 -0.1204 -0.3597 -0.3804
 8007SOL    HW126914   3.417   5.390   9.575 -0.1704 -0.9203 -0.4998
 8007SOL    HW226915   3.289   5.357   9.501 -1.2861  1.2472  0.3313
 8008SOL     OW26916   8.728   4.703   1.558 -0.3114  0.8303 -0.0676
 8008SOL    HW126917   8.805   4.757   1.576 -0.5950  0.8246  1.3119
 8008SOL    HW226918   8.654   4.763   1.568 -0.6483  0.1878  1.7530
 8009SOL     OW26919  10.408   4.427   5.498 -0.0854 -0.2500 -0.5942
 8009SOL    HW126920  10.323   4.385   5.484 -0.7386  0.3165  1.2862
 8009SOL    HW226921  10.440   4.390   5.580  1.0522  0.2425 -0.7967
 8010SOL     OW26922   4.445   6.460   1.562  0.1618 -0.2505 -0.0801
 8010SOL    HW126923   4.391   6.382   1.572 -0.1184 -0.0753 -0.2050
 8010SOL    HW226924   4.427   6.490   1.472 -0.1111  0.2406  0.1362
 8011SOL     OW26925   4.457   2.504   8.234  0.3423 -0.3520  0.0113
 8011SOL    HW126926   4.422   2.545   8.313 -0.8187 -0.3390 -0.4760
 8011SOL    HW226927   4.478   2.577   8.176  0.8174 -0.3734  0.1536
 8012SOL     OW26928   5.143   7.170   6.205 -0.3932 -0.2712 -0.1713
 8012SOL    HW126929   5.117   7.210   6.287 -0.3437 -0.5556 -0.0131
 8012SOL    HW226930   5.215   7.111   6.229  0.1506  0.2249 -0.5418
 8013SOL     OW26931   4.264   1.793   0.034 -0.0436  0.2739  0.1672
 8013SOL    HW126932   4.310   1.784   0.117  0.5540 -0.4322 -0.2262
 8013SOL    HW226933   4.334   1.804  -0.031 -0.2388 -2.5231 -0.6739
 8014SOL     OW26934   6.142   9.613   6.667 -0.2350  0.2861 -0.1703
 8014SOL    HW126935   6.139   9.524   6.701 -0.4469  0.3201 -0.0989
 8014SOL    HW226936   6.177   9.604   6.578 -0.1486  0.1455 -0.1224
 8015SOL     OW26937   8.970   0.108   2.374 -0.0294 -0.5179  0.2431
 8015SOL    HW126938   8.944   0.064   2.455  0.6275 -0.6079  0.4162
 8015SOL    HW226939   9.024   0.182   2.404  0.6634 -0.8625 -0.1259
 8016SOL     OW26940   2.806   1.965   4.194  0.1062 -0.4970  0.4447
 8016SOL    HW126941   2.876   2.009   4.242  0.0723  0.1192 -0.0691
 8016SOL    HW226942   2.769   2.032   4.137 -1.2358 -0.6775  1.0580
 8017SOL     OW26943   0.165   9.934   0.916 -0.1594 -0.1675  0.0407
 8017SOL    HW126944   0.258   9.923   0.900  0.0175 -1.5968  1.6896
 8017SOL    HW226945   0.131   9.975   0.837  1.8727  0.5084 -0.5392
 8018SOL     OW26946   0.628   3.100   9.776  0.3175  0.4286  0.0537
 8018SOL    HW126947   0.561   3.165   9.798 -1.5661 -1.4742  0.2550
 8018SOL    HW226948   0.610   3.077   9.685 -0.1407 -1.0028  0.4788
 8019SOL     OW26949   2.016   2.130   3.443 -0.4796 -0.3843  0.4016
 8019SOL    HW126950   2.002   2.043   3.482  4.0781 -0.6401  2.0756
 8019SOL    HW226951   2.068   2.113   3.364  0.1523  0.7932  0.5461
 8020SOL     OW26952   3.733   4.825   0.040  0.2400  0.1088  0.3439
 8020SOL    HW126953   3.776   4.805  -0.043  0.5518 -0.5166  0.6501
 8020SOL    HW226954   3.741   4.745   0.092 -0.6858  0.2136  0.6683
 8021SOL     OW26955   6.071   4.576   6.808 -0.1963 -0.1766  0.2617
 8021SOL    HW126956   6.119   4.599   6.888 -1.3467  2.7084  0.2169
 8021SOL    HW226957   6.030   4.492   6.829  0.9891 -0.3787  2.0052
 8022SOL     OW26958  10.491   8.491   8.124 -0.3847 -0.5125  0.1078
 8022SOL    HW126959  10.480   8.404   8.162  1.7870 -0.3457  1.2874
 8022SOL    HW226960  10.512   8.547   8.199 -4.1374  1.6401 -0.1995
 8023SOL     OW26961   5.093   7.504   6.771  0.2252 -0.1521  0.2912
 8023SOL    HW126962   5.018   7.445   6.774 -0.4860  0.6511 -0.8511
 8023SOL    HW226963   5.154   7.469   6.836  0.1365 -2.5540 -0.7996
 8024SOL     OW26964   1.238   2.781   0.880 -0.0555 -0.1759 -0.3482
 8024SOL    HW126965   1.162   2.737   0.919  1.8683 -1.9885  1.6491
 8024SOL    HW226966   1.223   2.775   0.786 -2.4592 -0.2764 -0.0384
 8025SOL     OW26967  10.118   2.410   1.474 -0.3673  0.6868  0.3862
 8025SOL    HW126968  10.137   2.333   1.527 -1.9406  0.0840  0.1308
 8025SOL    HW226969  10.175   2.402   1.398 -1.3902 -0.9365 -0.2648
 8026SOL     OW26970   9.834  10.508  10.760 -0.0508 -0.0036 -0.0961
 8026SOL    HW126971   9.898  10.451  10.716 -0.6557 -0.3748 -0.5193
 8026SOL    HW226972   9.791  10.451  10.824 -0.2607  0.1199 -0.1242
 8027SOL     OW26973   6.511   9.817   9.488  0.2704 -0.1199  0.2325
 8027SOL    HW126974   6.542   9.854   9.405  0.6408 -0.6674  0.1182
 8027SOL    HW226975   6.551   9.872   9.555 -0.0462  0.3388  0.0486
 8028SOL     OW26976   4.220   3.411   4.520 -0.0680 -0.1304 -0.5496
 8028SOL    HW126977   4.246   3.503   4.533 -2.6058  0.5762  0.0476
 8028SOL    HW226978   4.243   3.392   4.429  3.0003  0.1481  0.0662
 8029SOL     OW26979   7.380   5.278   8.683 -0.0509  0.0402  0.1322
 8029SOL    HW126980   7.391   5.365   8.723  1.9082 -0.5102  0.9166
 8029SOL    HW226981   7.296   5.247   8.718  0.4956  0.5379  2.0419
 8030SOL     OW26982   5.398   7.916  10.338 -0.1701  0.5842  0.1849
 8030SOL    HW126983   5.475   7.957  10.300  0.7363  0.3871  1.7071
 8030SOL    HW226984   5.374   7.972  10.411 -1.2444  0.4335 -0.0377
 8031SOL     OW26985   4.107   5.721   0.685  0.1555  0.0242  0.2642
 8031SOL    HW126986   4.019   5.686   0.701  0.9109 -0.8089  2.9122
 8031SOL    HW226987   4.092   5.813   0.663 -1.4670 -0.5710 -1.4742
 8032SOL     OW26988   1.606   8.998   4.772  0.3213  0.1689  0.3001
 8032SOL    HW126989   1.641   9.060   4.835  1.4106  0.2115 -0.3283
 8032SOL    HW226990   1.529   8.961   4.815  1.2396 -0.0675  1.8046
 8033SOL     OW26991   9.929  10.740   9.211 -0.2297  0.3886 -0.2145
 8033SOL    HW126992   9.930  10.644   9.209 -0.2395  0.3226  1.4760
 8033SOL    HW226993   9.893  10.765   9.126  0.5638 -1.0705 -1.0314
 8034SOL     OW26994   2.801   6.758   0.691 -0.0548  0.0463 -0.2173
 8034SOL    HW126995   2.788   6.683   0.749 -1.3345 -0.4039 -1.0568
 8034SOL    HW226996   2.746   6.740   0.615  0.5497  1.2678 -0.9827
 8035SOL     OW26997   8.943   5.371   8.436  0.2690 -0.2330 -0.5255
 8035SOL    HW126998   8.962   5.402   8.525  1.1028 -1.7212 -0.1642
 8035SOL    HW226999   8.902   5.286   8.448 -1.5368  0.4334 -1.5240
 8036SOL     OW27000   1.846   2.573   3.557 -0.0983 -0.0195  0.3316
 8036SOL    HW127001   1.909   2.631   3.600  1.4850 -0.4922 -1.2249
 8036SOL    HW227002   1.769   2.575   3.614  1.2148  0.7736  2.1879
 8037SOL     OW27003   0.887   1.339   0.931  0.2350 -0.3287 -0.6648
 8037SOL    HW127004   0.968   1.350   0.882 -0.0907  0.4736 -1.0430
 8037SOL    HW227005   0.894   1.252   0.971  0.0519 -1.4524 -2.9564
 8038SOL     OW27006   4.702   4.397  10.424 -0.5076  0.7312  0.6289
 8038SOL    HW127007   4.694   4.438  10.510 -1.2320  0.2799  0.7846
 8038SOL    HW227008   4.611   4.381  10.397 -0.2862 -2.0455  1.1970
 8039SOL     OW27009   9.386  10.621   9.354 -0.3602  0.0366  0.1764
 8039SOL    HW127010   9.423  10.693   9.304 -0.4781  1.6094  2.2221
 8039SOL    HW227011   9.458  10.589   9.409 -0.4436 -1.1117 -0.3372
 8040SOL     OW27012   7.774   2.764   0.393 -0.0905  0.1177  0.0979
 8040SOL    HW127013   7.772   2.690   0.333 -0.1278 -0.2952  0.5946
 8040SOL    HW227014   7.864   2.795   0.390 -0.2569  0.5466 -0.6938
 8041SOL     OW27015   0.179  10.198   4.473  0.1358  0.3265 -0.5374
 8041SOL    HW127016   0.193  10.137   4.401  3.4439  0.1224  0.1140
 8041SOL    HW227017   0.265  10.237   4.489 -0.7419  1.3301  2.4354
 8042SOL     OW27018   1.394   3.380   2.391  0.0682  0.4959 -0.5020
 8042SOL    HW127019   1.340   3.368   2.469 -0.7932 -1.0898 -1.2952
 8042SOL    HW227020   1.333   3.405   2.322  0.6438  0.6714 -0.9646
 8043SOL     OW27021   4.068   9.327   1.276  0.6820  0.0295 -0.6836
 8043SOL    HW127022   4.126   9.402   1.265 -1.4078  1.6775 -0.9187
 8043SOL    HW227023   3.982   9.364   1.296 -0.2170 -2.3356  0.2638
 8044SOL     OW27024  10.061   9.983   3.399  0.0210  0.1730 -0.1109
 8044SOL    HW127025  10.072  10.025   3.314  2.1953 -0.0638  0.0113
 8044SOL    HW227026  10.087  10.049   3.462 -0.2922 -0.1037  0.3145
 8045SOL     OW27027   5.492   1.525   4.873  0.1225 -0.3936  0.3102
 8045SOL    HW127028   5.417   1.573   4.838 -0.6262 -0.7168  1.3952
 8045SOL    HW227029   5.543   1.500   4.796 -0.8947 -0.1712 -0.4602
 8046SOL     OW27030   1.261   6.179   1.009  0.4307 -0.1248 -0.2271
 8046SOL    HW127031   1.175   6.214   1.031  1.3276 -0.0851  4.1770
 8046SOL    HW227032   1.244   6.091   0.976 -1.3435  0.8572 -2.1742
 8047SOL     OW27033   3.876   8.841   8.174 -0.0172  0.4763 -0.2294
 8047SOL    HW127034   3.938   8.790   8.122  0.2587  2.4635 -1.9759
 8047SOL    HW227035   3.797   8.787   8.178  1.1024 -1.1790  0.2310
 8048SOL     OW27036   6.276   5.510   1.632  0.9410  0.0118 -0.2990
 8048SOL    HW127037   6.183   5.530   1.626  1.3025  1.6028 -1.1929
 8048SOL    HW227038   6.281   5.434   1.690 -0.8130  0.5620  0.6390
 8049SOL     OW27039   5.726   6.689   1.084 -0.3661  0.2871  0.1514
 8049SOL    HW127040   5.664   6.713   1.014 -1.3546  0.4600  1.0559
 8049SOL    HW227041   5.746   6.772   1.128 -1.9840 -0.1422  1.8280
 8050SOL     OW27042   4.088   2.725   4.406 -0.0984  0.2675 -0.1078
 8050SOL    HW127043   4.161   2.738   4.345  0.8775  3.0579  1.4519
 8050SOL    HW227044   4.126   2.676   4.479  0.0650  1.1109  0.3866
 8051SOL     OW27045   9.084   0.566   6.411 -0.0951 -0.1061 -0.4595
 8051SOL    HW127046   9.039   0.488   6.443  0.7780 -0.8773 -1.0610
 8051SOL    HW227047   9.043   0.639   6.458 -0.5661 -0.9710  0.4993
 8052SOL     OW27048   8.714   5.688   9.786  0.3974 -0.0099  0.3487
 8052SOL    HW127049   8.635   5.716   9.832  2.0819  2.4938  1.9420
 8052SOL    HW227050   8.717   5.743   9.708 -0.2132 -1.2239 -0.5558
 8053SOL     OW27051   6.092   5.343   3.164 -0.1693 -0.2168  0.0860
 8053SOL    HW127052   6.177   5.364   3.127 -0.2163  0.8234  0.5456
 8053SOL    HW227053   6.084   5.248   3.154  1.2313 -0.3889  0.4429
 8054SOL     OW27054   8.373   4.787   9.404 -0.0686  0.0183 -0.4135
 8054SOL    HW127055   8.440   4.725   9.374  1.4941  1.4122  0.0656
 8054SOL    HW227056   8.393   4.801   9.496 -1.3929  0.0326 -0.1145
 8055SOL     OW27057   9.681   2.599   0.891 -0.0955  0.2861  0.2714
 8055SOL    HW127058   9.645   2.667   0.948 -1.1924  0.7710 -0.9692
 8055SOL    HW227059   9.687   2.522   0.947 -0.5312  0.9181  1.2134
 8056SOL     OW27060   9.366   0.524   0.092  0.1032  0.4579  0.2761
 8056SOL    HW127061   9.429   0.454   0.113 -1.1054 -0.8450 -0.2349
 8056SOL    HW227062   9.393   0.598   0.147 -0.9306 -1.6922  4.0897
 8057SOL     OW27063   7.446   8.519   8.311  0.5875 -0.1976  0.0569
 8057SOL    HW127064   7.510   8.581   8.277  1.8984 -1.5809 -0.0869
 8057SOL    HW227065   7.487   8.434   8.301 -1.4026 -1.1720 -0.3007
 8058SOL     OW27066   4.380   8.590   2.850  0.0655 -0.2476  0.3216
 8058SOL    HW127067   4.361   8.612   2.941 -1.9262  0.5688 -0.2309
 8058SOL    HW227068   4.461   8.637   2.830 -1.1816  2.2428  0.7829
 8059SOL     OW27069   0.251   0.658   7.371 -0.1570  0.4371 -0.4975
 8059SOL    HW127070   0.303   0.629   7.296 -1.3805 -1.7232 -0.5785
 8059SOL    HW227071   0.277   0.602   7.443 -2.9827 -1.5046 -0.8001
 8060SOL     OW27072   5.744  10.734   7.465  0.0845 -0.2042 -0.4012
 8060SOL    HW127073   5.787  10.750   7.381  1.9140 -0.1853  0.4783
 8060SOL    HW227074   5.716  10.820   7.495 -0.0432 -0.1357 -0.7135
 8061SOL     OW27075   8.326   4.123   2.384 -0.0591 -0.1789 -0.0688
 8061SOL    HW127076   8.379   4.045   2.364  2.0573  1.1075  0.1686
 8061SOL    HW227077   8.276   4.099   2.462  2.6613 -0.4738  1.7273
 8062SOL     OW27078   1.354   2.534   3.554 -0.0718  0.1285 -0.6347
 8062SOL    HW127079   1.389   2.623   3.559 -0.8969  0.5065 -1.2835
 8062SOL    HW227080   1.296   2.526   3.629 -0.4390  0.3449 -0.8924
 8063SOL     OW27081  10.481   7.913   2.423 -0.7529  0.2755  0.2662
 8063SOL    HW127082  10.496   7.989   2.368 -0.6694 -0.1963 -0.3720
 8063SOL    HW227083  10.554   7.914   2.485 -1.2687  1.2485  0.8896
 8064SOL     OW27084   1.277   0.370   7.324 -0.1267  0.7222  0.0257
 8064SOL    HW127085   1.210   0.438   7.313  0.8309  1.6890  0.0488
 8064SOL    HW227086   1.345   0.412   7.376  1.2687  0.2912 -1.4062
 8065SOL     OW27087   7.695   3.438   0.109  0.0664 -0.0206  0.1554
 8065SOL    HW127088   7.762   3.497   0.076 -1.3356  2.3006  1.1665
 8065SOL    HW227089   7.741   3.379   0.169  1.5663 -0.2237 -1.1479
 8066SOL     OW27090   9.140   1.823  10.383 -0.1971 -0.4660  0.7274
 8066SOL    HW127091   9.058   1.791  10.422 -1.1876  1.4023  0.3051
 8066SOL    HW227092   9.121   1.829  10.289  1.0670 -1.7421  0.3554
 8067SOL     OW27093  10.557   5.571   3.296 -0.1767 -0.3026 -0.2885
 8067SOL    HW127094  10.644   5.533   3.303 -0.5060 -0.9921  0.3352
 8067SOL    HW227095  10.500   5.496   3.275 -0.9872 -0.3877  1.9125
 8068SOL     OW27096   7.092   1.767   3.235  0.1077  0.3853  0.2142
 8068SOL    HW127097   7.069   1.689   3.285 -0.1671  0.5012  0.2738
 8068SOL    HW227098   7.159   1.810   3.287 -0.0403  0.4057  0.3893
 8069SOL     OW27099  10.002   0.613  10.171  0.0119  0.6878 -0.2256
 8069SOL    HW127100   9.953   0.655  10.242 -0.6053  0.5563 -0.5644
 8069SOL    HW227101  10.094   0.620  10.197 -0.1921  0.8825  0.4534
 8070SOL     OW27102   4.857   3.908   4.571  0.1288  0.1511 -0.0343
 8070SOL    HW127103   4.825   3.820   4.554  1.4103 -1.1701  3.4841
 8070SOL    HW227104   4.944   3.910   4.531  0.4389 -0.5185  0.5933
 8071SOL     OW27105   3.317  10.339   9.265 -0.1111  0.4406 -0.2529
 8071SOL    HW127106   3.281  10.250   9.268 -0.4455  0.5753  2.5801
 8071SOL    HW227107   3.242  10.395   9.247 -0.3633  0.3075  0.3584
 8072SOL     OW27108   6.894   9.467   6.921  0.4648  0.0637 -0.5691
 8072SOL    HW127109   6.847   9.389   6.952 -0.6218  0.8843 -0.1213
 8072SOL    HW227110   6.835   9.505   6.855  0.2037  1.4327  0.4206
 8073SOL     OW27111   8.539   2.634   3.836 -0.8723  0.0096  0.4266
 8073SOL    HW127112   8.607   2.676   3.889  1.3112  0.8584 -2.7303
 8073SOL    HW227113   8.480   2.705   3.811  2.1924  1.4955 -3.9690
 8074SOL     OW27114   1.809  10.387   4.015 -0.3317  0.1997 -0.3469
 8074SOL    HW127115   1.890  10.368   3.966 -0.7703 -1.6727 -0.4246
 8074SOL    HW227116   1.758  10.441   3.955  0.3319  0.3327 -0.8129
 8075SOL     OW27117   1.498   5.476   9.534  0.9229 -0.5105  0.0528
 8075SOL    HW127118   1.514   5.470   9.440 -0.2439 -1.5245 -0.1072
 8075SOL    HW227119   1.509   5.569   9.555 -1.0340  0.1461 -1.5334
 8076SOL     OW27120   7.337   5.117   9.172  0.4720 -0.5420  0.0347
 8076SOL    HW127121   7.306   5.206   9.155  0.0712 -0.4173  1.3268
 8076SOL    HW227122   7.298   5.094   9.256  0.9847 -1.7528 -0.0472
 8077SOL     OW27123   2.204   3.188   0.601  0.1186 -0.3196  0.0354
 8077SOL    HW127124   2.248   3.231   0.675  0.3407 -0.5039  0.0099
 8077SOL    HW227125   2.114   3.219   0.606  0.2233 -0.0310  0.1577
 8078SOL     OW27126   2.364   0.483   7.882 -0.0317 -0.0737 -0.5081
 8078SOL    HW127127   2.288   0.523   7.924 -0.5836 -1.9907  0.4259
 8078SOL    HW227128   2.343   0.483   7.788 -1.0525 -0.2761 -0.2922
 8079SOL     OW27129  10.699   6.534   7.331  0.3064  0.1442  0.2559
 8079SOL    HW127130  10.773   6.502   7.280  0.8372 -0.9621  1.6584
 8079SOL    HW227131  10.641   6.459   7.339  0.0417  0.4144  0.9417
 8080SOL     OW27132  10.722   5.676   2.776  0.3764  0.5578 -0.0888
 8080SOL    HW127133  10.698   5.681   2.868  0.2785  0.1921 -0.0952
 8080SOL    HW227134  10.794   5.612   2.773  0.4594  0.6566 -0.2494
 8081SOL     OW27135   6.038   6.389   8.899 -0.7670 -0.3803  0.1844
 8081SOL    HW127136   6.001   6.329   8.963  0.4278 -1.1940  0.1432
 8081SOL    HW227137   5.963   6.438   8.866 -1.4457 -0.1289  1.9886
 8082SOL     OW27138   6.878   3.498   2.743  0.4540 -0.5143  0.0772
 8082SOL    HW127139   6.824   3.545   2.805  0.8226  0.9971 -0.6997
 8082SOL    HW227140   6.827   3.497   2.662  0.3249 -1.7543  0.1429
 8083SOL     OW27141   0.876   6.742   7.078 -0.3977  0.8957  0.1124
 8083SOL    HW127142   0.850   6.650   7.069  0.4627  0.6895 -0.3499
 8083SOL    HW227143   0.801   6.784   7.120 -0.3597 -0.2441  1.4099
 8084SOL     OW27144   6.971   1.033   5.848 -0.6786 -0.4436 -0.4256
 8084SOL    HW127145   6.953   1.053   5.756 -0.1492  1.0140 -0.2408
 8084SOL    HW227146   7.066   1.019   5.851 -0.5367  0.5655  0.0657
 8085SOL     OW27147   4.037   8.485   7.916 -0.5032 -0.2169  0.3066
 8085SOL    HW127148   4.026   8.486   8.011 -0.5301 -1.2202  0.3257
 8085SOL    HW227149   4.016   8.395   7.891 -0.8453  0.1371 -0.6947
 8086SOL     OW27150   8.457   0.687   6.690  0.1496 -0.0048  0.6857
 8086SOL    HW127151   8.476   0.652   6.777 -0.0502 -2.2687 -0.1132
 8086SOL    HW227152   8.529   0.657   6.636 -1.6488 -2.1248 -0.7333
 8087SOL     OW27153   0.231   4.794   1.172 -0.5934  0.4986 -0.1957
 8087SOL    HW127154   0.149   4.835   1.198 -1.6258 -1.3733 -0.3080
 8087SOL    HW227155   0.241   4.720   1.233  1.2482  0.9291  0.0947
 8088SOL     OW27156   8.349   5.451   6.822 -0.6087 -0.0562  0.0779
 8088SOL    HW127157   8.376   5.477   6.911 -1.4698 -1.3080  0.7256
 8088SOL    HW227158   8.352   5.533   6.772 -0.4500  0.7416  1.3426
 8089SOL     OW27159   0.951   0.474   3.634 -0.1188  0.3140 -0.5868
 8089SOL    HW127160   0.973   0.425   3.555  2.0968  1.0389 -0.5109
 8089SOL    HW227161   1.013   0.443   3.700 -1.0412  0.6857  0.4909
 8090SOL     OW27162   6.853   9.146   9.901  0.0055 -0.4851  0.0014
 8090SOL    HW127163   6.814   9.225   9.938  0.6324 -0.6953  1.1570
 8090SOL    HW227164   6.824   9.075   9.958  1.4034 -0.7524  0.4389
 8091SOL     OW27165   2.493   1.794   0.709 -0.0254 -0.3398 -0.1232
 8091SOL    HW127166   2.413   1.811   0.759 -0.1777 -3.0269  0.6755
 8091SOL    HW227167   2.476   1.835   0.623 -1.5420  0.5656  0.5601
 8092SOL     OW27168   8.326   1.827   6.267  0.1980 -0.1124 -0.2822
 8092SOL    HW127169   8.267   1.752   6.261  1.0001 -0.6389 -2.3445
 8092SOL    HW227170   8.278   1.899   6.225  0.6266 -0.2960 -1.1030
 8093SOL     OW27171   7.898  10.329  10.580  0.2216  0.3873  0.3385
 8093SOL    HW127172   7.812  10.293  10.554 -0.2532 -0.2250  2.5387
 8093SOL    HW227173   7.884  10.423  10.585 -0.3206  0.2998  0.5920
 8094SOL     OW27174   8.831   7.390   6.207  0.2012  0.1833 -0.3197
 8094SOL    HW127175   8.843   7.322   6.141 -0.8176 -0.1781 -0.1367
 8094SOL    HW227176   8.802   7.467   6.157  0.3767  0.1975 -0.4014
 8095SOL     OW27177   6.387  10.402   6.129  0.2958 -0.6000 -0.0386
 8095SOL    HW127178   6.327  10.391   6.055  0.4535 -0.8873 -0.1272
 8095SOL    HW227179   6.375  10.324   6.182  0.2911 -0.4631  0.1631
 8096SOL     OW27180  10.200   2.128  10.541  0.3753  0.3310  0.0802
 8096SOL    HW127181  10.179   2.041  10.575 -1.3310  0.7958  0.3324
 8096SOL    HW227182  10.233   2.112  10.453 -3.8847 -0.4795 -1.6286
 8097SOL     OW27183   5.684   2.128   8.392 -0.5462 -0.2038 -0.3440
 8097SOL    HW127184   5.616   2.065   8.413  0.9826 -1.3808  1.3556
 8097SOL    HW227185   5.733   2.089   8.320 -0.6817 -0.1256 -0.4781
 8098SOL     OW27186   2.340   4.945   9.826  0.0479 -0.1992  0.5952
 8098SOL    HW127187   2.293   4.993   9.894 -2.8598 -0.7015 -0.9058
 8098SOL    HW227188   2.341   4.854   9.857 -1.0862 -0.3905  0.1247
 8099SOL     OW27189  10.592   4.063   0.779  0.3033 -1.0648  0.0296
 8099SOL    HW127190  10.630   3.979   0.804  1.8613 -0.2496  0.5795
 8099SOL    HW227191  10.505   4.042   0.746 -0.3682 -2.6266  2.5488
 8100SOL     OW27192   2.237   0.912   4.847 -0.2866 -0.1456  0.3927
 8100SOL    HW127193   2.151   0.883   4.875  0.4536 -4.0460 -0.7469
 8100SOL    HW227194   2.251   0.869   4.763  3.0906 -0.4034  0.9242
 8101SOL     OW27195   7.822   7.414   5.664  0.3297  0.0780 -0.1665
 8101SOL    HW127196   7.749   7.397   5.605  0.7761  1.3526 -1.1495
 8101SOL    HW227197   7.885   7.462   5.610  1.6461 -0.4920  0.8080
 8102SOL     OW27198   6.048   7.454   6.449 -0.6756  0.4374 -0.0303
 8102SOL    HW127199   6.039   7.362   6.474  2.4500  0.2551  0.8786
 8102SOL    HW227200   6.029   7.503   6.529  0.5240  0.3680  0.3182
 8103SOL     OW27201   8.365   1.586  10.779 -0.8856 -0.1644 -0.2758
 8103SOL    HW127202   8.380   1.604  10.686  2.4994  2.4001  0.5590
 8103SOL    HW227203   8.278   1.622  10.797 -1.2359  0.0931 -2.2572
 8104SOL     OW27204   5.530   9.110   0.936 -0.1623 -0.1440  0.0195
 8104SOL    HW127205   5.554   9.019   0.953 -1.9168 -0.6141  0.1549
 8104SOL    HW227206   5.580   9.133   0.858  1.1188 -0.8665  0.5956
 8105SOL     OW27207   5.790   5.021   0.970 -0.0875 -0.3288 -0.3869
 8105SOL    HW127208   5.854   5.017   0.898 -0.1897  0.2378 -0.5173
 8105SOL    HW227209   5.800   5.109   1.005 -0.6873 -0.2923 -0.3020
 8106SOL     OW27210   5.687   2.391   5.714  0.0325  0.1126  1.0618
 8106SOL    HW127211   5.683   2.299   5.690  0.7061  0.5883 -1.0544
 8106SOL    HW227212   5.596   2.417   5.725 -0.3858 -0.1073 -1.3750
 8107SOL     OW27213   7.453   9.034   1.344 -0.1395 -0.2542 -0.2930
 8107SOL    HW127214   7.481   9.000   1.429 -1.0914  0.3769  0.2780
 8107SOL    HW227215   7.477   9.126   1.346 -1.7909  0.1950  0.0249
 8108SOL     OW27216   5.784   3.201   3.293  0.2739 -0.0795  0.6132
 8108SOL    HW127217   5.807   3.164   3.208  0.8856 -0.6072  1.0044
 8108SOL    HW227218   5.696   3.239   3.279 -0.6597 -2.2153  0.3677
 8109SOL     OW27219   2.946   2.450   1.900 -0.2376 -0.0174 -0.0195
 8109SOL    HW127220   3.026   2.485   1.937 -0.9930  1.2686  0.4608
 8109SOL    HW227221   2.929   2.505   1.823 -2.5762  2.2229  1.9361
 8110SOL     OW27222   7.718   7.682   8.392  0.3633  0.4806  0.3232
 8110SOL    HW127223   7.625   7.677   8.414  0.2464  0.0498 -0.2412
 8110SOL    HW227224   7.740   7.593   8.365  0.6201  0.8608 -0.7767
 8111SOL     OW27225   2.307   5.617   4.950 -0.3133 -0.7870 -0.6338
 8111SOL    HW127226   2.283   5.709   4.942 -0.0972 -0.5712  0.8366
 8111SOL    HW227227   2.389   5.609   4.901 -0.3009 -0.1744 -0.7138
 8112SOL     OW27228   4.678   7.326   9.150 -0.2310 -0.0745 -0.1603
 8112SOL    HW127229   4.605   7.369   9.194 -1.0829 -0.3124 -1.2746
 8112SOL    HW227230   4.640   7.294   9.068  0.7183 -1.6854 -0.0132
 8113SOL     OW27231   4.275  10.024   7.587 -0.0925 -0.0361  0.0439
 8113SOL    HW127232   4.300  10.060   7.502  0.7682 -2.3758 -0.7688
 8113SOL    HW227233   4.357  10.011   7.634 -0.2625 -1.7912 -0.0886
 8114SOL     OW27234   8.851  10.289   7.080 -0.2513  0.2842 -0.1608
 8114SOL    HW127235   8.843  10.200   7.044 -0.9600  0.2550  0.0416
 8114SOL    HW227236   8.776  10.297   7.139  0.0469  0.8725  0.1443
 8115SOL     OW27237   2.484   3.283   3.262 -0.7797  0.1759 -0.5414
 8115SOL    HW127238   2.504   3.251   3.350 -2.7202 -1.4620 -0.6256
 8115SOL    HW227239   2.428   3.359   3.277 -0.7542  0.1598 -0.3605
 8116SOL     OW27240   6.420   7.075   6.965  0.0214  0.3194 -0.1427
 8116SOL    HW127241   6.488   7.139   6.984 -0.7181  0.9065  0.6135
 8116SOL    HW227242   6.395   7.093   6.874  1.2899 -0.3251 -0.6454
 8117SOL     OW27243   0.869   9.226  10.766  0.0206  0.2054  0.2038
 8117SOL    HW127244   0.936   9.293  10.779  1.2721 -1.1957  1.2462
 8117SOL    HW227245   0.824   9.253  10.686 -0.3080  2.8990  1.1745
 8118SOL     OW27246  10.420   4.132   1.871 -0.3192  0.2030  0.2264
 8118SOL    HW127247  10.359   4.154   1.801 -0.7515  0.6478  0.7357
 8118SOL    HW227248  10.372   4.071   1.926  0.3103 -0.7898 -0.3027
 8119SOL     OW27249   5.221  10.063   9.801 -0.4701 -0.3240  0.2798
 8119SOL    HW127250   5.229   9.982   9.750 -1.8741 -0.4804  0.2669
 8119SOL    HW227251   5.309  10.098   9.804  0.0194 -1.4371 -0.4210
 8120SOL     OW27252   3.567   2.188   7.083  0.3651 -0.4752 -0.9992
 8120SOL    HW127253   3.643   2.182   7.141 -0.2082 -0.4563 -0.2189
 8120SOL    HW227254   3.595   2.146   7.002  1.3268 -0.1272 -0.8579
 8121SOL     OW27255   2.967   3.673   6.912  0.7168 -0.3491  0.2721
 8121SOL    HW127256   3.061   3.655   6.919  0.8983 -2.5306 -4.0375
 8121SOL    HW227257   2.959   3.767   6.926  3.6100 -0.0352  0.4320
 8122SOL     OW27258   6.307   2.543   5.930  0.2903  0.0549 -0.7896
 8122SOL    HW127259   6.248   2.481   5.888 -0.2865  0.4001 -0.4956
 8122SOL    HW227260   6.349   2.589   5.858  0.7478 -0.6957 -1.0114
 8123SOL     OW27261   5.293   7.806   5.157  0.0843  0.1380  0.1799
 8123SOL    HW127262   5.272   7.733   5.215 -1.7162 -0.3849 -1.0308
 8123SOL    HW227263   5.209   7.848   5.140  0.4306 -0.0472 -2.3874
 8124SOL     OW27264   2.167   3.260   1.756 -0.3367 -0.0324  0.4831
 8124SOL    HW127265   2.220   3.189   1.792  1.1868  0.1984 -1.1780
 8124SOL    HW227266   2.085   3.218   1.731  1.0768 -1.6597 -1.9068
 8125SOL     OW27267   4.349   1.124   9.428  0.1721 -0.3034 -0.3490
 8125SOL    HW127268   4.339   1.029   9.434  0.8926 -0.3684 -0.0903
 8125SOL    HW227269   4.403   1.138   9.351 -1.4437  0.0214 -1.4862
 8126SOL     OW27270   0.259   0.327   2.305  0.1630 -0.0985  0.2182
 8126SOL    HW127271   0.164   0.322   2.316  0.2391 -0.7048  0.6627
 8126SOL    HW227272   0.294   0.291   2.387  0.7681 -1.4563 -0.5999
 8127SOL     OW27273   7.085   9.545   0.615  0.0340  0.3568 -0.0460
 8127SOL    HW127274   6.998   9.581   0.601 -0.4588 -0.9697 -0.5137
 8127SOL    HW227275   7.130   9.555   0.531  0.0254  0.2377 -0.0656
 8128SOL     OW27276   5.069   7.912   5.071  0.2352  0.0271 -0.2105
 8128SOL    HW127277   5.040   7.966   4.997 -0.3583  0.6950  0.4936
 8128SOL    HW227278   4.994   7.910   5.130 -0.0633 -2.2324 -0.5556
 8129SOL     OW27279   5.650   9.195   7.209  0.3916  0.2201 -0.4745
 8129SOL    HW127280   5.686   9.278   7.239  0.9284  0.4262 -1.6288
 8129SOL    HW227281   5.556   9.202   7.224  0.1240  1.8915 -2.4141
 8130SOL     OW27282   1.055   7.110   4.435  0.4989  0.0507  0.3002
 8130SOL    HW127283   0.968   7.135   4.468  0.2954 -1.1971  0.7719
 8130SOL    HW227284   1.092   7.056   4.504  0.0023 -2.7802 -1.4773
 8131SOL     OW27285   8.577   0.756   5.888  0.0391  0.3708 -0.1782
 8131SOL    HW127286   8.651   0.749   5.827  0.8432 -1.8030  0.9566
 8131SOL    HW227287   8.617   0.744   5.974 -1.6307 -0.9311  0.4542
 8132SOL     OW27288   3.606   7.997   6.639 -0.5710  0.0247 -0.1795
 8132SOL    HW127289   3.594   7.939   6.564 -2.2234  0.0176  0.0647
 8132SOL    HW227290   3.518   8.020   6.667  0.0197  0.7697  1.2037
 8133SOL     OW27291   0.011   9.841   4.636 -0.6977 -0.3189 -0.0317
 8133SOL    HW127292  -0.030   9.921   4.604  0.2554  0.1527 -0.1376
 8133SOL    HW227293   0.091   9.833   4.583  0.7568  0.2936  1.9680
 8134SOL     OW27294   7.297   9.309   0.680 -0.2953 -0.2099  0.0981
 8134SOL    HW127295   7.249   9.390   0.661 -1.8862 -1.1192  0.1119
 8134SOL    HW227296   7.312   9.311   0.774  0.4078  0.4414 -0.0154
 8135SOL     OW27297   5.675   9.617   2.887 -0.2038  0.0680  0.7431
 8135SOL    HW127298   5.717   9.669   2.819 -0.4085  0.9952  1.3094
 8135SOL    HW227299   5.695   9.526   2.864 -1.2889  0.2831 -1.2339
 8136SOL     OW27300   0.777   2.263   3.820 -0.0325  0.6106 -0.2342
 8136SOL    HW127301   0.844   2.279   3.754  1.0328 -0.2822  0.6024
 8136SOL    HW227302   0.729   2.186   3.788  0.1869  0.4583 -0.1995
 8137SOL     OW27303   7.762   9.912   8.307 -0.1133 -0.0929 -0.1902
 8137SOL    HW127304   7.696   9.907   8.238 -0.6279 -2.5954  0.3673
 8137SOL    HW227305   7.835   9.960   8.268 -1.4825  1.0430 -1.4662
 8138SOL     OW27306   7.161   6.111   2.046 -0.0880  0.7231 -0.4847
 8138SOL    HW127307   7.077   6.065   2.054  0.6059 -0.5373 -0.0486
 8138SOL    HW227308   7.218   6.067   2.110  0.8271  1.7306 -0.5880
 8139SOL     OW27309   1.458   5.103   0.375  0.3560  0.4413  0.3611
 8139SOL    HW127310   1.531   5.092   0.435 -0.0820 -0.8297  0.7040
 8139SOL    HW227311   1.495   5.087   0.288  0.5734  0.1812  0.5007
 8140SOL     OW27312   0.251   3.317   6.696 -0.5520  0.2413  0.1218
 8140SOL    HW127313   0.178   3.255   6.697  0.8261 -1.4604  0.3732
 8140SOL    HW227314   0.285   3.311   6.607  0.1392 -0.0626  0.3993
 8141SOL     OW27315   6.789   1.856   0.334  0.5970  0.3890  0.0601
 8141SOL    HW127316   6.808   1.772   0.293  1.9526  0.4555  0.5017
 8141SOL    HW227317   6.758   1.834   0.422 -1.9626  0.2625 -0.7887
 8142SOL     OW27318  10.032   9.606   6.464 -0.0001 -0.5375  0.0421
 8142SOL    HW127319  10.029   9.655   6.382 -1.4232 -0.6894 -0.0201
 8142SOL    HW227320  10.107   9.548   6.455  0.1564 -0.2005 -0.9484
 8143SOL     OW27321   2.291   9.535   3.010  0.0379  0.0161 -0.8622
 8143SOL    HW127322   2.283   9.462   3.071 -1.5430 -0.5133 -1.6326
 8143SOL    HW227323   2.333   9.604   3.060 -1.0286 -0.4607  0.7735
 8144SOL     OW27324   1.541   7.712   4.354  1.2230  0.2693 -0.0594
 8144SOL    HW127325   1.587   7.763   4.422  0.4900  0.5404  0.2411
 8144SOL    HW227326   1.473   7.771   4.322  2.4850  0.6892 -2.1018
 8145SOL     OW27327   1.003   4.559   0.194  0.1328  0.5273 -0.2673
 8145SOL    HW127328   1.037   4.619   0.261 -0.1691  0.8561 -0.4080
 8145SOL    HW227329   0.917   4.532   0.227 -0.1087  0.8562 -0.6260
 8146SOL     OW27330  10.722   2.202   4.836  0.6325 -0.4845 -0.1116
 8146SOL    HW127331  10.656   2.201   4.766  0.1796  0.3926  0.2763
 8146SOL    HW227332  10.780   2.129   4.816  0.3782 -0.3884 -1.2750
 8147SOL     OW27333   5.879   4.012   0.021  0.1962 -0.1349 -0.1559
 8147SOL    HW127334   5.970   3.984   0.033 -0.9015 -3.7766  0.9519
 8147SOL    HW227335   5.867   4.013  -0.074  1.7195  2.0259 -0.4138
 8148SOL     OW27336   1.116   9.844   0.218 -0.2121  0.1425 -1.1250
 8148SOL    HW127337   1.050   9.899   0.175 -0.0707 -0.0204 -1.5478
 8148SOL    HW227338   1.150   9.900   0.289 -1.1805  0.0353 -0.5559
 8149SOL     OW27339   5.708   9.924   9.751  0.1038 -0.1968 -0.6046
 8149SOL    HW127340   5.759  10.002   9.772  0.7573 -0.7586 -0.0510
 8149SOL    HW227341   5.652   9.910   9.827 -1.3820  0.7891 -1.4776
 8150SOL     OW27342   4.264   4.588   0.556 -0.2717  0.2757 -0.3714
 8150SOL    HW127343   4.318   4.590   0.635  0.6107  1.7726 -0.9603
 8150SOL    HW227344   4.236   4.679   0.544 -0.1749  0.1291 -1.9150
 8151SOL     OW27345  10.584   1.303   1.158  0.4774  0.1404 -0.4513
 8151SOL    HW127346  10.557   1.321   1.248 -0.9272 -2.0753 -0.3406
 8151SOL    HW227347  10.658   1.243   1.167  1.4651  1.2740 -0.8028
 8152SOL     OW27348   6.953   6.942   1.315 -0.4700 -0.5511  0.6260
 8152SOL    HW127349   6.961   7.000   1.391 -0.4922  1.6036 -0.9217
 8152SOL    HW227350   7.031   6.887   1.318  0.9365  1.3895  0.7265
 8153SOL     OW27351   3.665   9.982   3.964  0.2848 -0.4242  0.1381
 8153SOL    HW127352   3.605  10.036   4.016 -0.0713 -1.7830  1.1878
 8153SOL    HW227353   3.668  10.026   3.879 -1.9926 -0.1578  0.1218
 8154SOL     OW27354   2.240   8.052   1.907  0.4658  0.4435  0.2509
 8154SOL    HW127355   2.173   8.070   1.841  0.5707 -0.0358  0.0121
 8154SOL    HW227356   2.259   8.138   1.946 -1.7240  0.3333  1.7115
 8155SOL     OW27357   7.206   2.258   2.062 -0.2308  0.1477 -0.2065
 8155SOL    HW127358   7.112   2.253   2.042 -0.3576 -0.4014  0.4977
 8155SOL    HW227359   7.248   2.216   1.987 -0.5180  0.7058 -0.6935
 8156SOL     OW27360   3.966   3.329   5.389 -0.4941 -0.1448 -0.2528
 8156SOL    HW127361   3.947   3.407   5.337 -0.2535  1.0095  1.2864
 8156SOL    HW227362   3.918   3.259   5.346 -1.3501  1.0129 -1.2620
 8157SOL     OW27363   0.191   4.079   9.584 -0.0664 -0.1926 -0.1990
 8157SOL    HW127364   0.256   4.120   9.527  0.9849 -0.5469  0.6995
 8157SOL    HW227365   0.194   3.986   9.560  0.4804 -0.3649  0.5093
 8158SOL     OW27366   8.585   4.633   1.209 -0.0954 -0.2544  0.3136
 8158SOL    HW127367   8.570   4.557   1.152  0.6412 -0.8451  0.8905
 8158SOL    HW227368   8.504   4.683   1.203 -0.5575 -1.0331 -0.1609
 8159SOL     OW27369   6.444   2.763   1.075  0.0856  0.4358 -0.7420
 8159SOL    HW127370   6.501   2.806   1.138  0.8981 -0.3320 -0.9458
 8159SOL    HW227371   6.382   2.832   1.048 -1.1476  0.4441  1.8664
 8160SOL     OW27372   0.972   4.626   5.986  0.3583 -0.8514 -0.6699
 8160SOL    HW127373   0.919   4.662   5.915 -1.2109  1.6114  1.5714
 8160SOL    HW227374   0.912   4.571   6.036  0.7840 -0.7281  0.0000
 8161SOL     OW27375  10.123   0.240   1.177 -0.4605 -0.2157  0.4508
 8161SOL    HW127376  10.207   0.220   1.137  0.0367 -0.2602  1.4926
 8161SOL    HW227377  10.144   0.295   1.252 -0.9248 -3.1055  2.9273
 8162SOL     OW27378   5.679   6.949   7.187 -0.6901  0.0001  0.5483
 8162SOL    HW127379   5.731   6.981   7.260 -1.3281 -2.2622  2.0805
 8162SOL    HW227380   5.619   7.022   7.166  0.7037  1.3348  1.0313
 8163SOL     OW27381  10.251   3.551   0.930 -0.5226 -0.5473 -0.3412
 8163SOL    HW127382  10.302   3.557   0.849  0.7594 -1.6297  0.3338
 8163SOL    HW227383  10.176   3.497   0.906  1.3346 -3.4525 -0.2377
 8164SOL     OW27384   2.403   5.655   6.057  0.6289  0.2751 -0.6309
 8164SOL    HW127385   2.366   5.580   6.103  1.3737 -0.3433 -1.0172
 8164SOL    HW227386   2.348   5.729   6.084 -0.0939 -0.3952 -0.2205
 8165SOL     OW27387   9.288   7.114   1.144  0.3638 -0.1891 -0.2219
 8165SOL    HW127388   9.344   7.134   1.219  1.0997 -1.6197 -0.3529
 8165SOL    HW227389   9.349   7.084   1.076 -0.3585  0.4530 -1.1773
 8166SOL     OW27390   2.603   1.374   0.822  0.1753  0.4174  0.4625
 8166SOL    HW127391   2.630   1.299   0.874 -0.1008  0.5779  0.8408
 8166SOL    HW227392   2.518   1.349   0.785  1.3761 -0.6448 -1.8525
 8167SOL     OW27393  10.598   6.832   5.339 -0.3176 -0.1512 -0.1863
 8167SOL    HW127394  10.653   6.910   5.329 -2.6064  1.3416 -2.4812
 8167SOL    HW227395  10.626   6.773   5.270 -0.9800  0.2589 -0.8230
 8168SOL     OW27396   3.900   9.605   4.844  0.3796  1.4927 -0.2583
 8168SOL    HW127397   3.897   9.687   4.795 -0.2027  1.5331 -0.1556
 8168SOL    HW227398   3.813   9.595   4.881  0.6862  1.2455  0.4209
 8169SOL     OW27399   9.490   0.129   0.350 -0.7128  0.4374  0.5174
 8169SOL    HW127400   9.404   0.133   0.392 -1.2672  0.6242 -0.5949
 8169SOL    HW227401   9.548   0.091   0.417 -1.6569  0.2846  1.2682
 8170SOL     OW27402   0.770   4.995   6.787 -0.2942  0.2124 -0.2923
 8170SOL    HW127403   0.841   5.011   6.849 -1.2225 -0.4369  1.0100
 8170SOL    HW227404   0.708   4.941   6.836 -1.6919  0.7667 -1.3735
 8171SOL     OW27405   8.400   3.380  10.300  0.1864 -0.1283  0.2685
 8171SOL    HW127406   8.421   3.354  10.210 -0.0915 -0.1117  0.1989
 8171SOL    HW227407   8.464   3.448  10.320  2.6137 -2.5222  1.3417
 8172SOL     OW27408   2.140   9.003   1.267 -0.4955 -0.1816  0.1049
 8172SOL    HW127409   2.138   9.087   1.222  0.5283 -0.5071 -0.5720
 8172SOL    HW227410   2.135   8.937   1.198  1.2489 -0.6867  0.4107
 8173SOL     OW27411   8.581   4.212   3.338  0.3167 -0.3264  0.3794
 8173SOL    HW127412   8.654   4.246   3.389  0.8661 -2.1755  0.9192
 8173SOL    HW227413   8.621   4.147   3.280 -0.9269 -1.6317  0.9277
 8174SOL     OW27414   6.878   2.900   8.230 -0.3408 -0.5330  0.4001
 8174SOL    HW127415   6.859   2.994   8.221  0.7276 -0.2057  1.2646
 8174SOL    HW227416   6.792   2.858   8.230 -0.7856  0.2476 -1.7156
 8175SOL     OW27417   3.246   3.019   8.212 -0.2933 -0.1758 -0.6622
 8175SOL    HW127418   3.210   3.047   8.128 -0.3830  0.3223 -0.4627
 8175SOL    HW227419   3.338   2.998   8.193 -0.1791  0.4202 -0.7825
 8176SOL     OW27420   6.431   8.207   7.024  0.1072  0.1469 -0.7412
 8176SOL    HW127421   6.483   8.127   7.016  0.7695  0.0560  3.0266
 8176SOL    HW227422   6.340   8.177   7.023  0.2459 -0.2891 -2.0763
 8177SOL     OW27423   9.513   6.084   0.702  0.4161  1.1952 -0.2509
 8177SOL    HW127424   9.508   6.007   0.646 -3.3684  1.2353 -0.2162
 8177SOL    HW227425   9.592   6.070   0.755  1.8204 -0.8367 -2.6635
 8178SOL     OW27426   0.073   2.366   6.739 -0.2319 -0.3028  0.2000
 8178SOL    HW127427   0.044   2.294   6.683 -0.4162  0.8140 -1.1891
 8178SOL    HW227428   0.167   2.373   6.722 -0.6174  1.3437 -1.6103
 8179SOL     OW27429   9.209   9.019   9.605 -0.0039  0.1742  0.0596
 8179SOL    HW127430   9.262   9.098   9.596  1.6054 -0.7995  0.5685
 8179SOL    HW227431   9.172   9.005   9.518 -0.2741  1.4247 -0.0531
 8180SOL     OW27432   2.964   7.367   9.609  0.1550 -0.3652  0.8710
 8180SOL    HW127433   2.991   7.355   9.518  0.3811  1.3629  0.6744
 8180SOL    HW227434   2.874   7.334   9.612 -0.1839  0.4058 -0.2247
 8181SOL     OW27435   1.451   6.278   9.864  0.3194 -0.0828  0.7710
 8181SOL    HW127436   1.499   6.338   9.807  0.9302 -0.8792  0.4253
 8181SOL    HW227437   1.407   6.218   9.804 -0.9133  0.4667  1.0922
 8182SOL     OW27438   8.900   3.580   4.305 -0.1057 -0.1384 -0.6135
 8182SOL    HW127439   8.887   3.670   4.272  1.8554  0.3140 -0.2357
 8182SOL    HW227440   8.929   3.591   4.395 -0.9227 -1.2306 -0.1888
 8183SOL     OW27441   5.832   1.321   4.350 -0.1586  0.1675  0.2377
 8183SOL    HW127442   5.906   1.264   4.369  0.1583  0.9605  1.4983
 8183SOL    HW227443   5.854   1.362   4.266  1.9603  2.0832  1.6005
 8184SOL     OW27444   0.355   7.954   3.931 -0.5663 -0.2000 -0.0064
 8184SOL    HW127445   0.420   7.954   3.861 -0.4967  1.2019  0.0477
 8184SOL    HW227446   0.273   7.929   3.889 -0.4960  0.4980 -0.5665
 8185SOL     OW27447   2.409   7.895   6.040 -0.3151 -0.1224 -0.2236
 8185SOL    HW127448   2.334   7.855   5.996  0.6565 -1.1959 -0.9764
 8185SOL    HW227449   2.483   7.878   5.982  0.2608  2.3966 -0.3330
 8186SOL     OW27450   5.951   8.998   3.803  0.2331 -0.1159 -0.4434
 8186SOL    HW127451   6.002   9.079   3.806  0.0378 -0.0014 -0.2272
 8186SOL    HW227452   5.986   8.951   3.727  1.2345 -0.4135  0.1749
 8187SOL     OW27453   2.145   0.212   2.726 -0.2759  0.2083  0.2364
 8187SOL    HW127454   2.187   0.127   2.739  0.4308  0.7522  1.8910
 8187SOL    HW227455   2.215   0.269   2.696  0.0234  0.8897  2.0722
 8188SOL     OW27456  10.419   6.840   9.320  0.0847  0.0913 -0.0953
 8188SOL    HW127457  10.493   6.795   9.360  0.0683  0.3753  0.2589
 8188SOL    HW227458  10.407   6.919   9.373 -1.2786 -0.5908  0.6469
 8189SOL     OW27459  10.563   5.447   8.275  0.4441  0.3646  0.0578
 8189SOL    HW127460  10.520   5.362   8.260  1.4041  0.2891 -2.8092
 8189SOL    HW227461  10.496   5.501   8.316 -0.5524 -1.4136  0.8868
 8190SOL     OW27462   0.255   3.106   7.597  0.0403 -0.5654 -0.5036
 8190SOL    HW127463   0.168   3.091   7.635  0.2282 -0.0229  0.1500
 8190SOL    HW227464   0.288   3.018   7.579 -0.1855 -0.8251  0.2958
 8191SOL     OW27465   1.388   3.940   2.173 -0.0238 -0.0210 -0.0118
 8191SOL    HW127466   1.386   4.035   2.173 -1.0624 -0.0290  0.0191
 8191SOL    HW227467   1.356   3.915   2.086  1.1195 -0.3419 -0.3511
 8192SOL     OW27468   2.507   0.061   6.143 -0.0524  0.4115  0.0657
 8192SOL    HW127469   2.418   0.079   6.173  0.6847  0.3113  2.5245
 8192SOL    HW227470   2.550   0.146   6.142  0.0310  0.3650 -0.4122
 8193SOL     OW27471   0.521  10.409   5.244  0.6369 -0.5031 -0.0113
 8193SOL    HW127472   0.439  10.386   5.202 -0.0561 -0.4500  1.2470
 8193SOL    HW227473   0.513  10.376   5.334  1.1925  1.1542  0.7022
 8194SOL     OW27474   0.735   0.069   6.452 -0.2686  0.6477  0.2407
 8194SOL    HW127475   0.741   0.026   6.367 -0.5819 -0.3377  0.7004
 8194SOL    HW227476   0.668   0.136   6.441  0.2700  1.0707 -0.5089
 8195SOL     OW27477   7.724   6.241   5.510 -0.6379  0.3552 -0.3131
 8195SOL    HW127478   7.705   6.254   5.418 -2.1659 -1.3788 -0.3053
 8195SOL    HW227479   7.723   6.329   5.548  0.6104  1.1605 -2.0036
 8196SOL     OW27480   8.470   9.618   9.224 -0.4886  0.1503  0.5247
 8196SOL    HW127481   8.450   9.708   9.248 -1.4957 -0.1002  0.6792
 8196SOL    HW227482   8.384   9.577   9.212 -0.0899 -0.1577 -1.9549
 8197SOL     OW27483   2.337   5.600   1.011 -0.0451  0.2626 -0.0892
 8197SOL    HW127484   2.364   5.540   0.941  0.1293  0.9301 -0.5974
 8197SOL    HW227485   2.312   5.542   1.083  3.0276 -0.4809  0.5658
 8198SOL     OW27486   2.218   5.499  10.714 -0.1064  0.0111  0.0634
 8198SOL    HW127487   2.163   5.421  10.706  1.9145 -1.4819 -0.0008
 8198SOL    HW227488   2.225   5.514  10.808 -2.1186  1.3936  0.0521
 8199SOL     OW27489   1.427  10.311   3.187 -0.2336  0.0623  0.5714
 8199SOL    HW127490   1.417  10.335   3.095  0.4179  0.7687  0.6758
 8199SOL    HW227491   1.417  10.394   3.235  0.2653 -0.1563  1.0706
 8200SOL     OW27492   1.363   4.752   3.350  0.1891 -0.5269  0.0705
 8200SOL    HW127493   1.384   4.714   3.435 -1.3353 -0.1992  0.6292
 8200SOL    HW227494   1.385   4.683   3.287  1.0077 -0.9019  0.7381
 8201SOL     OW27495   0.137   7.663   0.759 -0.5672  0.2639  0.0207
 8201SOL    HW127496   0.228   7.679   0.736 -0.6287  1.0696  0.2992
 8201SOL    HW227497   0.104   7.607   0.689 -0.4578  1.7860 -1.3106
 8202SOL     OW27498   0.969   6.273   9.338  0.4561 -0.1490  0.7550
 8202SOL    HW127499   0.904   6.203   9.342 -0.9403  1.0259 -0.1240
 8202SOL    HW227500   1.028   6.247   9.266 -0.5361 -0.0632 -0.1224
 8203SOL     OW27501   6.950   7.836   4.684 -0.5376  0.0936  0.4293
 8203SOL    HW127502   7.024   7.783   4.653 -0.0670  0.6357  0.5992
 8203SOL    HW227503   6.873   7.787   4.659 -0.1043 -1.4419  1.9311
 8204SOL     OW27504   4.704   3.854   8.484 -0.0233  0.6949 -0.2954
 8204SOL    HW127505   4.709   3.762   8.455  2.1761  1.1474 -1.5780
 8204SOL    HW227506   4.621   3.885   8.450 -1.9772 -1.3914  2.1700
 8205SOL     OW27507   6.910   6.882   6.893  0.2515 -0.0727  0.2776
 8205SOL    HW127508   7.001   6.895   6.919  0.6460  0.2094 -1.1401
 8205SOL    HW227509   6.894   6.949   6.826 -1.0474 -0.0239  0.5915
 8206SOL     OW27510   0.716   9.690   2.890  0.6979  0.0803  0.0394
 8206SOL    HW127511   0.680   9.647   2.813 -1.3526  0.7653  0.5512
 8206SOL    HW227512   0.751   9.773   2.858 -0.1502  0.3637 -0.1779
 8207SOL     OW27513   0.405   9.517   0.083 -0.5952  0.4012 -0.3941
 8207SOL    HW127514   0.460   9.572   0.028 -0.3758  2.4495  1.7124
 8207SOL    HW227515   0.465   9.479   0.147 -1.0073 -0.9880 -0.8059
 8208SOL     OW27516   5.093   6.952   5.904  0.3402  0.1995 -0.3362
 8208SOL    HW127517   5.117   6.992   5.821  1.2888  2.0459  0.7628
 8208SOL    HW227518   5.000   6.931   5.896  0.3576  0.6241 -1.7326
 8209SOL     OW27519   7.841   0.765   0.004 -0.0966 -0.1431  0.2725
 8209SOL    HW127520   7.858   0.857   0.025 -0.8803  0.1411 -0.2800
 8209SOL    HW227521   7.776   0.737   0.068 -0.1404 -0.2077  0.1992
 8210SOL     OW27522   9.834   4.489   1.727 -0.4476  0.5278 -0.3746
 8210SOL    HW127523   9.821   4.514   1.818 -0.6815  1.1638 -0.5819
 8210SOL    HW227524   9.812   4.567   1.677  1.4199  0.7595 -0.8905
 8211SOL     OW27525   6.558   7.237   6.651 -0.9984  0.1071  0.2215
 8211SOL    HW127526   6.644   7.201   6.670 -1.4912 -1.7282 -0.7809
 8211SOL    HW227527   6.573   7.300   6.580 -0.3424  0.7181  0.8854
 8212SOL     OW27528   7.771   0.872   1.039 -0.8568 -0.2797 -0.4055
 8212SOL    HW127529   7.845   0.929   1.019 -0.6568 -0.3698  0.0558
 8212SOL    HW227530   7.695   0.931   1.037 -0.4803  0.3607  1.5854
 8213SOL     OW27531   4.137   3.408   5.778  0.4376  0.5033 -0.0653
 8213SOL    HW127532   4.117   3.477   5.715 -1.4919 -0.5424 -0.6918
 8213SOL    HW227533   4.226   3.428   5.809  0.3486  2.6173 -1.0102
 8214SOL     OW27534  10.491   8.499   2.925  0.4542 -0.3626  0.2002
 8214SOL    HW127535  10.469   8.421   2.875 -0.7585  0.9573 -1.4020
 8214SOL    HW227536  10.570   8.533   2.883  0.1275  0.0900 -0.0442
 8215SOL     OW27537   6.958   4.372  10.553 -0.1436  0.3761  0.4250
 8215SOL    HW127538   6.888   4.364  10.617  0.0155 -3.8208  0.3835
 8215SOL    HW227539   6.914   4.365  10.468  0.0629  1.2308  0.2373
 8216SOL     OW27540   7.435   7.372   7.609  0.4451  0.0504  0.1243
 8216SOL    HW127541   7.455   7.406   7.522 -1.6201 -1.0053 -0.8317
 8216SOL    HW227542   7.517   7.332   7.638  1.7219  2.0893 -0.4706
 8217SOL     OW27543   2.448  10.739   8.359 -0.6104  0.6836 -0.1886
 8217SOL    HW127544   2.442  10.690   8.278  0.7848  1.0743 -0.5399
 8217SOL    HW227545   2.409  10.825   8.339  0.0869  0.9132 -0.5526
 8218SOL     OW27546   0.235   2.790   0.532  0.3426 -0.4428  0.1144
 8218SOL    HW127547   0.183   2.744   0.597 -0.5502 -1.5818 -1.3427
 8218SOL    HW227548   0.220   2.883   0.551  1.6376 -0.6706  2.6684
 8219SOL     OW27549   5.713   7.992   6.860 -0.2896  0.0469  0.7037
 8219SOL    HW127550   5.689   8.081   6.833  0.8056  0.5459  1.3179
 8219SOL    HW227551   5.663   7.935   6.801  0.0052  1.0742 -0.5867
 8220SOL     OW27552   4.253   3.353   4.011 -0.4010 -0.9437 -0.6481
 8220SOL    HW127553   4.307   3.284   3.972  0.9675 -0.8612  0.9632
 8220SOL    HW227554   4.252   3.332   4.105 -0.7430  0.7007 -0.2615
 8221SOL     OW27555   3.316   0.387   5.812 -0.1051  1.0134 -0.6722
 8221SOL    HW127556   3.335   0.480   5.808  1.2835  0.7531 -0.5951
 8221SOL    HW227557   3.367   0.348   5.741 -1.3236  0.3961 -1.2508
 8222SOL     OW27558   6.600   8.040   6.768 -0.4436  0.3803  0.1372
 8222SOL    HW127559   6.637   8.092   6.839  0.6286 -0.0799 -0.0769
 8222SOL    HW227560   6.675   8.004   6.722 -1.1344 -2.0360  0.7622
 8223SOL     OW27561   3.145   1.056   1.138  0.1297 -0.3688  0.7513
 8223SOL    HW127562   3.081   1.017   1.198  0.7229 -0.1508  1.5469
 8223SOL    HW227563   3.230   1.036   1.178  0.4868  0.7550  0.5796
 8224SOL     OW27564   6.271   1.201   7.179 -0.6293 -0.3448  0.6188
 8224SOL    HW127565   6.191   1.159   7.147 -0.5467 -0.1270  0.1174
 8224SOL    HW227566   6.266   1.193   7.274 -1.5442  0.2048  0.6261
 8225SOL     OW27567   7.329   4.872   7.352 -0.3738  0.1751 -0.1493
 8225SOL    HW127568   7.400   4.812   7.374 -0.5117 -0.1502 -0.5797
 8225SOL    HW227569   7.275   4.876   7.430  1.9196  3.0844  1.5168
 8226SOL     OW27570   8.168   3.272   8.608 -0.4133 -0.2171  0.1508
 8226SOL    HW127571   8.249   3.308   8.570 -0.0201  0.1023  1.2383
 8226SOL    HW227572   8.119   3.238   8.533  0.2801  0.4832 -0.6468
 8227SOL     OW27573   2.436   6.516   0.847 -0.1158 -0.1025 -0.3930
 8227SOL    HW127574   2.462   6.576   0.917 -1.3433  0.6265 -0.5293
 8227SOL    HW227575   2.500   6.445   0.851 -0.5140 -0.4048  1.8766
 8228SOL     OW27576   3.179   9.396   9.238 -0.0317  0.3625  0.7046
 8228SOL    HW127577   3.260   9.425   9.196  0.3913 -1.3899  0.2435
 8228SOL    HW227578   3.135   9.344   9.172 -0.2148 -0.9813  1.8375
 8229SOL     OW27579   3.955   3.457   6.050  0.0410 -0.1991  0.0658
 8229SOL    HW127580   4.027   3.517   6.031 -0.8112  0.7010 -0.4371
 8229SOL    HW227581   3.880   3.494   6.003 -0.7456 -1.1209  0.5535
 8230SOL     OW27582   9.849   4.500   5.755  0.4806 -0.2943 -0.3655
 8230SOL    HW127583   9.814   4.492   5.666 -0.9447 -0.6665  0.1999
 8230SOL    HW227584   9.923   4.560   5.746  0.1720 -0.0846 -1.7484
 8231SOL     OW27585   0.226   8.266   8.064  0.2975  0.1634  0.2058
 8231SOL    HW127586   0.159   8.282   7.998  0.0695 -0.6929  0.2221
 8231SOL    HW227587   0.189   8.302   8.145  0.2695  0.5597  0.0175
 8232SOL     OW27588   6.783   8.705  10.567 -0.2324  0.4861  0.2533
 8232SOL    HW127589   6.779   8.686  10.473 -0.3417 -0.6473  0.4710
 8232SOL    HW227590   6.714   8.650  10.605  1.3817 -0.9007  1.2755
 8233SOL     OW27591   8.947   3.073   9.891  0.0337 -0.6097 -0.6320
 8233SOL    HW127592   8.882   3.129   9.849  1.4916  1.1188 -0.6837
 8233SOL    HW227593   9.005   3.046   9.820  0.1804 -1.0121 -0.3637
 8234SOL     OW27594   8.131   6.779  10.558  0.0945  0.4962 -0.5482
 8234SOL    HW127595   8.090   6.781  10.472 -1.6012 -0.5892  0.1911
 8234SOL    HW227596   8.074   6.832  10.613  0.7833  0.5965  0.0762
 8235SOL     OW27597   1.984   0.618   7.574  0.0535 -0.2638 -0.1403
 8235SOL    HW127598   2.017   0.550   7.514 -0.7557 -1.2473  0.4854
 8235SOL    HW227599   1.915   0.661   7.525 -1.5776 -2.0000  0.5059
 8236SOL     OW27600   2.318   9.623   1.966  0.0282 -0.1470 -0.2968
 8236SOL    HW127601   2.373   9.684   1.916 -0.4376 -1.1449 -2.1279
 8236SOL    HW227602   2.304   9.550   1.906 -1.0058 -1.1872  1.1526
 8237SOL     OW27603   7.574   9.762   4.273 -0.7389 -0.4433 -0.4858
 8237SOL    HW127604   7.560   9.798   4.360  0.8585  2.0456 -1.1262
 8237SOL    HW227605   7.644   9.698   4.284 -0.7981 -0.4073  0.1255
 8238SOL     OW27606   7.659   4.040   0.938 -0.2909  0.1360  0.0090
 8238SOL    HW127607   7.601   4.112   0.961 -0.1043  0.5711 -0.8256
 8238SOL    HW227608   7.748   4.076   0.945 -0.0577 -0.6841  1.8284
 8239SOL     OW27609   5.203   8.809   4.260 -0.3247 -0.2198  0.6401
 8239SOL    HW127610   5.215   8.782   4.169 -0.0418  0.0526  0.5954
 8239SOL    HW227611   5.211   8.727   4.310  1.3050 -0.1373  0.5750
 8240SOL     OW27612   3.988   0.137   6.679  0.2197 -0.2426  0.3329
 8240SOL    HW127613   3.948   0.050   6.676  0.2660 -0.2499 -0.1048
 8240SOL    HW227614   3.943   0.187   6.611 -0.9431  0.5729  1.6335
 8241SOL     OW27615   2.254   7.871   4.018 -0.4822  0.5212 -1.0465
 8241SOL    HW127616   2.166   7.839   3.999  0.3347 -1.9154 -1.0154
 8241SOL    HW227617   2.311   7.816   3.965  1.2095  0.1171  1.0922
 8242SOL     OW27618   4.185  10.114  10.186 -1.3719  0.2997 -0.0603
 8242SOL    HW127619   4.118  10.104  10.118  0.3598 -1.6363 -1.5962
 8242SOL    HW227620   4.260  10.152  10.140 -1.0426  1.5412  1.4232
 8243SOL     OW27621   8.557   4.203  10.702 -0.6039 -0.3054  0.4118
 8243SOL    HW127622   8.585   4.155  10.780  0.0374  2.3658  1.9391
 8243SOL    HW227623   8.466   4.176  10.689 -1.2530  0.3309  3.0817
 8244SOL     OW27624   8.705   4.288   2.816 -0.3125 -0.1346  0.4898
 8244SOL    HW127625   8.792   4.287   2.775 -0.4796 -3.4478 -0.0536
 8244SOL    HW227626   8.645   4.271   2.744 -1.5697  2.4244  0.8051
 8245SOL     OW27627   8.557   0.391   9.796 -0.2065 -0.1492 -0.0704
 8245SOL    HW127628   8.497   0.445   9.848  0.1904  0.1466  0.0775
 8245SOL    HW227629   8.502   0.356   9.726 -0.0872  1.9491 -1.3023
 8246SOL     OW27630   5.691   4.740   7.830 -0.4357  0.2715 -0.3214
 8246SOL    HW127631   5.671   4.718   7.739 -1.9199  2.1956 -0.5323
 8246SOL    HW227632   5.707   4.834   7.829 -0.7182  0.3745  1.4373
 8247SOL     OW27633   2.388   8.390   5.095 -0.1086 -0.2925  0.1075
 8247SOL    HW127634   2.414   8.434   5.015  1.5858 -1.0108  0.2261
 8247SOL    HW227635   2.378   8.298   5.070  1.2899 -0.6754  0.8654
 8248SOL     OW27636   6.443  10.485   4.627 -0.1324 -0.6852 -0.1251
 8248SOL    HW127637   6.538  10.481   4.637 -0.2311 -0.3671  1.0544
 8248SOL    HW227638   6.409  10.424   4.692 -0.8628  2.5327  2.7630
 8249SOL     OW27639   8.083   1.484   7.252 -0.3354  0.3521  0.2681
 8249SOL    HW127640   8.147   1.510   7.317  0.0817  1.3022 -0.5030
 8249SOL    HW227641   8.095   1.546   7.180 -0.6591 -0.7660 -0.7849
 8250SOL     OW27642   2.680   9.204   6.984 -0.2302 -0.2157 -0.1616
 8250SOL    HW127643   2.648   9.117   7.005 -1.0800  0.0296 -0.3861
 8250SOL    HW227644   2.678   9.252   7.067  0.6979 -0.5413  0.0576
 8251SOL     OW27645   7.205   2.493  10.141 -0.5320 -0.1875  0.0069
 8251SOL    HW127646   7.247   2.574  10.110 -2.8614  0.1043 -2.7631
 8251SOL    HW227647   7.277   2.431  10.150  0.9035  1.2321 -1.1158
 8252SOL     OW27648   6.085   8.492  10.097  0.0193  0.5340  0.4113
 8252SOL    HW127649   6.037   8.467  10.176 -1.2230 -1.6718 -0.9268
 8252SOL    HW227650   6.156   8.428  10.091 -1.4413 -1.0712 -1.5214
 8253SOL     OW27651   1.537   9.110   2.536 -0.7543 -0.9603 -0.1670
 8253SOL    HW127652   1.556   9.039   2.475 -0.7241 -1.5010  0.4517
 8253SOL    HW227653   1.615   9.116   2.591 -0.8018 -0.5254 -0.1437
 8254SOL     OW27654   1.796  10.471   1.718 -0.4869  0.3750 -0.1481
 8254SOL    HW127655   1.819  10.394   1.770 -1.0238  0.2171 -0.1426
 8254SOL    HW227656   1.709  10.451   1.683  0.0509  0.2677 -1.4828
 8255SOL     OW27657   8.806   4.315   8.935 -0.2193  0.7201 -0.1848
 8255SOL    HW127658   8.880   4.275   8.980  0.7342  0.3831 -1.9634
 8255SOL    HW227659   8.842   4.347   8.853 -2.0627  0.4997 -1.1448
 8256SOL     OW27660   6.682   4.427   6.678  0.0077  0.8385  0.3742
 8256SOL    HW127661   6.663   4.412   6.771  1.0852 -0.0370  0.4743
 8256SOL    HW227662   6.739   4.355   6.653 -1.2439  0.3569 -1.3092
 8257SOL     OW27663   7.976   0.639   8.439 -0.8104  0.1399  0.3924
 8257SOL    HW127664   7.900   0.598   8.396 -0.0411  0.9442 -1.8649
 8257SOL    HW227665   8.050   0.618   8.382  0.3840  0.8665  1.6164
 8258SOL     OW27666   3.967   2.577   6.697  0.3828  0.3338  0.0031
 8258SOL    HW127667   4.030   2.513   6.664 -1.8623 -1.1719 -1.6675
 8258SOL    HW227668   4.000   2.661   6.666  1.0213 -0.5371 -1.8388
 8259SOL     OW27669   2.444   8.657   9.201  0.3366  0.6750  0.3486
 8259SOL    HW127670   2.387   8.688   9.271 -0.5726  0.4811 -0.2983
 8259SOL    HW227671   2.532   8.660   9.239 -0.2548 -0.6224  1.9204
 8260SOL     OW27672   2.432  10.501   6.595 -0.3898  0.9630 -0.6181
 8260SOL    HW127673   2.374  10.529   6.525 -1.7699  1.8508  0.8055
 8260SOL    HW227674   2.373  10.473   6.666  0.9253  0.7329  0.4425
 8261SOL     OW27675   9.962   9.336   0.802  0.1095  0.5065  0.1409
 8261SOL    HW127676   9.997   9.348   0.714  1.5787  0.3726  0.6734
 8261SOL    HW227677   9.925   9.247   0.801  2.9957 -0.8312  0.5000
 8262SOL     OW27678   9.039   9.814   8.357  0.5436 -0.1647  0.4216
 8262SOL    HW127679   9.107   9.873   8.390  0.9511  1.6133 -3.1079
 8262SOL    HW227680   8.960   9.868   8.353  0.1137 -0.8045  0.1342
 8263SOL     OW27681   6.698   8.737   9.871 -0.8903 -0.3459 -0.7042
 8263SOL    HW127682   6.700   8.755   9.778 -0.8146  0.0874 -0.6180
 8263SOL    HW227683   6.712   8.642   9.877 -1.3845 -0.4504 -1.1520
 8264SOL     OW27684   4.642   1.682   4.689 -0.0629  0.6171  0.0527
 8264SOL    HW127685   4.548   1.671   4.703 -0.1048  0.2163 -0.5049
 8264SOL    HW227686   4.681   1.673   4.776 -0.4245 -0.5082  0.1148
 8265SOL     OW27687   1.663   1.828   2.306 -0.1215 -0.5274  0.1296
 8265SOL    HW127688   1.579   1.783   2.294  0.3735 -1.9173  1.5340
 8265SOL    HW227689   1.728   1.759   2.299  0.9161  0.5014 -0.7069
 8266SOL     OW27690   7.393  10.115  10.635  0.2702  0.6059  0.2780
 8266SOL    HW127691   7.362  10.037  10.588  1.2571  1.2055 -1.4524
 8266SOL    HW227692   7.375  10.187  10.575 -0.3895  1.7138  1.7461
 8267SOL     OW27693   3.379   4.469   4.367 -0.0958 -0.0086 -0.2645
 8267SOL    HW127694   3.298   4.428   4.336  0.4395 -0.6087 -0.9134
 8267SOL    HW227695   3.369   4.476   4.461 -1.3813  0.9853 -0.4495
 8268SOL     OW27696   5.711   3.290   7.162 -0.0227 -0.3835 -0.6775
 8268SOL    HW127697   5.751   3.285   7.249  1.6456 -2.4299 -1.4851
 8268SOL    HW227698   5.682   3.381   7.155 -0.2980 -0.1562  2.0162
 8269SOL     OW27699  10.692   2.419   0.902  0.5075  0.0401 -0.1225
 8269SOL    HW127700  10.780   2.418   0.865  0.2605 -2.1735 -0.7858
 8269SOL    HW227701  10.685   2.504   0.945  2.9682  0.2522 -0.0107
 8270SOL     OW27702   7.887   9.469   4.419  0.2313  0.1111  0.5228
 8270SOL    HW127703   7.958   9.478   4.482 -0.5492  1.0267  1.3126
 8270SOL    HW227704   7.887   9.376   4.394  1.4349  0.0283  0.8015
 8271SOL     OW27705   8.401   1.969   1.375  0.0841 -0.6034  0.4275
 8271SOL    HW127706   8.423   1.893   1.429 -0.1343 -0.4765  0.6948
 8271SOL    HW227707   8.371   1.932   1.292  1.4839 -0.7835 -0.0243
 8272SOL     OW27708   5.034   8.526   5.786 -0.0531  0.2408  0.2782
 8272SOL    HW127709   4.955   8.474   5.799 -1.5264  1.1639 -3.4987
 8272SOL    HW227710   5.007   8.616   5.805  0.0000  0.5730 -1.0983
 8273SOL     OW27711   1.389  10.360   1.070 -0.0359  0.4847  0.0760
 8273SOL    HW127712   1.319  10.385   1.009  0.5697  2.2668  0.0837
 8273SOL    HW227713   1.469  10.368   1.019  0.4075  1.2175  0.8707
 8274SOL     OW27714   7.487   2.738   2.893 -0.1264  0.3752 -0.2039
 8274SOL    HW127715   7.524   2.779   2.815 -2.4212  0.5887 -1.2719
 8274SOL    HW227716   7.447   2.657   2.860  1.1489 -0.9001  1.2488
 8275SOL     OW27717   3.843   5.750   7.231 -0.0288  0.2026  0.3012
 8275SOL    HW127718   3.799   5.820   7.279 -1.4307 -0.2176 -0.3217
 8275SOL    HW227719   3.782   5.727   7.161  0.6461 -1.2654  0.1647
 8276SOL     OW27720   5.253   0.699   2.362  0.5613 -0.5033  0.4631
 8276SOL    HW127721   5.338   0.657   2.344  0.8728 -0.0107  0.7480
 8276SOL    HW227722   5.268   0.791   2.341  0.2087 -0.3503  0.8805
 8277SOL     OW27723  10.626   6.194   6.337  0.8122 -0.3160 -0.2716
 8277SOL    HW127724  10.649   6.275   6.292  1.5683  0.5073  1.5126
 8277SOL    HW227725  10.543   6.213   6.381  2.1280  0.3672  2.0921
 8278SOL     OW27726   9.729   4.799   2.714  0.3632 -0.3600  0.1103
 8278SOL    HW127727   9.662   4.740   2.678  2.0430 -1.5952 -1.1842
 8278SOL    HW227728   9.761   4.754   2.792 -0.0906  0.0779  0.5521
 8279SOL     OW27729   0.306   0.632   0.513 -0.0465 -0.0881  0.1916
 8279SOL    HW127730   0.297   0.726   0.529 -0.0013  0.5733 -2.9625
 8279SOL    HW227731   0.220   0.595   0.534 -0.6539  1.0030 -0.3203
 8280SOL     OW27732   7.834   0.411   1.269 -0.3906 -0.5068 -0.5717
 8280SOL    HW127733   7.913   0.356   1.263 -1.4059 -1.8939 -2.0533
 8280SOL    HW227734   7.861   0.495   1.233  1.0433 -0.1637  1.1835
 8281SOL     OW27735   6.784   6.391   8.753 -0.4326 -0.7065  0.1890
 8281SOL    HW127736   6.753   6.369   8.841  0.4167  1.0201  0.9552
 8281SOL    HW227737   6.869   6.348   8.745  0.5956  1.0201  1.1699
 8282SOL     OW27738   1.195   7.592   7.387  0.1653 -0.4362 -0.4104
 8282SOL    HW127739   1.129   7.524   7.400  0.9318 -1.1732 -0.2993
 8282SOL    HW227740   1.193   7.643   7.468 -1.0534  0.2684 -0.8502
 8283SOL     OW27741   0.440   8.833  10.242 -0.3731 -0.7973  0.1138
 8283SOL    HW127742   0.441   8.836  10.338 -2.0910 -0.6493  0.1657
 8283SOL    HW227743   0.419   8.742  10.221  0.9784 -1.0647 -0.1717
 8284SOL     OW27744   8.583   5.621   6.120  0.1006 -0.1965 -0.2733
 8284SOL    HW127745   8.543   5.571   6.048 -1.2638  0.1191  0.2398
 8284SOL    HW227746   8.543   5.708   6.115 -1.4908 -0.6918  1.9636
 8285SOL     OW27747   7.006   0.437   2.623 -0.3528  0.1852  0.3093
 8285SOL    HW127748   7.038   0.352   2.656  1.1301  0.4428 -0.3620
 8285SOL    HW227749   6.911   0.432   2.631 -0.2394 -1.2134  1.0800
 8286SOL     OW27750   0.994   9.777   6.015 -0.3743  0.6273 -0.2495
 8286SOL    HW127751   0.924   9.729   5.970 -0.7576  1.2589 -0.3297
 8286SOL    HW227752   0.959   9.865   6.027 -0.2149  0.5211  1.1437
 8287SOL     OW27753   4.983   8.242   6.570 -0.1115  0.5020 -0.2866
 8287SOL    HW127754   5.058   8.182   6.566 -0.9672 -0.7493  1.2710
 8287SOL    HW227755   5.005   8.303   6.640  0.7505  2.0650 -1.8634
 8288SOL     OW27756   7.650   2.830   8.386  0.2456 -0.7202  0.1692
 8288SOL    HW127757   7.593   2.906   8.404  1.0127  0.0674 -0.6204
 8288SOL    HW227758   7.625   2.766   8.452 -1.2324 -0.2198  0.1499
 8289SOL     OW27759   0.981   0.272   5.494  0.3084  0.2102 -0.4857
 8289SOL    HW127760   0.901   0.230   5.463  0.8970 -0.7568 -0.7621
 8289SOL    HW227761   1.051   0.226   5.447  0.9811  1.5931 -0.8619
 8290SOL     OW27762   5.766  10.130   4.430 -0.4409  0.2857 -0.0594
 8290SOL    HW127763   5.775  10.172   4.344  0.4038 -0.1776 -0.2108
 8290SOL    HW227764   5.825  10.055   4.426 -2.4882 -1.4399 -0.1070
 8291SOL     OW27765   9.986   2.635   5.856  0.0768  0.2698  0.2659
 8291SOL    HW127766   9.956   2.544   5.858 -0.1022  0.1976 -2.2620
 8291SOL    HW227767  10.080   2.628   5.838 -0.0134  0.5654 -0.3552
 8292SOL     OW27768   1.032   6.630  10.715 -0.7488  0.1815  0.0455
 8292SOL    HW127769   0.976   6.623  10.792 -0.8793 -2.0621 -0.1747
 8292SOL    HW227770   0.972   6.638  10.641 -0.6946  0.1693 -0.0003
 8293SOL     OW27771   2.628   2.636   1.854 -0.2405 -0.2634 -0.4137
 8293SOL    HW127772   2.717   2.635   1.818  0.0003  0.8526  0.0951
 8293SOL    HW227773   2.576   2.585   1.792  0.9270 -1.7928 -0.2071
 8294SOL     OW27774   8.318   8.674   6.301 -0.2588  0.2238  0.5749
 8294SOL    HW127775   8.410   8.699   6.293  0.1672 -1.3763  0.0024
 8294SOL    HW227776   8.317   8.580   6.283 -2.1221  0.3472 -0.2657
 8295SOL     OW27777   5.015   7.976   7.200  0.0499 -0.2213 -0.1842
 8295SOL    HW127778   5.102   7.937   7.191  0.1845  0.0341 -0.0117
 8295SOL    HW227779   4.960   7.906   7.234  0.3931 -0.1338  0.5634
 8296SOL     OW27780   4.458  10.284   4.815  0.5880 -0.1115  0.7496
 8296SOL    HW127781   4.382  10.290   4.756  1.6795  0.7404 -0.6279
 8296SOL    HW227782   4.427  10.321   4.897 -0.5048  0.2071  0.2189
 8297SOL     OW27783   2.993   8.549   4.123  0.4663 -0.3549  0.0854
 8297SOL    HW127784   3.062   8.614   4.105  2.0421 -1.7928  0.6869
 8297SOL    HW227785   2.952   8.580   4.204  0.1231  0.7166 -0.4710
 8298SOL     OW27786   4.988   5.794   1.771  0.6782 -0.1813 -0.1200
 8298SOL    HW127787   4.943   5.813   1.853 -0.7854 -3.1506 -0.0827
 8298SOL    HW227788   4.947   5.851   1.707 -1.3259 -0.9041  0.4481
 8299SOL     OW27789   0.599   8.589   5.357 -0.2418 -0.2106  0.2304
 8299SOL    HW127790   0.568   8.500   5.370  1.3285 -0.5330  2.2763
 8299SOL    HW227791   0.649   8.586   5.276 -2.6719 -0.4167 -1.3588
 8300SOL     OW27792   7.871   5.335   3.352  0.0426  0.3036  0.1074
 8300SOL    HW127793   7.910   5.304   3.434 -0.8231  1.1870  0.8799
 8300SOL    HW227794   7.808   5.268   3.328  1.1673 -0.5664 -0.5304
 8301SOL     OW27795   8.094   2.195   1.267 -0.6149 -0.1855  0.3916
 8301SOL    HW127796   8.109   2.289   1.264 -1.2814 -0.0326  1.4113
 8301SOL    HW227797   8.157   2.163   1.333  2.4982 -1.0961 -2.6930
 8302SOL     OW27798   8.025   9.301   1.916  0.5924  0.0017  0.2524
 8302SOL    HW127799   8.091   9.289   1.985 -0.1703 -0.1554  0.9622
 8302SOL    HW227800   7.942   9.302   1.962  0.1573  1.2982 -0.5155
 8303SOL     OW27801   4.468   2.523   2.957  0.3236  0.1402 -0.4126
 8303SOL    HW127802   4.466   2.488   3.046 -0.5187 -0.2331 -0.5685
 8303SOL    HW227803   4.503   2.611   2.967 -0.5149  0.4023  0.3984
 8304SOL     OW27804   4.103   2.264   7.465 -0.3691  0.3257 -0.0067
 8304SOL    HW127805   4.015   2.233   7.442 -0.3623  0.0998  0.2718
 8304SOL    HW227806   4.106   2.260   7.560 -0.0699  0.3775 -0.0132
 8305SOL     OW27807   0.046  10.157   3.285 -0.1389  0.1868 -0.4528
 8305SOL    HW127808   0.064  10.222   3.217  1.0524  2.1975  1.6235
 8305SOL    HW227809   0.130  10.116   3.302 -0.5931 -0.8836 -0.7307
 8306SOL     OW27810   0.918   4.745   7.411 -0.1074  0.1295  0.1310
 8306SOL    HW127811   0.889   4.802   7.483  2.3400  0.9169  0.5782
 8306SOL    HW227812   0.994   4.699   7.446 -0.5117 -1.5549 -1.0980
 8307SOL     OW27813  10.108   5.311   8.250 -0.0275  0.0201  0.0679
 8307SOL    HW127814  10.021   5.333   8.285 -0.5110 -1.3809 -0.2124
 8307SOL    HW227815  10.124   5.378   8.183 -0.9494  0.2084  0.0257
 8308SOL     OW27816   4.766   4.913   9.814 -0.2357 -0.4608  0.0844
 8308SOL    HW127817   4.735   4.995   9.851 -1.5422 -0.6288 -0.5735
 8308SOL    HW227818   4.837   4.939   9.754 -1.2145  0.3063 -0.7833
 8309SOL     OW27819   1.249   5.581   0.587 -0.1723 -0.5747  0.0837
 8309SOL    HW127820   1.185   5.518   0.553  2.1170 -2.2197 -1.5252
 8309SOL    HW227821   1.334   5.545   0.561  1.4292  1.6625  1.8064
 8310SOL     OW27822  10.366  10.370   7.427 -0.3194  0.0014  0.3708
 8310SOL    HW127823  10.381  10.298   7.488  2.0991  0.5042  0.4769
 8310SOL    HW227824  10.404  10.446   7.470 -1.1680  0.9797 -0.5410
 8311SOL     OW27825   8.676   6.322  10.109  0.5291 -0.1827  0.1364
 8311SOL    HW127826   8.673   6.352  10.018  0.4854 -0.3795  0.0720
 8311SOL    HW227827   8.665   6.227  10.103 -2.0403  0.0139  0.4975
 8312SOL     OW27828   5.414  10.412   2.936 -0.5879  0.2014 -0.1129
 8312SOL    HW127829   5.485  10.386   2.994 -1.4611 -0.3307  0.7416
 8312SOL    HW227830   5.422  10.353   2.860 -0.9713 -0.8327  0.6303
 8313SOL     OW27831   9.423   3.587   5.520  0.2004 -0.1236  0.3786
 8313SOL    HW127832   9.445   3.647   5.450  0.4637 -0.2884  0.3196
 8313SOL    HW227833   9.330   3.567   5.506 -0.0937  0.8442  0.8360
 8314SOL     OW27834   4.917   1.824   7.709  0.6860  0.6097 -0.3291
 8314SOL    HW127835   4.999   1.864   7.735  0.7468 -0.1060  0.6097
 8314SOL    HW227836   4.934   1.730   7.710 -0.4659  0.3762  1.0749
 8315SOL     OW27837   8.828   3.518   3.736  0.2939 -0.7022 -0.7353
 8315SOL    HW127838   8.791   3.561   3.659 -1.1619 -0.5307  0.0424
 8315SOL    HW227839   8.922   3.540   3.732  0.3414 -1.0759 -2.6809
 8316SOL     OW27840   3.690   4.592   3.115  0.0710 -0.0420  0.3358
 8316SOL    HW127841   3.746   4.526   3.155 -1.0222 -1.5137 -0.4778
 8316SOL    HW227842   3.688   4.664   3.179  1.2262 -0.8051  1.2649
 8317SOL     OW27843   1.105  10.574  10.115  0.0617 -1.0256 -0.0024
 8317SOL    HW127844   1.086  10.657  10.071 -1.8765 -1.9446 -0.9905
 8317SOL    HW227845   1.157  10.524  10.052 -0.9369 -1.5332 -0.4319
 8318SOL     OW27846   0.220   5.038   9.485 -0.7265  0.2017 -0.4112
 8318SOL    HW127847   0.173   5.041   9.568  1.4219 -0.7215  0.9141
 8318SOL    HW227848   0.156   5.004   9.423 -2.0875 -0.0587  1.0735
 8319SOL     OW27849   1.465   0.515   7.012  0.1103  0.7845 -0.1156
 8319SOL    HW127850   1.448   0.533   7.104  1.3393 -0.3864  0.3910
 8319SOL    HW227851   1.560   0.501   7.008  0.0213  0.4198 -1.4886
 8320SOL     OW27852   5.012   3.622  10.665  0.2697  0.6587 -0.5458
 8320SOL    HW127853   5.058   3.700  10.697  3.2020 -0.3054 -2.0480
 8320SOL    HW227854   5.075   3.579  10.608 -1.8954 -1.8996 -1.2016
 8321SOL     OW27855   1.384   0.755   9.251 -0.1793  0.2369  0.0081
 8321SOL    HW127856   1.454   0.741   9.187 -0.8243 -0.0443 -0.6583
 8321SOL    HW227857   1.428   0.790   9.328  1.1516 -2.8523  0.7639
 8322SOL     OW27858   8.823   5.126   7.825 -0.1453  0.6651 -0.0913
 8322SOL    HW127859   8.780   5.046   7.853 -0.3771 -0.4207 -3.2113
 8322SOL    HW227860   8.754   5.192   7.824 -0.3958  0.4179  0.5824
 8323SOL     OW27861   1.690   6.880   5.294  0.3476 -1.0483  0.0202
 8323SOL    HW127862   1.651   6.810   5.242 -0.6649  0.0131 -0.6815
 8323SOL    HW227863   1.673   6.854   5.385 -1.8615 -0.7066 -0.2639
 8324SOL     OW27864   4.812   2.293   8.996 -0.5841  0.2289  0.0145
 8324SOL    HW127865   4.806   2.240   8.916  0.6037 -0.2308  0.1976
 8324SOL    HW227866   4.894   2.342   8.986 -2.9110  4.3355 -1.4592
 8325SOL     OW27867   6.341   3.242   8.265 -0.1945  0.4784 -0.4591
 8325SOL    HW127868   6.338   3.146   8.267 -0.6125  0.4969  0.3096
 8325SOL    HW227869   6.393   3.263   8.188  0.8640 -0.3837 -0.0001
 8326SOL     OW27870   5.257   3.444   3.040 -0.3714 -0.0767 -0.1249
 8326SOL    HW127871   5.263   3.352   3.065  0.4078  0.5452  2.2643
 8326SOL    HW227872   5.166   3.456   3.014  0.0407 -2.0082 -2.8909
 8327SOL     OW27873   7.261   6.408   9.285  0.3691 -0.3451 -0.0697
 8327SOL    HW127874   7.356   6.413   9.284  0.3374  0.2444 -0.7882
 8327SOL    HW227875   7.240   6.332   9.231  0.3907  0.3292 -1.0348
 8328SOL     OW27876   1.206   1.141   8.156  0.0177 -0.1240  0.2031
 8328SOL    HW127877   1.134   1.106   8.103  1.9606  0.7929 -3.3617
 8328SOL    HW227878   1.175   1.227   8.185 -0.3921  0.2317 -1.2350
 8329SOL     OW27879   5.680   7.097   8.620 -0.2059 -0.1214  0.4824
 8329SOL    HW127880   5.629   7.042   8.561 -0.7888  2.6702 -1.8830
 8329SOL    HW227881   5.617   7.160   8.655  0.9227  1.0773  0.4516
 8330SOL     OW27882   1.569   3.111   2.926  0.5204 -0.0976 -0.2098
 8330SOL    HW127883   1.489   3.128   2.876  0.4368 -0.1483 -0.0945
 8330SOL    HW227884   1.560   3.164   3.005  0.4952 -0.2788 -0.0905
 8331SOL     OW27885   3.067   9.625  10.072 -0.2355 -0.7325 -0.9323
 8331SOL    HW127886   3.120   9.546  10.058  0.3410 -0.2972 -1.2822
 8331SOL    HW227887   2.997   9.618  10.007 -0.5684 -1.2812 -0.5134
 8332SOL     OW27888   3.982   8.772   9.391 -0.3706 -0.0477  0.0062
 8332SOL    HW127889   3.952   8.682   9.379  0.3362  0.0824 -4.5967
 8332SOL    HW227890   4.067   8.775   9.347 -1.6996  3.3906 -2.8583
 8333SOL     OW27891   0.174   1.557   7.060  0.4024  0.0036  0.2869
 8333SOL    HW127892   0.136   1.529   6.977  0.0720  0.4945  0.2649
 8333SOL    HW227893   0.193   1.650   7.047  2.1501 -0.3371  0.1031
 8334SOL     OW27894   1.808   1.610   2.285 -0.3942  0.5335 -0.2854
 8334SOL    HW127895   1.848   1.575   2.365  1.2177  0.5864 -1.0225
 8334SOL    HW227896   1.794   1.533   2.230  2.9602  0.8181 -1.8234
 8335SOL     OW27897   1.457   6.193   2.504 -0.1716 -0.3245 -0.9254
 8335SOL    HW127898   1.407   6.140   2.442 -0.7073 -1.3692  0.3458
 8335SOL    HW227899   1.396   6.212   2.575  0.2618  1.3121 -0.9364
 8336SOL     OW27900  10.234   4.549   7.737  0.3981  0.3460 -0.4368
 8336SOL    HW127901  10.144   4.519   7.739  0.6857 -0.5926 -1.0024
 8336SOL    HW227902  10.256   4.555   7.644  0.9677  0.4116 -0.3036
 8337SOL     OW27903   0.358   8.122   4.279  0.5285  0.3065 -0.3081
 8337SOL    HW127904   0.347   8.027   4.282  0.4347  0.3277  2.1267
 8337SOL    HW227905   0.295   8.151   4.214 -0.0676 -1.2302 -0.4644
 8338SOL     OW27906   5.428  10.187   6.186  0.0988 -0.4603 -0.3500
 8338SOL    HW127907   5.342  10.149   6.169  0.1753 -0.7936  0.0141
 8338SOL    HW227908   5.479  10.116   6.223  1.1896 -0.8779 -2.5079
 8339SOL     OW27909   4.387   0.922   4.330 -0.1834  0.0826  0.4724
 8339SOL    HW127910   4.438   0.841   4.337 -0.1922  0.1094  0.8813
 8339SOL    HW227911   4.438   0.986   4.380 -0.2879  0.2725  0.3350
 8340SOL     OW27912   4.163   0.980   6.042 -0.5752 -0.1365 -0.6218
 8340SOL    HW127913   4.218   1.056   6.023  0.6071 -1.0974 -1.1873
 8340SOL    HW227914   4.195   0.948   6.127 -1.3761  0.2446 -0.1635
 8341SOL     OW27915   3.529   2.545   7.438 -0.2623 -0.0038 -0.1499
 8341SOL    HW127916   3.445   2.569   7.398  0.9516  1.8994 -1.7137
 8341SOL    HW227917   3.575   2.496   7.370  0.7823  0.9711 -0.1742
 8342SOL     OW27918   0.159   3.698   3.988  0.4162  0.1819  0.5807
 8342SOL    HW127919   0.179   3.614   4.030  1.2769  0.1931  0.2104
 8342SOL    HW227920   0.193   3.763   4.049 -0.6106  0.2876  1.0599
 8343SOL     OW27921   2.340   6.203   0.975  0.0848 -0.4582 -0.5994
 8343SOL    HW127922   2.426   6.162   0.968  0.2330 -0.5486  1.1981
 8343SOL    HW227923   2.289   6.165   0.903  0.9861 -1.8341 -0.5481
 8344SOL     OW27924   2.491   2.098   3.104 -0.9499  0.2325  0.7497
 8344SOL    HW127925   2.418   2.149   3.141 -0.3310  1.0903  0.8099
 8344SOL    HW227926   2.517   2.147   3.026 -0.6765 -0.2743  0.5196
 8345SOL     OW27927   2.013   7.109   6.990 -0.0692 -0.0039 -0.2051
 8345SOL    HW127928   1.945   7.176   6.997 -0.7063 -0.4420 -1.9395
 8345SOL    HW227929   2.055   7.126   6.906  1.6276 -0.0984  0.5684
 8346SOL     OW27930   7.154   9.684   9.401  0.3733 -0.2549 -0.0316
 8346SOL    HW127931   7.118   9.623   9.465  0.6867 -0.5834 -0.1624
 8346SOL    HW227932   7.087   9.752   9.392 -0.0499 -0.6605  0.0020
 8347SOL     OW27933   6.143   1.196   4.431 -0.0682 -0.0300 -0.4656
 8347SOL    HW127934   6.157   1.217   4.338  1.4105  0.2485 -0.1963
 8347SOL    HW227935   6.192   1.263   4.478 -3.0012  1.5210  0.6263
 8348SOL     OW27936   0.819   1.544   7.240  0.2439  0.2201  0.1998
 8348SOL    HW127937   0.847   1.547   7.149  0.3437 -2.0448  0.0973
 8348SOL    HW227938   0.750   1.610   7.247 -0.5470 -0.3340 -1.8137
 8349SOL     OW27939   3.675   2.843  10.682  0.1163  0.6031 -0.2209
 8349SOL    HW127940   3.673   2.839  10.586 -1.1414 -2.5641 -0.1753
 8349SOL    HW227941   3.584   2.855  10.708  0.3425  0.5907  0.6204
 8350SOL     OW27942   9.767   1.970   8.357 -0.5738  0.1035  0.8073
 8350SOL    HW127943   9.782   2.046   8.300  0.4540 -2.0311 -1.9881
 8350SOL    HW227944   9.699   2.000   8.418  0.3806  3.4949  0.4426
 8351SOL     OW27945   3.947   0.278  10.035  0.1020  0.1027 -0.3619
 8351SOL    HW127946   3.947   0.365  10.075  0.6990  0.0949 -0.3399
 8351SOL    HW227947   3.963   0.295   9.942 -0.8269  0.0888 -0.5291
 8352SOL     OW27948   1.834   0.194   1.371 -0.0723  0.7921 -0.0883
 8352SOL    HW127949   1.771   0.248   1.324 -0.3131 -0.9582 -1.9114
 8352SOL    HW227950   1.781   0.124   1.410  0.5220  0.3817 -0.0033
 8353SOL     OW27951   6.271   6.478   5.814  0.3709  0.2417 -0.4737
 8353SOL    HW127952   6.341   6.418   5.788  0.0204 -0.2679 -0.2760
 8353SOL    HW227953   6.241   6.518   5.733 -0.4752 -1.0622 -0.8489
 8354SOL     OW27954   2.628  10.238   1.285  0.1119  0.2819  0.1231
 8354SOL    HW127955   2.553  10.283   1.323 -1.3869 -1.0599 -1.0985
 8354SOL    HW227956   2.590  10.171   1.228  2.2394 -1.3810  0.5337
 8355SOL     OW27957   3.758   2.538   6.433 -0.1846  0.0264 -0.0497
 8355SOL    HW127958   3.716   2.549   6.519 -0.0205 -0.4270  0.0917
 8355SOL    HW227959   3.836   2.487   6.452  1.2446  2.0829 -0.0782
 8356SOL     OW27960   2.606   6.849   8.863 -0.2288 -0.1623  0.2336
 8356SOL    HW127961   2.678   6.803   8.819 -0.3830 -1.4490  1.2735
 8356SOL    HW227962   2.596   6.930   8.813  1.0806 -0.5455 -0.7190
 8357SOL     OW27963   4.605   6.224   5.701 -0.2642  0.0164 -0.1580
 8357SOL    HW127964   4.546   6.149   5.691 -0.0233 -0.2019  0.0587
 8357SOL    HW227965   4.682   6.201   5.650 -0.2236  0.1536 -0.1595
 8358SOL     OW27966   2.492   3.193  10.432  0.6819 -0.6047  0.3726
 8358SOL    HW127967   2.494   3.269  10.491 -2.6888  0.6269 -0.8420
 8358SOL    HW227968   2.409   3.149  10.453  2.1748 -3.5680  0.4659
 8359SOL     OW27969   1.042   4.454   2.837 -0.5588 -0.0683 -0.2907
 8359SOL    HW127970   1.042   4.547   2.861 -0.1345  0.5820 -2.5570
 8359SOL    HW227971   0.961   4.420   2.874 -0.9138  1.3010  0.2630
 8360SOL     OW27972   6.516   9.152  10.026  0.4165  0.0746 -0.1195
 8360SOL    HW127973   6.500   9.074   9.972  0.9827 -0.0912 -0.0525
 8360SOL    HW227974   6.582   9.202   9.977 -0.1146  0.6273 -0.2762
 8361SOL     OW27975   3.969  10.075   0.085  0.5000 -0.2168 -1.3354
 8361SOL    HW127976   3.949  10.021   0.161  2.9633  0.0724 -0.4005
 8361SOL    HW227977   3.993  10.013   0.017  0.4720 -0.3981 -1.1811
 8362SOL     OW27978   1.941   9.548   4.145 -0.2139  0.2936  0.0760
 8362SOL    HW127979   1.867   9.488   4.139 -0.7720  1.1338 -2.9841
 8362SOL    HW227980   2.012   9.505   4.097  1.0043 -0.0015  2.0159
 8363SOL     OW27981   8.018   3.730   6.364  0.1582  0.2094 -0.5773
 8363SOL    HW127982   8.003   3.635   6.360  0.3344  0.2060 -1.2718
 8363SOL    HW227983   8.100   3.743   6.317  0.3521  0.6667 -0.1240
 8364SOL     OW27984   7.507   7.546   2.293 -0.8899 -0.3039 -0.4729
 8364SOL    HW127985   7.588   7.497   2.279 -0.7107 -0.3513  0.6499
 8364SOL    HW227986   7.524   7.632   2.254  0.2205  0.1505  0.9340
 8365SOL     OW27987   6.398   5.605   5.460  0.5802 -0.1878 -0.0574
 8365SOL    HW127988   6.446   5.665   5.517  2.2846 -0.4624 -1.1258
 8365SOL    HW227989   6.306   5.622   5.480  1.0544  1.6053  0.8450
 8366SOL     OW27990   3.797   9.201   5.812  0.1058 -0.3012 -0.2642
 8366SOL    HW127991   3.758   9.146   5.744  0.4338 -1.2714  0.2939
 8366SOL    HW227992   3.892   9.190   5.800  0.1842 -1.3248  0.9496
 8367SOL     OW27993   3.282   9.604  10.315  0.1260  0.2968 -0.9248
 8367SOL    HW127994   3.341   9.629  10.386  0.7346  0.5602 -1.5083
 8367SOL    HW227995   3.301   9.667  10.245 -1.1207  0.6291 -0.9885
 8368SOL     OW27996   9.194   2.718   8.934 -0.4823 -0.0605 -0.2262
 8368SOL    HW127997   9.223   2.667   8.858 -0.4464  0.6516 -0.6989
 8368SOL    HW227998   9.178   2.653   9.002  1.8083 -0.5222 -0.0578
 8369SOL     OW27999   2.032   0.851   2.285  0.0779  0.2323  0.0260
 8369SOL    HW128000   2.093   0.802   2.341 -0.1573  0.0666  0.1423
 8369SOL    HW228001   2.002   0.786   2.221 -2.2254 -0.5273  1.7471
 8370SOL     OW28002   8.295  10.159   1.325  0.0315  0.1452  0.8502
 8370SOL    HW128003   8.215  10.109   1.313  1.0232 -1.3622  0.1521
 8370SOL    HW228004   8.322  10.140   1.415  1.2895 -2.0454  0.0834
 8371SOL     OW28005   6.928   2.184   8.326 -0.0167 -0.2201  0.1333
 8371SOL    HW128006   6.939   2.116   8.260  0.3601 -1.0828  1.0626
 8371SOL    HW228007   7.016   2.223   8.334 -0.7454  2.3143 -2.3569
 8372SOL     OW28008   4.683   1.965   4.578  0.0317 -0.0601 -0.7955
 8372SOL    HW128009   4.692   1.870   4.588  0.5970  0.0497 -0.1759
 8372SOL    HW228010   4.751   1.989   4.515  0.3685  0.0269 -0.4007
 8373SOL     OW28011   8.679   9.006   6.581  0.4772  0.7609 -0.2877
 8373SOL    HW128012   8.727   9.046   6.509  0.4169  1.4161  0.0275
 8373SOL    HW228013   8.657   9.079   6.639  2.3735  0.0313  1.5036
 8374SOL     OW28014   8.874   9.642   5.559 -0.6708  0.0796  0.3510
 8374SOL    HW128015   8.941   9.587   5.517  0.8031  0.8278  1.6285
 8374SOL    HW228016   8.795   9.627   5.507 -0.1221 -2.6076  0.1650
 8375SOL     OW28017   5.489   0.999   7.753  0.3295  0.1787 -0.4617
 8375SOL    HW128018   5.477   1.035   7.841 -0.3127 -1.3391  0.1108
 8375SOL    HW228019   5.564   0.940   7.761 -2.4480 -3.6278  0.4032
 8376SOL     OW28020   5.834   0.132   2.669  0.6465  0.2537  0.2103
 8376SOL    HW128021   5.803   0.158   2.756  1.4448 -1.6478  1.1303
 8376SOL    HW228022   5.926   0.108   2.683  0.3082 -1.8460 -0.7231
 8377SOL     OW28023   1.639   2.564  10.083  0.3289 -0.3392  0.2139
 8377SOL    HW128024   1.712   2.503  10.091  2.0703  0.9121 -3.6279
 8377SOL    HW228025   1.663   2.637  10.140 -1.2247 -2.4218  3.9373
 8378SOL     OW28026   3.379   0.034   3.703 -0.3555  0.0425  0.0046
 8378SOL    HW128027   3.293   0.076   3.705 -0.7892 -0.7837  3.1861
 8378SOL    HW228028   3.434   0.087   3.760  0.9059 -0.1666 -0.9764
 8379SOL     OW28029   8.543   2.577   8.318 -0.0431  0.6692 -0.2809
 8379SOL    HW128030   8.576   2.557   8.405 -2.6990 -0.6779  0.5265
 8379SOL    HW228031   8.587   2.514   8.261  1.2575  1.1647  0.1313
 8380SOL     OW28032   4.613   7.049   8.181 -0.2155  0.0362 -0.2731
 8380SOL    HW128033   4.666   7.028   8.104 -2.7131 -0.2544 -1.9954
 8380SOL    HW228034   4.577   6.965   8.209 -0.8407  0.4120  0.0545
 8381SOL     OW28035   8.522  10.541   7.408 -0.9566 -0.3230 -0.0572
 8381SOL    HW128036   8.598  10.550   7.465 -0.8059 -0.7586 -0.1856
 8381SOL    HW228037   8.470  10.620   7.424 -0.9217 -0.4500  0.6896
 8382SOL     OW28038   6.788   1.899   3.900 -0.7175 -0.2881 -0.1061
 8382SOL    HW128039   6.810   1.909   3.807 -0.5392 -1.1738 -0.1594
 8382SOL    HW228040   6.700   1.938   3.907  0.4818  2.6973 -0.0021
 8383SOL     OW28041   7.546   3.017   1.884  0.0891  0.5757 -0.6073
 8383SOL    HW128042   7.585   3.086   1.938  0.9565  0.2782 -0.8306
 8383SOL    HW228043   7.505   2.958   1.947  1.4193  0.0286 -0.2157
 8384SOL     OW28044   6.820   5.310   7.534  0.3330  0.3519 -0.2674
 8384SOL    HW128045   6.758   5.295   7.463  0.8194 -1.2846 -0.3937
 8384SOL    HW228046   6.870   5.387   7.507 -0.2301  0.4134 -1.1675
 8385SOL     OW28047   5.640   4.044   3.497 -0.1038 -0.0540  0.0763
 8385SOL    HW128048   5.659   4.074   3.585 -5.6693 -0.4652  1.8202
 8385SOL    HW228049   5.617   4.123   3.449 -1.2583 -0.1686  0.4056
 8386SOL     OW28050   9.198   2.543   6.782 -0.0550 -0.4784 -0.3508
 8386SOL    HW128051   9.268   2.607   6.791  0.0287 -0.5603 -0.4244
 8386SOL    HW228052   9.128   2.591   6.737 -0.4115 -0.1130  0.5530
 8387SOL     OW28053   3.384   8.035   9.495 -0.1633  0.0040 -0.4558
 8387SOL    HW128054   3.303   8.060   9.450 -1.0189  1.0697  1.5492
 8387SOL    HW228055   3.365   8.047   9.588  2.2432  0.0657  0.1058
 8388SOL     OW28056   5.293   0.200   1.899  0.4574  0.0975  0.0819
 8388SOL    HW128057   5.280   0.159   1.984 -0.2332 -0.2035 -0.1636
 8388SOL    HW228058   5.384   0.230   1.901  1.4854 -2.6985 -0.2766
 8389SOL     OW28059   7.855   0.574   6.249  0.6124 -0.8356  0.2504
 8389SOL    HW128060   7.767   0.608   6.233  0.3580 -2.3349 -2.0996
 8389SOL    HW228061   7.908   0.651   6.270 -1.1861  0.1138  1.5590
 8390SOL     OW28062   2.203   3.059   1.297 -0.2575  0.5688 -0.0987
 8390SOL    HW128063   2.190   3.032   1.207 -0.5436 -1.4345  0.4998
 8390SOL    HW228064   2.268   3.129   1.292  0.2818 -0.0070 -1.7898
 8391SOL     OW28065   0.467   4.964   6.516  0.0823 -0.3331 -0.2443
 8391SOL    HW128066   0.456   5.059   6.519  1.5183 -0.1486 -0.1444
 8391SOL    HW228067   0.552   4.951   6.475  0.0845 -1.5693  0.1158
 8392SOL     OW28068   1.648   4.175   1.438  0.1769  0.0459  0.2515
 8392SOL    HW128069   1.602   4.091   1.429  0.1387  0.1390 -0.4774
 8392SOL    HW228070   1.639   4.197   1.530  0.9016 -1.1627  0.6374
 8393SOL     OW28071   3.034   2.359   1.502  0.1996  0.1306  0.0131
 8393SOL    HW128072   3.010   2.390   1.415  1.2261  0.7766 -0.0623
 8393SOL    HW228073   3.127   2.380   1.510 -0.0961  0.9784  1.6382
 8394SOL     OW28074   2.555   3.042   4.751  0.5260  0.5972 -0.7707
 8394SOL    HW128075   2.524   2.952   4.755 -0.8968  1.1088  0.7086
 8394SOL    HW228076   2.621   3.048   4.820 -0.0621  0.9156 -0.2276
 8395SOL     OW28077  10.237   4.016   7.054  0.1287  0.1921 -0.1544
 8395SOL    HW128078  10.185   3.973   7.123  0.1623  1.7241  0.8639
 8395SOL    HW228079  10.172   4.052   6.995  0.0356  1.0054  0.4298
 8396SOL     OW28080   8.643   7.466   7.830  0.1754  0.3017  0.0284
 8396SOL    HW128081   8.652   7.454   7.925  2.4255 -0.7701 -0.2450
 8396SOL    HW228082   8.732   7.457   7.797 -0.6085  0.3580 -2.2415
 8397SOL     OW28083   7.291   9.020   6.732 -0.1756  0.0099 -0.1973
 8397SOL    HW128084   7.295   9.053   6.822 -2.1669  1.6330 -0.6336
 8397SOL    HW228085   7.197   9.014   6.713  0.2049 -0.4943 -2.1044
 8398SOL     OW28086   5.575   9.000   2.626  0.4754  0.0928  0.5184
 8398SOL    HW128087   5.523   9.080   2.625 -0.0484 -0.2326  0.9965
 8398SOL    HW228088   5.510   8.929   2.625  0.9095 -0.3176  0.8471
 8399SOL     OW28089   9.281   4.074   5.233 -0.3261 -0.5233  0.4360
 8399SOL    HW128090   9.267   3.983   5.208 -1.7852 -0.0678 -0.5058
 8399SOL    HW228091   9.271   4.123   5.151  1.1964  0.4404  0.7790
 8400SOL     OW28092   2.396   6.739   7.625 -0.0593 -0.1589  0.0355
 8400SOL    HW128093   2.448   6.699   7.695  0.7526  0.7073 -0.0509
 8400SOL    HW228094   2.306   6.737   7.657  0.0904 -1.2275  0.4088
 8401SOL     OW28095   8.067   6.428   5.440 -0.5012  0.1140  0.8635
 8401SOL    HW128096   7.984   6.451   5.397 -0.2846  0.8246  0.8107
 8401SOL    HW228097   8.107   6.513   5.460 -0.5430 -0.2032  2.3809
 8402SOL     OW28098   0.273  10.411   3.188 -0.0724 -0.3160 -0.1466
 8402SOL    HW128099   0.283  10.505   3.204  0.3262 -0.0740 -1.6191
 8402SOL    HW228100   0.182  10.401   3.159 -1.5468 -1.0893  4.0823
 8403SOL     OW28101   3.884   8.103   1.914 -0.4702 -0.1934 -1.1410
 8403SOL    HW128102   3.802   8.136   1.876 -0.5002  1.7327  0.4607
 8403SOL    HW228103   3.856   8.055   1.992 -0.1020  0.5440 -0.5394
 8404SOL     OW28104   9.167   1.454   6.702  0.1128 -0.0298  0.2815
 8404SOL    HW128105   9.153   1.364   6.732  0.6639  0.3828  1.9315
 8404SOL    HW228106   9.079   1.489   6.690 -0.2290  0.0486  2.4679
 8405SOL     OW28107   0.813   7.055   2.759  0.0692  0.2813  0.1186
 8405SOL    HW128108   0.840   7.001   2.834  1.0648  0.0973 -0.3692
 8405SOL    HW228109   0.878   7.124   2.754  0.4630 -0.1664 -1.0714
 8406SOL     OW28110   3.948   5.071   7.132 -0.3283  0.1782  0.3676
 8406SOL    HW128111   3.974   5.159   7.104 -0.8814  0.5519  0.9892
 8406SOL    HW228112   4.031   5.023   7.142 -0.0859  0.1956 -1.3073
 8407SOL     OW28113   9.671   0.527   6.076 -0.2022  0.2111  0.3039
 8407SOL    HW128114   9.682   0.623   6.077  1.9999  0.1099 -2.6000
 8407SOL    HW228115   9.576   0.515   6.073 -0.5238  2.3764 -0.6152
 8408SOL     OW28116   3.942   5.736   4.188 -0.0777 -0.1758 -0.7390
 8408SOL    HW128117   3.898   5.659   4.153  1.1777 -1.0453 -0.4816
 8408SOL    HW228118   3.907   5.746   4.277 -0.7976  0.0106 -1.0420
 8409SOL     OW28119   9.140   4.138   6.811 -0.0170 -0.2204  0.2103
 8409SOL    HW128120   9.153   4.101   6.724 -0.1792 -1.5319  0.7070
 8409SOL    HW228121   9.213   4.103   6.863 -1.1896 -1.4084  1.1488
 8410SOL     OW28122   1.100   1.255   4.903  0.1482  0.1057 -0.2410
 8410SOL    HW128123   1.010   1.235   4.930  0.0566  0.9896  0.1675
 8410SOL    HW228124   1.096   1.345   4.869  1.1591  0.8361  1.4008
 8411SOL     OW28125  10.465   7.332  10.277  0.3547  0.0121  0.1393
 8411SOL    HW128126  10.454   7.382  10.358 -1.4203 -1.8201  1.1323
 8411SOL    HW228127  10.398   7.264  10.282  2.2120 -2.0892 -1.4018
 8412SOL     OW28128   1.671   1.238   0.684 -0.3006  1.0019 -0.2802
 8412SOL    HW128129   1.748   1.252   0.629  0.2467  0.6154  0.3759
 8412SOL    HW228130   1.676   1.305   0.751 -0.4546  0.8825 -0.1466
 8413SOL     OW28131   1.895   0.718  10.039 -0.1238  0.2151  0.4310
 8413SOL    HW128132   1.855   0.632  10.047 -0.7492  0.3988 -0.5748
 8413SOL    HW228133   1.826   0.774  10.005  0.6441  0.8175 -0.1751
 8414SOL     OW28134   7.952   6.724   0.908  0.7408 -0.0099 -0.2223
 8414SOL    HW128135   8.047   6.738   0.906  0.7785 -0.3870 -1.4016
 8414SOL    HW228136   7.940   6.650   0.968  1.3059 -0.8122 -1.0874
 8415SOL     OW28137   1.575   7.591   4.780  0.2278  0.1993  0.2083
 8415SOL    HW128138   1.534   7.540   4.711  2.2699 -0.1555 -0.8184
 8415SOL    HW228139   1.626   7.527   4.830 -0.9264  0.5133  1.8555
 8416SOL     OW28140   6.063   7.788   4.658 -0.3027  0.5726  0.1143
 8416SOL    HW128141   6.022   7.829   4.734 -2.7468 -1.8022  0.2054
 8416SOL    HW228142   6.103   7.708   4.692  2.0844  1.3870 -0.5127
 8417SOL     OW28143   2.763   3.768   4.190  0.5028 -0.7781 -0.0828
 8417SOL    HW128144   2.785   3.820   4.267 -0.7020 -0.4495  0.0587
 8417SOL    HW228145   2.750   3.679   4.224 -0.9129 -0.4658  0.2794
 8418SOL     OW28146   6.443   6.324   9.459 -0.2835  0.1937 -0.2412
 8418SOL    HW128147   6.457   6.294   9.548 -1.6722 -0.9769 -0.3725
 8418SOL    HW228148   6.383   6.398   9.468  2.6426  2.7345  0.0325
 8419SOL     OW28149   0.605   2.113   1.776 -0.2742  0.4291  0.0676
 8419SOL    HW128150   0.571   2.160   1.852 -0.1874 -1.4509  1.3104
 8419SOL    HW228151   0.673   2.056   1.811  1.5087  1.2903 -1.8052
 8420SOL     OW28152   1.244   0.063   3.706 -0.1121  0.8454  0.1486
 8420SOL    HW128153   1.182   0.022   3.646 -0.7816  0.2960  1.1773
 8420SOL    HW228154   1.291   0.127   3.653  1.3578 -1.5818 -1.6980
 8421SOL     OW28155   2.396   2.056   3.921 -0.0882  0.2908  0.3724
 8421SOL    HW128156   2.434   2.024   3.839  1.4073  0.1581  1.0968
 8421SOL    HW228157   2.337   1.985   3.948 -0.0747  0.0394 -0.2296
 8422SOL     OW28158   0.246   4.369   4.511 -0.0592  0.0167  0.3967
 8422SOL    HW128159   0.174   4.407   4.563  0.7056  1.9652  0.1394
 8422SOL    HW228160   0.308   4.336   4.576 -1.0241 -1.4138  0.6246
 8423SOL     OW28161   9.555   2.201   4.303  0.0176  0.5870 -0.2457
 8423SOL    HW128162   9.531   2.225   4.392  1.5504  1.3102 -0.0046
 8423SOL    HW228163   9.626   2.261   4.280  1.0508 -0.9267 -1.1980
 8424SOL     OW28164   0.992   7.592   0.948  0.3638  0.0364 -0.0657
 8424SOL    HW128165   1.044   7.519   0.912  2.0258  1.0335  0.2037
 8424SOL    HW228166   1.035   7.612   1.031 -1.1858  0.1749  0.7258
 8425SOL     OW28167   9.153   6.434   5.621  0.3391  0.2314  0.2651
 8425SOL    HW128168   9.215   6.471   5.682  0.4280  0.0289  0.2986
 8425SOL    HW228169   9.114   6.360   5.668  0.8502 -0.3047 -0.1350
 8426SOL     OW28170   8.453   8.396  10.779 -0.1256  0.7497  0.0026
 8426SOL    HW128171   8.393   8.332  10.741 -0.0940  0.8335 -0.1890
 8426SOL    HW228172   8.437   8.391  10.873  1.8898 -1.6339  0.3232
 8427SOL     OW28173   2.308   8.800   3.609  0.2683  0.0035  0.2765
 8427SOL    HW128174   2.353   8.720   3.585 -0.6838 -0.4943  0.1146
 8427SOL    HW228175   2.341   8.822   3.696  1.7661  0.3602 -0.3649
 8428SOL     OW28176   7.580   0.672   8.193  0.0477  0.6505  0.2217
 8428SOL    HW128177   7.671   0.645   8.203 -0.6829 -2.6056 -0.9714
 8428SOL    HW228178   7.581   0.732   8.119  1.1932  0.5964  0.1743
 8429SOL     OW28179   3.639   6.511   9.733 -0.4238  0.6013 -0.3883
 8429SOL    HW128180   3.555   6.465   9.731 -0.2568  0.2365  0.4418
 8429SOL    HW228181   3.628   6.579   9.800  1.1904 -2.0488  2.8489
 8430SOL     OW28182   9.773   9.492   0.057  0.2455  0.9415  0.2418
 8430SOL    HW128183   9.863   9.523   0.067  0.4496  0.5412 -0.2907
 8430SOL    HW228184   9.719   9.566   0.084  0.7260  1.6122 -0.5706
 8431SOL     OW28185   6.042   5.115   1.094  0.1170  0.2148  0.0975
 8431SOL    HW128186   6.128   5.157   1.098 -0.5445  1.6233 -0.0214
 8431SOL    HW228187   5.988   5.174   1.042 -0.0177 -2.3406 -2.9786
 8432SOL     OW28188   9.990   5.853   5.997  0.5105 -0.0346 -0.2912
 8432SOL    HW128189   9.917   5.850   5.934  1.2587 -2.6737 -1.1480
 8432SOL    HW228190   9.986   5.942   6.033 -1.7501  0.6321 -1.9213
 8433SOL     OW28191   0.204   1.489   6.783  0.6632 -0.0906 -0.2185
 8433SOL    HW128192   0.131   1.445   6.739  0.3765 -1.2546  1.3205
 8433SOL    HW228193   0.283   1.451   6.744  0.4305 -2.4324  1.3758
 8434SOL     OW28194   0.245   5.023   7.526  0.0312 -0.8987 -0.1546
 8434SOL    HW128195   0.177   5.039   7.591  0.1517 -0.7276 -0.0669
 8434SOL    HW228196   0.253   5.107   7.479  0.3400 -0.8450 -0.0108
 8435SOL     OW28197   3.447   0.641   0.685  0.4052  0.0223  0.1980
 8435SOL    HW128198   3.369   0.667   0.735 -0.9969  0.8957 -2.2470
 8435SOL    HW228199   3.451   0.546   0.696 -0.8943 -0.0201  0.5468
 8436SOL     OW28200   4.019   8.403   5.534 -0.1987 -0.6366 -0.0946
 8436SOL    HW128201   4.101   8.453   5.532 -0.9499  0.7562  1.6407
 8436SOL    HW228202   4.036   8.331   5.595  0.0522 -0.9911 -0.5725
 8437SOL     OW28203   0.349   3.028   3.663 -0.0665 -0.1533 -0.0996
 8437SOL    HW128204   0.396   3.043   3.745 -0.3685 -0.7919  0.2026
 8437SOL    HW228205   0.416   3.003   3.600  0.3491  1.6586 -0.4220
 8438SOL     OW28206   0.407   1.595   5.924  0.7594 -0.5127 -0.2122
 8438SOL    HW128207   0.394   1.647   5.844  1.0161 -1.7561 -1.1040
 8438SOL    HW228208   0.318   1.574   5.953  0.6615 -0.1570 -0.2556
 8439SOL     OW28209   3.685  10.648   1.325 -0.0652  0.2411  0.5624
 8439SOL    HW128210   3.734  10.569   1.303  1.6930  0.9381  1.7488
 8439SOL    HW228211   3.604  10.616   1.363 -1.0011 -0.9576 -2.1679
 8440SOL     OW28212   9.124   9.034   9.357 -0.1156  0.1042 -0.2025
 8440SOL    HW128213   9.097   8.943   9.370  0.6716 -0.0778  0.2714
 8440SOL    HW228214   9.195   9.029   9.294 -0.3793  0.4431 -0.5294
 8441SOL     OW28215   3.272   9.655   2.339 -0.2203 -0.5880 -0.1326
 8441SOL    HW128216   3.311   9.662   2.251 -0.0720 -2.3958 -0.2672
 8441SOL    HW228217   3.243   9.564   2.344  1.4131 -1.0640  2.3404
 8442SOL     OW28218   5.274   5.359   5.048 -0.6672 -0.4953 -0.0198
 8442SOL    HW128219   5.294   5.322   5.134  0.2884  0.4000  0.1536
 8442SOL    HW228220   5.191   5.404   5.060  1.0675  2.5988  1.4122
 8443SOL     OW28221   8.609  10.196   8.703  0.2251 -0.4892 -0.0068
 8443SOL    HW128222   8.617  10.101   8.703  1.1952 -0.4310  1.0217
 8443SOL    HW228223   8.541  10.215   8.767 -0.5545 -0.5058 -0.8056
 8444SOL     OW28224   9.886   0.390   7.661  0.2166  0.1807  0.0119
 8444SOL    HW128225   9.940   0.382   7.739  1.1377 -0.3487 -0.6578
 8444SOL    HW228226   9.912   0.474   7.622  1.6278 -0.6943 -1.0529
 8445SOL     OW28227   3.453   9.271   5.213  0.0692 -0.0917  0.0419
 8445SOL    HW128228   3.488   9.251   5.299 -0.8388  1.6019  0.8580
 8445SOL    HW228229   3.530   9.288   5.158  0.6276  1.1751  1.1600
 8446SOL     OW28230   6.759   9.572   9.106 -0.2460  0.3489  0.0288
 8446SOL    HW128231   6.667   9.594   9.116 -0.1262  1.0086 -0.2890
 8446SOL    HW228232   6.774   9.572   9.011  0.5071  2.0706  0.1173
 8447SOL     OW28233   4.798  10.357   1.035  0.3678 -0.4051  0.3029
 8447SOL    HW128234   4.833  10.276   1.073  0.2430  0.4219  2.3015
 8447SOL    HW228235   4.828  10.426   1.094 -0.1719  0.9489 -0.9331
 8448SOL     OW28236   8.570  10.054   3.408  0.2946  0.1696 -0.8113
 8448SOL    HW128237   8.582   9.964   3.378 -1.5235 -0.4753  0.2253
 8448SOL    HW228238   8.541  10.101   3.331  1.0546 -0.1607 -1.3136
 8449SOL     OW28239   4.366   9.633   1.886 -0.0880  0.3678  0.2891
 8449SOL    HW128240   4.311   9.599   1.815  1.0658 -1.1586  0.0813
 8449SOL    HW228241   4.307   9.638   1.961 -0.8435  0.0983 -0.2706
 8450SOL     OW28242   5.072   1.862   1.566  0.3067 -0.0742 -0.1965
 8450SOL    HW128243   4.998   1.921   1.551  1.1618  1.2603  0.6951
 8450SOL    HW228244   5.044   1.806   1.638  0.2338  0.5508  0.2642
 8451SOL     OW28245   2.697   6.481   0.551 -0.3583  0.0591  0.0513
 8451SOL    HW128246   2.756   6.507   0.480  0.1647  1.3773  0.9312
 8451SOL    HW228247   2.738   6.515   0.630 -1.5844 -0.2486  0.8430
 8452SOL     OW28248   0.015   1.738   8.729 -0.4209  0.3950 -0.2082
 8452SOL    HW128249  -0.036   1.803   8.681  0.9331  1.9534  0.3567
 8452SOL    HW228250   0.026   1.777   8.816 -2.7791 -2.2993  1.4814
 8453SOL     OW28251   9.749   1.051   4.049  0.1288  0.3926  0.1262
 8453SOL    HW128252   9.735   0.979   4.110  1.3672 -1.3939 -1.5740
 8453SOL    HW228253   9.833   1.088   4.074  1.0086 -0.8336 -0.8706
 8454SOL     OW28254   8.158   1.579   8.725 -0.4722 -0.1066  0.2149
 8454SOL    HW128255   8.091   1.580   8.793 -0.3007  0.5738  0.3783
 8454SOL    HW228256   8.160   1.488   8.696 -1.8661 -0.0380 -0.1930
 8455SOL     OW28257   4.937   9.569   7.772  0.2910 -0.0377 -0.1715
 8455SOL    HW128258   4.898   9.633   7.713 -0.9748 -0.9484 -0.3730
 8455SOL    HW228259   5.026   9.600   7.787  0.2509  0.8315 -1.6219
 8456SOL     OW28260   7.640  10.259   0.769  0.0833 -0.3545 -0.0100
 8456SOL    HW128261   7.657  10.317   0.843  0.3648 -0.0944 -0.2752
 8456SOL    HW228262   7.726  10.245   0.729 -0.1391 -0.0237 -0.6276
 8457SOL     OW28263   5.208   6.326   6.159 -0.6453 -0.3231 -0.3880
 8457SOL    HW128264   5.200   6.417   6.187  2.7457  0.4729 -1.5474
 8457SOL    HW228265   5.230   6.278   6.239 -3.3932 -0.4394  0.4191
 8458SOL     OW28266   9.867   7.302   0.661 -0.3393 -0.0781  0.6806
 8458SOL    HW128267   9.856   7.359   0.736 -0.6049  0.6357  0.1075
 8458SOL    HW228268   9.851   7.358   0.585 -0.0247 -0.7709  0.0866
 8459SOL     OW28269   3.032   6.169   7.437  0.0338  0.8852  0.1151
 8459SOL    HW128270   3.026   6.119   7.518 -0.4707  1.4529  0.4342
 8459SOL    HW228271   2.982   6.118   7.374 -0.1412  0.7854  0.3333
 8460SOL     OW28272   8.553   7.083   1.044 -0.3387  0.4718 -0.1512
 8460SOL    HW128273   8.489   7.080   1.115 -1.3055  1.4812 -0.9443
 8460SOL    HW228274   8.636   7.062   1.086 -1.1070 -0.4495  0.9880
 8461SOL     OW28275   4.124   8.242   3.665 -0.1335  0.3874 -0.0087
 8461SOL    HW128276   4.064   8.278   3.730 -1.3075  0.1770 -0.9298
 8461SOL    HW228277   4.145   8.317   3.608  1.8057  0.8474  1.2255
 8462SOL     OW28278   7.791   0.609  10.258  0.7797 -0.0999  0.3481
 8462SOL    HW128279   7.868   0.612  10.202  0.2927 -0.0646 -0.3281
 8462SOL    HW228280   7.824   0.631  10.345  1.4656  0.3000 -0.0031
 8463SOL     OW28281   7.306   8.965   0.097  0.0932  0.2613 -0.0414
 8463SOL    HW128282   7.360   8.941   0.022 -1.0414  0.0635 -0.8309
 8463SOL    HW228283   7.330   8.903   0.166  1.7599  0.9834  0.0639
 8464SOL     OW28284   3.104   2.769   5.009  0.1339  0.5882 -0.0511
 8464SOL    HW128285   3.098   2.830   5.083  1.3578 -0.6148  1.1191
 8464SOL    HW228286   3.059   2.691   5.040 -1.7487  0.9586 -1.6697
 8465SOL     OW28287   6.965   8.498   4.382  0.2927  0.0984 -0.0402
 8465SOL    HW128288   6.928   8.437   4.445 -1.0201 -0.1661 -1.0018
 8465SOL    HW228289   6.919   8.580   4.398 -1.2855 -0.3978 -1.6630
 8466SOL     OW28290   0.705  10.079   2.913  0.0296 -0.0112  0.4760
 8466SOL    HW128291   0.637  10.014   2.894  0.5403 -0.9424  1.7205
 8466SOL    HW228292   0.674  10.124   2.992  1.1216 -0.8746  1.4293
 8467SOL     OW28293   3.689   6.683   6.632  0.0168  0.1085 -0.0860
 8467SOL    HW128294   3.697   6.618   6.702 -1.2387  0.9960  0.9509
 8467SOL    HW228295   3.644   6.757   6.673  0.9800  1.4638 -1.3427
 8468SOL     OW28296   5.998   5.508   1.976  0.3339 -0.0964  0.0433
 8468SOL    HW128297   5.988   5.504   1.881 -0.4058 -0.5854  0.1273
 8468SOL    HW228298   6.009   5.417   2.003 -0.9376 -0.1264  0.5506
 8469SOL     OW28299   0.908   9.982   8.376  0.2625 -0.1858  0.0109
 8469SOL    HW128300   0.905  10.031   8.458 -2.1170 -1.6484  0.8870
 8469SOL    HW228301   0.919  10.049   8.308  3.2208  0.9994  1.4636
 8470SOL     OW28302   6.446   5.634   4.945  0.2455  0.4889 -0.3408
 8470SOL    HW128303   6.542   5.631   4.946  0.2229 -2.0750  0.9748
 8470SOL    HW228304   6.420   5.557   4.895 -1.0718 -0.7043  2.0018
 8471SOL     OW28305   5.980   0.223   0.555 -0.0396  0.6642 -0.2747
 8471SOL    HW128306   6.060   0.207   0.505 -0.0267  1.5245 -0.5343
 8471SOL    HW228307   5.956   0.313   0.534  0.2804  1.2456  1.7132
 8472SOL     OW28308   0.678   0.331  10.399 -0.0638 -0.1380  0.0229
 8472SOL    HW128309   0.743   0.266  10.371  2.2047  0.7913  2.7012
 8472SOL    HW228310   0.666   0.315  10.492 -1.9802  1.2376  0.0657
 8473SOL     OW28311   5.686   1.632   1.335  1.0666  0.0271 -0.1458
 8473SOL    HW128312   5.774   1.671   1.330  0.9805  0.6724  2.0949
 8473SOL    HW228313   5.685   1.586   1.419 -1.1521  1.2010  0.5625
 8474SOL     OW28314   6.799   2.238   5.496 -0.2001 -0.3741 -0.1707
 8474SOL    HW128315   6.719   2.287   5.517 -0.4465 -1.0239  0.4258
 8474SOL    HW228316   6.828   2.203   5.580 -0.1817 -1.4844 -0.6275
 8475SOL     OW28317  10.631   7.177   8.366 -0.0195 -0.4509  0.4154
 8475SOL    HW128318  10.663   7.229   8.293  0.0240  1.0266  1.4437
 8475SOL    HW228319  10.589   7.240   8.424  0.7732 -1.4265  2.1222
 8476SOL     OW28320   4.895   7.899  10.185  0.2014  0.4022 -0.2318
 8476SOL    HW128321   4.848   7.973  10.222  1.0098  1.4697 -1.2510
 8476SOL    HW228322   4.984   7.908  10.219 -0.3009 -1.8958  2.1217
 8477SOL     OW28323   2.825   7.632   0.738 -0.0983  0.4533  0.4381
 8477SOL    HW128324   2.912   7.668   0.717  0.3156 -1.2205 -0.9381
 8477SOL    HW228325   2.804   7.669   0.823  1.8824  1.0682  0.7171
 8478SOL     OW28326   6.194   6.440   9.443 -0.4781 -0.7828 -0.2678
 8478SOL    HW128327   6.187   6.535   9.454  1.4836 -0.5894 -0.3287
 8478SOL    HW228328   6.175   6.425   9.351 -2.3075 -0.6493  0.0655
 8479SOL     OW28329   8.652   3.822   0.404  0.1124 -0.2590  0.0854
 8479SOL    HW128330   8.606   3.774   0.335 -0.1394 -0.8676  0.6562
 8479SOL    HW228331   8.739   3.783   0.407  0.2883  0.1049 -0.2166
 8480SOL     OW28332   2.621   1.398  10.653  0.2667  0.2221 -0.0713
 8480SOL    HW128333   2.687   1.418  10.586  0.7870  1.1286  0.6929
 8480SOL    HW228334   2.631   1.468  10.718 -0.7041 -0.2549  0.6057
 8481SOL     OW28335   6.894   8.523   0.843  1.0206  0.1758 -0.0919
 8481SOL    HW128336   6.922   8.489   0.758 -1.5591  2.6238 -2.1124
 8481SOL    HW228337   6.813   8.477   0.863  0.5437  1.0405  0.0145
 8482SOL     OW28338   3.191   3.117   3.001 -0.0651 -0.1240 -0.5464
 8482SOL    HW128339   3.118   3.177   2.983  0.6395  0.3394 -2.0013
 8482SOL    HW228340   3.262   3.148   2.945  2.0596  0.8323  2.4692
 8483SOL     OW28341   0.195   5.170   0.928 -0.4051 -0.3294  0.3449
 8483SOL    HW128342   0.150   5.130   0.853  1.3488 -0.4279 -0.6899
 8483SOL    HW228343   0.279   5.125   0.933  0.0204  0.5479  1.6057
 8484SOL     OW28344  10.105   4.414   0.839  1.1619  0.2496  0.4774
 8484SOL    HW128345  10.135   4.387   0.926  0.6327  0.6390  0.7896
 8484SOL    HW228346  10.022   4.459   0.856 -0.2453 -1.8558 -0.4659
 8485SOL     OW28347  10.535   3.379   4.082 -0.2191 -0.4880  0.2864
 8485SOL    HW128348  10.530   3.344   4.171 -0.3147  1.1765  0.9768
 8485SOL    HW228349  10.605   3.329   4.041 -0.1848 -1.3041  1.2994
 8486SOL     OW28350   4.036   0.377   0.617  0.4563 -0.5315 -0.4403
 8486SOL    HW128351   4.052   0.471   0.604 -0.8195 -0.4380 -1.4923
 8486SOL    HW228352   4.087   0.355   0.695 -1.1937  1.6237  1.4161
 8487SOL     OW28353   6.887   0.646   7.051  0.1768 -0.1563 -0.2067
 8487SOL    HW128354   6.972   0.613   7.082 -0.3860 -0.0220  1.6021
 8487SOL    HW228355   6.910   0.714   6.987  1.4061 -0.6929 -0.3683
 8488SOL     OW28356   9.923  10.199   3.972  0.3668  0.3084 -0.0888
 8488SOL    HW128357   9.895  10.208   3.881 -0.7519  1.8719  0.3689
 8488SOL    HW228358   9.969  10.281   3.991  1.2070 -0.2913  0.5668
 8489SOL     OW28359   2.953  10.251   9.321  0.4537  0.5676  0.2890
 8489SOL    HW128360   2.924  10.333   9.281 -1.4855  0.0849  0.6071
 8489SOL    HW228361   3.009  10.278   9.394 -0.7050  1.6549  0.8160
 8490SOL     OW28362   1.312   5.828   6.484  0.6562  0.9100  0.0693
 8490SOL    HW128363   1.249   5.774   6.532 -0.0087  1.3210 -0.3167
 8490SOL    HW228364   1.320   5.907   6.538  0.5824  0.9965 -0.0449
 8491SOL     OW28365   5.442   9.402   9.211 -0.6054  0.0314  0.4405
 8491SOL    HW128366   5.356   9.384   9.250 -0.8751  1.5107  0.5960
 8491SOL    HW228367   5.479   9.470   9.267 -0.6734  1.6774 -1.3887
 8492SOL     OW28368   2.155   0.646   0.081  0.3346 -0.1322  0.5626
 8492SOL    HW128369   2.157   0.562   0.035 -1.8947 -0.3330  0.7610
 8492SOL    HW228370   2.071   0.684   0.058  1.6591  2.5669 -0.3270
 8493SOL     OW28371   0.670   1.839   4.394  0.8077 -0.0659  0.7338
 8493SOL    HW128372   0.709   1.766   4.442  1.2038  0.8649  1.9024
 8493SOL    HW228373   0.689   1.916   4.449 -1.0145  0.6928  0.3728
 8494SOL     OW28374   9.345  10.548   6.535  0.1382  0.2048 -0.0782
 8494SOL    HW128375   9.361  10.597   6.615  0.6347  0.1743 -0.1563
 8494SOL    HW228376   9.308  10.612   6.474  1.9237  0.7930 -0.5854
 8495SOL     OW28377   2.683   0.190   7.938 -0.0992 -0.1323 -0.1957
 8495SOL    HW128378   2.771   0.228   7.941 -0.3139  0.6384 -2.1683
 8495SOL    HW228379   2.631   0.243   7.999  1.1828 -1.8884  2.6272
 8496SOL     OW28380   0.535   8.772   1.356  0.1249 -0.0899 -0.1526
 8496SOL    HW128381   0.466   8.722   1.399  0.5522 -0.5941 -0.0401
 8496SOL    HW228382   0.604   8.708   1.339  1.7435  0.8613  2.2100
 8497SOL     OW28383   1.118   2.394   6.329  0.1109 -0.1692  0.1382
 8497SOL    HW128384   1.096   2.371   6.239 -0.1812  0.4572  0.0483
 8497SOL    HW228385   1.193   2.338   6.350 -0.5250 -1.1321 -0.1051
 8498SOL     OW28386   3.584   4.149   3.269 -0.0313 -0.5761  0.1836
 8498SOL    HW128387   3.496   4.118   3.248 -0.6005  1.0684 -0.0110
 8498SOL    HW228388   3.585   4.156   3.364 -0.8456  1.2759  0.1125
 8499SOL     OW28389   4.081   1.445   1.006  0.3878  0.0972  0.4759
 8499SOL    HW128390   4.072   1.430   0.912  1.6222 -0.9126  0.4908
 8499SOL    HW228391   4.170   1.416   1.027  1.1401  2.9037  1.4989
 8500SOL     OW28392   9.768   9.233   0.453 -0.4524  0.6840  0.6315
 8500SOL    HW128393   9.782   9.321   0.487  0.5552  0.7590  0.0540
 8500SOL    HW228394   9.726   9.248   0.367  2.8919  0.8228 -1.1348
 8501SOL     OW28395   3.217   9.921   5.023  0.3408  0.2498  0.7883
 8501SOL    HW128396   3.266   9.898   4.943  0.0011  0.2599  0.5767
 8501SOL    HW228397   3.153   9.986   4.994  1.0620  1.2242  1.3189
 8502SOL     OW28398   9.203   9.474   0.770  0.0595  0.0065 -0.3591
 8502SOL    HW128399   9.284   9.424   0.777  0.2826  0.4649  0.5871
 8502SOL    HW228400   9.181   9.496   0.861 -0.1989  1.3327 -0.7155
 8503SOL     OW28401   2.931   8.881   9.605 -0.0240  0.4032  0.1956
 8503SOL    HW128402   3.012   8.838   9.632  0.8951  0.4809 -2.1425
 8503SOL    HW228403   2.862   8.817   9.624  0.6884 -0.0329  1.4008
 8504SOL     OW28404   3.041   2.484   3.778  0.2352 -0.4899  0.0691
 8504SOL    HW128405   3.025   2.450   3.690  0.9332  0.0961 -0.2916
 8504SOL    HW228406   3.136   2.478   3.790  0.1066 -0.9912  0.9668
 8505SOL     OW28407   5.703   3.630   1.568  0.4082  0.2611  0.0103
 8505SOL    HW128408   5.771   3.563   1.574  1.7465  1.5008 -0.6373
 8505SOL    HW228409   5.683   3.636   1.475  0.8168  1.2220 -0.0333
 8506SOL     OW28410   3.138   9.877   2.646 -0.1594 -0.9000  0.0970
 8506SOL    HW128411   3.230   9.852   2.636  0.5993  1.2257  1.0739
 8506SOL    HW228412   3.141   9.967   2.678 -2.6105 -0.6688 -0.1132
 8507SOL     OW28413   8.381   8.565   2.873 -0.2360 -0.4556 -0.3896
 8507SOL    HW128414   8.322   8.613   2.815  0.7694  0.1845 -0.9078
 8507SOL    HW228415   8.345   8.579   2.961  0.6312  2.2771 -0.3713
 8508SOL     OW28416   7.802   2.398   2.200  0.3386  0.2636 -0.0015
 8508SOL    HW128417   7.880   2.398   2.144  1.3428  0.2780  1.3680
 8508SOL    HW228418   7.828   2.348   2.277 -0.7730  0.9143  0.8049
 8509SOL     OW28419   9.004   8.516   6.145 -0.1524 -0.5040 -0.9792
 8509SOL    HW128420   9.073   8.565   6.101  0.0479  0.2474  0.1229
 8509SOL    HW228421   9.041   8.429   6.159  0.4179 -0.2334 -0.7791
 8510SOL     OW28422   0.476   9.455   9.215 -0.1007 -0.1387 -0.7248
 8510SOL    HW128423   0.489   9.548   9.234 -0.7601 -0.6315  2.7704
 8510SOL    HW228424   0.550   9.412   9.257 -0.3271 -1.2851 -1.4686
 8511SOL     OW28425   2.353   7.132   0.667 -0.6688  0.3277 -0.1126
 8511SOL    HW128426   2.321   7.216   0.700 -0.0066  0.9991 -1.1556
 8511SOL    HW228427   2.350   7.074   0.744  3.5190  2.5221  2.0606
 8512SOL     OW28428   3.742   9.963   1.975  0.1078 -0.0158 -0.5399
 8512SOL    HW128429   3.772  10.010   1.897 -0.5573  0.6752 -0.3868
 8512SOL    HW228430   3.723   9.874   1.944 -0.9666  0.4825 -1.3505
 8513SOL     OW28431   4.094   1.621   7.795  0.0638  0.5204 -0.4174
 8513SOL    HW128432   4.000   1.639   7.792 -0.2624 -1.0282 -0.4622
 8513SOL    HW228433   4.113   1.578   7.712  0.7193  0.4218 -0.2232
 8514SOL     OW28434   5.224   0.776   7.776  0.2740 -0.2370  0.0712
 8514SOL    HW128435   5.289   0.706   7.784  0.3036 -0.1488  0.6877
 8514SOL    HW228436   5.144   0.738   7.812  0.4338  0.2163  0.9538
 8515SOL     OW28437   0.663   5.721   2.581 -0.2961  0.4560 -0.4094
 8515SOL    HW128438   0.638   5.730   2.489  0.0494  0.4979 -0.4990
 8515SOL    HW228439   0.735   5.658   2.580 -0.5930  0.1089 -0.1200
 8516SOL     OW28440  10.283   6.278   6.891  0.4218 -0.3868  0.0695
 8516SOL    HW128441  10.375   6.268   6.868  0.9321  1.0197  1.2867
 8516SOL    HW228442  10.255   6.358   6.846  0.0267 -0.3921  0.2952
 8517SOL     OW28443   5.962   9.075  10.769 -0.1258  0.2447  0.3052
 8517SOL    HW128444   5.963   9.143  10.702  0.6644 -0.1469 -0.0912
 8517SOL    HW228445   5.986   8.995  10.723 -1.4986 -0.4153  0.6615
 8518SOL     OW28446   0.657   1.696  10.238  0.0573  0.4263 -0.0829
 8518SOL    HW128447   0.669   1.721  10.329 -1.0592 -1.1527  0.5409
 8518SOL    HW228448   0.606   1.767  10.200 -1.9831 -0.2006  1.3050
 8519SOL     OW28449   1.158   2.033   3.466 -0.3619  0.1278 -0.9959
 8519SOL    HW128450   1.175   1.941   3.482  0.0154  0.0612 -1.7357
 8519SOL    HW228451   1.066   2.036   3.437 -0.6504  0.1010 -0.1090
 8520SOL     OW28452   9.029   7.753   0.974 -0.3622 -0.2844  0.1342
 8520SOL    HW128453   9.056   7.703   1.051  1.5291  1.6695  0.8196
 8520SOL    HW228454   9.108   7.764   0.923 -0.2721  3.2421  0.7927
 8521SOL     OW28455   5.979   5.272   9.260  0.1053  0.1113  0.7297
 8521SOL    HW128456   5.964   5.201   9.198  0.2507  1.7606 -1.2967
 8521SOL    HW228457   5.893   5.311   9.274  0.1714  0.1271  1.1215
 8522SOL     OW28458   1.975  10.379   2.673 -0.2915 -0.0973  0.5359
 8522SOL    HW128459   1.950  10.447   2.735  1.2353  1.9000 -0.9024
 8522SOL    HW228460   2.036  10.423   2.613 -0.2254 -2.4171 -1.2198
 8523SOL     OW28461   7.313   2.364   6.447  0.4699 -0.0103  0.5345
 8523SOL    HW128462   7.262   2.416   6.509  0.4249 -1.1177  1.4524
 8523SOL    HW228463   7.353   2.429   6.389 -0.6623  0.9641  0.8083
 8524SOL     OW28464   8.116   5.625   1.501  0.0957  0.1086 -0.0190
 8524SOL    HW128465   8.116   5.569   1.579  0.5764  0.6186  0.3611
 8524SOL    HW228466   8.208   5.627   1.474 -0.0669 -0.0622 -0.6074
 8525SOL     OW28467   0.174   6.225   3.397 -0.1799 -0.1134 -0.0917
 8525SOL    HW128468   0.246   6.283   3.420  0.4346 -0.2001 -1.6397
 8525SOL    HW228469   0.123   6.274   3.332  0.3668 -1.2632 -1.4410
 8526SOL     OW28470   6.809   9.347   4.303  0.3802 -0.1204 -0.0992
 8526SOL    HW128471   6.837   9.427   4.258  0.5989 -0.8074 -1.2166
 8526SOL    HW228472   6.889   9.295   4.310  0.0330 -0.7018 -0.3747
 8527SOL     OW28473   7.877   5.362   4.629  0.5509 -0.5664 -0.2859
 8527SOL    HW128474   7.938   5.435   4.614 -1.4659  1.3150  0.1495
 8527SOL    HW228475   7.928   5.298   4.679  1.5861  1.9537  2.1599
 8528SOL     OW28476   5.808   1.295   0.229  0.1508  0.2855  0.0970
 8528SOL    HW128477   5.794   1.356   0.156  0.9670  1.7867  1.1201
 8528SOL    HW228478   5.769   1.340   0.305  0.3004 -0.7246  0.7867
 8529SOL     OW28479  10.066   6.465   1.556  0.1533 -0.5201 -0.0775
 8529SOL    HW128480  10.156   6.497   1.548 -0.0037  0.0067  0.1832
 8529SOL    HW228481  10.033   6.507   1.635 -0.2505 -0.8873 -0.0476
 8530SOL     OW28482  10.212   6.077   8.344 -0.1129 -0.1263  0.4201
 8530SOL    HW128483  10.226   6.081   8.250  0.2299 -0.4012  0.4606
 8530SOL    HW228484  10.169   6.160   8.365 -1.2178 -0.5336 -0.1419
 8531SOL     OW28485  10.324   0.410   5.059 -0.1374  0.3491  0.4064
 8531SOL    HW128486  10.306   0.491   5.012 -1.9431  0.0062  0.4436
 8531SOL    HW228487  10.387   0.434   5.127  1.4281  1.1401 -1.2512
 8532SOL     OW28488   4.227   2.669   9.652 -0.4382 -0.1092 -0.5225
 8532SOL    HW128489   4.215   2.714   9.568 -0.5111 -0.5607 -0.7555
 8532SOL    HW228490   4.264   2.584   9.629  0.1283  0.0046 -0.0455
 8533SOL     OW28491   1.362   2.203   5.990 -0.0988  0.1140 -0.0064
 8533SOL    HW128492   1.340   2.173   5.902 -1.6153  0.6163  0.1803
 8533SOL    HW228493   1.328   2.292   5.994  2.5204  1.2230  0.1297
 8534SOL     OW28494   8.160   1.959   0.110  0.9855 -0.2447  0.0131
 8534SOL    HW128495   8.098   2.015   0.156 -0.0478 -0.7096 -0.7874
 8534SOL    HW228496   8.188   2.010   0.035 -1.2618 -1.3386 -1.6943
 8535SOL     OW28497   7.595   0.218   3.179 -0.5249  0.0578 -1.0904
 8535SOL    HW128498   7.527   0.152   3.164  0.1044 -0.6688 -0.8054
 8535SOL    HW228499   7.673   0.183   3.137  0.0970  0.0952 -0.0160
 8536SOL     OW28500   3.904   2.579   4.991  0.0223  0.2155  0.0550
 8536SOL    HW128501   3.842   2.525   5.039 -0.2162  0.3093 -0.1415
 8536SOL    HW228502   3.931   2.646   5.053 -0.5478  0.5441 -0.0368
 8537SOL     OW28503   6.368   3.033   4.008 -0.3603 -0.0595  0.3067
 8537SOL    HW128504   6.304   3.075   3.952  0.4211  0.4016 -0.2608
 8537SOL    HW228505   6.388   2.950   3.965  1.8004  1.1922 -1.3052
 8538SOL     OW28506   9.046   1.981   9.866 -0.5264 -0.3018 -0.4262
 8538SOL    HW128507   9.131   2.010   9.833  0.1014 -2.1323 -0.5234
 8538SOL    HW228508   9.050   1.998   9.961  0.4332 -1.4428 -0.2397
 8539SOL     OW28509   9.147   6.235   8.378  0.5910 -0.1677 -0.4586
 8539SOL    HW128510   9.143   6.329   8.358  0.9480 -0.1439 -0.4224
 8539SOL    HW228511   9.211   6.229   8.449  0.4813 -0.4270 -0.3814
 8540SOL     OW28512   5.350   0.855   4.890 -0.0585 -0.1440 -0.1187
 8540SOL    HW128513   5.319   0.901   4.812  1.5088  0.8108 -0.2258
 8540SOL    HW228514   5.442   0.837   4.871 -0.0501 -1.2875  0.8984
 8541SOL     OW28515   1.792   2.926   6.409 -0.0636  0.2283 -0.5534
 8541SOL    HW128516   1.746   3.009   6.395 -0.6268 -0.2164 -1.3998
 8541SOL    HW228517   1.859   2.925   6.340 -0.3511 -0.2186 -0.8286
 8542SOL     OW28518  10.752   9.135   3.302  0.3120 -0.3571  0.3788
 8542SOL    HW128519  10.715   9.217   3.334 -0.0832 -0.4300  0.1136
 8542SOL    HW228520  10.817   9.111   3.369  0.2321  0.0226  0.5991
 8543SOL     OW28521  10.706   0.434   2.882  0.1152  0.1037 -0.3908
 8543SOL    HW128522  10.705   0.342   2.857  0.5963 -0.0595  0.1725
 8543SOL    HW228523  10.753   0.436   2.965 -0.9338  0.7025  0.2120
 8544SOL     OW28524   9.902   4.616   7.240  0.3504  0.0893  0.4313
 8544SOL    HW128525   9.959   4.693   7.243  0.5223 -0.0018 -0.2941
 8544SOL    HW228526   9.909   4.584   7.151 -1.3928  0.4846  0.1101
 8545SOL     OW28527   4.639   4.175   0.063  0.3761  0.0189  0.0687
 8545SOL    HW128528   4.689   4.098   0.090 -0.4760 -0.7370 -0.4516
 8545SOL    HW228529   4.567   4.180   0.125  1.1146  1.1691  0.8842
 8546SOL     OW28530   3.316   6.545   7.554  0.4054  0.1276 -0.2460
 8546SOL    HW128531   3.286   6.458   7.581  2.0595 -0.5469 -0.4576
 8546SOL    HW228532   3.290   6.552   7.463 -2.3754  1.1199  0.5258
 8547SOL     OW28533   1.094   3.073   2.222 -0.2547 -0.2091  0.3769
 8547SOL    HW128534   1.057   3.160   2.209  0.8672  0.1391 -0.7487
 8547SOL    HW228535   1.053   3.019   2.154  0.6937  0.0085 -0.4012
 8548SOL     OW28536  10.256   8.312   1.422  0.4928 -0.1215 -0.2135
 8548SOL    HW128537  10.212   8.380   1.371 -0.1209  0.4484  1.0184
 8548SOL    HW228538  10.348   8.340   1.426  0.5070 -0.0744 -0.8315
 8549SOL     OW28539   1.978   5.234   7.605 -0.4121 -0.7271 -0.3824
 8549SOL    HW128540   1.907   5.285   7.642  0.5624 -1.4569  2.7459
 8549SOL    HW228541   2.052   5.294   7.600 -0.1348 -1.0093  0.2779
 8550SOL     OW28542   2.755   2.322   8.668 -0.0509 -0.3738  0.3905
 8550SOL    HW128543   2.685   2.288   8.724  0.2823  0.5839  1.4313
 8550SOL    HW228544   2.711   2.347   8.586 -0.8489 -0.2117  0.8622
 8551SOL     OW28545   5.383  10.556   4.747  0.1622 -0.1498  0.1519
 8551SOL    HW128546   5.366  10.471   4.787 -0.8684  0.7124  1.6964
 8551SOL    HW228547   5.428  10.606   4.815 -0.2576  0.8848 -0.3003
 8552SOL     OW28548   7.803   1.139  10.524 -0.0426  0.0283 -0.4245
 8552SOL    HW128549   7.783   1.048  10.506 -0.9607  0.4386 -1.5430
 8552SOL    HW228550   7.774   1.153  10.615 -1.0589 -0.4689 -0.6620
 8553SOL     OW28551   9.016   0.263   3.744  0.4177 -0.4827 -0.2480
 8553SOL    HW128552   8.979   0.203   3.809 -3.0807  0.8442 -0.7666
 8553SOL    HW228553   9.006   0.350   3.783  1.0956  0.1014 -1.3239
 8554SOL     OW28554   9.625   1.095   0.108  0.1556 -0.1824  0.2525
 8554SOL    HW128555   9.719   1.075   0.105  0.1225 -0.2752 -0.6197
 8554SOL    HW228556   9.584   1.023   0.061 -0.2459  0.3893 -0.2888
 8555SOL     OW28557   4.913   2.759   5.005  0.0781 -0.1795  0.0684
 8555SOL    HW128558   4.929   2.700   5.079  2.9313  2.3272  1.6785
 8555SOL    HW228559   4.983   2.738   4.943  1.6910  1.9455  1.0609
 8556SOL     OW28560   2.154   0.045   4.209  0.6419  0.4031  0.7505
 8556SOL    HW128561   2.118   0.008   4.290 -0.3296 -0.8941 -0.2233
 8556SOL    HW228562   2.101   0.006   4.140  2.4073  0.3330 -0.6201
 8557SOL     OW28563   6.175   9.675   6.332 -0.3528 -0.1334 -0.1919
 8557SOL    HW128564   6.108   9.708   6.391  0.0648  0.5615 -0.0964
 8557SOL    HW228565   6.159   9.720   6.249  1.1172  1.4681  0.3492
 8558SOL     OW28566   0.999   2.382   1.503  0.3445 -0.3404  0.6531
 8558SOL    HW128567   0.916   2.428   1.517 -0.1879 -1.1320  0.1869
 8558SOL    HW228568   0.991   2.344   1.416  0.7131 -1.4013  1.0649
 8559SOL     OW28569   4.756   4.857   1.321  0.1379 -0.7084 -0.3519
 8559SOL    HW128570   4.810   4.883   1.396  0.7336  0.2460 -1.0810
 8559SOL    HW228571   4.814   4.804   1.267  0.5347  0.6847 -1.3577
 8560SOL     OW28572  10.496   6.755  10.068  0.1639 -0.0310  0.0147
 8560SOL    HW128573  10.558   6.822  10.097  1.3386 -0.1728 -2.0274
 8560SOL    HW228574  10.462   6.717  10.149 -1.2988  3.6393  1.3555
 8561SOL     OW28575   2.365   0.253   3.297  0.2795  0.6952 -0.6481
 8561SOL    HW128576   2.348   0.322   3.361  0.8457 -0.0575  0.3331
 8561SOL    HW228577   2.306   0.182   3.321  0.6648  0.3159 -0.8128
 8562SOL     OW28578   9.192   0.402  10.722 -0.8024 -0.3219 -0.3617
 8562SOL    HW128579   9.250   0.455  10.777 -0.0426 -1.0908 -0.3836
 8562SOL    HW228580   9.244   0.324  10.702 -0.8414  0.1690 -2.6464
 8563SOL     OW28581   9.998  10.094   9.320  0.3713 -0.4366 -0.2098
 8563SOL    HW128582   9.951  10.061   9.396  0.2967  1.1383  0.4623
 8563SOL    HW228583  10.090  10.081   9.341  0.4901  2.1811  1.2983
 8564SOL     OW28584  10.451  10.246   4.470  0.2894 -0.5530 -0.4732
 8564SOL    HW128585  10.540  10.251   4.505  0.6735 -0.3303 -1.4680
 8564SOL    HW228586  10.450  10.306   4.396 -1.3564  1.2365  0.8988
 8565SOL     OW28587   4.265  10.367   2.131  0.1315  0.3450 -0.6089
 8565SOL    HW128588   4.245  10.294   2.190 -1.3189  0.9922 -0.2329
 8565SOL    HW228589   4.331  10.419   2.178 -1.1664  0.9737  0.6053
 8566SOL     OW28590   1.201   0.721   8.446  0.4036 -0.2243  0.3509
 8566SOL    HW128591   1.217   0.645   8.502  1.6943  0.8986  1.5846
 8566SOL    HW228592   1.286   0.738   8.404  0.5165  1.3260  1.1514
 8567SOL     OW28593   7.341   7.860   3.637  0.0271  0.1818  0.3409
 8567SOL    HW128594   7.292   7.822   3.564  1.0274  1.1012 -0.8586
 8567SOL    HW228595   7.287   7.934   3.667  0.2254  0.6268 -0.3698
 8568SOL     OW28596   1.629   0.640   6.015  0.6188 -0.0909 -0.0700
 8568SOL    HW128597   1.567   0.605   6.079  0.7355  1.4518  0.9393
 8568SOL    HW228598   1.574   0.679   5.946  0.4892 -0.8434 -0.3975
 8569SOL     OW28599   8.721   8.540   8.965  0.2868 -0.1117  0.3231
 8569SOL    HW128600   8.705   8.533   8.871 -0.0142 -0.3629  0.3904
 8569SOL    HW228601   8.817   8.539   8.973  0.3123 -0.1900  0.0297
 8570SOL     OW28602   6.695   0.730   4.004  0.7819 -0.1078 -0.4763
 8570SOL    HW128603   6.764   0.707   3.942  1.5266  0.3109  0.1825
 8570SOL    HW228604   6.726   0.809   4.047 -0.8307  1.0300 -1.2871
 8571SOL     OW28605   7.667   5.478   7.663 -0.2176 -0.9749 -0.2077
 8571SOL    HW128606   7.580   5.449   7.690  0.2639 -0.4514  2.0923
 8571SOL    HW228607   7.692   5.543   7.729  1.9337 -1.1384 -0.8091
 8572SOL     OW28608   2.246  10.552   4.242 -0.4380 -0.1438 -0.8414
 8572SOL    HW128609   2.313  10.547   4.310 -0.8441  0.5311 -0.3865
 8572SOL    HW228610   2.212  10.641   4.248 -1.9759 -0.7247 -0.4809
 8573SOL     OW28611   1.232   1.860   5.263  0.2532  0.1552 -0.2389
 8573SOL    HW128612   1.283   1.795   5.311 -0.2765 -0.5184 -0.5677
 8573SOL    HW228613   1.296   1.926   5.236  1.2672 -1.4591 -2.0188
 8574SOL     OW28614   7.513   5.070   0.388  1.2398  0.3456  0.2589
 8574SOL    HW128615   7.536   4.978   0.374  3.1910  0.7969  0.2190
 8574SOL    HW228616   7.544   5.115   0.309  1.2906  1.1813  0.7371
 8575SOL     OW28617   3.603   2.744   5.871 -0.5200 -0.0762 -0.2425
 8575SOL    HW128618   3.570   2.794   5.946  0.5355  1.8198 -0.9685
 8575SOL    HW228619   3.624   2.811   5.806  0.0427 -1.5744 -1.6518
 8576SOL     OW28620   0.127   4.716   1.984  0.7371  0.4127  0.2239
 8576SOL    HW128621   0.221   4.731   1.975  0.6503  0.5870 -0.4295
 8576SOL    HW228622   0.091   4.735   1.897  0.1824 -0.2519  0.2986
 8577SOL     OW28623   9.566   0.453  10.418 -0.2713 -0.1462  0.3306
 8577SOL    HW128624   9.496   0.518  10.426  0.2514  0.6955 -1.3399
 8577SOL    HW228625   9.646   0.502  10.436  0.0724 -0.4698 -0.2785
 8578SOL     OW28626  10.340   2.707   4.127 -0.1077  0.7161 -0.0654
 8578SOL    HW128627  10.356   2.658   4.046 -0.3489 -0.6948  0.6993
 8578SOL    HW228628  10.375   2.650   4.196  1.1784  2.4150  0.7480
 8579SOL     OW28629   1.971   6.348   4.270  0.1090  0.0009 -0.8501
 8579SOL    HW128630   1.910   6.288   4.227  1.9280 -1.7180 -1.1894
 8579SOL    HW228631   2.051   6.297   4.280  0.7453  1.3439  1.8066
 8580SOL     OW28632   7.415   9.883   3.092  0.1731 -0.2622  0.2082
 8580SOL    HW128633   7.328   9.847   3.111  0.6349 -1.0577  0.8906
 8580SOL    HW228634   7.472   9.844   3.158  0.7451  1.6157  0.8833
 8581SOL     OW28635   5.394   5.609   0.702 -0.2228  0.6315  0.4895
 8581SOL    HW128636   5.461   5.641   0.641  0.7593  1.2331  1.8241
 8581SOL    HW228637   5.311   5.631   0.660  0.4206  2.2289 -0.0518
 8582SOL     OW28638   7.904   9.976   4.738  0.1304 -0.3710  0.0161
 8582SOL    HW128639   7.814  10.002   4.718  0.5089  0.6363 -0.4334
 8582SOL    HW228640   7.925   9.911   4.671 -0.5169 -1.2360  0.6120
 8583SOL     OW28641   9.227   7.784   0.743  0.0258  0.5231 -0.0846
 8583SOL    HW128642   9.193   7.700   0.710  0.2362 -0.0735  1.1531
 8583SOL    HW228643   9.315   7.762   0.775  0.4587  1.4347 -0.6151
 8584SOL     OW28644   8.478   3.394   3.568 -0.1160 -0.5065 -0.2094
 8584SOL    HW128645   8.499   3.461   3.633  2.1594 -1.0836 -0.2538
 8584SOL    HW228646   8.464   3.443   3.487 -2.2907  0.1572  0.5035
 8585SOL     OW28647   8.840   3.523   7.893  0.5810  0.2387 -0.9137
 8585SOL    HW128648   8.832   3.599   7.836 -0.5642 -0.0370 -1.1569
 8585SOL    HW228649   8.870   3.453   7.837 -3.1406 -0.7645 -1.9618
 8586SOL     OW28650   4.912   5.430   5.962 -0.2895  0.3165 -0.2603
 8586SOL    HW128651   4.899   5.451   5.869  1.9956  0.8530 -0.5224
 8586SOL    HW228652   4.870   5.502   6.009  0.1741  1.0522 -0.9410
 8587SOL     OW28653   1.322   7.130   9.941  0.3407  0.4782  0.3979
 8587SOL    HW128654   1.300   7.115  10.033 -0.8045  2.2555  0.4641
 8587SOL    HW228655   1.315   7.224   9.929  2.5289  0.5433 -1.0437
 8588SOL     OW28656   0.283  10.318   3.434  1.1569  0.1850 -0.6193
 8588SOL    HW128657   0.282  10.334   3.340  0.6554  0.1082 -0.6294
 8588SOL    HW228658   0.230  10.388   3.471 -1.9536 -1.8685 -0.7591
 8589SOL     OW28659   1.687   3.201   5.908 -0.3185  0.0418  0.2048
 8589SOL    HW128660   1.703   3.116   5.866 -0.9901  0.2560 -0.5195
 8589SOL    HW228661   1.773   3.229   5.938 -0.0739 -0.8575  0.3871
 8590SOL     OW28662   3.527   2.873   2.169  0.0616  0.6882  0.1875
 8590SOL    HW128663   3.549   2.936   2.238 -3.3765  1.0596  1.0901
 8590SOL    HW228664   3.581   2.796   2.190 -1.2212  0.5505  3.7434
 8591SOL     OW28665   4.997   9.628   1.785  1.0798  0.0052  0.9450
 8591SOL    HW128666   5.070   9.566   1.785 -0.2247 -1.6470 -0.3801
 8591SOL    HW228667   5.017   9.688   1.713  0.2291 -1.7360 -0.8741
 8592SOL     OW28668   0.446   3.542   4.484  0.1878 -0.2077  0.0298
 8592SOL    HW128669   0.473   3.461   4.528  1.5317 -0.1604 -0.6337
 8592SOL    HW228670   0.456   3.610   4.551  0.0339 -0.4482  0.2981
 8593SOL     OW28671   8.704   3.849   9.650 -0.1450 -0.3909 -0.2502
 8593SOL    HW128672   8.647   3.780   9.616 -2.3692  0.9960  0.5212
 8593SOL    HW228673   8.663   3.931   9.624  1.2746  0.6776  0.6957
 8594SOL     OW28674   3.525   6.479   9.224  0.2149 -0.3387 -0.7403
 8594SOL    HW128675   3.475   6.400   9.204  1.0673 -0.9536 -0.4525
 8594SOL    HW228676   3.489   6.510   9.307 -1.4465  0.6807 -1.7803
 8595SOL     OW28677   7.986   9.131   9.830 -0.4932  0.5664 -0.2408
 8595SOL    HW128678   7.912   9.134   9.890 -1.1107 -2.0614 -0.7444
 8595SOL    HW228679   7.948   9.150   9.744 -0.8268 -1.5865 -0.6249
 8596SOL     OW28680   0.040   0.450   6.922  0.7290  0.3277  0.3510
 8596SOL    HW128681   0.040   0.355   6.918 -1.3689  0.2290  1.0325
 8596SOL    HW228682   0.006   0.478   6.837 -2.2528  0.2165  1.3795
 8597SOL     OW28683   0.352   1.613  10.371 -0.2693 -0.1740  0.7070
 8597SOL    HW128684   0.369   1.607  10.465 -2.6372 -1.6829  1.1258
 8597SOL    HW228685   0.407   1.545  10.332  1.8301  1.4150  0.7549
 8598SOL     OW28686   3.113   4.071   5.641  0.1564  0.5705 -0.1528
 8598SOL    HW128687   3.090   4.049   5.551  1.4972  1.5173 -0.7662
 8598SOL    HW228688   3.041   4.127   5.671 -0.5529 -0.1623 -0.4440
 8599SOL     OW28689   3.109   7.855   9.623  0.0699  0.3618  0.4954
 8599SOL    HW128690   3.140   7.774   9.582 -0.8214  0.5082 -0.5214
 8599SOL    HW228691   3.052   7.826   9.694 -1.7924  0.0313 -1.0579
 8600SOL     OW28692   1.711   1.045   9.457  0.3562 -0.1351  0.2746
 8600SOL    HW128693   1.738   1.015   9.543 -0.3121  0.2755  0.6352
 8600SOL    HW228694   1.712   0.966   9.402  0.0191 -0.5438  0.8512
 8601SOL     OW28695   5.857   3.525   3.948 -0.2600 -0.0793  0.3904
 8601SOL    HW128696   5.915   3.474   4.004  0.6608  1.3019  0.7527
 8601SOL    HW228697   5.796   3.461   3.912  0.4289 -1.3161  1.3345
 8602SOL     OW28698   6.063  10.188   2.994  0.1362 -0.5814 -0.1045
 8602SOL    HW128699   6.051  10.244   3.070 -1.8255  0.0442 -0.8165
 8602SOL    HW228700   6.135  10.229   2.945 -1.1794  1.3441 -0.5608
 8603SOL     OW28701   9.498   5.174   6.559 -0.1572 -0.2427 -0.2395
 8603SOL    HW128702   9.426   5.235   6.576  0.5181  0.0007  2.1313
 8603SOL    HW228703   9.565   5.198   6.623  1.8041 -0.8733 -1.9694
 8604SOL     OW28704   9.669   1.329   4.282  0.0294 -0.4780  0.2504
 8604SOL    HW128705   9.652   1.416   4.318 -0.3853 -0.6752  0.5396
 8604SOL    HW228706   9.719   1.284   4.350  0.1553 -0.5007  0.1432
 8605SOL     OW28707   4.033   3.828   6.348  0.3601  0.2202 -0.4456
 8605SOL    HW128708   3.940   3.819   6.325  0.5603  1.6436 -2.0570
 8605SOL    HW228709   4.077   3.838   6.264  2.0110 -0.5848  0.2978
 8606SOL     OW28710   2.156   5.703   9.585 -0.4215 -0.3111 -0.3537
 8606SOL    HW128711   2.207   5.671   9.660  0.6525  0.9304 -0.5062
 8606SOL    HW228712   2.069   5.722   9.621  0.6177  2.0886  1.0892
 8607SOL     OW28713   9.856   4.188   2.239  0.0789 -0.0320  0.1333
 8607SOL    HW128714   9.765   4.159   2.233  0.4182 -0.7726 -3.1969
 8607SOL    HW228715   9.897   4.127   2.301 -1.1168 -1.3477 -0.3359
 8608SOL     OW28716   8.249   7.383   6.374 -0.0703 -0.6164 -0.4919
 8608SOL    HW128717   8.158   7.410   6.381  0.0286 -0.1926 -0.8331
 8608SOL    HW228718   8.274   7.403   6.284  1.0226  1.4263  0.1963
 8609SOL     OW28719   9.288   4.859   8.784  0.1345 -0.4157  0.4232
 8609SOL    HW128720   9.324   4.770   8.775  1.2631  0.1230 -0.7972
 8609SOL    HW228721   9.197   4.850   8.757  0.0043 -1.3513  1.1246
 8610SOL     OW28722   9.983   6.059   5.468 -0.1320  0.3275  0.4857
 8610SOL    HW128723   9.968   6.038   5.375  0.7560 -0.8976  0.5894
 8610SOL    HW228724   9.900   6.094   5.498 -0.6514  0.0866 -0.6118
 8611SOL     OW28725   5.362   3.529   1.256  0.2856 -0.0796  0.4363
 8611SOL    HW128726   5.347   3.435   1.266 -2.6874  0.4924  2.4747
 8611SOL    HW228727   5.343   3.547   1.164 -0.7768 -1.2512  0.4069
 8612SOL     OW28728   8.739   7.986   4.300  0.1433  0.4159 -0.2389
 8612SOL    HW128729   8.653   8.024   4.321  0.3019  0.8328 -0.3252
 8612SOL    HW228730   8.740   7.983   4.204 -0.2305 -0.6633 -0.2202
 8613SOL     OW28731   3.353   4.862   0.409 -0.0150  0.3496  0.1887
 8613SOL    HW128732   3.367   4.828   0.497 -0.1628  1.6553  0.7299
 8613SOL    HW228733   3.436   4.903   0.385 -0.2159  0.6687  0.0290
 8614SOL     OW28734   1.132   5.804   0.733 -0.1052 -0.8029  0.5231
 8614SOL    HW128735   1.052   5.756   0.755  0.0458 -0.7950  1.1009
 8614SOL    HW228736   1.196   5.736   0.712  0.0442 -0.8551  1.1225
 8615SOL     OW28737   1.419   8.128   0.437 -0.4018  0.4044  0.1418
 8615SOL    HW128738   1.498   8.076   0.454 -1.2261  0.0105  3.4771
 8615SOL    HW228739   1.351   8.063   0.420 -0.8291  0.5000  1.4114
 8616SOL     OW28740   8.336   2.301   5.144  0.2998  0.3898 -0.0052
 8616SOL    HW128741   8.393   2.375   5.124  1.0392  0.3499  1.7881
 8616SOL    HW228742   8.382   2.225   5.110  1.3022  0.3751  1.3128
 8617SOL     OW28743   2.062   0.221   1.554 -0.5642 -0.2458 -0.4603
 8617SOL    HW128744   1.998   0.213   1.483 -2.3914  1.6636  0.8308
 8617SOL    HW228745   2.142   0.251   1.511 -1.8315  1.5977 -1.6675
 8618SOL     OW28746   2.013   9.791   0.289  0.0164 -0.0536 -0.3054
 8618SOL    HW128747   1.953   9.825   0.355  0.8483 -0.6522  0.7862
 8618SOL    HW228748   2.048   9.869   0.246  0.2596  0.4000  0.6803
 8619SOL     OW28749   1.064   3.560   1.346  0.2167 -0.1097  0.0091
 8619SOL    HW128750   1.050   3.592   1.435  0.3019  1.5755 -0.5386
 8619SOL    HW228751   1.055   3.465   1.352  0.9412 -0.0926  1.9427
 8620SOL     OW28752   7.469   5.435   2.784  0.1412  0.0054  0.2048
 8620SOL    HW128753   7.504   5.446   2.696  0.0638 -0.0263  0.1703
 8620SOL    HW228754   7.546   5.421   2.839  0.0694 -2.4871 -0.2136
 8621SOL     OW28755   0.622   8.774   6.475 -0.4600  0.2928 -0.6199
 8621SOL    HW128756   0.696   8.724   6.510 -0.4822  0.6292 -0.0803
 8621SOL    HW228757   0.546   8.740   6.521 -0.3517  1.5163  0.5335
 8622SOL     OW28758   5.258   8.959   9.553  0.3391  0.7365  0.1139
 8622SOL    HW128759   5.200   9.025   9.515 -2.7259 -1.1746  1.0725
 8622SOL    HW228760   5.267   8.893   9.485  0.9721  0.7734  0.1600
 8623SOL     OW28761   0.634  10.768   2.743  0.1404 -0.3321 -0.5181
 8623SOL    HW128762   0.595  10.682   2.758  0.2586  0.0298  2.4931
 8623SOL    HW228763   0.564  10.830   2.762  0.2305  0.2854 -2.0776
 8624SOL     OW28764   1.961   2.727   9.888  0.2117 -0.4718  0.2664
 8624SOL    HW128765   1.932   2.780   9.962 -0.8995 -1.4184  0.5399
 8624SOL    HW228766   1.894   2.741   9.821  0.8084 -0.2187 -0.2849
 8625SOL     OW28767   8.122   4.451   2.960 -0.4098  0.2220 -0.2082
 8625SOL    HW128768   8.044   4.441   3.015 -1.1779  0.5113 -1.2070
 8625SOL    HW228769   8.194   4.459   3.022 -1.5356  3.2453  0.8974
 8626SOL     OW28770   9.696  10.295   5.546 -0.1291  0.3564  0.3961
 8626SOL    HW128771   9.673  10.383   5.516 -0.1902  0.4552  0.7297
 8626SOL    HW228772   9.638  10.237   5.496  1.9278  0.2602 -2.0455
 8627SOL     OW28773   7.547   3.103   3.911  0.2366 -0.0249 -0.5892
 8627SOL    HW128774   7.538   3.034   3.977  2.6478 -0.6242 -0.8044
 8627SOL    HW228775   7.489   3.076   3.840 -0.4272 -0.7090  0.1795
 8628SOL     OW28776   2.143  10.045   0.626  0.5402 -0.7609  0.1846
 8628SOL    HW128777   2.089  10.096   0.687 -0.0980  0.3824 -1.2624
 8628SOL    HW228778   2.177  10.111   0.565  1.5380 -1.8078 -0.4153
 8629SOL     OW28779   0.253   8.614   0.673  0.1747  0.0901 -0.2473
 8629SOL    HW128780   0.178   8.657   0.633  0.6993 -0.0851 -1.4445
 8629SOL    HW228781   0.215   8.559   0.742 -0.5875  1.6309  0.5938
 8630SOL     OW28782   3.773   9.223   6.082 -0.2558 -0.0453 -0.1781
 8630SOL    HW128783   3.843   9.285   6.102 -0.1441  0.1601 -1.1440
 8630SOL    HW228784   3.773   9.217   5.986 -0.2084 -1.6003 -0.1094
 8631SOL     OW28785   5.961   0.228  10.606  0.1113  0.3142  0.1658
 8631SOL    HW128786   5.934   0.245  10.696  1.2986  0.4262  0.5192
 8631SOL    HW228787   5.879   0.215  10.558 -0.6503  2.3654  0.8140
 8632SOL     OW28788   5.942   9.391   4.094 -0.6163  0.3313 -0.0729
 8632SOL    HW128789   5.865   9.372   4.040 -0.1551 -2.1204  0.0267
 8632SOL    HW228790   5.912   9.455   4.158 -1.6923  1.8314 -1.9985
 8633SOL     OW28791   6.899   2.569   1.825  0.0700 -0.3779 -0.1625
 8633SOL    HW128792   6.857   2.600   1.905  1.0022 -0.4801  0.3769
 8633SOL    HW228793   6.948   2.645   1.793 -0.9397 -0.0879 -1.0947
 8634SOL     OW28794   4.332   8.350   5.700 -0.1639 -0.3244  0.8755
 8634SOL    HW128795   4.266   8.380   5.762 -0.3304  0.9905  0.0906
 8634SOL    HW228796   4.283   8.298   5.636 -0.6742  1.4987 -0.2937
 8635SOL     OW28797   0.649   6.490   8.796  0.4986 -0.5250  0.2661
 8635SOL    HW128798   0.567   6.483   8.845 -0.5531 -0.2582 -1.3885
 8635SOL    HW228799   0.679   6.579   8.811 -1.2079  0.4391 -1.6066
 8636SOL     OW28800   9.122   7.099   2.245  0.6551 -0.2169  0.9087
 8636SOL    HW128801   9.067   7.056   2.180  1.2793 -0.4387  0.5246
 8636SOL    HW228802   9.097   7.059   2.328 -0.0777  0.0017  0.7983
 8637SOL     OW28803   7.983   4.539   9.495  0.6545  0.0281  0.3246
 8637SOL    HW128804   7.942   4.494   9.421  0.4159 -0.8309  0.9570
 8637SOL    HW228805   8.054   4.481   9.522  0.8987  0.4554  0.6056
 8638SOL     OW28806  10.550   5.926   5.804  0.1792  0.2366 -0.4905
 8638SOL    HW128807  10.556   5.832   5.791  0.2729  0.1658  0.0418
 8638SOL    HW228808  10.513   5.936   5.891 -1.3329  0.6839 -1.1459
 8639SOL     OW28809   2.735   5.504   8.921  0.0198 -0.2260 -0.2340
 8639SOL    HW128810   2.646   5.486   8.893 -0.5567  1.1915  0.5919
 8639SOL    HW228811   2.757   5.430   8.979 -0.8930 -0.2096  0.1445
 8640SOL     OW28812   5.843   3.812   2.256 -0.1359  0.6155 -0.2262
 8640SOL    HW128813   5.828   3.821   2.162  0.3473  0.8567 -0.2789
 8640SOL    HW228814   5.910   3.877   2.277  0.6119 -0.2266  0.0674
 8641SOL     OW28815   4.851   1.642   9.679  0.5966 -0.3789  0.3782
 8641SOL    HW128816   4.825   1.659   9.589  0.8307 -1.2422  0.1405
 8641SOL    HW228817   4.881   1.727   9.712  1.7665 -0.3161 -0.7793
 8642SOL     OW28818   9.138   9.641   6.632  0.3561  0.1655 -0.4777
 8642SOL    HW128819   9.107   9.730   6.620 -2.8637 -0.2551  2.7563
 8642SOL    HW228820   9.186   9.642   6.715  0.9359 -0.9999 -0.7630
 8643SOL     OW28821   0.984   4.727   2.016 -0.0910 -0.3257  0.5181
 8643SOL    HW128822   1.060   4.748   1.962  0.9827  0.0515  2.1166
 8643SOL    HW228823   0.965   4.808   2.063 -1.6495 -0.3459 -0.0182
 8644SOL     OW28824  10.648   4.683   5.407  0.4859  0.2696 -0.2766
 8644SOL    HW128825  10.698   4.602   5.415  0.6633  0.0831 -2.5217
 8644SOL    HW228826  10.564   4.656   5.371 -0.2837  0.8670  1.0289
 8645SOL     OW28827   6.142   0.109   1.814  0.2464 -0.5033 -0.1099
 8645SOL    HW128828   6.149   0.053   1.736  0.8603 -1.1112  0.3734
 8645SOL    HW228829   6.175   0.194   1.786  3.7292 -1.5531  0.3326
 8646SOL     OW28830   9.731   9.680   7.791  0.2671  0.1347 -0.1376
 8646SOL    HW128831   9.811   9.710   7.748  0.3312 -0.9278 -0.7723
 8646SOL    HW228832   9.702   9.756   7.842  1.3788  0.7046 -0.3232
 8647SOL     OW28833   7.579   6.869   9.479  0.1983 -0.0261 -0.4030
 8647SOL    HW128834   7.630   6.936   9.524 -0.0597 -0.5896  0.7719
 8647SOL    HW228835   7.504   6.854   9.536 -1.7696  1.3585 -2.4553
 8648SOL     OW28836   5.417   7.282   6.693  0.0843 -0.0083 -0.2589
 8648SOL    HW128837   5.383   7.298   6.781  3.5626 -1.8058  1.6147
 8648SOL    HW228838   5.365   7.209   6.660  0.5054 -1.1626  1.5100
 8649SOL     OW28839   0.409   2.634   9.674  0.4149  0.4962  0.4710
 8649SOL    HW128840   0.473   2.647   9.745 -0.1622 -0.4683  1.2008
 8649SOL    HW228841   0.459   2.591   9.605  0.9293  1.2292  0.3705
 8650SOL     OW28842   6.012   6.645   0.380 -0.4214  0.2384 -0.1089
 8650SOL    HW128843   5.927   6.687   0.395 -1.5487 -1.4952 -1.2282
 8650SOL    HW228844   6.046   6.688   0.302 -1.9888 -1.3642 -1.7986
 8651SOL     OW28845   0.386   5.384   4.920  0.2278  0.0468  0.0074
 8651SOL    HW128846   0.315   5.367   4.858 -0.0843  2.0294 -0.2378
 8651SOL    HW228847   0.345   5.433   4.990  1.0700 -0.0998  0.6130
 8652SOL     OW28848   1.210   1.065  10.278  0.0140 -0.4389  0.1903
 8652SOL    HW128849   1.238   1.126  10.346  1.7043  0.8253 -1.5177
 8652SOL    HW228850   1.262   0.986  10.293 -0.3338 -0.5433  0.9022
 8653SOL     OW28851   9.664   9.153   4.014  0.3529 -0.4451  0.6637
 8653SOL    HW128852   9.745   9.184   4.055  0.3413  0.8791 -0.2424
 8653SOL    HW228853   9.595   9.174   4.077  0.2673  2.0573 -0.1693
 8654SOL     OW28854   8.525   3.014   6.370 -0.0566  0.1177  0.1106
 8654SOL    HW128855   8.530   2.932   6.322  1.3754 -1.2268  2.3778
 8654SOL    HW228856   8.433   3.020   6.396 -0.7064  0.5365 -2.0984
 8655SOL     OW28857   3.508   0.785  10.352  0.0191 -0.3839  0.4603
 8655SOL    HW128858   3.591   0.738  10.355 -1.5984 -3.4422  1.6945
 8655SOL    HW228859   3.478   0.787  10.443 -2.2675 -1.4549 -0.1820
 8656SOL     OW28860   7.577   9.137   4.790  0.2897 -0.1617 -0.1723
 8656SOL    HW128861   7.583   9.139   4.695 -1.1168  0.6902 -0.2701
 8656SOL    HW228862   7.537   9.053   4.810 -2.4742  0.9313 -0.6088
 8657SOL     OW28863   4.552   2.430   7.432 -0.1951  0.8829  0.2971
 8657SOL    HW128864   4.619   2.368   7.404  0.5491  1.5679  0.5128
 8657SOL    HW228865   4.497   2.380   7.492 -1.4437 -0.4187 -1.8215
 8658SOL     OW28866   4.209   8.142   6.994  0.2899  0.1862 -0.3515
 8658SOL    HW128867   4.167   8.111   6.914  3.1187  0.7439 -2.1886
 8658SOL    HW228868   4.251   8.065   7.031  1.5492  0.4594 -1.1473
 8659SOL     OW28869   9.947   2.077   6.032 -0.3291  0.1538  0.1842
 8659SOL    HW128870   9.961   1.984   6.048  1.6330  0.5062  0.7800
 8659SOL    HW228871   9.969   2.089   5.940 -0.5877  0.0276  0.1062
 8660SOL     OW28872   0.889   1.829  10.693 -0.0983  0.0071  0.2758
 8660SOL    HW128873   0.859   1.885  10.764 -1.5467  0.6012 -0.7657
 8660SOL    HW228874   0.935   1.888  10.633  1.2848 -0.5214  0.7683
 8661SOL     OW28875   4.657   3.057   5.365  0.0600  0.2116 -0.0046
 8661SOL    HW128876   4.571   3.066   5.405  0.1177  0.0809  0.1498
 8661SOL    HW228877   4.673   2.963   5.362  0.3016  0.2424  0.1966
 8662SOL     OW28878   3.101   0.190   8.879  0.6215  0.3370 -0.3282
 8662SOL    HW128879   3.151   0.246   8.818  1.0867 -0.4789 -0.7077
 8662SOL    HW228880   3.027   0.245   8.905  0.8860  1.0201 -0.9534
 8663SOL     OW28881   0.597   6.831   6.613  0.8648  0.2418  0.4877
 8663SOL    HW128882   0.665   6.780   6.658  0.2453 -1.3273 -0.3077
 8663SOL    HW228883   0.646   6.895   6.561  1.7077 -0.3022  0.5967
 8664SOL     OW28884   5.993   5.478   0.096  0.0071  0.6261 -0.0689
 8664SOL    HW128885   6.001   5.465   0.190  0.2891 -4.1180 -0.4992
 8664SOL    HW228886   6.082   5.502   0.067  0.3697  0.2336  0.7021
 8665SOL     OW28887   7.243   9.467   3.720 -0.2962 -0.1358  0.1846
 8665SOL    HW128888   7.224   9.475   3.627  0.5559  0.8627  0.0787
 8665SOL    HW228889   7.163   9.497   3.763 -0.8306 -0.9634 -0.2149
 8666SOL     OW28890   5.149  10.583   8.019  0.3323  0.2292 -0.6368
 8666SOL    HW128891   5.196  10.516   7.969  1.7125  0.0380  0.8145
 8666SOL    HW228892   5.176  10.568   8.110 -1.8383  0.7565  0.1398
 8667SOL     OW28893   2.822   2.277   1.641  0.3386  0.2834  0.1106
 8667SOL    HW128894   2.889   2.302   1.577 -0.6882 -1.3301 -1.7215
 8667SOL    HW228895   2.863   2.293   1.726  2.2035  1.4313 -0.9228
 8668SOL     OW28896   7.905   4.142   0.968 -0.0188 -0.1015  0.5658
 8668SOL    HW128897   7.929   4.229   0.938  0.2983  0.0643  1.2777
 8668SOL    HW228898   7.970   4.084   0.929 -0.7185 -0.1321 -0.5826
 8669SOL     OW28899   4.602   3.638   3.995  1.1942  0.2445 -0.1338
 8669SOL    HW128900   4.660   3.700   4.039  1.3142 -0.0801  0.1719
 8669SOL    HW228901   4.522   3.639   4.047  1.8889 -1.2947  1.0271
 8670SOL     OW28902   9.317   4.326   8.402 -0.0958 -0.2813  0.2326
 8670SOL    HW128903   9.240   4.382   8.387 -0.1603 -0.7342 -1.3023
 8670SOL    HW228904   9.281   4.243   8.431 -0.3397 -0.9769 -1.8973
 8671SOL     OW28905   8.870  10.695   4.722  0.0329  0.4015  0.1124
 8671SOL    HW128906   8.885  10.640   4.799  2.3144  0.3124 -0.3305
 8671SOL    HW228907   8.886  10.784   4.753 -1.2736  0.6021  0.2516
 8672SOL     OW28908   1.798   9.125   9.237  0.3192  0.5536 -0.4357
 8672SOL    HW128909   1.838   9.055   9.185  2.2477  0.1732  1.4588
 8672SOL    HW228910   1.869   9.186   9.255 -0.7325  1.6461  0.1791
 8673SOL     OW28911   1.365   2.637   5.682 -0.3344 -0.0800  0.3827
 8673SOL    HW128912   1.304   2.708   5.704 -1.0237  0.5307 -2.9192
 8673SOL    HW228913   1.314   2.578   5.627  1.7498 -0.0672 -1.6897
 8674SOL     OW28914   7.862   4.337   9.324  0.6829  0.5814  0.2755
 8674SOL    HW128915   7.933   4.312   9.264  2.5872  4.4460  0.5895
 8674SOL    HW228916   7.879   4.286   9.403 -1.5467 -4.1862 -1.9082
 8675SOL     OW28917  10.297   9.718   8.096  0.2304  0.2655 -0.3644
 8675SOL    HW128918  10.264   9.680   8.177  1.9695  0.4932  0.4850
 8675SOL    HW228919  10.224   9.709   8.034 -0.5699 -1.3613  0.7480
 8676SOL     OW28920   7.514   5.876   5.297  0.2680  0.3472 -0.3679
 8676SOL    HW128921   7.493   5.909   5.384 -0.4371  0.8311 -0.7149
 8676SOL    HW228922   7.445   5.812   5.278  0.7010 -0.1324 -0.3783
 8677SOL     OW28923   3.508   7.045   6.967  0.3272 -0.7119  0.1087
 8677SOL    HW128924   3.577   7.039   7.033  0.1762 -1.5117  0.2055
 8677SOL    HW228925   3.460   7.125   6.989 -1.3297 -2.2407  2.5970
 8678SOL     OW28926   5.267   1.495   8.021  0.4567 -0.5796 -0.3565
 8678SOL    HW128927   5.221   1.580   8.018 -0.1657 -0.8522  0.7126
 8678SOL    HW228928   5.225   1.443   7.952  0.3079 -0.2712 -0.5039
 8679SOL     OW28929   3.145   1.385   1.614 -0.1474  0.4723 -0.1086
 8679SOL    HW128930   3.099   1.307   1.646  1.7893 -0.6807  0.0295
 8679SOL    HW228931   3.111   1.397   1.525 -1.4661  0.3220  0.3518
 8680SOL     OW28932   2.145  10.783   8.258 -0.6800  0.2178 -0.5127
 8680SOL    HW128933   2.189  10.704   8.227 -1.1930  0.2803 -1.4199
 8680SOL    HW228934   2.213  10.851   8.254  0.2648 -0.4943  1.9129
 8681SOL     OW28935   5.994   3.765   9.468  0.5604  0.0012  0.1932
 8681SOL    HW128936   6.027   3.789   9.381 -0.7113  1.0418 -0.0246
 8681SOL    HW228937   6.019   3.837   9.525  2.2931 -1.1402  0.9697
 8682SOL     OW28938   5.491  10.405   0.918  0.5166  0.3320  0.0308
 8682SOL    HW128939   5.553  10.336   0.944  0.5609 -0.2147 -1.4076
 8682SOL    HW228940   5.413  10.357   0.889  0.4685  0.8754 -0.7885
 8683SOL     OW28941   1.063   7.449   6.595 -0.4163 -0.3663  0.3761
 8683SOL    HW128942   1.041   7.458   6.688 -0.7406 -2.1404  0.5200
 8683SOL    HW228943   1.158   7.464   6.592  0.3298 -3.7839  1.6781
 8684SOL     OW28944   8.328   6.180   4.753  0.4665  0.3287  0.2987
 8684SOL    HW128945   8.423   6.181   4.767  0.5534  0.8760 -0.3006
 8684SOL    HW228946   8.315   6.121   4.679  0.1699 -1.1108  1.4613
 8685SOL     OW28947   3.390   6.830   5.552 -0.3498 -0.0496 -0.1231
 8685SOL    HW128948   3.327   6.863   5.616 -0.4399  1.2284 -0.8349
 8685SOL    HW228949   3.363   6.739   5.537 -0.3544 -0.3710  1.5815
 8686SOL     OW28950   8.690   3.203   1.857 -0.0816 -0.1840  0.3168
 8686SOL    HW128951   8.615   3.176   1.910 -0.4840 -0.5009 -0.3972
 8686SOL    HW228952   8.728   3.121   1.825 -0.8286  0.0200 -1.2076
 8687SOL     OW28953   1.277   5.548   7.685  0.1209 -0.3540 -0.7196
 8687SOL    HW128954   1.270   5.639   7.655  0.1856 -1.0245 -2.9017
 8687SOL    HW228955   1.369   5.526   7.672  0.0384 -0.8264 -0.5157
 8688SOL     OW28956   1.536   0.803  10.794  0.5207  0.1136  0.2563
 8688SOL    HW128957   1.451   0.795  10.751  0.1199  1.2236  0.7928
 8688SOL    HW228958   1.593   0.842  10.728  0.7224 -0.9504 -0.2167
 8689SOL     OW28959   7.122   5.324   2.180  0.0558 -0.6278 -0.2653
 8689SOL    HW128960   7.085   5.244   2.143 -0.8644  0.5927 -2.0583
 8689SOL    HW228961   7.048   5.368   2.221  0.4750 -0.4409  0.3077
 8690SOL     OW28962   5.833   8.876   8.868 -0.2626 -0.6122  0.0962
 8690SOL    HW128963   5.835   8.838   8.780 -0.9855  1.4176 -0.8541
 8690SOL    HW228964   5.759   8.833   8.911  0.4730 -2.0705 -0.0454
 8691SOL     OW28965  10.202   4.268   5.717  0.1625  0.5758 -0.5001
 8691SOL    HW128966  10.242   4.184   5.740 -1.5568 -0.4461 -1.0788
 8691SOL    HW228967  10.187   4.262   5.622 -1.9980  0.5969 -0.1928
 8692SOL     OW28968   7.886   8.581   0.451  0.3669  0.3657  0.0498
 8692SOL    HW128969   7.944   8.624   0.514  0.0854  0.3154  0.3483
 8692SOL    HW228970   7.901   8.627   0.368 -1.4716  2.5238  0.7889
 8693SOL     OW28971   7.707   8.673   3.564 -0.2491  0.0531  0.2150
 8693SOL    HW128972   7.760   8.660   3.642 -1.0131 -0.0836  0.7221
 8693SOL    HW228973   7.682   8.585   3.536  0.8320  0.0383 -0.7684
 8694SOL     OW28974   2.241   5.450   6.152 -0.6138 -0.4887 -0.8086
 8694SOL    HW128975   2.255   5.387   6.081 -0.5217 -0.8464 -0.4812
 8694SOL    HW228976   2.269   5.403   6.231 -1.6889 -0.4759 -0.4064
 8695SOL     OW28977   0.517   9.536   3.488 -0.0518 -0.2609 -0.0379
 8695SOL    HW128978   0.498   9.447   3.460 -1.6694  0.5357 -1.6937
 8695SOL    HW228979   0.482   9.541   3.577 -0.3926 -1.1255 -0.1148
 8696SOL     OW28980   5.285   3.731   5.954  0.5295  0.0630 -0.0862
 8696SOL    HW128981   5.205   3.762   5.910 -1.3284 -1.3346  2.0771
 8696SOL    HW228982   5.277   3.636   5.953  1.8370 -0.0734  0.7805
 8697SOL     OW28983   2.853   7.262   1.577  0.0501  0.3256  0.4735
 8697SOL    HW128984   2.941   7.298   1.592  0.1521  0.4369 -0.3052
 8697SOL    HW228985   2.843   7.195   1.644  0.6475  0.4691  0.7165
 8698SOL     OW28986   1.720   5.229   0.855 -0.2422  0.4081 -0.0647
 8698SOL    HW128987   1.718   5.238   0.950 -2.9530  0.7009 -0.0663
 8698SOL    HW228988   1.797   5.279   0.828  0.0259  1.1526  1.9121
 8699SOL     OW28989   8.155   8.593   6.965  0.1808  0.3110  0.6628
 8699SOL    HW128990   8.144   8.619   6.873  0.5539  1.1055  0.8365
 8699SOL    HW228991   8.227   8.647   6.997  0.1457 -0.0592  1.3907
 8700SOL     OW28992   1.360   6.707   2.178  0.3365 -0.5346 -0.4226
 8700SOL    HW128993   1.399   6.643   2.119 -0.2866 -1.8340  0.5063
 8700SOL    HW228994   1.297   6.754   2.125  1.0620 -0.4280 -1.2127
 8701SOL     OW28995   3.379   4.271   6.535 -0.6171  0.2062 -0.8862
 8701SOL    HW128996   3.368   4.365   6.552 -0.9981  0.2561 -1.3976
 8701SOL    HW228997   3.293   4.233   6.554 -0.5766  0.0165 -1.0806
 8702SOL     OW28998   2.740   9.658   2.011 -0.7429  0.5369 -0.0853
 8702SOL    HW128999   2.817   9.693   2.056  0.5332 -1.8319 -0.2466
 8702SOL    HW229000   2.759   9.671   1.918 -0.0807 -0.8141 -0.1636
 8703SOL     OW29001   2.448   6.353   1.775  0.1930 -0.0186  0.2176
 8703SOL    HW129002   2.460   6.442   1.740  0.0895 -0.7051 -1.6922
 8703SOL    HW229003   2.532   6.331   1.814  0.5571  0.5471 -0.2221
 8704SOL     OW29004   1.477   0.511   9.471  0.1731 -0.7902  0.0674
 8704SOL    HW129005   1.456   0.497   9.564 -0.5799  0.4952  0.1207
 8704SOL    HW229006   1.475   0.606   9.461  1.2075 -0.8737 -1.0652
 8705SOL     OW29007   4.480   1.367   5.720  0.7088  0.1893 -0.2615
 8705SOL    HW129008   4.418   1.354   5.792  0.5365 -0.7793 -0.5678
 8705SOL    HW229009   4.495   1.462   5.717  0.3327  0.2885  0.7207
 8706SOL     OW29010   5.285   3.107   2.293  0.2557  0.4759  0.0711
 8706SOL    HW129011   5.257   3.018   2.272  0.5745  0.6953 -1.3701
 8706SOL    HW229012   5.240   3.128   2.375 -0.0910 -0.8751  0.2467
 8707SOL     OW29013   0.497   7.728   6.837  0.4172 -0.9224  0.1171
 8707SOL    HW129014   0.565   7.782   6.796 -0.8658  0.1041 -0.7359
 8707SOL    HW229015   0.491   7.650   6.782  1.4848 -1.4440  0.7038
 8708SOL     OW29016   3.041   3.090   1.058  0.2889 -0.0018  0.3802
 8708SOL    HW129017   3.013   3.152   0.991  0.6891 -0.2437 -0.0212
 8708SOL    HW229018   3.125   3.056   1.025 -0.7604 -2.0935 -0.3369
 8709SOL     OW29019   3.173   5.187   2.067  0.4243 -0.3154  0.0242
 8709SOL    HW129020   3.151   5.249   2.136 -0.2999  0.9388 -1.2846
 8709SOL    HW229021   3.093   5.176   2.017  0.5933 -2.1787  0.0798
 8710SOL     OW29022   6.434   8.065   1.681 -0.3417  0.3411 -0.2836
 8710SOL    HW129023   6.465   8.077   1.591  1.8825  0.8663  0.4786
 8710SOL    HW229024   6.485   7.991   1.713  0.0679  1.1582  1.0091
 8711SOL     OW29025   9.102   2.861   4.598  0.2724 -0.1342 -0.0139
 8711SOL    HW129026   9.092   2.878   4.504  0.6781 -0.6434 -0.1530
 8711SOL    HW229027   9.113   2.948   4.637 -2.3770  0.3097 -0.1053
 8712SOL     OW29028   8.463   7.170   0.047 -0.0077  0.0463 -0.3245
 8712SOL    HW129029   8.473   7.180   0.141 -2.2047 -0.6821  0.0511
 8712SOL    HW229030   8.552   7.157   0.014  0.8298  0.5797  1.5883
 8713SOL     OW29031   0.842   5.892   3.484  0.4377  0.4781  0.2350
 8713SOL    HW129032   0.802   5.839   3.415  0.1012  0.3405  0.5326
 8713SOL    HW229033   0.925   5.921   3.447 -0.0775  1.0291 -0.5037
 8714SOL     OW29034   7.514   8.863   0.545 -0.4282 -0.1438 -0.3931
 8714SOL    HW129035   7.526   8.798   0.476 -0.5761 -1.0237  0.3892
 8714SOL    HW229036   7.431   8.906   0.523  0.1835  0.5175 -1.4828
 8715SOL     OW29037   4.305   7.348   2.000 -0.3029  0.1429  0.2498
 8715SOL    HW129038   4.251   7.369   2.077 -0.9933  1.0137 -0.4593
 8715SOL    HW229039   4.262   7.392   1.927  2.0325  1.8906 -0.1683
 8716SOL     OW29040   7.095  10.385   5.392 -0.2558 -0.6525  0.0700
 8716SOL    HW129041   7.070  10.477   5.401  0.5228 -0.2002 -1.9148
 8716SOL    HW229042   7.029  10.338   5.443 -1.1017  0.9421  0.5245
 8717SOL     OW29043   5.899   6.199   8.270 -0.0124  0.1266  0.5713
 8717SOL    HW129044   5.952   6.152   8.335  0.9477  0.7492  0.2747
 8717SOL    HW229045   5.824   6.232   8.319  0.8497  0.8396  1.4537
 8718SOL     OW29046   0.282   6.029   3.217 -0.8698 -0.4721  0.0699
 8718SOL    HW129047   0.268   6.071   3.302 -1.2425  0.7019 -0.5430
 8718SOL    HW229048   0.203   5.977   3.202 -1.4766  0.5088 -0.2112
 8719SOL     OW29049   5.455  10.423   3.686 -0.6258  0.0150  0.5197
 8719SOL    HW129050   5.375  10.417   3.738 -2.5362 -1.0726 -2.3256
 8719SOL    HW229051   5.525  10.401   3.748 -2.8042 -2.1642  2.4309
 8720SOL     OW29052   9.952  10.296   3.299 -0.0557 -0.3899  0.5357
 8720SOL    HW129053   9.860  10.270   3.309  0.1019 -0.2716  3.0958
 8720SOL    HW229054   9.975  10.333   3.384  1.9512  0.9994 -0.5327
 8721SOL     OW29055   5.558   2.254   1.854  0.2019  0.2335  0.3713
 8721SOL    HW129056   5.475   2.208   1.842 -0.3272  0.4714  2.5641
 8721SOL    HW229057   5.587   2.227   1.941  2.0184  0.8039 -0.0225
 8722SOL     OW29058   4.669   3.502   7.089 -0.3992  0.0870  0.2719
 8722SOL    HW129059   4.689   3.462   7.004 -0.9211 -1.0913  0.6855
 8722SOL    HW229060   4.713   3.587   7.086  0.7295 -0.4965 -0.6386
 8723SOL     OW29061   1.030   1.944   8.778 -0.1853  0.5029 -0.4290
 8723SOL    HW129062   1.125   1.929   8.771 -0.0832 -0.0574  1.4062
 8723SOL    HW229063   1.011   1.931   8.871 -2.3984 -1.3872 -1.0456
 8724SOL     OW29064  10.507   9.655   0.665 -0.5404 -0.4685 -0.2936
 8724SOL    HW129065  10.476   9.723   0.604  0.4344 -0.6704 -1.0589
 8724SOL    HW229066  10.433   9.596   0.675 -0.2808 -1.2951 -2.5685
 8725SOL     OW29067   0.670   8.619   0.508  0.5432 -0.4315 -0.2406
 8725SOL    HW129068   0.616   8.691   0.475  0.6663  0.2356  0.9565
 8725SOL    HW229069   0.757   8.656   0.515  0.8363 -1.0298 -0.6192
 8726SOL     OW29070   5.705   6.037   2.946 -0.5764  0.4607 -0.2630
 8726SOL    HW129071   5.735   5.952   2.979 -1.1371  0.1469 -0.5359
 8726SOL    HW229072   5.609   6.032   2.949 -0.6128  1.1766 -0.0596
 8727SOL     OW29073  10.572   5.436   1.064 -0.3621 -0.3835 -0.1490
 8727SOL    HW129074  10.548   5.493   0.992 -1.0292 -1.8321 -1.1274
 8727SOL    HW229075  10.505   5.368   1.064 -0.6728 -0.1464  2.1981
 8728SOL     OW29076  10.679   6.114   8.458 -0.1597  0.2839  0.5262
 8728SOL    HW129077  10.693   6.185   8.520 -1.4000  0.6272  0.4428
 8728SOL    HW229078  10.682   6.156   8.372 -1.9883  0.4699  0.5173
 8729SOL     OW29079   1.248   8.108  10.585  0.2012 -0.2530 -0.0220
 8729SOL    HW129080   1.201   8.068  10.512 -0.4273  1.1134 -0.3983
 8729SOL    HW229081   1.208   8.069  10.664  0.8853 -1.7328 -0.3570
 8730SOL     OW29082   2.960   2.695   6.170  0.2297  0.1886  0.2114
 8730SOL    HW129083   3.046   2.697   6.211  0.1705 -0.4192  0.3811
 8730SOL    HW229084   2.905   2.648   6.233 -0.5078  1.5284  0.6118
 8731SOL     OW29085   3.357   9.404   3.707 -0.4191  0.2171 -0.2983
 8731SOL    HW129086   3.377   9.410   3.800  1.0423  1.0034 -0.6454
 8731SOL    HW229087   3.280   9.347   3.703 -1.4835  1.4310  1.5015
 8732SOL     OW29088   0.710   7.307   3.823 -0.1596 -0.3155 -0.6148
 8732SOL    HW129089   0.709   7.337   3.732  0.6713 -1.1141 -0.9017
 8732SOL    HW229090   0.715   7.388   3.874 -2.5884  0.2590 -1.1707
 8733SOL     OW29091   8.399   8.968   0.374 -0.1467  0.2314  0.2500
 8733SOL    HW129092   8.407   8.885   0.422  2.1768  0.6544  0.7172
 8733SOL    HW229093   8.340   8.948   0.301  0.4413 -1.8715  0.2887
 8734SOL     OW29094   3.735   3.528   6.694  0.1135 -0.1342  0.5635
 8734SOL    HW129095   3.818   3.573   6.679  0.2857 -0.4165  0.6638
 8734SOL    HW229096   3.678   3.559   6.624  1.0018 -1.6649 -0.9088
 8735SOL     OW29097   7.129   9.220   8.053  0.8289 -0.2082 -0.6684
 8735SOL    HW129098   7.177   9.278   7.994  1.2491 -1.3221 -1.4359
 8735SOL    HW229099   7.095   9.151   7.997  0.3892 -0.7524  0.2483
 8736SOL     OW29100   1.454   2.008   5.225 -0.3481  0.3477 -0.2475
 8736SOL    HW129101   1.459   2.096   5.262  0.2591  0.6104 -0.9552
 8736SOL    HW229102   1.542   1.972   5.236 -0.1547  0.4295 -1.4238
 8737SOL     OW29103   5.224   6.102   5.301 -0.0925 -0.3636 -0.1434
 8737SOL    HW129104   5.297   6.044   5.277 -0.1916 -1.3158  1.6842
 8737SOL    HW229105   5.234   6.115   5.395 -1.5522  0.5636 -0.0864
 8738SOL     OW29106   0.082  10.126   6.755 -0.0254  0.3789 -0.3836
 8738SOL    HW129107   0.160  10.119   6.809  0.0152  2.1558 -0.1602
 8738SOL    HW229108   0.114  10.153   6.669 -0.4501  3.2554  0.2458
 8739SOL     OW29109  10.756   7.286   2.525 -0.3406  0.3262  0.0403
 8739SOL    HW129110  10.710   7.221   2.472 -0.8761  1.2103 -0.6118
 8739SOL    HW229111  10.780   7.355   2.463 -0.7965  1.2944  0.8989
 8740SOL     OW29112   4.671   0.575   6.645  0.1813  0.3068  0.6905
 8740SOL    HW129113   4.601   0.529   6.691 -0.4433 -0.4378 -0.9423
 8740SOL    HW229114   4.648   0.667   6.653 -0.5361  0.1206  0.8849
 8741SOL     OW29115   5.612   8.672   1.074 -0.5466  0.0192 -0.4765
 8741SOL    HW129116   5.605   8.584   1.112 -0.6768 -0.0674 -0.6941
 8741SOL    HW229117   5.663   8.722   1.137  1.0201 -0.6884 -1.1275
 8742SOL     OW29118   5.794   6.520   8.855 -0.3101  0.1712 -0.3357
 8742SOL    HW129119   5.748   6.564   8.927  1.4602  0.4057  0.7007
 8742SOL    HW229120   5.737   6.533   8.779 -0.0946  3.8808 -0.0250
 8743SOL     OW29121   5.799   9.198   8.220  0.1274  0.0723 -0.4449
 8743SOL    HW129122   5.753   9.163   8.296  0.1927  0.7055 -0.1060
 8743SOL    HW229123   5.741   9.179   8.146  0.0049 -0.4333 -0.2202
 8744SOL     OW29124   5.569   0.546  10.506 -1.0155  0.2204 -0.1555
 8744SOL    HW129125   5.588   0.640  10.507 -1.5040  0.3213  0.5934
 8744SOL    HW229126   5.526   0.529  10.590 -0.7912 -0.7063 -0.2131
 8745SOL     OW29127   4.639   1.668   2.424  0.4421 -0.1271  0.1561
 8745SOL    HW129128   4.570   1.654   2.490 -0.7738 -0.1980 -1.0995
 8745SOL    HW229129   4.626   1.598   2.360  2.8738 -1.2949  0.8064
 8746SOL     OW29130   5.817   4.195   1.030  0.0991  0.7225  0.3360
 8746SOL    HW129131   5.762   4.117   1.025  0.7475  0.2755  0.0710
 8746SOL    HW229132   5.905   4.164   1.009  0.2856  1.6128 -0.2610
 8747SOL     OW29133   5.582   4.225   8.735 -0.5278  0.1816 -0.0620
 8747SOL    HW129134   5.620   4.238   8.822  0.3717  0.0826 -0.4255
 8747SOL    HW229135   5.576   4.130   8.725  0.1185  0.1610 -0.3975
 8748SOL     OW29136   1.862   6.630   7.333 -0.0412  0.1764 -0.2401
 8748SOL    HW129137   1.799   6.668   7.394 -0.7091  0.3311 -1.0279
 8748SOL    HW229138   1.813   6.561   7.288  0.7858 -0.7627  0.2356
 8749SOL     OW29139   6.126   9.487   7.110  0.0190 -0.4986  0.0149
 8749SOL    HW129140   6.163   9.562   7.063 -1.0509 -0.9152 -1.5798
 8749SOL    HW229141   6.036   9.480   7.077 -1.5357  0.3455  3.5985
 8750SOL     OW29142   2.126   7.099   0.523 -0.9139 -0.2303  0.5480
 8750SOL    HW129143   2.066   7.036   0.560 -1.1811  0.1831  0.8307
 8750SOL    HW229144   2.213   7.064   0.542 -1.0585 -1.0813 -0.2985
 8751SOL     OW29145   1.679   3.497   9.969 -0.1666 -0.1079 -0.3310
 8751SOL    HW129146   1.765   3.462   9.948 -0.0769  1.1976 -2.4167
 8751SOL    HW229147   1.645   3.438  10.036  1.6590 -1.6396 -0.6660
 8752SOL     OW29148   3.846   1.955   2.997  0.2884  0.0830 -0.4071
 8752SOL    HW129149   3.831   2.049   2.995  1.4913  0.2922 -0.1160
 8752SOL    HW229150   3.811   1.927   3.081 -0.4180  0.2024 -0.6570
 8753SOL     OW29151   1.522  10.656   0.709 -0.0871 -0.3745 -0.4308
 8753SOL    HW129152   1.554  10.595   0.642 -2.5548 -0.0640 -2.0173
 8753SOL    HW229153   1.447  10.611   0.748 -1.2905  1.1509 -0.8882
 8754SOL     OW29154   3.252   2.365   0.506  0.0592 -0.3990  0.6359
 8754SOL    HW129155   3.165   2.345   0.471 -0.3146  0.2535  1.1462
 8754SOL    HW229156   3.261   2.460   0.494  1.0806 -0.5963 -0.2251
 8755SOL     OW29157   0.318   5.684   1.283 -0.2748 -0.1405  0.1318
 8755SOL    HW129158   0.252   5.703   1.217 -0.9244  2.0220  1.3039
 8755SOL    HW229159   0.272   5.633   1.350 -0.7357  1.1374  0.8194
 8756SOL     OW29160   6.892   4.735   8.817 -0.2943  0.4162  0.3296
 8756SOL    HW129161   6.901   4.830   8.805 -0.8568  0.2783 -1.5101
 8756SOL    HW229162   6.798   4.720   8.820 -0.3337 -0.2966 -2.0440
 8757SOL     OW29163   0.191   4.080   8.610 -0.1255  0.1535  0.1289
 8757SOL    HW129164   0.258   4.145   8.592  0.3787 -0.1187  0.9655
 8757SOL    HW229165   0.151   4.109   8.692  0.2896 -0.7382  0.6508
 8758SOL     OW29166   1.019   8.463   0.701 -0.5022  0.5418 -0.1633
 8758SOL    HW129167   1.031   8.401   0.773  0.0351  1.4106  0.5194
 8758SOL    HW229168   1.108   8.494   0.681 -0.7392  0.9310 -0.6311
 8759SOL     OW29169   8.556   2.024   3.100 -0.0431 -0.4018 -0.1737
 8759SOL    HW129170   8.617   2.017   3.174 -0.9667  0.0306  0.6516
 8759SOL    HW229171   8.601   1.980   3.028  0.3168 -2.0327  0.9993
 8760SOL     OW29172   7.751   0.002   5.681 -0.2503 -0.3192 -0.1569
 8760SOL    HW129173   7.796   0.079   5.647  0.3588 -0.3354  0.5882
 8760SOL    HW229174   7.739  -0.054   5.604 -2.1815  1.1978 -1.0214
 8761SOL     OW29175   1.172   3.539   9.305 -0.0348 -0.2983 -0.6837
 8761SOL    HW129176   1.110   3.584   9.361 -1.2778 -1.6180 -0.9299
 8761SOL    HW229177   1.170   3.448   9.334  1.2930 -0.5086 -1.1425
 8762SOL     OW29178   3.344   8.834   9.288  0.1594  0.7702 -0.4000
 8762SOL    HW129179   3.392   8.764   9.243  0.2833  1.5021 -1.4436
 8762SOL    HW229180   3.325   8.898   9.219 -1.8101  0.7780  0.1054
 8763SOL     OW29181   7.877   2.969   5.207  0.1644  0.5925 -0.1571
 8763SOL    HW129182   7.800   3.025   5.213 -0.2311  0.6459 -3.8265
 8763SOL    HW229183   7.948   3.029   5.185 -0.0982 -0.0686 -3.2383
 8764SOL     OW29184   9.872   1.266   8.651  0.8399  0.3869 -0.3313
 8764SOL    HW129185   9.931   1.296   8.719  2.4842  1.1554 -2.0109
 8764SOL    HW229186   9.864   1.341   8.591  1.7594 -1.1429 -2.4755
 8765SOL     OW29187  10.707   4.392   7.800 -0.0364 -0.1484 -0.9021
 8765SOL    HW129188  10.689   4.338   7.723 -0.4109 -0.9633 -0.2598
 8765SOL    HW229189  10.748   4.333   7.863  0.1930  0.4866 -0.4383
 8766SOL     OW29190   2.650   2.977   0.204  0.0288 -0.2047 -0.2152
 8766SOL    HW129191   2.568   3.019   0.177 -0.7484 -0.7095  1.2517
 8766SOL    HW229192   2.718   3.023   0.155 -1.1232  0.2306 -1.4637
 8767SOL     OW29193   4.006   3.522   9.386 -0.3625  0.2495  0.1898
 8767SOL    HW129194   3.958   3.599   9.417 -0.0033  1.0731 -1.2092
 8767SOL    HW229195   3.944   3.476   9.330  0.4026  1.2806 -1.5698
 8768SOL     OW29196   9.154   6.854   3.033 -0.0254  0.1206 -0.2502
 8768SOL    HW129197   9.165   6.936   3.080  2.4944 -2.1617  3.8189
 8768SOL    HW229198   9.084   6.808   3.079  0.8145 -1.2360 -0.2432
 8769SOL     OW29199   0.740   2.938  10.319  0.5171  0.3380 -0.0213
 8769SOL    HW129200   0.828   2.914  10.288  0.4927 -0.7293  0.7075
 8769SOL    HW229201   0.707   2.996  10.251  1.4289  0.0166 -0.7720
 8770SOL     OW29202   4.188   4.186   9.679  0.5055  0.3951 -0.6167
 8770SOL    HW129203   4.220   4.271   9.649  0.1417  0.5661 -0.5268
 8770SOL    HW229204   4.162   4.201   9.770  0.1797  0.2577 -0.6855
 8771SOL     OW29205   7.024   4.437   6.249  0.4667 -0.9857  0.0473
 8771SOL    HW129206   7.000   4.479   6.166 -1.4586  0.6340  1.3477
 8771SOL    HW229207   7.029   4.509   6.312  0.7758 -2.3055  1.5940
 8772SOL     OW29208   7.072   0.766   5.502  0.0602 -0.5254  0.3574
 8772SOL    HW129209   7.059   0.859   5.520  1.6108  0.2287 -2.0584
 8772SOL    HW229210   7.067   0.759   5.407  1.7019 -2.6333  0.3652
 8773SOL     OW29211   4.135   8.341   9.058  0.2594  0.3769 -0.1157
 8773SOL    HW129212   4.123   8.371   9.148  1.5429 -1.6343  0.8227
 8773SOL    HW229213   4.050   8.307   9.032  0.2260 -0.4251  0.9568
 8774SOL     OW29214   5.664   2.397   4.934  0.2664  0.4044 -0.5351
 8774SOL    HW129215   5.699   2.399   4.845  0.1343  0.7157 -0.5795
 8774SOL    HW229216   5.577   2.436   4.926 -1.1902 -2.5780 -0.9114
 8775SOL     OW29217   2.008   8.211   8.816 -0.3418 -0.0842 -0.1087
 8775SOL    HW129218   2.052   8.173   8.740  1.8722  0.1401  0.9686
 8775SOL    HW229219   1.984   8.299   8.788 -0.7425 -0.4406 -0.9372
 8776SOL     OW29220   1.105   1.623   5.122 -0.1601  0.2865  0.0471
 8776SOL    HW129221   1.136   1.652   5.208 -0.6742 -0.0334  0.3470
 8776SOL    HW229222   1.182   1.626   5.066  0.9915 -2.4850  1.2705
 8777SOL     OW29223   5.620   9.370   0.322  0.3341 -0.1451  0.1365
 8777SOL    HW129224   5.586   9.281   0.319 -1.6276  0.5131  1.2279
 8777SOL    HW229225   5.700   9.367   0.269 -0.3533 -2.2399 -0.8830
 8778SOL     OW29226   8.874   5.240   3.567  0.1017  0.4451 -0.2937
 8778SOL    HW129227   8.962   5.209   3.589  0.1835 -1.0140 -2.4081
 8778SOL    HW229228   8.818   5.164   3.581 -1.0565  1.6097  1.9146
 8779SOL     OW29229   6.891   0.340   5.540 -0.1826  0.1592  0.0850
 8779SOL    HW129230   6.984   0.359   5.535 -0.5160  1.7969 -0.6954
 8779SOL    HW229231   6.849   0.426   5.545 -1.7465 -0.4295 -1.6128
 8780SOL     OW29232   6.146   8.065   9.010  0.5888 -0.5226 -0.2942
 8780SOL    HW129233   6.112   8.107   9.089 -0.4233  1.0403 -1.4754
 8780SOL    HW229234   6.210   8.002   9.041  0.9620  0.7560  1.7182
 8781SOL     OW29235   5.951   5.019   5.675 -0.1233 -0.6168  0.3994
 8781SOL    HW129236   5.946   5.115   5.673 -2.5734 -0.7030 -0.6523
 8781SOL    HW229237   5.968   4.994   5.584 -1.0556 -1.2227  0.3896
 8782SOL     OW29238   0.569   7.441   1.397  0.3803  0.2271  0.6574
 8782SOL    HW129239   0.623   7.488   1.333 -0.6846  0.1723 -0.3026
 8782SOL    HW229240   0.587   7.485   1.480  1.3212  0.6918  0.2175
 8783SOL     OW29241   7.674   7.818   3.994 -0.3837  0.2275  0.2684
 8783SOL    HW129242   7.740   7.807   4.062 -0.6374 -1.4689  0.2847
 8783SOL    HW229243   7.603   7.866   4.037  0.0493  0.4032  0.7915
 8784SOL     OW29244   0.961   5.395   3.140  0.6611 -0.4752 -0.5204
 8784SOL    HW129245   0.917   5.477   3.117 -1.3309 -1.5035 -0.5248
 8784SOL    HW229246   0.975   5.400   3.234  1.1320  0.1264 -0.6159
 8785SOL     OW29247   6.476   4.338   3.593  0.5551  0.4963  1.1551
 8785SOL    HW129248   6.477   4.243   3.604  1.4541  0.2553 -0.5834
 8785SOL    HW229249   6.387   4.359   3.565  0.8696 -0.1339 -0.4121
 8786SOL     OW29250   0.766   8.448  10.586 -0.7825 -0.3981  0.4169
 8786SOL    HW129251   0.858   8.426  10.604 -0.5643 -0.0244 -0.1972
 8786SOL    HW229252   0.723   8.442  10.671 -0.4738 -1.8914  0.4917
 8787SOL     OW29253   2.842   5.769   6.458 -0.6933 -0.1841  0.3296
 8787SOL    HW129254   2.779   5.721   6.405 -1.7932 -1.5576  2.7337
 8787SOL    HW229255   2.790   5.834   6.505 -0.2933 -0.9458  1.9018
 8788SOL     OW29256   5.714   0.396   9.194 -0.8942  0.1120  0.7884
 8788SOL    HW129257   5.639   0.453   9.210 -2.5617 -1.7013 -0.1005
 8788SOL    HW229258   5.679   0.307   9.207  0.8902 -0.8212 -0.4298
 8789SOL     OW29259   5.994   2.591   5.720 -0.0350 -0.2083  0.1910
 8789SOL    HW129260   6.006   2.604   5.626  2.5072  0.6305  0.5515
 8789SOL    HW229261   5.919   2.647   5.742 -0.3160  0.0253 -1.2376
 8790SOL     OW29262   1.180   1.638   9.835  0.1630 -0.0360  0.0708
 8790SOL    HW129263   1.159   1.545   9.828  0.4497 -0.2304  1.4548
 8790SOL    HW229264   1.269   1.640   9.871 -0.4627  0.7579  1.6464
 8791SOL     OW29265   9.068   0.928   9.932  0.7996  0.1062 -0.0527
 8791SOL    HW129266   9.135   0.861   9.925  1.9654  1.1159  0.8972
 8791SOL    HW229267   9.098   0.999   9.876 -0.8196 -0.4016 -1.6865
 8792SOL     OW29268   9.821   1.275   3.177 -0.1216 -0.0014 -0.0223
 8792SOL    HW129269   9.763   1.200   3.186  1.1662 -0.9901  0.3901
 8792SOL    HW229270   9.782   1.342   3.233 -1.1336 -0.4554 -0.1539
 8793SOL     OW29271   9.013   0.344   4.256 -0.1201 -0.5853 -0.1443
 8793SOL    HW129272   9.033   0.427   4.299 -1.4735 -0.3417  0.0768
 8793SOL    HW229273   9.084   0.330   4.194 -1.5812  2.5615 -2.8011
 8794SOL     OW29274   5.671   5.813   8.956  0.0903 -0.2603 -0.6666
 8794SOL    HW129275   5.743   5.764   8.917  1.1868  1.8378 -1.4434
 8794SOL    HW229276   5.612   5.831   8.883  0.1094  0.2315 -0.5679
 8795SOL     OW29277   5.209   2.169   7.400  0.1232 -0.1560  0.0166
 8795SOL    HW129278   5.170   2.196   7.483 -1.4124 -0.8453 -0.4356
 8795SOL    HW229279   5.212   2.249   7.348 -0.5923 -0.0614  0.1136
 8796SOL     OW29280   2.283   4.924   7.427 -0.2671  0.0641  0.0672
 8796SOL    HW129281   2.192   4.934   7.454 -0.1275  1.6699  0.0588
 8796SOL    HW229282   2.285   4.956   7.336  0.3255  0.1833  0.1176
 8797SOL     OW29283   2.374   1.656   1.116  0.3940 -0.1762  0.5284
 8797SOL    HW129284   2.449   1.678   1.061 -1.1238 -0.4761 -1.8113
 8797SOL    HW229285   2.334   1.741   1.137  0.7698 -0.0829  0.8815
 8798SOL     OW29286   2.019   6.849   7.595  0.2225  0.7164 -0.5218
 8798SOL    HW129287   2.015   6.775   7.534 -1.7190 -1.0973  1.5851
 8798SOL    HW229288   1.971   6.919   7.551 -1.3433 -0.6087 -1.0361
 8799SOL     OW29289   8.465   3.938   4.314  0.4937 -0.4452 -0.3724
 8799SOL    HW129290   8.463   3.944   4.218 -0.4940 -0.9783 -0.4077
 8799SOL    HW229291   8.378   3.966   4.341  0.2699 -1.6529  0.2574
 8800SOL     OW29292  10.459   2.051   3.301 -0.3326  0.7248  0.1534
 8800SOL    HW129293  10.473   1.972   3.352 -1.5894  0.4986  0.1748
 8800SOL    HW229294  10.413   2.111   3.360 -1.4081  0.6222 -0.5446
 8801SOL     OW29295   1.200   6.231  10.431  0.4504  0.1423  0.1304
 8801SOL    HW129296   1.291   6.199  10.427 -0.0976 -1.8930  2.0308
 8801SOL    HW229297   1.206   6.311  10.483  1.1845  0.2572 -0.1065
 8802SOL     OW29298   7.182   8.845   4.524 -0.1430  0.1885  0.4025
 8802SOL    HW129299   7.175   8.767   4.469 -1.6186  0.4842  0.1385
 8802SOL    HW229300   7.131   8.911   4.479 -0.7641  0.6530  1.7459
 8803SOL     OW29301   8.668  10.118   7.366 -0.4557  0.2358 -0.5533
 8803SOL    HW129302   8.654  10.145   7.275  1.5208 -0.7566 -1.1888
 8803SOL    HW229303   8.639  10.026   7.369 -0.5854  0.2852 -0.1398
 8804SOL     OW29304   0.161   7.588  10.607 -0.2451 -0.1805  0.1918
 8804SOL    HW129305   0.227   7.519  10.593  2.1987  1.7611  1.4558
 8804SOL    HW229306   0.197   7.642  10.677 -2.8227  1.5143  0.3235
 8805SOL     OW29307   2.622   1.619   2.332  0.4324 -0.0664 -0.1099
 8805SOL    HW129308   2.680   1.572   2.272  0.5585  1.2439 -1.0642
 8805SOL    HW229309   2.681   1.677   2.381  0.2913 -0.9120  1.0932
 8806SOL     OW29310   4.415   2.342   1.948  0.3413 -0.1860  0.0501
 8806SOL    HW129311   4.322   2.334   1.926  0.3871  0.5640 -0.4587
 8806SOL    HW229312   4.431   2.272   2.011 -0.2180 -1.3044 -1.0016
 8807SOL     OW29313   9.157   1.078  10.589 -0.2992 -0.4651 -0.1410
 8807SOL    HW129314   9.247   1.060  10.560  0.4249 -1.0583  2.2408
 8807SOL    HW229315   9.168   1.139  10.662 -2.0591  1.4975 -1.4226
 8808SOL     OW29316   2.170   6.282   6.400  0.3942  0.0043 -0.5152
 8808SOL    HW129317   2.103   6.350   6.400  0.9957  0.6108 -0.2642
 8808SOL    HW229318   2.158   6.236   6.316 -1.1329 -0.7220  0.0732
 8809SOL     OW29319   5.786   5.885   6.098  0.4623 -0.8856 -0.7542
 8809SOL    HW129320   5.798   5.975   6.068  0.2662 -1.2644 -2.0059
 8809SOL    HW229321   5.693   5.867   6.085  0.3796 -1.0853  0.0459
 8810SOL     OW29322   0.186   3.963  10.733 -0.2405 -0.6162 -0.7045
 8810SOL    HW129323   0.196   3.874  10.701 -2.2686 -1.4104  0.7025
 8810SOL    HW229324   0.178   3.954  10.828 -1.9195  0.9093 -0.6520
 8811SOL     OW29325   1.423   3.539   7.257  0.5228  0.6696  0.2760
 8811SOL    HW129326   1.398   3.620   7.303  3.3027  4.0027 -3.4463
 8811SOL    HW229327   1.342   3.510   7.215 -0.2819  2.3353  0.5776
 8812SOL     OW29328   6.105   0.261   0.315  0.2061  0.5688 -0.3967
 8812SOL    HW129329   6.191   0.274   0.276  1.4745  1.3475  2.3808
 8812SOL    HW229330   6.070   0.349   0.327 -0.5717  0.3037 -0.6683
 8813SOL     OW29331   9.875   9.512   8.724  0.6044 -0.0912  0.0588
 8813SOL    HW129332   9.857   9.432   8.774 -0.5513  1.2080  1.8520
 8813SOL    HW229333   9.833   9.497   8.639  1.5826 -1.8849 -0.1552
 8814SOL     OW29334   7.456   7.675   8.489  0.4835  1.0111  0.3149
 8814SOL    HW129335   7.466   7.769   8.502 -0.6700  1.0077  1.3596
 8814SOL    HW229336   7.403   7.646   8.563 -0.6006 -0.1762 -0.8824
 8815SOL     OW29337   8.158  10.665   9.371 -0.4273  0.1807  0.7951
 8815SOL    HW129338   8.176  10.758   9.377  0.5682  0.0370  0.2686
 8815SOL    HW229339   8.067  10.655   9.400 -0.9767  1.4594 -0.4272
 8816SOL     OW29340   0.164   0.186   9.498 -0.3618 -0.2481  0.6959
 8816SOL    HW129341   0.214   0.250   9.448 -1.4337  1.3973  1.6570
 8816SOL    HW229342   0.189   0.102   9.460 -0.6605  0.8619 -2.1909
 8817SOL     OW29343   5.293   3.700   8.667 -0.6772 -0.0447 -0.3834
 8817SOL    HW129344   5.332   3.782   8.638  1.6484 -1.6099 -2.1499
 8817SOL    HW229345   5.211   3.693   8.618 -1.0314  1.3080 -0.0119
 8818SOL     OW29346   7.474   1.327   8.772  0.3256  0.1268  0.2896
 8818SOL    HW129347   7.432   1.350   8.689  1.1563 -1.2387 -0.5439
 8818SOL    HW229348   7.481   1.410   8.819 -0.6840  0.8337 -0.7561
 8819SOL     OW29349   2.790   7.580   9.356  0.7653  0.0631  0.6772
 8819SOL    HW129350   2.717   7.518   9.344  1.6150 -0.9721  0.6945
 8819SOL    HW229351   2.762   7.635   9.429 -0.5584  0.5595 -0.1531
 8820SOL     OW29352   2.244   4.866   2.026 -0.9709 -0.0556  1.0848
 8820SOL    HW129353   2.159   4.834   2.056 -0.5967 -1.3254  0.8709
 8820SOL    HW229354   2.245   4.959   2.049 -2.9547  0.3288 -0.0949
 8821SOL     OW29355   2.367   4.734  10.579  0.6001 -0.1272  0.0144
 8821SOL    HW129356   2.328   4.759  10.663  0.5811 -0.4497  0.1050
 8821SOL    HW229357   2.405   4.815  10.545 -1.8194  0.6599 -1.0265
 8822SOL     OW29358   1.924   0.201   0.058 -0.3546  0.1342 -0.7685
 8822SOL    HW129359   1.955   0.135  -0.005 -0.6548  0.1306 -0.9160
 8822SOL    HW229360   1.834   0.175   0.077 -0.7476  0.9613 -1.4465
 8823SOL     OW29361   6.532   0.680  10.785  0.7854  0.0747 -0.3651
 8823SOL    HW129362   6.574   0.595  10.801  0.1404  0.1460  2.0470
 8823SOL    HW229363   6.598   0.731  10.738  2.0705 -0.9678  0.2464
 8824SOL     OW29364   1.744   6.614   1.455 -0.0872 -0.0625  0.6511
 8824SOL    HW129365   1.674   6.646   1.397  0.7293 -0.4324 -0.5664
 8824SOL    HW229366   1.805   6.687   1.461  0.8818 -0.7264 -0.6873
 8825SOL     OW29367   3.822   0.183   3.236 -1.3088 -0.0096  0.0746
 8825SOL    HW129368   3.770   0.133   3.173 -0.2544 -1.9478  0.6627
 8825SOL    HW229369   3.788   0.272   3.230 -1.9789 -0.3661 -2.4190
 8826SOL     OW29370   0.815   3.145   0.476  0.4376  0.0520 -0.3407
 8826SOL    HW129371   0.800   3.050   0.468  0.3726  0.0729 -0.4653
 8826SOL    HW229372   0.780   3.167   0.563  0.8982 -0.1248 -0.1063
 8827SOL     OW29373   2.783   6.929   6.974 -0.2084 -1.1857  0.1835
 8827SOL    HW129374   2.834   6.969   7.045 -1.6480 -0.2289  0.7454
 8827SOL    HW229375   2.705   6.893   7.019 -2.2349  1.3276 -1.0797
 8828SOL     OW29376   3.645   0.977   7.109  0.0584  0.3320  0.8030
 8828SOL    HW129377   3.692   1.029   7.043 -2.9125  1.0979 -0.8846
 8828SOL    HW229378   3.593   0.914   7.058  0.6613 -1.8076  2.6529
 8829SOL     OW29379   2.109   7.197  10.058 -0.0927 -0.1550 -0.0082
 8829SOL    HW129380   2.180   7.218   9.998  0.7945 -0.0027  1.0622
 8829SOL    HW229381   2.038   7.168  10.001  0.9003 -0.5578 -1.1048
 8830SOL     OW29382   7.345   0.591   3.128  0.2682 -0.5094  0.8828
 8830SOL    HW129383   7.307   0.659   3.073  1.6393 -0.5437 -0.1776
 8830SOL    HW229384   7.328   0.510   3.081  0.7228 -0.6283  0.9144
 8831SOL     OW29385   5.800   2.924   8.994  0.3926  0.3094 -0.1862
 8831SOL    HW129386   5.771   2.969   9.074  2.3943 -0.3796  1.0164
 8831SOL    HW229387   5.726   2.930   8.934 -1.4143  0.3570  1.9344
 8832SOL     OW29388   0.821   5.881   0.147  0.2368 -0.0572 -0.4676
 8832SOL    HW129389   0.776   5.830   0.080  0.1886  0.1321 -0.5811
 8832SOL    HW229390   0.751   5.911   0.205  0.3788 -1.0864  0.2713
 8833SOL     OW29391   7.693  10.322   8.757  0.0029  0.3284  0.3734
 8833SOL    HW129392   7.785  10.340   8.738 -0.4683  1.8785 -0.6165
 8833SOL    HW229393   7.693  10.286   8.846  1.5883 -0.0545  0.2376
 8834SOL     OW29394   9.451   4.928   0.533  0.2197  0.1526 -0.2914
 8834SOL    HW129395   9.543   4.907   0.522  0.3296 -0.9342  2.1184
 8834SOL    HW229396   9.406   4.844   0.527 -0.4534  0.4821 -0.0420
 8835SOL     OW29397   8.622   7.829   3.821 -0.2423  0.1790  0.0811
 8835SOL    HW129398   8.585   7.892   3.759 -0.5813 -0.8779 -0.8143
 8835SOL    HW229399   8.617   7.745   3.776  1.5479 -0.2856  0.6761
 8836SOL     OW29400   1.280   4.836   4.569 -0.4095  0.1187 -0.2874
 8836SOL    HW129401   1.251   4.758   4.614 -0.2742  0.7743  0.9684
 8836SOL    HW229402   1.279   4.812   4.476 -0.3750 -1.3491  0.0778
 8837SOL     OW29403   5.748   0.663   9.637  0.0269  0.3060 -0.1814
 8837SOL    HW129404   5.826   0.607   9.635 -1.1176 -1.5002  1.6762
 8837SOL    HW229405   5.686   0.616   9.693 -2.2240  1.9276 -1.1464
 8838SOL     OW29406   4.235   4.877   7.982 -0.0375 -0.3214 -0.2904
 8838SOL    HW129407   4.153   4.896   7.937  0.2446 -1.0528 -1.1412
 8838SOL    HW229408   4.279   4.813   7.926  0.8940 -0.3077  0.4011
 8839SOL     OW29409   9.348   2.833   4.702 -0.1761 -0.8595  0.0585
 8839SOL    HW129410   9.391   2.834   4.617  0.3721  0.2747  0.3358
 8839SOL    HW229411   9.255   2.823   4.682 -0.5368  3.0086 -0.9469
 8840SOL     OW29412  10.387   7.411   9.442 -0.0327 -0.5074 -0.5441
 8840SOL    HW129413  10.431   7.472   9.383  1.5910 -1.2586 -0.1682
 8840SOL    HW229414  10.355   7.466   9.514  1.0617 -0.0163 -0.4054
 8841SOL     OW29415   4.635   0.376   1.325 -0.2491 -0.0578  0.0187
 8841SOL    HW129416   4.558   0.333   1.361 -1.9280  2.8736  0.2535
 8841SOL    HW229417   4.645   0.456   1.377  0.9303  1.2734 -2.1036
 8842SOL     OW29418   1.023   8.627  10.355  0.1198  0.2519 -0.0132
 8842SOL    HW129419   1.018   8.606  10.262  2.0493  1.0747 -0.3469
 8842SOL    HW229420   1.095   8.573  10.388  1.0142  1.6791  0.4553
 8843SOL     OW29421   8.530   1.029  10.650  0.5053 -0.0547  0.0903
 8843SOL    HW129422   8.437   1.038  10.670  0.2047  0.0119 -1.2051
 8843SOL    HW229423   8.542   1.077  10.568  1.4736 -0.8635 -0.2771
 8844SOL     OW29424   4.685   4.233   7.774 -0.5892  0.2609  0.4389
 8844SOL    HW129425   4.606   4.214   7.723 -0.3466 -0.2029  0.2367
 8844SOL    HW229426   4.664   4.203   7.863 -0.6406  0.1410  0.3854
 8845SOL     OW29427   2.089   2.708   1.062 -0.0552  0.2268  0.1311
 8845SOL    HW129428   2.174   2.752   1.070 -0.9880  1.9574  1.0330
 8845SOL    HW229429   2.043   2.756   0.994 -0.5688 -0.2640  0.1267
 8846SOL     OW29430   9.917  10.380   5.349  0.1818  0.3760  0.0089
 8846SOL    HW129431   9.923  10.313   5.416 -0.6023  1.2642  0.9930
 8846SOL    HW229432   9.845  10.436   5.376 -0.9827  0.0746 -2.2091
 8847SOL     OW29433   8.911   0.371   9.249 -0.1300 -0.4900  0.6620
 8847SOL    HW129434   8.973   0.350   9.179  0.0050  0.3957  0.5130
 8847SOL    HW229435   8.955   0.438   9.301 -0.6150 -0.4673  1.0505
 8848SOL     OW29436   3.881  10.487   0.803 -0.0290 -0.0165  0.6897
 8848SOL    HW129437   3.920  10.446   0.880 -1.2534 -2.2135  0.2408
 8848SOL    HW229438   3.788  10.497   0.825 -0.5611 -1.4117 -0.7097
 8849SOL     OW29439   6.899   9.817   5.566  0.6647  0.0423 -0.2523
 8849SOL    HW129440   6.887   9.723   5.582 -0.6428  0.0558 -0.9273
 8849SOL    HW229441   6.836   9.859   5.624  1.5858  0.5488  0.4016
 8850SOL     OW29442   3.867   1.548   8.261 -0.2792  0.1762  0.1624
 8850SOL    HW129443   3.870   1.462   8.219 -0.6839 -0.0951  0.6814
 8850SOL    HW229444   3.914   1.536   8.343 -2.2941 -0.1816  1.3267
 8851SOL     OW29445   6.368   5.261   9.723  0.5594  0.4923 -0.1160
 8851SOL    HW129446   6.369   5.180   9.774  3.8084  0.7801  0.4947
 8851SOL    HW229447   6.349   5.329   9.787 -1.4376  0.3407 -0.4975
 8852SOL     OW29448   6.598   6.399   3.865  0.5523 -0.1772 -0.0050
 8852SOL    HW129449   6.507   6.381   3.890  0.5268  0.4310  0.3600
 8852SOL    HW229450   6.646   6.321   3.893 -0.1198 -1.3099 -1.8528
 8853SOL     OW29451   4.062   9.943   2.069 -0.4866 -0.4390 -0.1422
 8853SOL    HW129452   3.978   9.944   2.024  0.2089  1.5310 -1.5777
 8853SOL    HW229453   4.046   9.992   2.150 -0.9761 -1.1484  0.2052
 8854SOL     OW29454   2.213   9.958   3.350 -0.5456 -0.1239  0.4859
 8854SOL    HW129455   2.304   9.947   3.322 -1.4105 -0.2478 -2.7777
 8854SOL    HW229456   2.218  10.009   3.430  2.3928 -0.1055  0.3917
 8855SOL     OW29457   4.938  10.746   6.263  0.4676  0.4547  0.0009
 8855SOL    HW129458   5.029  10.752   6.234  0.7949 -0.8171  0.7033
 8855SOL    HW229459   4.907  10.837   6.264  1.1186  0.7370 -2.0844
 8856SOL     OW29460   2.107   7.245   5.890 -0.3264  0.4809 -0.7713
 8856SOL    HW129461   2.183   7.277   5.938 -0.8746  1.7271 -0.6858
 8856SOL    HW229462   2.138   7.236   5.799  0.5054 -1.1746 -0.3619
 8857SOL     OW29463   4.964   1.541   7.795 -0.0816 -0.7805 -0.0509
 8857SOL    HW129464   4.989   1.463   7.843 -0.2612 -0.7121  0.1544
 8857SOL    HW229465   5.010   1.613   7.839 -2.2875 -0.3343  1.7308
 8858SOL     OW29466   1.471   2.657   9.881  0.1043 -0.6971  0.6620
 8858SOL    HW129467   1.520   2.628   9.805 -0.6895 -1.5523  0.4470
 8858SOL    HW229468   1.523   2.629   9.956  0.9238  0.2159  0.4438
 8859SOL     OW29469  10.694   1.374   8.279  0.0243  0.2218  0.0390
 8859SOL    HW129470  10.761   1.442   8.281  0.6228 -0.3776  1.4339
 8859SOL    HW229471  10.678   1.354   8.371 -0.5414 -1.1441 -0.3412
 8860SOL     OW29472   0.133   8.221   5.357 -0.3514  0.2880  0.2804
 8860SOL    HW129473   0.053   8.245   5.309  1.0149  1.8302 -1.3586
 8860SOL    HW229474   0.129   8.126   5.365 -1.8476  0.2437 -0.6715
 8861SOL     OW29475   9.156   5.176   0.828 -0.6503  0.0515 -0.3376
 8861SOL    HW129476   9.170   5.258   0.875 -0.2196 -0.5701  0.6301
 8861SOL    HW229477   9.235   5.165   0.775 -0.5958  0.1189 -0.2701
 8862SOL     OW29478   0.656   1.571   6.567 -0.1152 -0.4443 -0.1710
 8862SOL    HW129479   0.635   1.560   6.659 -0.7026 -0.5429 -0.3104
 8862SOL    HW229480   0.731   1.513   6.552 -0.0399 -0.4503  0.2352
 8863SOL     OW29481   1.207   5.411   4.311  0.1487  0.1944 -0.4124
 8863SOL    HW129482   1.226   5.395   4.219 -0.8679  2.3760 -1.0865
 8863SOL    HW229483   1.247   5.496   4.329  0.4327 -0.2543  1.2123
 8864SOL     OW29484   3.160   9.938   5.967  0.4915  0.3001  0.0537
 8864SOL    HW129485   3.203   9.884   6.033 -0.3719  0.2799  0.6176
 8864SOL    HW229486   3.111  10.003   6.017 -1.5307 -0.7507 -0.4727
 8865SOL     OW29487   4.841   2.307   6.080 -0.2359 -0.7188  0.2231
 8865SOL    HW129488   4.775   2.288   6.013 -0.3911 -1.1200  0.4902
 8865SOL    HW229489   4.892   2.226   6.088 -0.5018 -0.8240  0.9110
 8866SOL     OW29490   7.395   2.669   6.574 -0.1188  0.0465  0.2235
 8866SOL    HW129491   7.316   2.617   6.592 -0.8659  1.7715  2.4268
 8866SOL    HW229492   7.429   2.691   6.661  2.8559 -0.6303 -0.6562
 8867SOL     OW29493   2.798   5.403   4.407 -0.0110  0.5314  0.1825
 8867SOL    HW129494   2.721   5.362   4.368  0.9235 -0.0236 -1.1510
 8867SOL    HW229495   2.779   5.497   4.403 -0.3783  0.4309 -0.6706
 8868SOL     OW29496   9.958   5.852   3.476 -0.5140  0.4841  0.0221
 8868SOL    HW129497   9.942   5.775   3.422 -3.0003  0.5202  0.5803
 8868SOL    HW229498  10.053   5.861   3.478 -0.1705 -2.2057 -0.5441
 8869SOL     OW29499   6.988  10.614   6.788 -0.0619 -0.1507  0.0559
 8869SOL    HW129500   7.010  10.690   6.734 -0.8950  0.0944  0.0510
 8869SOL    HW229501   7.064  10.602   6.844  0.1889  0.5208 -0.1288
 8870SOL     OW29502   7.125   5.347   2.571  0.3041  0.0712  0.1994
 8870SOL    HW129503   7.050   5.342   2.511 -0.3952  0.3703  1.0123
 8870SOL    HW229504   7.194   5.296   2.529 -0.5352 -0.6605 -0.3260
 8871SOL     OW29505  10.093   4.377   8.478 -0.4799  0.1233 -0.2862
 8871SOL    HW129506  10.107   4.408   8.568 -0.7683  0.3669 -0.3260
 8871SOL    HW229507  10.070   4.455   8.429  1.3073  0.2804 -0.9419
 8872SOL     OW29508   9.362   8.652   7.944 -0.4767 -0.3054  0.5140
 8872SOL    HW129509   9.282   8.705   7.937 -0.3068  0.2057  1.9911
 8872SOL    HW229510   9.343   8.573   7.893 -2.0409 -0.3264  1.0741
 8873SOL     OW29511   8.571   7.033   7.311 -0.0359  0.1879  0.2273
 8873SOL    HW129512   8.476   7.027   7.317 -0.1813  1.6183 -0.1557
 8873SOL    HW229513   8.591   7.007   7.221 -0.0095 -0.4685  0.4144
 8874SOL     OW29514   4.893   9.916   8.297 -0.0200  0.3399 -0.5475
 8874SOL    HW129515   4.798   9.909   8.302  0.0893 -0.9870  0.2163
 8874SOL    HW229516   4.919   9.848   8.235  0.4429  0.6353 -0.6850
 8875SOL     OW29517   9.230   8.278   2.257 -0.2393 -0.0372 -0.7216
 8875SOL    HW129518   9.163   8.307   2.318  1.5979  1.3440  0.7538
 8875SOL    HW229519   9.305   8.255   2.312  1.4792  1.1765 -2.4004
 8876SOL     OW29520   9.537   9.014   5.599 -0.0306 -0.2472  0.0302
 8876SOL    HW129521   9.578   9.060   5.525 -1.6417 -0.2056 -0.8712
 8876SOL    HW229522   9.591   9.039   5.674  0.8006  0.8678 -0.8859
 8877SOL     OW29523   1.800   9.868   7.996  0.3306 -0.7402 -0.3686
 8877SOL    HW129524   1.793   9.924   8.073 -1.1694 -1.6650  0.2361
 8877SOL    HW229525   1.857   9.796   8.024  1.6988  0.1127 -0.9179
 8878SOL     OW29526   6.884   5.845   7.300 -0.3244  0.8960 -0.1213
 8878SOL    HW129527   6.922   5.763   7.268 -1.1971  0.6662 -0.6122
 8878SOL    HW229528   6.844   5.885   7.223  1.0705  2.3717 -0.1212
 8879SOL     OW29529   3.637   5.524   1.066 -0.9900 -0.3441 -0.6211
 8879SOL    HW129530   3.605   5.538   0.977 -1.4765  0.5475 -0.3248
 8879SOL    HW229531   3.559   5.534   1.121 -0.5145  0.1799 -0.0187
 8880SOL     OW29532   9.891   9.239   8.323  0.1708 -0.4889 -0.0465
 8880SOL    HW129533   9.919   9.246   8.414 -0.3059 -0.4208  0.0970
 8880SOL    HW229534   9.920   9.321   8.283 -1.7971  0.6075  0.6504
 8881SOL     OW29535  10.692   9.672   8.297 -0.0618 -0.5354 -0.2561
 8881SOL    HW129536  10.690   9.696   8.205  0.6843  2.1829  0.3568
 8881SOL    HW229537  10.695   9.576   8.297  1.5009 -0.5787 -3.0571
 8882SOL     OW29538   4.835   8.989   2.647 -0.1040 -0.3417 -0.8563
 8882SOL    HW129539   4.760   9.048   2.652 -0.0972 -0.3069 -1.1643
 8882SOL    HW229540   4.907   9.039   2.687  0.8209  1.3251 -4.1933
 8883SOL     OW29541   8.013   0.593   4.117 -0.1069 -0.1021 -0.3409
 8883SOL    HW129542   7.997   0.650   4.192 -0.6225  0.5350 -0.9234
 8883SOL    HW229543   8.072   0.643   4.060 -0.1729 -0.3483 -0.6308
 8884SOL     OW29544   9.022   7.029   0.746 -0.0590 -0.3168  0.4290
 8884SOL    HW129545   8.979   7.108   0.780 -1.4868 -0.4878 -0.8593
 8884SOL    HW229546   9.088   7.007   0.812 -0.9780  0.8191  1.7857
 8885SOL     OW29547   0.783   9.340   9.947  0.7649  0.2588 -0.4813
 8885SOL    HW129548   0.762   9.433   9.941  1.2929  0.4687  0.6697
 8885SOL    HW229549   0.798   9.324  10.040  2.8284 -0.5057 -0.8866
 8886SOL     OW29550   1.438  10.381   1.939  0.5774  0.6136 -0.6429
 8886SOL    HW129551   1.469  10.324   1.868  0.2986 -0.2951 -0.0480
 8886SOL    HW229552   1.504  10.373   2.007  0.2764  0.5933 -0.3497
 8887SOL     OW29553   8.271   9.875   8.462 -0.4447 -0.0368  0.3537
 8887SOL    HW129554   8.302   9.961   8.432 -0.2706  0.3866  1.6958
 8887SOL    HW229555   8.270   9.821   8.383  0.3621  0.9325 -0.3409
 8888SOL     OW29556   3.958   6.347   4.399  0.2520  0.7979 -0.5890
 8888SOL    HW129557   3.973   6.401   4.321  1.5472  0.5180 -0.5553
 8888SOL    HW229558   4.037   6.358   4.451 -0.9212  1.6604  1.1285
 8889SOL     OW29559   8.315   5.476  10.149  0.3199  0.0621  0.9727
 8889SOL    HW129560   8.275   5.544  10.202 -0.7700 -0.3172  0.6738
 8889SOL    HW229561   8.271   5.395  10.175 -1.7079  0.1230 -1.8203
 8890SOL     OW29562   7.956   2.318  10.102  0.1800  0.2759  0.4868
 8890SOL    HW129563   7.969   2.413  10.102 -0.1165  0.3177  0.6439
 8890SOL    HW229564   7.891   2.303  10.171 -0.0188 -0.0077  0.2374
 8891SOL     OW29565  10.364   6.585   5.541  0.7434 -0.7419  0.3778
 8891SOL    HW129566  10.405   6.508   5.581  2.0595 -0.7252 -0.8362
 8891SOL    HW229567  10.430   6.654   5.549  0.3431 -0.2741 -0.2292
 8892SOL     OW29568   4.484   9.287   0.214  0.5769  0.2643 -0.1417
 8892SOL    HW129569   4.507   9.366   0.164  1.1618  0.3876  0.3080
 8892SOL    HW229570   4.502   9.215   0.154  0.7772  0.4360 -0.2892
 8893SOL     OW29571   5.217   4.143   6.093  0.3884  0.6678 -0.5711
 8893SOL    HW129572   5.177   4.120   6.008 -0.2513 -0.5178  0.0178
 8893SOL    HW229573   5.289   4.081   6.102 -1.1007 -0.9755  0.8606
 8894SOL     OW29574   0.881   0.851   6.554 -0.6453  0.3446 -0.1081
 8894SOL    HW129575   0.935   0.796   6.610  0.1368  0.3353 -0.8550
 8894SOL    HW229576   0.797   0.805   6.549 -0.5869  0.1322  0.7022
 8895SOL     OW29577   3.193   3.261   1.399  0.2790  0.7852  0.4786
 8895SOL    HW129578   3.221   3.294   1.485  1.5117 -2.1725  1.3579
 8895SOL    HW229579   3.102   3.235   1.412 -0.1511  2.1144  0.2755
 8896SOL     OW29580   4.686   3.855   3.484  0.0652 -0.3138 -0.1329
 8896SOL    HW129581   4.665   3.943   3.514  1.5984 -0.0742  0.3003
 8896SOL    HW229582   4.665   3.798   3.558  0.0671 -0.1966 -0.0436
 8897SOL     OW29583   7.577  10.397   5.199 -0.6258  0.1751 -0.3021
 8897SOL    HW129584   7.516  10.340   5.245  1.2581 -1.4390  0.3555
 8897SOL    HW229585   7.563  10.379   5.107  0.8452 -2.5311 -0.1071
 8898SOL     OW29586   4.831   7.128   0.183  0.1269  0.1430 -0.4848
 8898SOL    HW129587   4.842   7.039   0.216  0.4117  0.7637  1.2530
 8898SOL    HW229588   4.920   7.158   0.164  0.1483  0.4098  0.0059
 8899SOL     OW29589   8.668   1.404   1.048  0.1387 -0.2135  0.1554
 8899SOL    HW129590   8.637   1.490   1.075  0.0642 -0.5532  1.2082
 8899SOL    HW229591   8.694   1.415   0.956 -0.6585  0.7133  0.0248
 8900SOL     OW29592   0.038   1.197   4.264  0.0734 -0.1060 -0.0989
 8900SOL    HW129593   0.020   1.147   4.344 -0.1550  0.7775  0.4125
 8900SOL    HW229594   0.002   1.143   4.194 -3.2017  0.7655  0.7048
 8901SOL     OW29595   3.841   8.559   0.294  0.3884  0.3642 -0.1354
 8901SOL    HW129596   3.779   8.545   0.365 -0.1014  0.9880 -0.4297
 8901SOL    HW229597   3.787   8.586   0.220  1.0117  1.0311 -0.3622
 8902SOL     OW29598   7.612   1.235   7.840  0.2181 -0.3703 -0.0098
 8902SOL    HW129599   7.603   1.258   7.932  1.0559  0.0597 -0.0266
 8902SOL    HW229600   7.580   1.145   7.835  3.0792 -1.6116  1.3430
 8903SOL     OW29601   2.136   7.524   2.536 -0.5362  0.3594 -0.0303
 8903SOL    HW129602   2.159   7.520   2.443 -2.1075  1.8798 -0.5659
 8903SOL    HW229603   2.111   7.435   2.559  0.3831 -0.1452 -0.9109
 8904SOL     OW29604   7.954   4.133   2.971 -0.5026 -0.3381  0.0672
 8904SOL    HW129605   7.885   4.070   2.950  0.1030 -0.3020 -2.3324
 8904SOL    HW229606   8.027   4.109   2.913  0.6825  0.9969  0.9310
 8905SOL     OW29607   6.599   2.444   2.417 -0.1345  0.5084 -0.4484
 8905SOL    HW129608   6.668   2.397   2.465  0.1731  2.3736  1.0741
 8905SOL    HW229609   6.624   2.536   2.425 -2.0776  1.1337 -1.0726
 8906SOL     OW29610   0.177   0.889  10.425 -0.3799  0.3257  0.1851
 8906SOL    HW129611   0.179   0.959  10.490 -1.4250  0.0646  0.5096
 8906SOL    HW229612   0.160   0.933  10.342  1.6128  0.7421 -0.0697
 8907SOL     OW29613   7.992   8.952   4.207 -0.3002 -0.1009  0.2006
 8907SOL    HW129614   7.997   8.996   4.122 -1.1444 -0.5570 -0.0953
 8907SOL    HW229615   8.047   8.874   4.197 -0.5155 -0.2313  0.0176
 8908SOL     OW29616   5.704   3.962   9.070  0.4263 -0.2505 -0.6177
 8908SOL    HW129617   5.657   4.043   9.089  1.5448  0.4869 -0.8755
 8908SOL    HW229618   5.698   3.951   8.975 -0.3093 -0.8608 -0.5133
 8909SOL     OW29619   2.447   2.467   1.286 -0.2992  0.0360 -0.2887
 8909SOL    HW129620   2.434   2.427   1.200  1.4106  1.0683 -1.0910
 8909SOL    HW229621   2.515   2.414   1.327  1.2870  1.4351 -0.9744
 8910SOL     OW29622   6.941   5.780   3.695  0.4897 -0.0149 -0.1623
 8910SOL    HW129623   6.959   5.784   3.601  2.2715  0.2034  0.1509
 8910SOL    HW229624   7.023   5.808   3.736 -1.2958  3.6327  1.4216
 8911SOL     OW29625   4.797   5.071   3.766 -0.0397 -0.7561 -0.0837
 8911SOL    HW129626   4.875   5.043   3.718 -0.3846 -0.7036 -0.6824
 8911SOL    HW229627   4.743   5.115   3.700 -1.3294 -2.2283 -0.0694
 8912SOL     OW29628   1.948  10.352   0.998 -0.4302  0.3920 -0.1527
 8912SOL    HW129629   1.896  10.338   1.077  0.5262  0.3685  0.4876
 8912SOL    HW229630   1.920  10.437   0.965 -0.3352  0.7273  0.6153
 8913SOL     OW29631   1.840   0.711   6.172  0.2783  0.3681 -1.1913
 8913SOL    HW129632   1.763   0.666   6.137  0.4398 -1.2855  0.4364
 8913SOL    HW229633   1.806   0.790   6.212 -0.7882 -0.8076  0.3630
 8914SOL     OW29634   0.492   2.911   1.962  0.4398  0.2091 -0.1772
 8914SOL    HW129635   0.526   2.998   1.979  0.9482  0.0209 -0.1995
 8914SOL    HW229636   0.429   2.923   1.890  1.9265  0.2953 -1.5313
 8915SOL     OW29637   5.751   9.010   0.168 -0.2351  0.2164 -0.2670
 8915SOL    HW129638   5.678   9.060   0.205  0.6307  3.3783 -2.4173
 8915SOL    HW229639   5.711   8.927   0.141 -2.2394  0.4620  1.5983
 8916SOL     OW29640   3.496   3.522   9.190 -0.3547 -0.2002  0.1056
 8916SOL    HW129641   3.566   3.583   9.212 -1.1298  1.8034 -2.4492
 8916SOL    HW229642   3.534   3.466   9.123 -0.7934  0.0651 -0.3712
 8917SOL     OW29643   9.260   9.068  10.739  0.4191  0.0581 -0.0760
 8917SOL    HW129644   9.336   9.016  10.767  1.4351 -0.8276 -3.8210
 8917SOL    HW229645   9.190   9.003  10.729  0.7315 -0.1109 -1.5077
 8918SOL     OW29646   7.154   3.343   4.518  0.3017  0.3657  0.2970
 8918SOL    HW129647   7.107   3.262   4.497 -0.0848 -0.0651  2.5564
 8918SOL    HW229648   7.087   3.402   4.552  0.6679  1.5046 -0.8734
 8919SOL     OW29649   8.719   9.223   3.409 -0.5425 -0.4629  0.5548
 8919SOL    HW129650   8.788   9.199   3.348  0.5377  0.6931  1.2855
 8919SOL    HW229651   8.649   9.258   3.353  0.5886  0.9682 -0.0320
 8920SOL     OW29652  10.111   4.458   4.919 -0.0338  0.5732 -0.7437
 8920SOL    HW129653  10.084   4.468   5.011  2.5163 -1.0497  0.2700
 8920SOL    HW229654  10.099   4.365   4.900  3.7746 -0.1217 -0.4537
 8921SOL     OW29655   5.709   3.169  10.200 -0.6542 -0.4005 -0.6287
 8921SOL    HW129656   5.673   3.085  10.171 -2.0837  0.3304 -1.0666
 8921SOL    HW229657   5.662   3.189  10.281  1.5093 -1.2008  0.9337
 8922SOL     OW29658   6.771   6.753   5.278 -0.7266 -0.4021  0.3930
 8922SOL    HW129659   6.676   6.764   5.284 -0.7036 -0.2211  0.4200
 8922SOL    HW229660   6.784   6.658   5.279 -0.7815 -0.4313  2.5372
 8923SOL     OW29661   5.222   6.576   5.299  0.0078  0.1896 -0.0341
 8923SOL    HW129662   5.183   6.536   5.376  1.7486 -0.3087  0.6224
 8923SOL    HW229663   5.186   6.665   5.297  0.0180  0.2520  1.4311
 8924SOL     OW29664   4.176   3.999   9.955 -0.3124  0.5367 -0.3118
 8924SOL    HW129665   4.247   4.062   9.940 -0.9391  1.4344  0.3355
 8924SOL    HW229666   4.100   4.054   9.974 -0.8553 -0.4217  0.3583
 8925SOL     OW29667   7.004   3.639   3.131 -0.1330  0.3178  0.5150
 8925SOL    HW129668   7.045   3.564   3.088 -0.5323 -0.2036  1.0391
 8925SOL    HW229669   6.974   3.694   3.058 -0.8410 -0.5776  0.1212
 8926SOL     OW29670  10.149   6.259   3.510  0.1688 -0.3420 -0.7342
 8926SOL    HW129671  10.205   6.193   3.553  0.1634  1.3647  2.1148
 8926SOL    HW229672  10.173   6.341   3.552 -2.2846  0.9556 -1.7241
 8927SOL     OW29673   1.628   6.160   7.785 -0.6135  0.2576  0.0039
 8927SOL    HW129674   1.541   6.165   7.745 -0.3256 -2.7282 -1.2439
 8927SOL    HW229675   1.628   6.076   7.831  2.1974 -0.8221 -1.6966
 8928SOL     OW29676   7.830   1.565   5.877 -0.2829 -0.5659  0.3566
 8928SOL    HW129677   7.829   1.655   5.847 -0.5526 -0.1331  1.5978
 8928SOL    HW229678   7.860   1.570   5.968 -2.8109 -1.4089  1.3280
 8929SOL     OW29679   4.342   4.753   9.778  0.8531  0.3971 -0.1088
 8929SOL    HW129680   4.306   4.697   9.847  0.4614 -1.0390 -1.4080
 8929SOL    HW229681   4.414   4.703   9.741 -0.2123  0.1907 -2.0528
 8930SOL     OW29682   8.263   8.757   0.852 -0.2193  0.3566 -0.3321
 8930SOL    HW129683   8.314   8.714   0.920  0.8178  0.3003 -1.1213
 8930SOL    HW229684   8.328   8.787   0.788 -0.9964  2.0400 -0.4050
 8931SOL     OW29685   1.577   9.041   6.726  0.0307  0.0952 -0.0153
 8931SOL    HW129686   1.562   9.062   6.819 -1.0792  1.0959 -0.4005
 8931SOL    HW229687   1.672   9.027   6.721  0.4697  2.2334  0.8761
 8932SOL     OW29688  10.321   9.651   7.722 -0.0145  0.1304 -0.3031
 8932SOL    HW129689  10.406   9.691   7.740  0.2125 -1.1392  1.7193
 8932SOL    HW229690  10.301   9.598   7.799 -0.7579 -2.8721 -2.3385
 8933SOL     OW29691   3.771   6.927   8.088 -0.0406  0.0035 -0.5271
 8933SOL    HW129692   3.745   6.845   8.047  1.7685 -0.5530 -0.6316
 8933SOL    HW229693   3.831   6.901   8.158 -1.2548  1.0911  0.9988
 8934SOL     OW29694   7.914   5.449   1.820 -0.1012  0.1263 -0.5197
 8934SOL    HW129695   8.008   5.446   1.800 -0.1885  3.5722 -2.1874
 8934SOL    HW229696   7.872   5.433   1.735 -0.9626  0.6460 -0.1912
 8935SOL     OW29697  10.502   1.726   4.964  0.3343  0.1148 -0.1027
 8935SOL    HW129698  10.493   1.705   5.057 -1.0671 -2.9176 -0.8184
 8935SOL    HW229699  10.543   1.649   4.925  0.4625  1.1268 -2.1241
 8936SOL     OW29700   1.082   3.380   7.567  0.4688 -0.6323 -0.4159
 8936SOL    HW129701   1.004   3.408   7.519  0.2621  2.1359  1.2851
 8936SOL    HW229702   1.154   3.430   7.528  1.0934 -1.7581 -0.7429
 8937SOL     OW29703   9.435   6.185   2.387 -0.4349 -0.2651  0.0301
 8937SOL    HW129704   9.524   6.163   2.413  1.0637  2.0685 -2.6281
 8937SOL    HW229705   9.407   6.112   2.333  0.2206 -0.6013  0.1380
 8938SOL     OW29706   7.372   0.794  10.032  0.3248 -0.0383  0.1516
 8938SOL    HW129707   7.309   0.847  10.081  1.2517  1.2076  0.0751
 8938SOL    HW229708   7.326   0.767   9.953 -0.1191  0.8831  0.0814
 8939SOL     OW29709  10.707   8.437  10.091  0.0809 -0.2081  0.3247
 8939SOL    HW129710  10.670   8.435  10.179  1.7035 -0.3043  1.0478
 8939SOL    HW229711  10.701   8.347  10.060 -1.4062  0.0075 -0.0976
 8940SOL     OW29712   1.599   4.568   3.429 -0.0047 -0.5273  0.4307
 8940SOL    HW129713   1.641   4.491   3.467 -1.9994 -1.5217  0.6936
 8940SOL    HW229714   1.555   4.611   3.503 -1.4983 -0.8868 -0.2149
 8941SOL     OW29715   9.824  10.538   2.638  0.4971  0.6916  0.2154
 8941SOL    HW129716   9.883  10.608   2.666  0.0228  0.5351  1.7068
 8941SOL    HW229717   9.881  10.463   2.624  1.2021  1.6553 -2.7332
 8942SOL     OW29718   9.882   8.598   4.063  0.0206 -0.5271 -0.0138
 8942SOL    HW129719   9.971   8.605   4.027 -0.0305 -1.6649 -0.3899
 8942SOL    HW229720   9.826   8.589   3.986 -0.3485 -0.5449  0.2566
 8943SOL     OW29721   8.165   8.584   7.557 -0.2341  0.4775 -0.0256
 8943SOL    HW129722   8.167   8.624   7.471  1.0951 -0.1612 -0.3260
 8943SOL    HW229723   8.230   8.634   7.608  1.6546 -1.3808 -0.4862
 8944SOL     OW29724   4.131   5.096   0.699  0.1712  0.6516 -0.4391
 8944SOL    HW129725   4.082   5.175   0.677 -1.2678 -0.3927 -1.1534
 8944SOL    HW229726   4.182   5.120   0.776 -0.9802  1.9948 -0.0577
 8945SOL     OW29727   9.859  10.365   4.679 -0.9787 -0.2413 -0.0133
 8945SOL    HW129728   9.883  10.396   4.766 -1.7384 -1.2873  0.6008
 8945SOL    HW229729   9.937  10.381   4.625  0.0478 -0.9058  1.2141
 8946SOL     OW29730   6.236   8.729   4.530 -0.6290  0.0599  0.1478
 8946SOL    HW129731   6.188   8.648   4.512 -0.8768  0.6724 -2.2569
 8946SOL    HW229732   6.172   8.799   4.515  0.6294  0.8404 -2.0343
 8947SOL     OW29733   7.702   6.387  10.237 -0.0072 -0.4646  0.2709
 8947SOL    HW129734   7.785   6.347  10.212 -1.1508 -1.4034 -2.3998
 8947SOL    HW229735   7.707   6.477  10.204  0.2684 -0.2019  0.9872
 8948SOL     OW29736   7.610   0.743   9.916  0.1276 -0.0978  0.2507
 8948SOL    HW129737   7.545   0.780   9.976 -0.8781 -0.0083 -0.8570
 8948SOL    HW229738   7.610   0.649   9.935  0.5002  0.0569  1.0254
 8949SOL     OW29739   1.681   3.358   6.847 -0.0650  0.2757 -0.2138
 8949SOL    HW129740   1.716   3.276   6.813 -0.3030  0.6777 -1.5061
 8949SOL    HW229741   1.674   3.345   6.941  0.1813 -1.0695 -0.3692
 8950SOL     OW29742   8.990   7.368  10.096  0.1881 -0.8637 -0.0932
 8950SOL    HW129743   8.918   7.312  10.068 -1.2679  1.2785 -0.8265
 8950SOL    HW229744   9.012   7.420  10.019 -0.5487  1.6293  1.2584
 8951SOL     OW29745   5.716   3.598   6.132 -0.8384  0.0082  0.3608
 8951SOL    HW129746   5.628   3.562   6.146 -0.9383 -0.4405 -1.2655
 8951SOL    HW229747   5.774   3.522   6.133 -0.5345  0.2342  0.7350
 8952SOL     OW29748   8.199   8.912   6.762 -0.9596  0.0968  0.2034
 8952SOL    HW129749   8.244   8.997   6.768 -0.5244 -0.0823 -0.3439
 8952SOL    HW229750   8.174   8.905   6.670 -1.5184 -0.1114  0.3693
 8953SOL     OW29751   9.363   6.475   5.885 -0.3304  0.0704 -0.1118
 8953SOL    HW129752   9.424   6.474   5.958 -1.9535 -1.3540  1.3074
 8953SOL    HW229753   9.391   6.403   5.829  0.4974  0.7264 -0.5634
 8954SOL     OW29754   2.712   8.767   8.992  0.0587  0.5322 -0.3206
 8954SOL    HW129755   2.663   8.687   8.976  0.5406 -0.1262  1.2312
 8954SOL    HW229756   2.761   8.782   8.911  1.2751 -1.7231 -0.0896
 8955SOL     OW29757   4.753   5.250   4.759 -0.0148 -0.1296  0.4698
 8955SOL    HW129758   4.809   5.273   4.684 -0.6922 -2.8611 -1.0167
 8955SOL    HW229759   4.815   5.223   4.827  0.6084  2.1686  0.8969
 8956SOL     OW29760   0.831   0.309   8.975 -0.2098  0.2530 -0.1679
 8956SOL    HW129761   0.912   0.288   9.022 -1.1234 -0.5448  1.0940
 8956SOL    HW229762   0.810   0.229   8.927 -0.6522  0.2009  0.1113
 8957SOL     OW29763   6.908   4.874   4.745  0.3954 -0.2109  0.3887
 8957SOL    HW129764   6.953   4.926   4.679 -1.7790 -1.1555 -2.0129
 8957SOL    HW229765   6.820   4.913   4.750  0.4410 -0.2618  2.6978
 8958SOL     OW29766   2.643   6.248   4.332 -0.5098 -0.2562 -0.2031
 8958SOL    HW129767   2.554   6.283   4.325 -0.1405  0.8202  0.2653
 8958SOL    HW229768   2.631   6.161   4.371 -1.4084 -0.4577 -0.8745
 8959SOL     OW29769   3.187   8.476  10.530 -0.4985 -0.3485 -0.1635
 8959SOL    HW129770   3.246   8.527  10.474 -0.3474  0.8798  1.0300
 8959SOL    HW229771   3.111   8.533  10.541 -0.4947 -0.5235  0.8905
 8960SOL     OW29772   1.189   9.408   5.849  0.7137  0.4548  0.0433
 8960SOL    HW129773   1.262   9.346   5.849 -0.2189 -0.6973 -0.3146
 8960SOL    HW229774   1.126   9.369   5.910 -0.3780  0.4507 -1.0533
 8961SOL     OW29775   0.080   4.773   3.097 -0.0061 -0.2929 -0.6108
 8961SOL    HW129776   0.087   4.858   3.140 -0.8410 -1.2667  1.6548
 8961SOL    HW229777   0.150   4.773   3.032  2.2743  0.8744  1.6428
 8962SOL     OW29778   8.748   5.348   3.792 -0.0006 -0.0127  0.8632
 8962SOL    HW129779   8.744   5.288   3.867  0.7079 -0.6057  0.4489
 8962SOL    HW229780   8.813   5.308   3.734 -1.6173 -0.3739 -0.7672
 8963SOL     OW29781   9.962   3.248   7.390 -0.0931  0.3890 -0.4759
 8963SOL    HW129782  10.014   3.323   7.418  1.3399 -0.6192 -0.3110
 8963SOL    HW229783   9.973   3.243   7.295 -0.3217  0.4781 -0.5082
 8964SOL     OW29784   1.650   5.242   9.225  0.0662 -0.3124  0.1945
 8964SOL    HW129785   1.594   5.316   9.249 -0.4044 -0.3418 -0.7741
 8964SOL    HW229786   1.739   5.270   9.247 -0.2486 -0.0139  1.1403
 8965SOL     OW29787   9.004   0.132   3.181 -0.2852  0.2207  0.2914
 8965SOL    HW129788   8.974   0.222   3.192 -1.6550 -0.2788  0.9273
 8965SOL    HW229789   9.047   0.110   3.263  1.4882  0.7662 -0.4329
 8966SOL     OW29790   0.426   0.579   1.178  0.1060 -0.2693  0.0902
 8966SOL    HW129791   0.407   0.616   1.265  0.6062 -0.9515  0.4980
 8966SOL    HW229792   0.356   0.614   1.122 -1.8139 -1.9076  1.3300
 8967SOL     OW29793   5.658   7.834   6.140  0.0214  0.1357 -0.1553
 8967SOL    HW129794   5.662   7.875   6.053  1.1182  1.2626  0.3871
 8967SOL    HW229795   5.740   7.786   6.147 -0.4898 -0.7426 -0.0960
 8968SOL     OW29796   2.384   9.739  10.625  0.1159  0.5131 -0.2045
 8968SOL    HW129797   2.451   9.773  10.566  1.5204 -1.5705  0.1355
 8968SOL    HW229798   2.303   9.741  10.572  1.0894 -0.1230 -1.7797
 8969SOL     OW29799   1.068  10.162   3.676  0.1819  0.0236 -0.0340
 8969SOL    HW129800   1.108  10.175   3.762  0.7117 -0.8896 -0.1233
 8969SOL    HW229801   1.143  10.151   3.616 -0.1672 -1.7511 -0.2038
 8970SOL     OW29802   4.624  10.676   6.786 -0.1776 -0.6687  0.1890
 8970SOL    HW129803   4.557  10.741   6.808  1.1063  1.0528 -0.8002
 8970SOL    HW229804   4.664  10.709   6.705  2.0330 -1.5254  0.8752
 8971SOL     OW29805   3.236   2.183   4.710 -0.2868 -0.2059  0.3617
 8971SOL    HW129806   3.229   2.278   4.724  1.5275  0.1822 -0.9629
 8971SOL    HW229807   3.294   2.153   4.781  2.5108  0.4501 -1.4715
 8972SOL     OW29808   9.509   9.683   9.922 -0.0868  0.1416  0.0030
 8972SOL    HW129809   9.455   9.713   9.995 -0.9799 -0.6958 -0.2836
 8972SOL    HW229810   9.556   9.607   9.957 -0.8025 -0.4944 -0.3776
 8973SOL     OW29811   9.459  10.012   3.316  0.0900  0.0503 -0.6016
 8973SOL    HW129812   9.552   9.991   3.312  0.1960  0.1072  0.8218
 8973SOL    HW229813   9.415   9.929   3.301  0.3948 -0.1040 -0.6451
 8974SOL     OW29814   7.832   0.681   4.858  0.0204 -0.4409  0.1052
 8974SOL    HW129815   7.782   0.624   4.916  1.0045  0.3795  1.8582
 8974SOL    HW229816   7.924   0.662   4.880  0.3761  1.4753  0.4631
 8975SOL     OW29817   7.497   2.598   2.047 -0.1639 -0.5724  0.3584
 8975SOL    HW129818   7.514   2.506   2.068 -0.6797 -1.1854 -1.6308
 8975SOL    HW229819   7.579   2.629   2.009  0.2696  0.0513  1.7711
 8976SOL     OW29820   7.730   1.294   7.413  0.0063  0.1161  0.0438
 8976SOL    HW129821   7.717   1.354   7.487 -2.0652 -1.5737  1.1599
 8976SOL    HW229822   7.723   1.349   7.336  1.2834  1.7879  1.0450
 8977SOL     OW29823   6.305   9.292   6.056 -0.4721  0.0829  0.2684
 8977SOL    HW129824   6.326   9.380   6.023 -2.3458 -0.1418 -1.6747
 8977SOL    HW229825   6.253   9.309   6.135 -0.0862  0.7024  0.4018
 8978SOL     OW29826   9.127   9.530   7.438 -0.6666 -0.1553 -0.6306
 8978SOL    HW129827   9.151   9.456   7.382 -0.4877 -0.4702 -0.1383
 8978SOL    HW229828   9.148   9.502   7.527 -0.1177  0.6726 -0.4770
 8979SOL     OW29829   4.017   9.895  10.657  0.1302  0.3971  0.8045
 8979SOL    HW129830   4.038   9.808  10.624  2.5737  0.5135  1.8486
 8979SOL    HW229831   4.053   9.955  10.591  0.3275  0.6013  1.0939
 8980SOL     OW29832   5.319   0.275   7.637  0.1372 -0.0138  0.0447
 8980SOL    HW129833   5.313   0.320   7.552  0.1552 -1.6027 -0.8383
 8980SOL    HW229834   5.235   0.293   7.679  0.4658  1.5325  0.1099
 8981SOL     OW29835   9.179   7.886   3.613 -0.0635  0.9020 -0.2096
 8981SOL    HW129836   9.092   7.870   3.649 -0.4281 -1.1108 -1.7841
 8981SOL    HW229837   9.182   7.834   3.533  1.8155  2.6460 -1.3962
 8982SOL     OW29838   9.191   3.935   8.722 -0.4807  0.0422  0.0386
 8982SOL    HW129839   9.280   3.909   8.698 -0.6972  0.4851 -1.3768
 8982SOL    HW229840   9.144   3.852   8.735  0.2067 -0.1876  1.1103
 8983SOL     OW29841   2.018   5.014   3.256 -0.3970  0.0521 -0.1757
 8983SOL    HW129842   2.003   5.017   3.162  1.6248 -0.8691 -0.5766
 8983SOL    HW229843   1.954   4.950   3.289 -0.5864 -0.2158 -1.0400
 8984SOL     OW29844  10.738   9.504   1.129  0.1615  0.0596  0.0448
 8984SOL    HW129845  10.662   9.543   1.172  0.3635 -1.1246  1.5547
 8984SOL    HW229846  10.754   9.561   1.054 -2.2049  0.3302 -0.3367
 8985SOL     OW29847   8.400   6.028   9.912  0.7010 -0.1284 -0.1960
 8985SOL    HW129848   8.408   6.110   9.863 -1.8432  0.9079  0.9845
 8985SOL    HW229849   8.317   6.035   9.958  2.2157 -1.6800  3.1048
 8986SOL     OW29850   1.557   7.626   0.697 -0.2794  0.2435  0.0719
 8986SOL    HW129851   1.621   7.592   0.759  0.7878  0.1258 -1.0555
 8986SOL    HW229852   1.556   7.720   0.712 -0.7335  0.1146  0.8947
 8987SOL     OW29853  10.628   4.296   8.410 -0.2674 -0.2267 -0.4262
 8987SOL    HW129854  10.674   4.215   8.431  1.8457  1.0383  0.1766
 8987SOL    HW229855  10.545   4.289   8.457 -0.6684 -2.4984 -1.3460
 8988SOL     OW29856   0.562   4.085   5.824 -0.1676  0.5173  0.1516
 8988SOL    HW129857   0.611   4.048   5.897 -2.2144 -1.7341  0.5075
 8988SOL    HW229858   0.475   4.102   5.860 -0.7461  0.9231 -1.3685
 8989SOL     OW29859   3.281   9.287   8.720 -0.2472  0.0855 -0.2312
 8989SOL    HW129860   3.261   9.359   8.660  0.1976 -0.2299 -0.7663
 8989SOL    HW229861   3.238   9.211   8.681  0.8780 -0.3303 -0.7016
 8990SOL     OW29862   1.614   5.008   6.348  0.0512 -0.1094 -0.2462
 8990SOL    HW129863   1.524   4.993   6.318  0.1083  1.7034 -1.4942
 8990SOL    HW229864   1.622   5.103   6.351  2.0965 -0.2282 -0.7073
 8991SOL     OW29865   4.526   2.180  10.213 -0.4369  0.3289 -0.0565
 8991SOL    HW129866   4.569   2.231  10.144 -2.4377 -0.8847 -2.3698
 8991SOL    HW229867   4.474   2.243  10.261  0.4217  1.0912 -0.1005
 8992SOL     OW29868   7.848   7.529   3.184  0.5337  0.2453 -0.0418
 8992SOL    HW129869   7.844   7.437   3.158  0.1158 -0.2588  1.6647
 8992SOL    HW229870   7.940   7.554   3.175  0.7202 -0.4617 -0.1138
 8993SOL     OW29871   0.347   7.967   2.374 -0.1783 -0.5394 -0.5139
 8993SOL    HW129872   0.440   7.948   2.390 -0.3357 -1.3487 -0.5041
 8993SOL    HW229873   0.335   7.951   2.281 -0.5898 -1.7399 -0.2725
 8994SOL     OW29874   8.073   8.608   6.694  0.2152  0.0552 -0.7565
 8994SOL    HW129875   8.013   8.660   6.640 -0.3173 -0.0974 -0.3106
 8994SOL    HW229876   8.055   8.518   6.668 -1.3870 -0.1768  1.0038
 8995SOL     OW29877   9.318   8.432   2.066  0.1839  0.5261  0.5002
 8995SOL    HW129878   9.404   8.393   2.051 -0.4161 -0.4283 -0.5119
 8995SOL    HW229879   9.285   8.389   2.144  0.0625 -0.0779  0.1179
 8996SOL     OW29880   4.933   8.570  10.270 -0.2323 -0.5765 -0.7273
 8996SOL    HW129881   4.848   8.614  10.264 -0.1865 -0.3898 -0.1166
 8996SOL    HW229882   4.912   8.477  10.260 -0.6143 -0.5959  0.0999
 8997SOL     OW29883   8.699   3.629   3.530  0.2108 -1.2806  0.2240
 8997SOL    HW129884   8.656   3.708   3.561 -0.1434 -1.9346  1.4570
 8997SOL    HW229885   8.667   3.618   3.440  0.0492 -0.2050  0.1342
 8998SOL     OW29886   6.117   1.086   0.856 -0.5784 -0.5336  0.2134
 8998SOL    HW129887   6.137   1.138   0.777 -0.8859  1.3156  1.2897
 8998SOL    HW229888   6.021   1.079   0.856 -0.6949  0.7181  1.1306
 8999SOL     OW29889   6.672   9.047   4.367  0.1849 -0.0392 -0.2460
 8999SOL    HW129890   6.607   9.098   4.416 -1.4307 -0.4367 -1.8742
 8999SOL    HW229891   6.731   9.012   4.434 -1.0086  0.7021  1.2457
 9000SOL     OW29892   8.522   8.606   6.005 -0.0171 -0.2976 -0.2761
 9000SOL    HW129893   8.599   8.561   6.039 -1.1129 -1.4642  0.7745
 9000SOL    HW229894   8.556   8.665   5.938  1.9193  0.1357  1.0249
 9001SOL     OW29895   6.020   6.060   4.868 -0.2718  0.3849 -0.0211
 9001SOL    HW129896   6.018   5.970   4.835 -0.5006  0.7296 -0.9600
 9001SOL    HW229897   5.988   6.053   4.958 -2.9733 -0.1141 -0.9516
 9002SOL     OW29898   0.688   5.839   6.091  0.4678  0.5209 -0.7157
 9002SOL    HW129899   0.779   5.841   6.061  0.6235  1.4063 -0.1964
 9002SOL    HW229900   0.645   5.908   6.040 -0.0548 -0.2797 -1.3824
 9003SOL     OW29901   5.178   3.621   3.816 -0.3463 -0.2904  0.5379
 9003SOL    HW129902   5.244   3.602   3.882  0.4644 -0.5921 -0.3370
 9003SOL    HW229903   5.102   3.568   3.841 -0.0567 -0.3924  1.2174
 9004SOL     OW29904   2.479   9.955   3.257  0.3060  0.7764 -0.0836
 9004SOL    HW129905   2.524   9.924   3.336 -0.6877  1.1425  0.6539
 9004SOL    HW229906   2.484   9.882   3.196 -0.5330 -0.2202  0.9990
 9005SOL     OW29907   1.213   2.464   5.889 -0.6898  0.1528 -0.0732
 9005SOL    HW129908   1.227   2.471   5.795 -0.0420 -0.3578 -0.0185
 9005SOL    HW229909   1.244   2.548   5.925 -0.2948  0.0774 -0.2399
 9006SOL     OW29910   6.909  10.185   0.751  0.7384  0.0224 -0.3308
 9006SOL    HW129911   6.879  10.197   0.661 -0.0820 -1.2582 -0.2621
 9006SOL    HW229912   6.834  10.211   0.805  0.3887 -1.3619 -0.1037
 9007SOL     OW29913   4.617   3.126   7.435  0.1718  0.2911  0.0090
 9007SOL    HW129914   4.570   3.064   7.378 -0.0825  0.9814 -0.5393
 9007SOL    HW229915   4.668   3.179   7.375  2.3980 -1.0182  0.6441
 9008SOL     OW29916   3.287   1.345   9.279 -0.2722  0.1484 -0.0537
 9008SOL    HW129917   3.198   1.313   9.296 -0.6048  0.2962 -1.3738
 9008SOL    HW229918   3.290   1.358   9.184  1.4370 -0.6695 -0.1508
 9009SOL     OW29919   6.601   7.632  10.648  0.2711  0.0941  0.0269
 9009SOL    HW129920   6.542   7.557  10.647  0.2792  0.0673  1.0763
 9009SOL    HW229921   6.555   7.698  10.701  0.1640  0.9202 -1.0571
 9010SOL     OW29922   1.659   2.649   2.713 -0.2899  0.2289 -0.2975
 9010SOL    HW129923   1.745   2.690   2.705  0.4295 -1.0915  0.2308
 9010SOL    HW229924   1.630   2.636   2.623  0.8983 -0.9221 -0.5419
 9011SOL     OW29925   8.240   8.802   9.340 -0.7966 -0.0787  0.4982
 9011SOL    HW129926   8.298   8.845   9.403 -1.0717 -0.0132  0.7103
 9011SOL    HW229927   8.258   8.709   9.350  0.9060  0.0288 -1.0298
 9012SOL     OW29928   9.048   7.729   1.428 -0.6607  0.0380  0.1736
 9012SOL    HW129929   8.999   7.801   1.468 -0.4435  1.0909 -1.3651
 9012SOL    HW229930   9.140   7.749   1.446 -0.6262 -0.0767  0.1237
 9013SOL     OW29931   3.511  10.095   4.657  0.4597 -0.0182  0.1750
 9013SOL    HW129932   3.437  10.140   4.698  1.5847  0.3558  1.8949
 9013SOL    HW229933   3.584  10.156   4.664  1.4024 -1.1151  0.2455
 9014SOL     OW29934   5.677   1.013   2.584  0.0726  0.1419 -0.1438
 9014SOL    HW129935   5.657   1.065   2.506 -1.7198  0.2342  0.3427
 9014SOL    HW229936   5.722   1.074   2.643 -0.6500  0.7324 -0.1897
 9015SOL     OW29937   0.239   4.011   7.233 -0.7356 -0.1852  0.0457
 9015SOL    HW129938   0.242   4.007   7.137  0.5313  1.3730 -0.0288
 9015SOL    HW229939   0.170   3.950   7.258 -0.3870 -1.4071 -1.7924
 9016SOL     OW29940   3.779   6.105   7.762  0.4404 -0.0159 -0.0595
 9016SOL    HW129941   3.840   6.176   7.777 -0.4361  1.1168 -1.6070
 9016SOL    HW229942   3.715   6.112   7.834  1.3631 -0.4157  0.8270
 9017SOL     OW29943   3.619   8.514   6.005 -0.6656 -0.1537  0.4506
 9017SOL    HW129944   3.589   8.540   6.092 -1.0891 -0.8267  0.5077
 9017SOL    HW229945   3.681   8.443   6.021 -0.3814  0.0402  0.2254
 9018SOL     OW29946   3.390   7.960   8.727 -0.4477 -0.1040 -0.3583
 9018SOL    HW129947   3.437   7.963   8.644  0.1449 -0.6116 -0.0513
 9018SOL    HW229948   3.316   7.901   8.711 -0.3854 -0.1331 -0.5452
 9019SOL     OW29949   0.355  10.121   2.955 -0.0705 -0.7476  0.9163
 9019SOL    HW129950   0.261  10.109   2.966 -0.3570  0.7438  0.3697
 9019SOL    HW229951   0.380  10.181   3.025 -0.4315  2.4359 -1.4404
 9020SOL     OW29952   3.814   0.021   6.016  0.4440  0.0487 -0.4813
 9020SOL    HW129953   3.821  -0.069   6.048  1.1896 -0.6160 -2.3878
 9020SOL    HW229954   3.829   0.015   5.922  1.0615  2.2559 -0.5871
 9021SOL     OW29955   9.611   3.952   7.289  0.4541  0.3791  0.1427
 9021SOL    HW129956   9.576   4.040   7.275 -0.1583  0.2305  0.6652
 9021SOL    HW229957   9.584   3.929   7.378  1.6190  0.1183  0.4391
 9022SOL     OW29958   6.502   2.495   9.678 -0.4845  0.2482  0.2907
 9022SOL    HW129959   6.468   2.512   9.590 -0.7324  0.0796  0.3527
 9022SOL    HW229960   6.582   2.445   9.664  0.4086  1.6702  0.0876
 9023SOL     OW29961   0.490   5.522   7.958  0.2926  0.2917  0.0356
 9023SOL    HW129962   0.447   5.558   7.881 -0.3410  0.6071  0.5196
 9023SOL    HW229963   0.520   5.599   8.006 -3.2769  0.5081  2.3627
 9024SOL     OW29964   7.433   8.280   0.015 -0.5191 -0.5066  0.9096
 9024SOL    HW129965   7.430   8.220  -0.060 -3.0196  0.5840  0.0349
 9024SOL    HW229966   7.417   8.367  -0.023  1.8416  0.6194  2.2876
 9025SOL     OW29967   0.232   2.908   5.818 -0.2178 -0.2399  0.1398
 9025SOL    HW129968   0.185   2.910   5.735  1.9935  0.0302 -1.1774
 9025SOL    HW229969   0.275   2.822   5.819 -2.0375 -1.2386  2.1559
 9026SOL     OW29970   8.924   0.054   7.785 -0.3231  0.2607  0.0427
 9026SOL    HW129971   8.858   0.020   7.846 -0.7835 -1.4723 -1.3374
 9026SOL    HW229972   9.007   0.017   7.817 -0.4323  0.0921  0.1355
 9027SOL     OW29973   1.015   5.089   6.001  0.2680  0.5478 -0.0142
 9027SOL    HW129974   1.051   5.094   5.912 -1.4304  2.0083 -0.6878
 9027SOL    HW229975   1.062   5.157   6.049 -0.3298  1.2627 -0.4175
 9028SOL     OW29976   0.086   6.625   1.219  0.3232  0.3246 -0.4010
 9028SOL    HW129977   0.173   6.637   1.258 -0.4390 -1.1849  1.9721
 9028SOL    HW229978   0.036   6.579   1.286 -2.0271  0.2263 -2.1083
 9029SOL     OW29979   2.711   4.380   4.071  0.1383  0.2857 -0.3781
 9029SOL    HW129980   2.679   4.291   4.056  1.2691 -0.1113 -0.5497
 9029SOL    HW229981   2.634   4.435   4.060 -0.8056 -0.7435  0.6891
 9030SOL     OW29982   2.951   6.434   1.260  0.0142 -0.2243 -0.9477
 9030SOL    HW129983   2.866   6.414   1.221 -0.4261  0.0889 -0.1541
 9030SOL    HW229984   2.931   6.474   1.344  0.9371  0.5935 -1.1002
 9031SOL     OW29985   0.602   4.299   7.767 -0.1740 -0.3117 -0.6263
 9031SOL    HW129986   0.571   4.272   7.854  1.9141 -1.4722 -0.1814
 9031SOL    HW229987   0.550   4.246   7.707 -2.0356  0.8948 -0.1871
 9032SOL     OW29988   5.962  10.603   7.611 -0.1908  0.2163 -0.6372
 9032SOL    HW129989   5.957  10.544   7.686  0.6271 -0.2036 -0.9006
 9032SOL    HW229990   5.874  10.602   7.574 -0.3680 -0.2815 -0.2177
 9033SOL     OW29991   9.149   3.229   3.392  0.4402  0.5633  0.3091
 9033SOL    HW129992   9.158   3.163   3.460  0.3353 -0.3559 -0.5405
 9033SOL    HW229993   9.203   3.302   3.421  0.0739  0.3590  1.5638
 9034SOL     OW29994   8.241   4.294   8.078 -0.9089 -0.1179 -0.6345
 9034SOL    HW129995   8.181   4.321   8.148 -0.3487  0.2831 -0.3063
 9034SOL    HW229996   8.314   4.355   8.083  0.9690 -2.3215  0.8533
 9035SOL     OW29997   1.970   6.475   9.570  0.3030 -0.4375  0.0483
 9035SOL    HW129998   1.933   6.493   9.483  1.4919  1.8348 -0.0786
 9035SOL    HW229999   2.050   6.426   9.551 -0.0196 -0.9315 -0.0502
 9036SOL     OW30000   0.554   6.093   2.906  0.4628 -0.1443 -0.1345
 9036SOL    HW130001   0.644   6.095   2.873  0.2788 -0.7314 -0.6955
 9036SOL    HW230002   0.519   6.179   2.883  0.5577 -0.2914 -0.8733
 9037SOL     OW30003  10.018   7.938   4.907 -0.1671 -0.0225  0.0899
 9037SOL    HW130004   9.965   7.934   4.828  1.0429  0.1428 -0.7597
 9037SOL    HW230005  10.099   7.893   4.884  0.2033  0.0195  1.2441
 9038SOL     OW30006   9.531   8.673   9.250  0.8626  0.2406  0.0324
 9038SOL    HW130007   9.579   8.592   9.240  1.0416  0.2877  0.5060
 9038SOL    HW230008   9.589   8.730   9.302  0.1186  0.1278  1.0269
 9039SOL     OW30009   6.000   9.900   2.859  0.5024 -0.0699 -0.3674
 9039SOL    HW130010   5.968   9.810   2.857  1.3731 -0.3903 -0.7662
 9039SOL    HW230011   6.074   9.900   2.798  0.8184  0.7941 -0.0021
 9040SOL     OW30012   5.080   0.253   7.784  0.4062  0.2283  0.1778
 9040SOL    HW130013   5.081   0.162   7.815  2.4859  0.1553  0.0580
 9040SOL    HW230014   5.045   0.247   7.695  1.7434 -0.6809 -0.3193
 9041SOL     OW30015   2.251   7.558   6.826  0.2111 -1.1915 -0.3143
 9041SOL    HW130016   2.277   7.623   6.761  0.0300  0.7972  1.4911
 9041SOL    HW230017   2.334   7.521   6.856  0.4355 -0.6598 -0.2582
 9042SOL     OW30018   3.910   6.536   0.325 -0.0243  0.4792 -0.0596
 9042SOL    HW130019   3.871   6.590   0.256  0.7520 -1.3026 -2.0209
 9042SOL    HW230020   3.836   6.509   0.379 -0.8241  1.1077 -0.8027
 9043SOL     OW30021   5.858   8.327   4.637 -0.0292 -0.4145 -0.4146
 9043SOL    HW130022   5.841   8.294   4.725 -0.2046 -2.8222 -1.2743
 9043SOL    HW230023   5.802   8.404   4.629 -0.5423 -0.5597  1.3157
 9044SOL     OW30024  10.255   9.178   1.875  0.2431  0.1842  0.3223
 9044SOL    HW130025  10.247   9.268   1.844  1.3827  0.6121  1.2207
 9044SOL    HW230026  10.347   9.168   1.899 -0.0108 -1.0000  0.9058
 9045SOL     OW30027   2.811   9.542   8.697  0.6697  0.0136  0.3821
 9045SOL    HW130028   2.901   9.573   8.705  0.5929  0.0600  1.2234
 9045SOL    HW230029   2.761   9.618   8.668  0.6056  0.5222  1.7280
 9046SOL     OW30030   7.829   1.200   5.724 -0.0540  0.1778  0.0470
 9046SOL    HW130031   7.741   1.179   5.693  0.6047  1.0253 -2.6688
 9046SOL    HW230032   7.875   1.116   5.724  0.0850  0.2198 -1.9979
 9047SOL     OW30033  10.634  10.240   5.480  0.6566  0.0329 -0.2793
 9047SOL    HW130034  10.591  10.250   5.564  0.2448 -0.0707 -0.4733
 9047SOL    HW230035  10.596  10.160   5.443  1.3835 -0.3353 -0.2349
 9048SOL     OW30036   8.934   1.605   5.911 -0.0427 -0.0570 -0.4197
 9048SOL    HW130037   8.854   1.628   5.958  0.0975 -1.0633  0.3479
 9048SOL    HW230038   8.942   1.672   5.843 -1.3281  0.2761 -0.2709
 9049SOL     OW30039   1.687   1.053   6.592 -0.0305  0.0852  0.2696
 9049SOL    HW130040   1.665   1.107   6.668 -0.3607  0.3247  0.0083
 9049SOL    HW230041   1.768   1.008   6.616  0.4220  0.9337  0.3683
 9050SOL     OW30042   9.240   6.791   5.123 -0.3500 -0.0933 -0.3447
 9050SOL    HW130043   9.316   6.845   5.145  0.2197 -0.8325 -0.4724
 9050SOL    HW230044   9.167   6.834   5.167  0.3969 -0.2685  1.1422
 9051SOL     OW30045   8.587   5.749   3.108 -0.0615 -0.2058 -0.2829
 9051SOL    HW130046   8.506   5.792   3.136 -0.8721 -0.6292 -1.8866
 9051SOL    HW230047   8.601   5.681   3.173 -0.9133 -0.0333  0.0986
 9052SOL     OW30048  10.169   8.528   5.028  0.2242 -0.6941 -0.0562
 9052SOL    HW130049  10.194   8.537   4.936 -0.1031 -0.1937 -0.0979
 9052SOL    HW230050  10.226   8.590   5.074  0.8752 -1.4443  0.1689
 9053SOL     OW30051   3.239   8.156   7.650  0.8264  0.1834  0.5226
 9053SOL    HW130052   3.315   8.103   7.627  0.6893 -0.2051  0.9375
 9053SOL    HW230053   3.194   8.104   7.717 -0.2264  0.0392 -0.2738
 9054SOL     OW30054   9.770   8.406   6.315 -0.0686  0.4092 -0.0294
 9054SOL    HW130055   9.695   8.424   6.371 -1.0117 -0.5642 -0.9287
 9054SOL    HW230056   9.761   8.466   6.241  1.2550  1.7962  0.8717
 9055SOL     OW30057   2.597   2.066   8.285  0.1985  0.7755  0.3609
 9055SOL    HW130058   2.647   2.138   8.324 -0.1942  0.9910  0.4753
 9055SOL    HW230059   2.527   2.109   8.236  0.3838  0.4890 -0.1677
 9056SOL     OW30060   5.688   9.632  10.220  0.0966  0.7174  0.0476
 9056SOL    HW130061   5.641   9.567  10.168 -1.7145  1.1322  1.0895
 9056SOL    HW230062   5.673   9.605  10.311  0.6762  1.6853  0.4450
 9057SOL     OW30063   9.162   4.189   8.644 -0.4407  0.6861  0.3039
 9057SOL    HW130064   9.222   4.239   8.699 -0.0496 -0.9642  1.4320
 9057SOL    HW230065   9.171   4.099   8.673 -2.3023  0.1550 -0.5850
 9058SOL     OW30066   5.179   9.428  10.690  0.4484  0.4956  0.1976
 9058SOL    HW130067   5.225   9.512  10.688 -2.0588  2.0707  2.3126
 9058SOL    HW230068   5.214   9.384  10.768 -0.6345  1.1509  1.0852
 9059SOL     OW30069   3.652   4.475   4.333  0.0091 -0.0436  0.6528
 9059SOL    HW130070   3.684   4.464   4.423 -0.6253 -0.1222  0.8713
 9059SOL    HW230071   3.558   4.485   4.342 -0.0429  0.1029  0.0021
 9060SOL     OW30072   7.408   6.836   3.425  0.7722  0.3744  0.4925
 9060SOL    HW130073   7.401   6.914   3.370 -1.6164  0.3038  0.5975
 9060SOL    HW230074   7.364   6.860   3.507 -0.0126 -1.0493  0.5215
 9061SOL     OW30075   8.568   6.133   8.492  1.0719  0.5215  0.5232
 9061SOL    HW130076   8.521   6.094   8.566  2.6318  0.7365  1.6966
 9061SOL    HW230077   8.532   6.221   8.484 -0.6303 -0.2070 -0.4367
 9062SOL     OW30078   6.499   1.678   1.222  0.1530  0.3491  0.3557
 9062SOL    HW130079   6.563   1.634   1.167  0.7751  1.6907 -0.0137
 9062SOL    HW230080   6.548   1.746   1.268 -1.4357  3.6413 -2.3433
 9063SOL     OW30081   6.637   7.451   2.185 -0.5583  0.0300 -0.3716
 9063SOL    HW130082   6.691   7.437   2.263 -1.5885 -2.9933 -0.0682
 9063SOL    HW230083   6.655   7.541   2.160  1.1769  0.5631  2.3095
 9064SOL     OW30084   6.293   8.081   4.855 -0.6155 -0.2079 -0.6488
 9064SOL    HW130085   6.294   8.125   4.770 -2.6707  0.3426 -0.4332
 9064SOL    HW230086   6.340   8.141   4.913  0.3404 -0.3403 -1.2667
 9065SOL     OW30087   6.024   9.067   8.095 -0.3876  0.3193 -0.1717
 9065SOL    HW130088   5.948   9.123   8.106 -0.8085 -0.1195 -0.7587
 9065SOL    HW230089   5.996   8.982   8.129  0.4856  0.6161  1.4038
 9066SOL     OW30090   0.837   6.238   7.950 -0.2791  0.0677  0.6182
 9066SOL    HW130091   0.846   6.174   7.879  0.0127 -0.0541  0.7635
 9066SOL    HW230092   0.789   6.311   7.911  0.0237  0.0725  0.2512
 9067SOL     OW30093  10.736   2.620  10.293 -0.1847  0.1663 -0.5106
 9067SOL    HW130094  10.656   2.568  10.302 -0.2606  0.2775 -0.5467
 9067SOL    HW230095  10.793   2.589  10.364 -0.7461  0.9877  0.3252
 9068SOL     OW30096   1.839   7.111   7.424 -0.1205 -0.1083 -0.6323
 9068SOL    HW130097   1.840   7.107   7.519  1.0783  2.4315 -0.4534
 9068SOL    HW230098   1.748   7.095   7.399 -0.2882 -1.6668  0.8386
 9069SOL     OW30099   8.222   3.554  10.090 -0.0392  0.5151  0.5278
 9069SOL    HW130100   8.298   3.495  10.091 -0.6353 -0.3179 -0.7855
 9069SOL    HW230101   8.196   3.561  10.182  2.9037  2.5756  1.3479
 9070SOL     OW30102   0.490   3.288   9.083  0.4104  0.4334 -0.1280
 9070SOL    HW130103   0.474   3.305   9.175 -0.8235 -2.6734  0.3627
 9070SOL    HW230104   0.410   3.244   9.052  0.5211  1.9153 -2.8770
 9071SOL     OW30105   8.900   8.117   3.320 -0.0426 -0.4248 -0.1732
 9071SOL    HW130106   8.964   8.142   3.386  1.4258  0.3312 -1.8011
 9071SOL    HW230107   8.934   8.037   3.282 -1.3596 -1.3768  0.5755
 9072SOL     OW30108   1.953   2.135   1.512 -0.0186  0.1397  0.1156
 9072SOL    HW130109   1.944   2.159   1.604 -1.9757 -1.2687  0.3541
 9072SOL    HW230110   2.019   2.196   1.478  1.6570 -0.0575  2.6826
 9073SOL     OW30111   6.156   2.357   3.301  0.1715 -0.2199  1.0140
 9073SOL    HW130112   6.175   2.382   3.391  0.6938  0.3957  0.7457
 9073SOL    HW230113   6.151   2.262   3.302 -1.3910 -0.1680  1.9834
 9074SOL     OW30114   0.059   8.874   6.492 -0.0548 -0.3077  0.4884
 9074SOL    HW130115  -0.034   8.885   6.469  0.3377 -0.0909 -1.0733
 9074SOL    HW230116   0.066   8.781   6.517 -0.7746 -0.2098  1.1030
 9075SOL     OW30117   5.248   9.857   6.285 -0.1300 -0.0146 -0.1437
 9075SOL    HW130118   5.272   9.862   6.378  1.9097 -1.2454 -0.5519
 9075SOL    HW230119   5.176   9.794   6.284  2.4190 -3.2198  0.3100
 9076SOL     OW30120   1.089   1.994   6.505 -0.4833 -0.5643  0.1898
 9076SOL    HW130121   1.122   2.036   6.425  3.1014 -2.7003  0.3135
 9076SOL    HW230122   1.148   2.025   6.574 -1.4605 -1.2757  1.3872
 9077SOL     OW30123   9.260   0.816   7.455  0.2612  0.6929 -0.3849
 9077SOL    HW130124   9.318   0.805   7.379  0.4569 -1.7663  0.0402
 9077SOL    HW230125   9.179   0.853   7.418  0.3537 -0.4505 -1.8058
 9078SOL     OW30126   8.694   6.976   2.274 -0.1914 -0.4456  0.3309
 9078SOL    HW130127   8.613   6.947   2.233 -0.0753 -0.8230  0.3661
 9078SOL    HW230128   8.674   7.064   2.307 -0.3738 -0.2574 -0.2689
 9079SOL     OW30129   7.922   9.634   2.173 -0.7272 -0.2573  0.6051
 9079SOL    HW130130   7.828   9.620   2.159 -0.8002  1.2784 -0.7357
 9079SOL    HW230131   7.945   9.573   2.243 -2.4394 -1.5830  0.0727
 9080SOL     OW30132   6.020  10.523   1.599 -0.3849 -0.1642  0.3715
 9080SOL    HW130133   5.961  10.462   1.642 -0.7021  0.0705  0.2741
 9080SOL    HW230134   6.108  10.487   1.615 -0.6490 -1.7300 -1.3382
 9081SOL     OW30135   9.912   1.134  10.783 -0.0219  0.2886  0.2559
 9081SOL    HW130136  10.005   1.150  10.768  0.0663  0.3047  0.8214
 9081SOL    HW230137   9.868   1.198  10.726  0.2947 -0.3143 -0.6964
 9082SOL     OW30138   9.693   0.374   6.550 -0.5219  0.7421  0.0991
 9082SOL    HW130139   9.650   0.459   6.556  0.1033  1.3767 -2.7879
 9082SOL    HW230140   9.777   0.393   6.507 -0.3679 -1.3398 -0.6062
 9083SOL     OW30141   1.643   8.794   4.045 -0.2100 -0.3266  0.0598
 9083SOL    HW130142   1.591   8.869   4.014 -1.4497 -1.6379 -1.2371
 9083SOL    HW230143   1.651   8.737   3.968  0.8867 -1.4262  0.9422
 9084SOL     OW30144   4.030   6.558   9.313 -0.1966 -0.2093 -0.0797
 9084SOL    HW130145   4.050   6.513   9.230 -0.7903 -0.7729  0.0750
 9084SOL    HW230146   3.952   6.514   9.346  0.1249 -0.0953  0.8673
 9085SOL     OW30147   9.191   7.300   3.710 -0.6274 -0.0193  0.2700
 9085SOL    HW130148   9.197   7.292   3.805  0.4455  0.3498  0.2437
 9085SOL    HW230149   9.163   7.390   3.695  1.8078  0.7995  0.2015
 9086SOL     OW30150  10.686   4.091   7.283  0.2448  0.5979  0.1993
 9086SOL    HW130151  10.748   4.020   7.298 -1.0496 -0.4047  0.9599
 9086SOL    HW230152  10.613   4.072   7.341 -0.5854  2.0023 -0.3381
 9087SOL     OW30153   9.509   8.253   9.674  0.5275 -0.0845 -0.6911
 9087SOL    HW130154   9.457   8.196   9.619  2.1783 -0.6913 -1.7129
 9087SOL    HW230155   9.599   8.224   9.660  1.1086  0.4269  1.5466
 9088SOL     OW30156   4.029   5.826  10.221  0.1794 -0.4224  0.6481
 9088SOL    HW130157   4.036   5.827  10.317 -1.7447 -1.7393  0.8501
 9088SOL    HW230158   4.024   5.919  10.197  0.5528 -0.0732  1.8267
 9089SOL     OW30159   2.119   9.615   9.486  0.1491  0.0077  0.3810
 9089SOL    HW130160   2.047   9.626   9.424  1.2512  1.0880 -0.7805
 9089SOL    HW230161   2.089   9.547   9.546 -0.7371 -1.5347 -1.6754
 9090SOL     OW30162   7.276   7.150   8.131  0.2644 -0.4687  0.2798
 9090SOL    HW130163   7.235   7.064   8.122 -0.1339 -0.2369 -0.2579
 9090SOL    HW230164   7.232   7.191   8.205  0.6311 -0.8209  0.6942
 9091SOL     OW30165   6.150   1.049   6.953  0.0066 -0.1345 -0.6678
 9091SOL    HW130166   6.077   1.097   6.993 -1.3763 -0.3465 -2.7994
 9091SOL    HW230167   6.183   1.108   6.885 -0.0345 -1.1642 -1.6033
 9092SOL     OW30168   3.888   1.151   0.576  0.5247 -0.0835  0.9967
 9092SOL    HW130169   3.890   1.245   0.560  1.2242 -0.0661  1.1667
 9092SOL    HW230170   3.795   1.130   0.585  0.2509  0.3180 -0.5988
 9093SOL     OW30171   0.745   0.650   9.968 -0.4264 -0.0704  0.2895
 9093SOL    HW130172   0.705   0.678   9.886 -0.3163 -2.2165 -0.5740
 9093SOL    HW230173   0.711   0.561   9.982  0.3697 -0.1536  2.0239
 9094SOL     OW30174   0.664   6.142  10.195  0.0247 -0.0009 -0.4407
 9094SOL    HW130175   0.604   6.200  10.241 -0.6773  0.2286 -1.5903
 9094SOL    HW230176   0.741   6.136  10.251 -0.5654  0.7138  0.4635
 9095SOL     OW30177   7.466   1.276   9.412 -0.3481  0.1530  0.3395
 9095SOL    HW130178   7.441   1.200   9.464  0.4337 -0.6989 -0.5078
 9095SOL    HW230179   7.452   1.350   9.471 -3.3939 -0.3570  0.4160
 9096SOL     OW30180   9.885   7.149   0.282  0.0779 -0.7957  0.1371
 9096SOL    HW130181   9.837   7.095   0.219  1.4517 -3.2614  1.1002
 9096SOL    HW230182   9.952   7.092   0.317  2.4439  1.9066  0.3852
 9097SOL     OW30183   7.647   1.612   4.709  0.3742  0.8496  0.3097
 9097SOL    HW130184   7.701   1.615   4.788 -0.6905  0.4154  1.0821
 9097SOL    HW230185   7.557   1.617   4.742 -0.3337 -3.1646 -0.5522
 9098SOL     OW30186   4.237   8.603   1.322  0.2518 -0.5246 -0.3044
 9098SOL    HW130187   4.200   8.639   1.242  1.1816 -0.6528 -0.8075
 9098SOL    HW230188   4.170   8.545   1.356 -0.3232 -0.1308 -0.7563
 9099SOL     OW30189   6.060   9.518  10.290 -0.0218 -0.0948  0.0881
 9099SOL    HW130190   6.012   9.599  10.312 -1.3769 -1.0138  0.6908
 9099SOL    HW230191   5.991   9.457  10.264  1.0540 -0.8623 -1.0306
 9100SOL     OW30192   1.663   8.571   1.795 -0.7751 -0.9351 -0.1729
 9100SOL    HW130193   1.749   8.606   1.818  0.1416 -2.3769 -1.2861
 9100SOL    HW230194   1.667   8.479   1.820 -2.6100 -0.6907  1.2928
 9101SOL     OW30195   2.091   1.548   4.351 -0.2575  0.2969  0.0440
 9101SOL    HW130196   2.044   1.477   4.308 -1.1850  0.6912  0.3937
 9101SOL    HW230197   2.126   1.509   4.431  3.0865 -0.9752 -1.8113
 9102SOL     OW30198   6.348   4.407   7.735 -0.0843 -0.0278 -0.0691
 9102SOL    HW130199   6.374   4.386   7.825  2.0061 -1.6500 -0.9445
 9102SOL    HW230200   6.260   4.372   7.727 -0.7798  1.1900  1.6438
 9103SOL     OW30201   8.305   1.122   8.598 -0.5126 -0.3084 -0.1308
 9103SOL    HW130202   8.244   1.174   8.650  0.0820 -0.4635  0.7438
 9103SOL    HW230203   8.250   1.056   8.556 -1.1413  0.4571 -0.5239
 9104SOL     OW30204   7.630   7.167   0.616 -0.2961 -0.4351 -0.5551
 9104SOL    HW130205   7.606   7.194   0.528 -1.2567 -0.0009 -0.1779
 9104SOL    HW230206   7.647   7.248   0.663 -0.8088 -0.6009 -0.0701
 9105SOL     OW30207   6.886   9.954   2.922  0.1549 -0.6455  0.2756
 9105SOL    HW130208   6.943  10.030   2.932 -1.5937  0.6573  0.9286
 9105SOL    HW230209   6.846   9.942   3.009 -0.5986 -1.4880 -0.1626
 9106SOL     OW30210   0.727   7.577  10.559 -0.0203 -0.2271 -0.0113
 9106SOL    HW130211   0.748   7.611  10.646  1.7573 -1.0524 -0.0635
 9106SOL    HW230212   0.680   7.648  10.516 -1.1694  0.1138  1.6818
 9107SOL     OW30213   6.213   8.698   2.540 -0.2095  0.6125  0.0966
 9107SOL    HW130214   6.167   8.749   2.606 -0.2917 -0.6684  1.0702
 9107SOL    HW230215   6.162   8.616   2.534  1.8607 -0.8328  1.1572
 9108SOL     OW30216   0.999   7.908   2.258  0.1217  0.4939 -0.5170
 9108SOL    HW130217   1.036   7.823   2.235 -0.8095 -0.3490  0.9397
 9108SOL    HW230218   1.050   7.938   2.333 -0.2086  0.7489 -0.3907
 9109SOL     OW30219   2.604   9.584  10.707  0.0083 -0.4807  0.0411
 9109SOL    HW130220   2.688   9.631  10.705  0.3328 -0.8898  2.0666
 9109SOL    HW230221   2.538   9.654  10.705  0.4059 -0.1090 -0.5086
 9110SOL     OW30222   3.534   3.831   9.062  0.3139  0.0427 -0.0782
 9110SOL    HW130223   3.486   3.751   9.084  1.7354 -1.4205 -1.9744
 9110SOL    HW230224   3.484   3.869   8.990 -0.3993  0.9696  0.8683
 9111SOL     OW30225   8.350   4.245   8.803 -0.1005 -0.2053  0.0921
 9111SOL    HW130226   8.335   4.281   8.716  3.9380  1.5005 -0.1574
 9111SOL    HW230227   8.330   4.318   8.863  2.0600  0.4844  0.0713
 9112SOL     OW30228   8.096   3.660   8.215  1.0738  0.0308  0.0733
 9112SOL    HW130229   8.107   3.657   8.310  2.6679  2.1811  0.0403
 9112SOL    HW230230   8.099   3.753   8.194 -0.9299 -0.2849 -1.9655
 9113SOL     OW30231   3.599   9.118   8.673 -0.5870 -0.2175  0.1034
 9113SOL    HW130232   3.564   9.066   8.745  2.6115 -1.6961  0.7438
 9113SOL    HW230233   3.662   9.177   8.714  0.7696 -0.5765 -1.3725
 9114SOL     OW30234   0.531   3.953   7.900 -0.3602  0.2071  0.0588
 9114SOL    HW130235   0.525   4.044   7.930 -1.1175  0.4722 -0.8580
 9114SOL    HW230236   0.553   3.960   7.807  0.6311 -0.5766  0.2202
 9115SOL     OW30237   6.698   0.439   2.665 -0.0272  0.4369 -0.4513
 9115SOL    HW130238   6.697   0.404   2.575 -1.0151 -0.2930 -0.1683
 9115SOL    HW230239   6.652   0.373   2.717  1.8223  0.1014  0.8843
 9116SOL     OW30240   8.219   3.938   0.217  0.2376  0.8165  0.2483
 9116SOL    HW130241   8.218   3.881   0.139  0.1316 -2.1270  2.2391
 9116SOL    HW230242   8.311   3.946   0.239  0.1760 -0.0491  0.8959
 9117SOL     OW30243   2.655   8.155   7.233 -0.1847  0.1007  0.0787
 9117SOL    HW130244   2.732   8.126   7.185 -0.2360  0.5156 -0.2603
 9117SOL    HW230245   2.626   8.233   7.187 -1.1896 -0.4136 -0.1861
 9118SOL     OW30246   6.690   8.054   2.141 -0.7376 -0.0913  1.2476
 9118SOL    HW130247   6.693   8.079   2.049 -2.3416  1.3367  1.5139
 9118SOL    HW230248   6.771   8.088   2.179 -0.6847  0.5061  0.6095
 9119SOL     OW30249   9.414   3.260   4.553  0.0239  0.1566  0.3529
 9119SOL    HW130250   9.370   3.328   4.502 -1.5876 -1.2122 -0.1471
 9119SOL    HW230251   9.453   3.202   4.488 -0.7321 -0.7491  0.6784
 9120SOL     OW30252   8.596  10.110   8.081 -0.3212  0.1908 -0.1504
 9120SOL    HW130253   8.618  10.156   8.000  1.0153 -0.5317 -0.2316
 9120SOL    HW230254   8.520  10.156   8.115 -0.1450  1.2889 -1.1727
 9121SOL     OW30255   2.346   2.024   8.393  0.2443 -0.3364  0.7696
 9121SOL    HW130256   2.353   2.064   8.480  2.9459 -0.2008  0.5701
 9121SOL    HW230257   2.433   2.035   8.354 -0.6285 -1.2171 -1.6112
 9122SOL     OW30258   4.947   7.689   7.071  0.1333  0.1796 -0.6538
 9122SOL    HW130259   4.879   7.746   7.107  0.4983 -1.0243  2.2217
 9122SOL    HW230260   4.899   7.614   7.037 -0.1336  0.5980 -1.2103
 9123SOL     OW30261   8.831   8.756   6.207  0.1710 -0.3261 -0.1077
 9123SOL    HW130262   8.895   8.687   6.190 -0.5551 -0.5389 -2.2178
 9123SOL    HW230263   8.840   8.817   6.134  0.2402  1.4249  1.2939
 9124SOL     OW30264   8.674   8.435   6.543  0.0759 -0.1575  0.1279
 9124SOL    HW130265   8.663   8.489   6.464 -0.4405 -0.5666 -0.0868
 9124SOL    HW230266   8.614   8.473   6.607 -1.5662 -1.4707 -0.5608
 9125SOL     OW30267   1.593   6.397   7.695 -0.1445  0.0986  0.1829
 9125SOL    HW130268   1.637   6.370   7.614 -1.2009 -2.5795  0.4033
 9125SOL    HW230269   1.625   6.336   7.761 -1.7058  0.2058  1.0776
 9126SOL     OW30270   3.789   2.160  10.302  0.1175  0.0436  0.2148
 9126SOL    HW130271   3.791   2.103  10.225 -1.4715  0.5550 -0.2380
 9126SOL    HW230272   3.754   2.105  10.371  1.2964 -0.3371  0.5398
 9127SOL     OW30273   1.626   6.017   1.576 -0.0609 -0.1024  0.3022
 9127SOL    HW130274   1.653   6.102   1.543 -0.3292  0.1381  0.6871
 9127SOL    HW230275   1.705   5.982   1.618 -0.2850  0.5321  1.2935
 9128SOL     OW30276   6.629   5.803   9.250 -0.4422  0.6231  0.1809
 9128SOL    HW130277   6.666   5.890   9.238 -0.9419  0.7407 -0.5040
 9128SOL    HW230278   6.559   5.796   9.186 -1.3602  0.2403  1.1824
 9129SOL     OW30279   2.816   5.068   5.291 -0.6002 -0.0332  0.5642
 9129SOL    HW130280   2.734   5.118   5.294 -1.0835 -0.7884  0.2187
 9129SOL    HW230281   2.790   4.979   5.312 -0.0325 -0.4765 -0.5540
 9130SOL     OW30282   2.377  10.739   0.849  0.2325 -0.7422 -0.0723
 9130SOL    HW130283   2.411  10.768   0.765  1.9790 -0.7890  0.5806
 9130SOL    HW230284   2.323  10.812   0.880  1.5522  0.2919 -0.1351
 9131SOL     OW30285   8.869   3.583   2.906  0.1475 -0.8665 -0.2462
 9131SOL    HW130286   8.788   3.572   2.856  0.8829 -1.2116 -1.3848
 9131SOL    HW230287   8.881   3.678   2.910 -1.1972 -0.7152  1.4247
 9132SOL     OW30288   8.298   3.177   8.192  0.0122 -0.3229  0.0475
 9132SOL    HW130289   8.257   3.239   8.132  0.8231  0.1203 -0.0719
 9132SOL    HW230290   8.231   3.112   8.210 -0.6455  0.2421 -0.3392
 9133SOL     OW30291   0.687   5.563   9.734  0.2185  0.0791  0.4379
 9133SOL    HW130292   0.779   5.564   9.759  0.3388 -0.8126  0.0818
 9133SOL    HW230293   0.641   5.600   9.809  0.9257  1.2724  0.3061
 9134SOL     OW30294   0.968   8.764   5.670 -0.2617  0.4542 -0.4148
 9134SOL    HW130295   0.879   8.798   5.661 -0.4752 -0.0624 -0.3033
 9134SOL    HW230296   0.972   8.690   5.609 -0.9126 -1.4975  1.7793
 9135SOL     OW30297  10.206   0.015   6.981  0.6711 -0.2452  0.1320
 9135SOL    HW130298  10.180  -0.019   6.896  0.3902  0.5983 -0.1240
 9135SOL    HW230299  10.224   0.108   6.966 -0.2699  0.1295  1.1607
 9136SOL     OW30300   8.429   5.902   8.021  0.4175  0.3080 -0.2116
 9136SOL    HW130301   8.517   5.925   7.992  0.4125  1.1676  0.4101
 9136SOL    HW230302   8.399   5.979   8.069 -0.4732 -0.1794  0.0335
 9137SOL     OW30303   1.087   8.515   3.932 -0.1322 -0.0947  0.0218
 9137SOL    HW130304   1.001   8.514   3.889 -1.1483 -0.9686  1.9082
 9137SOL    HW230305   1.102   8.607   3.954 -0.0397  0.2225 -1.2874
 9138SOL     OW30306   7.225   4.216   2.885 -0.1675  0.2294 -0.0907
 9138SOL    HW130307   7.249   4.257   2.968  0.1490 -3.6077  1.9461
 9138SOL    HW230308   7.308   4.205   2.839 -0.1482  1.0275 -0.2599
 9139SOL     OW30309   0.621   4.066   8.806 -0.0051  0.0321  0.4850
 9139SOL    HW130310   0.665   4.089   8.724  1.4295 -0.1449  1.1717
 9139SOL    HW230311   0.561   4.139   8.822  0.1978  0.4055 -0.3549
 9140SOL     OW30312   5.304   8.393   3.402 -0.1629 -0.2582  0.1774
 9140SOL    HW130313   5.376   8.411   3.462 -0.1026 -0.3411  0.1292
 9140SOL    HW230314   5.298   8.472   3.348  0.2439 -0.4691 -0.1788
 9141SOL     OW30315   8.385   9.161   4.398 -0.4085  0.0610  0.2832
 9141SOL    HW130316   8.326   9.097   4.436  0.8002 -0.0543  2.1183
 9141SOL    HW230317   8.463   9.110   4.373 -1.1437  0.1436 -2.4314
 9142SOL     OW30318  10.773   1.072   3.988  0.1190 -0.1239  0.1007
 9142SOL    HW130319  10.704   1.139   3.990  0.4070  0.1611  0.7813
 9142SOL    HW230320  10.738   1.002   3.933 -0.3639  0.3955 -0.2586
 9143SOL     OW30321   3.655   9.679   9.610  0.2633 -0.2454  0.0236
 9143SOL    HW130322   3.609   9.604   9.647 -0.5112  0.7051  1.0805
 9143SOL    HW230323   3.740   9.680   9.655  0.2484 -0.4370  0.0576
 9144SOL     OW30324   1.596   2.295   8.476 -0.2037  0.1612  0.2473
 9144SOL    HW130325   1.511   2.296   8.521  0.2227  0.9277  1.0704
 9144SOL    HW230326   1.640   2.217   8.511 -1.0340 -0.9903 -1.1443
 9145SOL     OW30327   7.152   7.657   7.573  0.5182  0.1011 -0.8101
 9145SOL    HW130328   7.138   7.588   7.639  0.4546  0.4970 -0.4068
 9145SOL    HW230329   7.247   7.659   7.561  0.5320  0.0508 -0.7099
 9146SOL     OW30330   1.347   1.665   1.271 -0.1626 -0.1724 -0.6810
 9146SOL    HW130331   1.441   1.669   1.252  0.0387  0.7804  0.3883
 9146SOL    HW230332   1.341   1.611   1.350 -0.3371  0.9399  0.0988
 9147SOL     OW30333   0.613   5.744   2.297  0.2748 -0.0277  0.4547
 9147SOL    HW130334   0.657   5.659   2.289 -2.5846 -1.6310  0.5108
 9147SOL    HW230335   0.603   5.775   2.207  0.1051 -0.4162  0.3415
 9148SOL     OW30336   0.932   6.627   1.590  0.0392  0.4284  0.2817
 9148SOL    HW130337   0.918   6.612   1.684  0.3551  1.6565  0.5438
 9148SOL    HW230338   0.975   6.713   1.586 -1.9014  1.3962 -1.1053
 9149SOL     OW30339   4.919   5.843   4.614 -0.1060 -0.3458  0.5236
 9149SOL    HW130340   4.828   5.870   4.619  0.0205  0.0665  0.5712
 9149SOL    HW230341   4.956   5.893   4.541  0.4405  0.5324  1.3842
 9150SOL     OW30342   7.945   8.680   9.870 -0.1052 -0.0624  0.1442
 9150SOL    HW130343   7.928   8.676   9.776 -1.8377 -0.4113  0.4328
 9150SOL    HW230344   7.954   8.774   9.889 -1.2444  0.1203 -0.1561
 9151SOL     OW30345   7.478   0.201   1.896  0.5668 -0.5128 -0.7119
 9151SOL    HW130346   7.442   0.288   1.876  2.8770  0.8711  0.6595
 9151SOL    HW230347   7.402   0.149   1.921 -0.9855  0.8712 -2.2858
 9152SOL     OW30348   4.143   7.495   6.445 -0.2238  0.2906 -0.2719
 9152SOL    HW130349   4.076   7.429   6.425  0.1135  0.0143 -0.5096
 9152SOL    HW230350   4.180   7.517   6.359  0.0235  0.4025 -0.1347
 9153SOL     OW30351   1.360   0.895   8.684 -0.1296 -0.0056  0.0358
 9153SOL    HW130352   1.275   0.879   8.724  0.0067  0.0017  0.3325
 9153SOL    HW230353   1.411   0.939   8.752 -0.0443  0.4196 -0.2955
 9154SOL     OW30354   8.716   2.207   8.003  0.3793  1.0006  0.0984
 9154SOL    HW130355   8.751   2.237   7.919  0.6027  0.6321  0.0626
 9154SOL    HW230356   8.665   2.282   8.035 -0.1645  0.9552 -0.6267
 9155SOL     OW30357   2.856   6.576   6.225 -0.1753 -0.3510  0.2614
 9155SOL    HW130358   2.838   6.484   6.243 -0.9341  0.1048  2.0106
 9155SOL    HW230359   2.894   6.610   6.306 -0.1666  0.9444 -0.2628
 9156SOL     OW30360   0.275   8.778   7.023 -0.3057  0.2396 -0.2106
 9156SOL    HW130361   0.283   8.868   7.055  1.1031  0.1089 -0.1382
 9156SOL    HW230362   0.207   8.739   7.078  1.7259  0.1445  2.4500
 9157SOL     OW30363   7.345   6.594  10.425 -0.1676  0.4984  0.0251
 9157SOL    HW130364   7.383   6.592  10.338  0.2715  1.7175  0.1710
 9157SOL    HW230365   7.309   6.682  10.434 -2.4556 -0.3728  0.1559
 9158SOL     OW30366   6.931   0.935   4.397  0.2381 -0.0981  0.1724
 9158SOL    HW130367   6.968   1.022   4.409 -3.3300  1.8379 -1.3945
 9158SOL    HW230368   6.905   0.908   4.485 -0.1838  1.2232  0.4685
 9159SOL     OW30369   6.865   8.494   8.150  0.1396  0.6915 -0.1829
 9159SOL    HW130370   6.853   8.587   8.134 -0.9052  0.6120  0.0722
 9159SOL    HW230371   6.782   8.465   8.189  0.9188 -0.0593  1.0078
 9160SOL     OW30372  10.321   2.550   9.654 -0.2765 -0.8438  0.2138
 9160SOL    HW130373  10.340   2.484   9.588  1.3528  0.0202 -0.2326
 9160SOL    HW230374  10.379   2.529   9.727  0.2786  0.0970  0.0558
 9161SOL     OW30375   7.903   4.977   6.102 -0.0168  0.6422  0.3391
 9161SOL    HW130376   7.932   5.063   6.072  2.1238 -0.0806  0.2263
 9161SOL    HW230377   7.963   4.915   6.062 -0.2599 -0.7607  2.0195
 9162SOL     OW30378   9.632   6.250   2.660  0.3216 -0.2329  0.4702
 9162SOL    HW130379   9.628   6.198   2.740 -0.4839 -2.2097 -0.7553
 9162SOL    HW230380   9.706   6.213   2.611 -0.4327 -0.4598 -0.5498
 9163SOL     OW30381   9.678   4.432  10.427  0.1802  0.1098 -0.1590
 9163SOL    HW130382   9.651   4.519  10.399  0.8315  0.3717  0.0102
 9163SOL    HW230383   9.675   4.436  10.523  1.1605  0.2657 -0.1246
 9164SOL     OW30384   7.443   8.735   7.667  0.6060 -0.2618 -0.6783
 9164SOL    HW130385   7.366   8.686   7.640  0.6567 -1.0792  0.5992
 9164SOL    HW230386   7.515   8.699   7.615  0.3377 -0.3628 -0.9737
 9165SOL     OW30387  10.468   8.813   3.757 -0.0022 -0.1290 -0.1322
 9165SOL    HW130388  10.385   8.789   3.799  0.6729 -1.4424  0.5101
 9165SOL    HW230389  10.505   8.730   3.727  1.3698  0.3575  0.1385
 9166SOL     OW30390   1.165   3.373   1.689 -0.3686 -0.0598 -0.4621
 9166SOL    HW130391   1.253   3.343   1.665 -0.7625 -2.4712  0.8710
 9166SOL    HW230392   1.120   3.386   1.605  0.9672  0.4174 -1.1392
 9167SOL     OW30393   1.088   1.632   1.703 -0.2844 -0.0570  0.4201
 9167SOL    HW130394   1.028   1.634   1.777  0.5051 -1.1596  1.1307
 9167SOL    HW230395   1.050   1.692   1.639  0.0845  2.5636  2.5015
 9168SOL     OW30396   3.590   7.261   5.123  0.4638 -0.3743 -0.0231
 9168SOL    HW130397   3.670   7.265   5.175  1.0577 -0.5432 -0.8961
 9168SOL    HW230398   3.618   7.226   5.038 -0.2030  1.2963 -0.9901
 9169SOL     OW30399   0.055   0.763   7.230  0.4601  0.2556 -0.4754
 9169SOL    HW130400  -0.014   0.746   7.294 -0.4716 -2.0609 -2.0007
 9169SOL    HW230401   0.133   0.721   7.268  0.7706  1.6815  0.5845
 9170SOL     OW30402   6.006   1.472   7.429  0.4304 -0.2446  0.9040
 9170SOL    HW130403   6.055   1.474   7.511 -0.7507  2.2518  1.6598
 9170SOL    HW230404   6.058   1.525   7.369  1.8585 -2.9717 -0.4226
 9171SOL     OW30405   9.270   1.238  10.791 -0.2239 -0.6115 -0.2834
 9171SOL    HW130406   9.239   1.201  10.874 -2.2002  2.2166  0.4005
 9171SOL    HW230407   9.340   1.299  10.816 -0.0142 -0.6222 -0.8358
 9172SOL     OW30408   6.607   7.872   7.740  0.1185  0.2369 -0.4080
 9172SOL    HW130409   6.600   7.951   7.685  2.1742 -0.0135 -1.0995
 9172SOL    HW230410   6.701   7.855   7.746 -0.2643 -2.0249 -0.0699
 9173SOL     OW30411   0.916   8.734   4.257 -0.3983 -0.6104 -0.2999
 9173SOL    HW130412   0.883   8.809   4.307  1.7620 -1.3882  2.5745
 9173SOL    HW230413   0.998   8.765   4.219 -1.8282 -0.1552 -3.2623
 9174SOL     OW30414   5.154   6.940   6.852  0.2957 -0.0770  0.3144
 9174SOL    HW130415   5.189   6.936   6.941  1.1026 -0.6717 -0.0123
 9174SOL    HW230416   5.096   6.864   6.846 -0.5125  0.5013  0.6251
 9175SOL     OW30417   9.629   9.655   6.547 -0.6037  0.2724 -0.2607
 9175SOL    HW130418   9.637   9.561   6.528  0.1538  0.0651  0.9387
 9175SOL    HW230419   9.697   9.671   6.613 -1.1916  1.5210  0.0586
 9176SOL     OW30420   0.003   5.152   8.674  0.8654 -0.0757  0.3100
 9176SOL    HW130421  -0.068   5.112   8.625  0.4739  0.0200  0.7904
 9176SOL    HW230422   0.059   5.193   8.607 -0.3159  1.1210  0.0087
 9177SOL     OW30423   7.073   9.680   8.745  0.0785 -0.0625  0.4426
 9177SOL    HW130424   7.164   9.653   8.738 -0.2626 -1.5119  1.1987
 9177SOL    HW230425   7.025   9.615   8.694 -0.5387  0.6876  0.0498
 9178SOL     OW30426   6.125   3.276   0.757  0.4742  0.6860  0.0809
 9178SOL    HW130427   6.150   3.287   0.849  1.0497  1.5830 -0.1690
 9178SOL    HW230428   6.077   3.193   0.755 -0.3154  1.0820  1.3373
 9179SOL     OW30429   6.811   8.371   7.906  0.2625 -0.4363 -0.0556
 9179SOL    HW130430   6.777   8.282   7.910  0.4674 -0.5296 -0.3967
 9179SOL    HW230431   6.884   8.372   7.967  0.8419 -0.7573 -0.7367
 9180SOL     OW30432  10.418   4.962   7.975  0.1788  0.2752 -0.3481
 9180SOL    HW130433  10.336   4.919   7.999  0.3475 -0.1785 -0.5690
 9180SOL    HW230434  10.416   4.965   7.879 -0.8181  2.6970 -0.3322
 9181SOL     OW30435   4.463   7.650   8.273 -0.2653  0.2371 -0.7409
 9181SOL    HW130436   4.531   7.714   8.254 -1.6365  3.1414  2.9756
 9181SOL    HW230437   4.383   7.687   8.236 -1.5824  2.4216  3.5808
 9182SOL     OW30438   1.802  10.390   2.940  0.1396  0.4303  0.1442
 9182SOL    HW130439   1.752  10.309   2.930 -0.4386  0.9975 -2.4702
 9182SOL    HW230440   1.844  10.382   3.025 -1.4649 -1.7189  0.8283
 9183SOL     OW30441   8.427   2.544   7.041 -0.5805  0.4855 -0.0277
 9183SOL    HW130442   8.492   2.611   7.063  1.0864 -0.6656 -1.2210
 9183SOL    HW230443   8.402   2.565   6.951  0.1692 -0.6277 -0.5111
 9184SOL     OW30444   0.232   5.156   8.975 -0.0690 -0.4191  0.1638
 9184SOL    HW130445   0.321   5.191   8.986 -0.0679  0.2307 -1.5844
 9184SOL    HW230446   0.234   5.111   8.891 -1.2003 -1.1065  0.4804
 9185SOL     OW30447   7.226   1.843   1.310  0.0132 -0.3048 -0.0574
 9185SOL    HW130448   7.210   1.796   1.391  0.7261  1.4010  1.1500
 9185SOL    HW230449   7.317   1.873   1.317  0.2773 -0.5906 -1.7520
 9186SOL     OW30450   8.874   2.629   6.667 -0.1015 -0.8004  0.4083
 9186SOL    HW130451   8.869   2.533   6.659  2.8191 -0.9786 -0.4348
 9186SOL    HW230452   8.910   2.658   6.583 -0.0616  0.9579  1.0015
 9187SOL     OW30453   6.632   6.456   6.980  0.5841 -0.4844  0.2905
 9187SOL    HW130454   6.560   6.476   7.040 -0.1912 -0.5708 -0.5923
 9187SOL    HW230455   6.694   6.527   6.993 -0.3458  0.4014 -0.0019
 9188SOL     OW30456   9.492   2.521   7.368 -0.0844 -0.2434 -0.7188
 9188SOL    HW130457   9.440   2.559   7.298 -1.0017 -0.3284 -0.0970
 9188SOL    HW230458   9.564   2.476   7.323  0.2629  1.0568 -1.5273
 9189SOL     OW30459   2.174   2.445   0.857  0.6722 -0.4167 -0.1814
 9189SOL    HW130460   2.262   2.465   0.889  0.2411  1.0100  0.1635
 9189SOL    HW230461   2.179   2.353   0.830  1.3021 -1.4994  3.1886
 9190SOL     OW30462   1.300   3.449   8.602 -0.3863  0.2224 -0.8985
 9190SOL    HW130463   1.303   3.426   8.510 -1.4174  0.3298 -0.9758
 9190SOL    HW230464   1.353   3.528   8.610 -0.7019  0.4982 -1.4973
 9191SOL     OW30465   7.146   6.169  10.441  0.1858  0.5589  0.1366
 9191SOL    HW130466   7.115   6.258  10.423 -2.4183 -0.0526  1.2127
 9191SOL    HW230467   7.068   6.120  10.464  1.4885 -2.1390 -0.6932
 9192SOL     OW30468   9.630  10.367   8.980 -0.3211  0.1289  0.0358
 9192SOL    HW130469   9.629  10.462   8.994 -1.9468  0.0286  0.8292
 9192SOL    HW230470   9.662  10.331   9.062 -0.9356 -0.0581  0.1980
 9193SOL     OW30471   0.822   4.287   1.231  0.1406 -0.4409  0.4897
 9193SOL    HW130472   0.741   4.320   1.193  1.3496  2.3063  0.0279
 9193SOL    HW230473   0.865   4.240   1.160 -0.1857 -0.2812  0.1867
 9194SOL     OW30474   8.856   4.635   2.801 -0.8757  0.0387  0.5953
 9194SOL    HW130475   8.891   4.688   2.729  0.6070 -1.7757 -0.1040
 9194SOL    HW230476   8.773   4.677   2.823  0.4202  2.9080  0.4364
 9195SOL     OW30477   8.985   0.250  10.022 -0.1884 -0.2186  0.0983
 9195SOL    HW130478   8.903   0.296  10.008 -0.4999 -0.7398  0.1585
 9195SOL    HW230479   9.033   0.260   9.940  0.2126  1.1150  0.4813
 9196SOL     OW30480   7.165   7.245   0.962  0.2171 -0.1541 -0.2603
 9196SOL    HW130481   7.080   7.232   1.003  1.0222 -0.8833  1.2531
 9196SOL    HW230482   7.146   7.294   0.882 -1.3816  1.8225  1.2349
 9197SOL     OW30483   2.236  10.003   1.057  0.2507  0.5330 -0.8213
 9197SOL    HW130484   2.170   9.985   1.125  2.5583  1.5412  1.8955
 9197SOL    HW230485   2.213  10.089   1.024 -0.3055  0.4867 -0.5797
 9198SOL     OW30486   8.554   1.757   7.462 -0.2596 -0.1112  0.8229
 9198SOL    HW130487   8.511   1.843   7.463 -1.4957 -0.7115  0.6479
 9198SOL    HW230488   8.606   1.755   7.542  0.7409  1.2563  0.2565
 9199SOL     OW30489   4.287   7.048   9.522 -0.8101  0.6749  0.2399
 9199SOL    HW130490   4.334   6.992   9.584  1.1088  1.3050 -0.5498
 9199SOL    HW230491   4.292   7.000   9.439 -0.7575  1.1798 -0.0505
 9200SOL     OW30492   4.444   1.593   1.424 -0.5189  0.1885  0.3592
 9200SOL    HW130493   4.382   1.524   1.450 -0.4448  0.7181  2.0658
 9200SOL    HW230494   4.453   1.582   1.330 -0.5290 -2.1326  0.5545
 9201SOL     OW30495   8.246   7.372   1.466  0.1195  0.0273 -0.1327
 9201SOL    HW130496   8.198   7.452   1.489 -0.8128 -0.9192  1.4232
 9201SOL    HW230497   8.178   7.305   1.457  0.8594 -0.5585 -1.6831
 9202SOL     OW30498   5.259   3.664   2.179 -0.0674 -0.5498  0.2527
 9202SOL    HW130499   5.261   3.653   2.084  1.8748  0.1399  0.1592
 9202SOL    HW230500   5.349   3.688   2.202  0.2116 -3.2677  2.5789
 9203SOL     OW30501   5.927   8.284   7.355  0.3545  0.1489  0.0570
 9203SOL    HW130502   5.982   8.248   7.286  0.4856 -1.4559  0.9554
 9203SOL    HW230503   5.848   8.231   7.354 -0.4619  1.3292 -0.0806
 9204SOL     OW30504   2.321   2.529   9.965  0.7484 -0.1230  0.4474
 9204SOL    HW130505   2.312   2.519  10.060  0.7093  2.1427  0.7378
 9204SOL    HW230506   2.401   2.581   9.954  0.1409  0.6175 -0.6700
 9205SOL     OW30507  10.389   7.299   6.603 -0.4390 -0.1762  0.0121
 9205SOL    HW130508  10.299   7.315   6.632 -0.6815  0.5232 -1.0747
 9205SOL    HW230509  10.415   7.380   6.559  1.4580  0.4149  2.0255
 9206SOL     OW30510   1.441   7.296   8.328 -0.2881 -0.8537  0.4956
 9206SOL    HW130511   1.426   7.388   8.305  1.5052 -0.8732 -0.8905
 9206SOL    HW230512   1.371   7.249   8.284 -0.9608 -0.2113  0.8489
 9207SOL     OW30513   6.338   5.139   3.265 -0.1652 -0.5061 -0.1547
 9207SOL    HW130514   6.366   5.049   3.248  0.5827 -0.5590  1.2057
 9207SOL    HW230515   6.328   5.178   3.178 -0.9066 -2.0087 -0.7846
 9208SOL     OW30516   9.189   9.760   2.241  0.0029  0.0536  0.2087
 9208SOL    HW130517   9.213   9.816   2.167 -2.9284  2.5926  0.9544
 9208SOL    HW230518   9.263   9.700   2.251  0.8091 -0.0860 -4.3584
 9209SOL     OW30519   8.906   1.454  10.669  0.5790  0.6309  0.6725
 9209SOL    HW130520   8.847   1.388  10.705  0.4401  0.0885 -0.4877
 9209SOL    HW230521   8.944   1.413  10.591  1.0983  1.6345  0.3679
 9210SOL     OW30522   6.231   6.884   7.739 -0.0936 -0.0060  0.8039
 9210SOL    HW130523   6.291   6.819   7.703  0.3934  0.1779  1.2593
 9210SOL    HW230524   6.180   6.836   7.804  0.8083  0.2220  1.7083
 9211SOL     OW30525   3.045   5.118   5.989  0.3936 -0.8469  0.0910
 9211SOL    HW130526   3.097   5.171   6.049 -0.7862  1.3899 -0.7768
 9211SOL    HW230527   2.966   5.169   5.973  0.1126 -1.9197 -2.4001
 9212SOL     OW30528  10.794   8.794   0.085 -0.1758 -0.7438  0.1762
 9212SOL    HW130529  10.830   8.753   0.006  0.4840 -0.9776  0.5889
 9212SOL    HW230530  10.851   8.871   0.100 -1.4227  0.3751 -0.6180
 9213SOL     OW30531  10.401   6.988   0.883  0.1708 -0.1419  0.3018
 9213SOL    HW130532  10.497   6.988   0.877  0.2967 -1.3038  1.6658
 9213SOL    HW230533  10.372   7.039   0.807  1.8224 -1.0427 -1.0220
 9214SOL     OW30534   0.431   2.182   3.904 -0.1827 -0.4219  0.2171
 9214SOL    HW130535   0.472   2.253   3.954 -2.3321  0.9116  0.2620
 9214SOL    HW230536   0.487   2.169   3.828  1.5689 -0.4150  1.4651
 9215SOL     OW30537   5.801   8.759   3.962  0.1338  0.4998 -0.7421
 9215SOL    HW130538   5.840   8.842   3.935  2.6447 -0.1410  0.6345
 9215SOL    HW230539   5.843   8.693   3.908  0.1174 -0.1223 -0.0068
 9216SOL     OW30540   5.733   3.071   9.240 -0.7874  0.1593 -0.0632
 9216SOL    HW130541   5.827   3.078   9.260 -1.0289 -1.4773  1.9722
 9216SOL    HW230542   5.699   3.158   9.260 -0.1838 -0.0971  2.4834
 9217SOL     OW30543   6.301   2.964   8.237 -0.5243 -0.0722  0.8557
 9217SOL    HW130544   6.207   2.945   8.233 -0.8101  1.0099 -3.9560
 9217SOL    HW230545   6.337   2.921   8.159  2.1164  3.0740  0.1460
 9218SOL     OW30546   6.997   1.185   4.447  0.0559 -0.3881  0.1190
 9218SOL    HW130547   7.013   1.246   4.375 -0.4786  0.1120  0.4181
 9218SOL    HW230548   7.043   1.222   4.522  0.4706 -0.8198  0.0828
 9219SOL     OW30549   9.211   1.044   3.227  0.2247  0.8076  0.3286
 9219SOL    HW130550   9.180   1.007   3.144  0.5248  0.1025  0.5217
 9219SOL    HW230551   9.306   1.049   3.217  0.1779  1.7765  0.2181
 9220SOL     OW30552   9.778   4.279   1.281 -0.1919 -0.3231  0.3775
 9220SOL    HW130553   9.745   4.277   1.370 -0.0068 -0.3827  0.4467
 9220SOL    HW230554   9.819   4.194   1.268 -0.0789 -0.2565  0.2898
 9221SOL     OW30555   8.395   0.160   2.788 -0.1211  0.1181  0.6787
 9221SOL    HW130556   8.403   0.095   2.857 -0.0773  2.4519  3.0122
 9221SOL    HW230557   8.304   0.189   2.793 -0.0128  0.5935  0.0161
 9222SOL     OW30558   9.845   1.666   8.884 -0.2176  0.0148 -0.3697
 9222SOL    HW130559   9.902   1.650   8.808  0.2172  0.4248 -0.1400
 9222SOL    HW230560   9.776   1.601   8.876  1.3892 -1.9172  0.4740
 9223SOL     OW30561   9.137   8.110   3.453 -0.0176 -0.0741  0.0973
 9223SOL    HW130562   9.119   8.051   3.527  0.2540  2.0564  1.9883
 9223SOL    HW230563   9.230   8.098   3.434  0.6347  1.3103  2.0536
 9224SOL     OW30564   5.547   5.635   6.460  0.0626 -0.2470 -0.4063
 9224SOL    HW130565   5.573   5.605   6.373  0.3419  0.5498 -0.6046
 9224SOL    HW230566   5.506   5.720   6.445 -0.5585 -0.4325  0.1655
 9225SOL     OW30567  10.471   0.285   2.317 -0.0840  0.2097  0.5212
 9225SOL    HW130568  10.483   0.194   2.346  0.6536 -0.1202 -0.7205
 9225SOL    HW230569  10.377   0.295   2.306 -0.2257 -0.1991  1.2934
 9226SOL     OW30570   2.166   4.781   5.244 -0.1750  0.1218  0.0830
 9226SOL    HW130571   2.243   4.725   5.255 -0.6876 -0.6016  0.0503
 9226SOL    HW230572   2.096   4.735   5.290 -0.3377  1.3397  1.0968
 9227SOL     OW30573   3.106   0.052   7.144 -0.3140  0.3011  0.0013
 9227SOL    HW130574   3.095  -0.010   7.071 -0.0029 -0.2893  0.4461
 9227SOL    HW230575   3.195   0.086   7.133  0.8987 -1.9805  1.7153
 9228SOL     OW30576   4.340   9.968   4.919 -0.1110  0.3806 -0.0493
 9228SOL    HW130577   4.291  10.050   4.918 -1.1414 -0.2207 -0.1807
 9228SOL    HW230578   4.407   9.979   4.852 -1.4469  0.4111 -1.4275
 9229SOL     OW30579   6.827   3.857   1.409 -0.1719  0.5263 -0.3628
 9229SOL    HW130580   6.822   3.799   1.485 -1.1000  1.8260  0.6277
 9229SOL    HW230581   6.920   3.874   1.398  0.2195 -1.9160 -1.3320
 9230SOL     OW30582  10.781   1.683   4.717  0.6433  0.2238 -0.0878
 9230SOL    HW130583  10.868   1.666   4.753  0.4163  0.8019  0.7572
 9230SOL    HW230584  10.788   1.659   4.625  1.3122 -1.0516  0.2757
 9231SOL     OW30585  10.274   8.614   7.939 -0.5967  0.1332  0.0735
 9231SOL    HW130586  10.326   8.678   7.988 -1.1295  0.0960  0.7109
 9231SOL    HW230587  10.288   8.531   7.984  1.0580 -0.4774 -1.4801
 9232SOL     OW30588   6.059   7.518   3.667  0.3417 -0.2590 -0.0943
 9232SOL    HW130589   5.986   7.564   3.709  0.3386 -0.1500 -0.2188
 9232SOL    HW230590   6.120   7.499   3.738  0.0009 -0.7173  0.0822
 9233SOL     OW30591  10.238   5.012   3.768 -0.2886  0.1729  0.3593
 9233SOL    HW130592  10.321   5.059   3.759  0.1173 -0.6531 -0.3770
 9233SOL    HW230593  10.176   5.063   3.717  0.4022 -0.6541 -1.3937
 9234SOL     OW30594   0.334   6.511   6.270  0.2392  0.2818 -0.1744
 9234SOL    HW130595   0.245   6.519   6.237  0.5771  0.5398 -1.0693
 9234SOL    HW230596   0.368   6.600   6.269  0.9354  0.0259 -1.1295
 9235SOL     OW30597  10.548   4.987   8.230  0.2549 -0.3254  0.1115
 9235SOL    HW130598  10.499   4.988   8.148 -0.3479 -0.7233  0.4601
 9235SOL    HW230599  10.582   4.897   8.236  1.8128  0.1856 -0.5777
 9236SOL     OW30600   8.673   4.570   3.324  0.2631  0.3596 -0.7044
 9236SOL    HW130601   8.588   4.600   3.293  0.2186 -0.2892 -1.2429
 9236SOL    HW230602   8.735   4.606   3.261  0.3495  0.4530 -0.5678
 9237SOL     OW30603   9.296   8.724   3.996 -0.6353 -0.1665  0.0661
 9237SOL    HW130604   9.287   8.716   3.901 -0.5904 -1.3113  0.1455
 9237SOL    HW230605   9.386   8.754   4.010 -0.5435 -0.3010 -0.2373
 9238SOL     OW30606   6.074   3.282  10.674  0.1885  0.4796  0.0684
 9238SOL    HW130607   5.979   3.296  10.671  0.2879  0.9813 -1.5202
 9238SOL    HW230608   6.095   3.280  10.768 -1.4542 -0.1778  0.4555
 9239SOL     OW30609  10.053   4.752   9.776 -0.3025 -0.3338  0.3224
 9239SOL    HW130610  10.129   4.725   9.828 -0.1416  0.7399  0.6766
 9239SOL    HW230611  10.067   4.845   9.762  0.3355 -0.8074 -2.8307
 9240SOL     OW30612   3.032   3.031   3.928 -0.4515 -0.0927  0.4189
 9240SOL    HW130613   3.010   3.058   3.839  0.0590  0.6441  0.5065
 9240SOL    HW230614   3.056   2.939   3.920 -0.4265 -0.0358 -0.2017
 9241SOL     OW30615  10.497   0.205   7.890 -0.3516  0.3271  0.2245
 9241SOL    HW130616  10.586   0.188   7.858 -0.7258  0.7007 -1.0882
 9241SOL    HW230617  10.446   0.130   7.859 -0.3500 -0.3527  1.7526
 9242SOL     OW30618   0.012   7.708   1.505 -0.2471 -0.3602 -0.1783
 9242SOL    HW130619  -0.083   7.714   1.490 -0.0195 -0.2027 -1.6665
 9242SOL    HW230620   0.036   7.621   1.471  0.2609 -0.0964 -0.5012
 9243SOL     OW30621   8.765   7.595   1.673  0.6688 -0.6848 -0.3899
 9243SOL    HW130622   8.797   7.507   1.691  0.3568 -1.4154 -2.9313
 9243SOL    HW230623   8.679   7.598   1.716 -0.0840 -2.3018 -1.6240
 9244SOL     OW30624   6.598  10.732   8.297  0.8691  0.4120 -0.0954
 9244SOL    HW130625   6.515  10.726   8.250  1.4170  0.9173 -1.1803
 9244SOL    HW230626   6.653  10.787   8.241  0.8190  3.0785  2.2540
 9245SOL     OW30627  10.250   3.575   6.604 -0.2962 -0.0252 -0.1094
 9245SOL    HW130628  10.282   3.598   6.516  2.0526 -2.7776 -0.1353
 9245SOL    HW230629  10.232   3.481   6.598  2.1760 -0.8487  2.8521
 9246SOL     OW30630   8.006   0.684  10.112  0.5909 -0.5038  0.0930
 9246SOL    HW130631   7.998   0.760  10.054 -0.6390 -0.0752  0.7833
 9246SOL    HW230632   8.082   0.636  10.078  1.1920  0.8487 -0.5559
 9247SOL     OW30633   9.897   4.464   6.687 -0.2523  0.2947  0.0528
 9247SOL    HW130634   9.812   4.442   6.649 -0.1670 -0.2472  0.1737
 9247SOL    HW230635   9.961   4.437   6.621  0.0107 -2.3954  1.2952
 9248SOL     OW30636   6.689   0.722  10.317  0.3806 -0.1231  0.0016
 9248SOL    HW130637   6.606   0.681  10.342  0.2411 -0.0596 -0.3439
 9248SOL    HW230638   6.719   0.671  10.242 -0.3327  1.0372 -1.1167
 9249SOL     OW30639   9.919   5.465   4.408 -0.8228 -0.1454 -0.5084
 9249SOL    HW130640   9.962   5.466   4.494 -2.6701 -2.7912  0.5720
 9249SOL    HW230641   9.849   5.529   4.416 -3.0372 -2.5688  1.2741
 9250SOL     OW30642   3.974   6.671   9.721 -0.1542  0.3687 -0.6042
 9250SOL    HW130643   3.952   6.583   9.689 -0.8499  1.0292 -2.0770
 9250SOL    HW230644   4.069   6.678   9.708  0.0135 -0.3769  0.1270
 9251SOL     OW30645   8.109   2.402   8.773  0.3743  0.1949 -0.3453
 9251SOL    HW130646   8.205   2.406   8.769  0.3954  2.1505  0.8256
 9251SOL    HW230647   8.083   2.482   8.818 -1.9129  0.3369 -1.7340
 9252SOL     OW30648   1.957  10.100  10.609  0.1944  0.2138  1.1871
 9252SOL    HW130649   1.965  10.192  10.635  0.8942  0.4053  0.3291
 9252SOL    HW230650   1.896  10.102  10.535  2.1880  0.3525 -0.5519
 9253SOL     OW30651   2.868   5.994  10.029 -0.7832  0.1477  0.4714
 9253SOL    HW130652   2.777   6.001  10.059 -0.4274  1.8237  1.2941
 9253SOL    HW230653   2.891   6.083  10.001  0.4218 -0.3835 -0.3033
 9254SOL     OW30654   2.238   2.197  10.765 -0.3015 -0.4281  0.1377
 9254SOL    HW130655   2.178   2.147  10.821 -2.5478  0.9738 -0.8625
 9254SOL    HW230656   2.188   2.210  10.684  0.1861  3.2385  0.2835
 9255SOL     OW30657   3.076   3.566   0.465 -0.3438 -0.5052 -0.3481
 9255SOL    HW130658   3.081   3.657   0.434 -0.2420 -0.0152  1.0667
 9255SOL    HW230659   3.123   3.516   0.398  0.2420  0.5862 -0.7775
 9256SOL     OW30660   5.536   3.251   7.707 -0.2128  0.2575  0.5450
 9256SOL    HW130661   5.531   3.317   7.776  0.0317  0.2275  0.5933
 9256SOL    HW230662   5.471   3.185   7.731 -0.8605  0.7687  0.1893
 9257SOL     OW30663   7.982   8.804   0.997  0.8537 -0.3496 -0.3926
 9257SOL    HW130664   7.934   8.771   1.073 -0.6676  1.2424 -0.5896
 9257SOL    HW230665   8.030   8.880   1.031 -0.2789  0.7128 -1.1121
 9258SOL     OW30666   6.342   4.877   3.861  0.7598  0.2698  0.1198
 9258SOL    HW130667   6.418   4.890   3.918  0.1550 -1.7753  1.5062
 9258SOL    HW230668   6.378   4.881   3.772  2.2087  0.8602  0.7065
 9259SOL     OW30669   8.084   1.806   1.722  0.2698  0.7757 -0.6946
 9259SOL    HW130670   8.097   1.729   1.666  0.2208  1.4564 -1.6730
 9259SOL    HW230671   8.080   1.879   1.660 -0.5922  1.4574  0.1481
 9260SOL     OW30672   2.265   6.325  10.392 -0.7143  0.1568  0.1998
 9260SOL    HW130673   2.171   6.309  10.395 -1.0355  1.4210 -1.5591
 9260SOL    HW230674   2.273   6.410  10.349  1.2835 -0.5361 -0.8733
 9261SOL     OW30675   0.623   4.933   1.990 -0.0245 -0.1182  0.1786
 9261SOL    HW130676   0.703   4.903   2.032 -0.4514 -0.2588  0.8960
 9261SOL    HW230677   0.631   4.903   1.899 -0.2047 -1.9829  0.7413
 9262SOL     OW30678   8.706   2.888   4.775 -0.2676  0.0217 -0.1072
 9262SOL    HW130679   8.796   2.884   4.808 -0.1004 -0.5902 -0.6304
 9262SOL    HW230680   8.677   2.977   4.796  0.7559  0.5094 -0.7025
 9263SOL     OW30681   5.197  10.539   1.935  0.1175  0.2793  0.1961
 9263SOL    HW130682   5.215  10.543   2.029 -1.3385  1.6557  0.4722
 9263SOL    HW230683   5.238  10.618   1.900 -0.2762  0.3373 -0.1384
 9264SOL     OW30684   3.921   6.878   5.952  0.3493  0.2551 -0.4394
 9264SOL    HW130685   3.861   6.932   5.900  0.3152 -1.4976 -2.3296
 9264SOL    HW230686   3.865   6.837   6.018 -0.2045  0.0976 -0.9904
 9265SOL     OW30687   5.368   7.934   8.051 -0.4953 -0.3834 -0.2985
 9265SOL    HW130688   5.369   7.953   8.145  0.6699 -1.4706 -0.0465
 9265SOL    HW230689   5.391   8.017   8.009  1.5006 -0.4362  0.5516
 9266SOL     OW30690   1.986   8.381   0.130  0.4067 -0.3653 -0.0342
 9266SOL    HW130691   1.956   8.471   0.123  1.5680  0.0126 -0.3333
 9266SOL    HW230692   2.021   8.374   0.219 -3.5835 -1.7953  1.6512
 9267SOL     OW30693   3.170   5.437   1.699 -0.1253  0.5094  0.5815
 9267SOL    HW130694   3.254   5.392   1.687 -1.3678 -2.0967  1.1518
 9267SOL    HW230695   3.163   5.450   1.794 -0.7090  0.0358  0.6021
 9268SOL     OW30696   5.864   7.228   8.483 -0.3360 -0.2202 -0.2836
 9268SOL    HW130697   5.837   7.307   8.529  0.8411 -0.8861  1.7025
 9268SOL    HW230698   5.801   7.161   8.511 -0.0436 -0.4637 -0.1938
 9269SOL     OW30699   7.202   5.226   6.846 -0.2940  0.3014  0.0348
 9269SOL    HW130700   7.223   5.232   6.939  0.7891 -0.0177 -0.1663
 9269SOL    HW230701   7.210   5.133   6.825  0.7572  0.5177 -0.6336
 9270SOL     OW30702   8.321   4.119   3.164  0.1903 -0.5386 -0.4702
 9270SOL    HW130703   8.349   4.042   3.113  0.3909 -1.3718  0.8465
 9270SOL    HW230704   8.337   4.094   3.255 -2.5516 -0.1014  0.2126
 9271SOL     OW30705   6.426   4.608   0.156 -0.1227 -0.1945 -0.8224
 9271SOL    HW130706   6.368   4.648   0.221  2.2460 -1.9691  2.7319
 9271SOL    HW230707   6.367   4.573   0.090 -2.5752  3.8365 -1.1080
 9272SOL     OW30708   6.203   2.331   5.530  0.2180  0.8097  0.1182
 9272SOL    HW130709   6.256   2.252   5.541  0.2364  0.8581  0.4080
 9272SOL    HW230710   6.126   2.302   5.481  0.5784  0.7707 -0.4240
 9273SOL     OW30711   1.772   5.244   4.305  0.6472  0.1800 -0.0389
 9273SOL    HW130712   1.798   5.336   4.307  2.0172 -0.1755 -0.5323
 9273SOL    HW230713   1.782   5.214   4.395 -2.0139  1.0388  0.6573
 9274SOL     OW30714   3.129   5.909   1.247  0.3515  0.0551 -0.1626
 9274SOL    HW130715   3.199   5.938   1.306 -1.0789 -0.0933  1.6835
 9274SOL    HW230716   3.101   5.989   1.203 -0.4244  0.7286  1.4573
 9275SOL     OW30717   1.468   6.758   7.199 -0.1364 -0.2222 -0.1091
 9275SOL    HW130718   1.392   6.752   7.140 -0.1538 -1.5856  0.0109
 9275SOL    HW230719   1.490   6.667   7.218  1.5565  0.1435 -0.1541
 9276SOL     OW30720  10.511   2.005   6.945  0.3091  0.3398  0.3412
 9276SOL    HW130721  10.461   1.938   6.992 -2.3973  0.7512 -1.7338
 9276SOL    HW230722  10.569   1.954   6.887 -0.7716 -0.2275 -0.2685
 9277SOL     OW30723   3.402   8.630   2.232 -0.3103 -0.2665  0.4720
 9277SOL    HW130724   3.349   8.700   2.270  0.3960 -0.4428  1.8533
 9277SOL    HW230725   3.465   8.608   2.301 -0.3319 -2.0569 -0.0339
 9278SOL     OW30726   5.470   3.374   4.231 -0.0115  0.2728  0.0107
 9278SOL    HW130727   5.516   3.435   4.288  1.2480  0.0948 -0.7677
 9278SOL    HW230728   5.461   3.294   4.283 -1.2869  0.9542  0.8813
 9279SOL     OW30729   2.261   9.259   5.384 -0.5588 -0.0921 -0.1089
 9279SOL    HW130730   2.352   9.267   5.356 -0.5448 -0.1585 -0.0832
 9279SOL    HW230731   2.217   9.333   5.343  0.0215  1.4985  1.9971
 9280SOL     OW30732   3.516   1.089  10.599  0.2764  0.0610 -0.0320
 9280SOL    HW130733   3.493   1.008  10.554 -1.5603  0.4643  0.0854
 9280SOL    HW230734   3.432   1.135  10.610  1.3476  2.4650 -1.0267
 9281SOL     OW30735   7.873   6.594   2.308 -0.1525 -0.2098  0.1832
 9281SOL    HW130736   7.854   6.553   2.224 -0.4787 -1.2162  0.7263
 9281SOL    HW230737   7.918   6.675   2.286  0.8962 -1.0607 -0.9296
 9282SOL     OW30738   2.868  10.129   0.936  0.2278  0.0850  0.0740
 9282SOL    HW130739   2.920  10.087   0.868 -1.1875 -0.1015 -0.9506
 9282SOL    HW230740   2.802  10.064   0.960  0.2909  0.3950  1.1681
 9283SOL     OW30741   3.957   3.345   8.962 -0.1230  0.6217 -0.0883
 9283SOL    HW130742   3.996   3.350   8.875 -0.5156 -0.3301 -0.3346
 9283SOL    HW230743   3.955   3.435   8.992  1.7575  0.7840 -0.2800
 9284SOL     OW30744   6.942   4.562   6.031  0.1601 -0.1056 -0.3806
 9284SOL    HW130745   6.975   4.507   5.960  0.0373 -1.4468  0.5646
 9284SOL    HW230746   6.885   4.625   5.988  2.9133  1.5099 -1.9323
 9285SOL     OW30747   0.061   7.471   1.399 -0.3092  1.1624  0.3328
 9285SOL    HW130748   0.053   7.425   1.316  0.2376  1.3429  0.1770
 9285SOL    HW230749   0.024   7.411   1.464 -0.9174  1.1057 -0.0622
 9286SOL     OW30750   9.053   1.540   2.284  0.0744 -0.2058 -0.3611
 9286SOL    HW130751   9.070   1.468   2.345  2.7022 -0.4202 -1.2492
 9286SOL    HW230752   9.090   1.617   2.327  0.2597 -0.0065 -0.8702
 9287SOL     OW30753   5.253   3.379   8.750 -0.3036 -0.0153 -0.0282
 9287SOL    HW130754   5.221   3.296   8.785 -1.3341 -0.7574 -2.5353
 9287SOL    HW230755   5.344   3.363   8.726  0.4250  0.5090  2.1552
 9288SOL     OW30756   4.868  10.164   0.076 -0.1851  0.3533 -0.2700
 9288SOL    HW130757   4.835  10.104   0.143  0.2030  0.1826 -0.2248
 9288SOL    HW230758   4.947  10.201   0.114  2.5780 -2.9373 -2.1515
 9289SOL     OW30759   8.546   5.298   9.941 -0.6662 -0.3009 -0.7025
 9289SOL    HW130760   8.560   5.369  10.003  0.0363 -0.9314 -0.1301
 9289SOL    HW230761   8.461   5.260   9.966 -0.9532  0.2078 -0.8923
 9290SOL     OW30762   2.228   9.615  10.294 -0.0673 -0.0220  0.4060
 9290SOL    HW130763   2.165   9.686  10.305 -0.9776 -0.3276 -2.0834
 9290SOL    HW230764   2.208   9.554  10.365 -2.1028  0.2422  0.1302
 9291SOL     OW30765   3.665   4.487   6.562 -0.4230  0.2393 -0.3002
 9291SOL    HW130766   3.670   4.565   6.618  0.5361 -0.1090  0.1212
 9291SOL    HW230767   3.598   4.508   6.497 -1.8797  0.5190  1.2014
 9292SOL     OW30768   4.077   2.686   7.538 -0.2304 -0.1422  0.1757
 9292SOL    HW130769   4.099   2.647   7.454 -0.3526 -0.4711  0.2904
 9292SOL    HW230770   4.110   2.775   7.534  0.0726 -0.2658 -0.0888
 9293SOL     OW30771   6.474   5.467   6.206  0.3439  0.8797  0.2067
 9293SOL    HW130772   6.500   5.376   6.193  0.4467  0.8396  0.6976
 9293SOL    HW230773   6.426   5.467   6.289 -1.8734  0.8036 -0.9854
 9294SOL     OW30774   0.612   5.661   2.943 -0.1929 -0.1099 -0.9288
 9294SOL    HW130775   0.570   5.611   2.873  2.2493  0.4119 -2.8817
 9294SOL    HW230776   0.555   5.737   2.955 -0.4764  0.0015 -2.6620
 9295SOL     OW30777   6.408   9.991   3.431  0.1980  0.2727 -0.1871
 9295SOL    HW130778   6.436  10.065   3.485 -0.5654 -0.1586  0.8547
 9295SOL    HW230779   6.337   9.951   3.481 -0.0029 -0.6330 -1.1570
 9296SOL     OW30780   2.670   2.457   0.547  0.2005  0.3391 -0.0472
 9296SOL    HW130781   2.747   2.478   0.494  0.9878  1.4595  1.4558
 9296SOL    HW230782   2.706   2.423   0.629 -0.9781 -1.2757 -0.1647
 9297SOL     OW30783   8.500   0.257   7.029 -0.3483 -0.2963  0.8168
 9297SOL    HW130784   8.579   0.210   7.057 -0.7136 -1.1921  0.3705
 9297SOL    HW230785   8.503   0.340   7.078  1.1617 -0.0592  0.3954
 9298SOL     OW30786   5.153   6.564   7.342  0.5046  0.9062  0.2409
 9298SOL    HW130787   5.219   6.610   7.290  0.2965  1.0604  0.1108
 9298SOL    HW230788   5.118   6.631   7.401 -1.0917  1.4088 -1.1871
 9299SOL     OW30789   0.805   3.386   9.165 -0.4363 -0.0175  0.2672
 9299SOL    HW130790   0.866   3.322   9.127 -2.5182 -1.1934 -1.2899
 9299SOL    HW230791   0.821   3.467   9.117 -0.7286 -0.5763 -0.7999
 9300SOL     OW30792   7.598   3.005   0.344 -0.2526  0.0647  0.6115
 9300SOL    HW130793   7.660   2.963   0.404  0.5300 -0.1365 -0.3137
 9300SOL    HW230794   7.629   2.982   0.256 -0.2187  1.9340  0.0710
 9301SOL     OW30795   6.239   4.708   9.609  0.3191 -0.7690 -0.2718
 9301SOL    HW130796   6.266   4.790   9.569  0.6445 -0.3586  0.7778
 9301SOL    HW230797   6.281   4.707   9.694 -1.0276 -1.2416  0.4233
 9302SOL     OW30798   1.953   0.210   8.773 -0.0309 -0.0944  0.2574
 9302SOL    HW130799   1.891   0.227   8.703  0.0072  1.9091  0.6616
 9302SOL    HW230800   2.016   0.149   8.735  0.4848  1.6006 -1.7639
 9303SOL     OW30801   4.906   4.166   5.713 -0.2841 -0.5706  0.2575
 9303SOL    HW130802   4.968   4.223   5.668  0.9879 -1.4086  0.8906
 9303SOL    HW230803   4.824   4.216   5.714  0.3039  0.4759 -0.7812
 9304SOL     OW30804   8.913   0.921   6.921  0.5644 -0.0231  0.4253
 9304SOL    HW130805   8.977   0.973   6.969 -0.1055  1.3549 -0.1170
 9304SOL    HW230806   8.838   0.917   6.981  1.0756 -1.5103  1.0018
 9305SOL     OW30807   0.542   2.937   3.908 -0.0909  0.0097 -0.1407
 9305SOL    HW130808   0.594   2.864   3.875 -0.9688 -1.1135  0.8759
 9305SOL    HW230809   0.509   2.907   3.993 -2.7173  0.4656 -0.8957
 9306SOL     OW30810  10.154   9.662   9.625  0.4039  0.1416  0.3819
 9306SOL    HW130811  10.109   9.578   9.626  0.1460  0.2764  0.3138
 9306SOL    HW230812  10.207   9.661   9.545  1.0916 -0.3099  0.8350
 9307SOL     OW30813  10.647   1.283   7.876 -0.0122  0.5640  0.1125
 9307SOL    HW130814  10.571   1.341   7.885 -0.1809  0.4604 -0.5917
 9307SOL    HW230815  10.626   1.228   7.800 -0.5571 -1.4825  1.6351
 9308SOL     OW30816   3.908   0.757   2.921 -0.0261 -0.3185  0.0455
 9308SOL    HW130817   3.963   0.696   2.970 -0.0680  0.8081  1.5614
 9308SOL    HW230818   3.832   0.771   2.978 -0.4826  0.3917 -0.7189
 9309SOL     OW30819  10.301   1.367   9.564 -0.2735 -0.4918  0.1348
 9309SOL    HW130820  10.218   1.338   9.601 -0.3466  0.5942  0.8583
 9309SOL    HW230821  10.279   1.400   9.477 -0.2077 -2.4075 -0.6619
 9310SOL     OW30822   0.320   6.901   0.149 -0.3089  0.1797 -1.1029
 9310SOL    HW130823   0.364   6.816   0.153 -1.5732 -0.7305 -3.7000
 9310SOL    HW230824   0.226   6.879   0.155 -0.6212  1.5325 -0.6533
 9311SOL     OW30825   2.376   3.993   6.814  0.3595  0.2968  0.2785
 9311SOL    HW130826   2.456   4.040   6.790  0.4826 -0.0896 -0.0708
 9311SOL    HW230827   2.342   3.960   6.730  0.0179  0.1758  0.4660
 9312SOL     OW30828   2.429   9.020   1.677 -0.4281  0.1935 -0.1889
 9312SOL    HW130829   2.517   9.019   1.640 -1.1386  0.6029 -2.0183
 9312SOL    HW230830   2.383   8.948   1.632 -1.4362  0.9418 -0.3962
 9313SOL     OW30831   7.899   5.106   8.010 -0.5755  0.5080 -0.3008
 9313SOL    HW130832   7.928   5.016   8.021 -1.0654 -0.0201 -2.6459
 9313SOL    HW230833   7.975   5.159   8.030 -0.2589 -0.4139  1.0421
 9314SOL     OW30834   7.536   7.012   1.825  0.0011  0.0542  0.1765
 9314SOL    HW130835   7.532   6.948   1.897  0.0981  0.4265  0.5170
 9314SOL    HW230836   7.553   6.959   1.747  1.6140 -0.2127  0.6596
 9315SOL     OW30837   4.370   0.734   3.976  0.3583  0.2680 -1.0061
 9315SOL    HW130838   4.296   0.765   4.028  2.1624 -1.4373  3.1235
 9315SOL    HW230839   4.416   0.814   3.949 -0.5955  1.3067  0.3187
 9316SOL     OW30840   4.329   6.104   0.873 -0.5478 -0.1134  0.0672
 9316SOL    HW130841   4.293   6.100   0.961 -1.0349 -2.3109 -0.1635
 9316SOL    HW230842   4.274   6.168   0.827 -1.3066 -0.1269  0.9231
 9317SOL     OW30843   2.557   2.454   6.788 -0.2476 -0.2977  0.2220
 9317SOL    HW130844   2.515   2.533   6.752  0.3382  0.4207  1.0711
 9317SOL    HW230845   2.485   2.404   6.826 -0.7010 -0.4531 -0.7993
 9318SOL     OW30846   2.661   8.697   5.957  0.0427 -0.0440 -0.1040
 9318SOL    HW130847   2.568   8.678   5.965 -0.1871  0.6221 -1.0499
 9318SOL    HW230848   2.682   8.748   6.035 -0.4878  0.2095 -0.1233
 9319SOL     OW30849   2.556   1.748   3.998  0.2142 -0.2114  0.3937
 9319SOL    HW130850   2.637   1.700   4.016  0.9846 -0.4641 -3.0097
 9319SOL    HW230851   2.582   1.815   3.935 -1.4569  2.7855  2.6275
 9320SOL     OW30852   6.229  10.206   4.495  0.1068 -0.2897 -0.5334
 9320SOL    HW130853   6.256  10.293   4.524  1.2569 -0.8087  0.0156
 9320SOL    HW230854   6.181  10.169   4.569 -0.7232  0.0061 -0.9079
 9321SOL     OW30855   3.392   7.048   7.422 -0.0405 -0.5694  0.1072
 9321SOL    HW130856   3.404   6.957   7.394 -0.7047 -1.0555  1.3052
 9321SOL    HW230857   3.474   7.072   7.464 -0.2561 -1.0275  0.8150
 9322SOL     OW30858   3.030   3.972   1.195 -0.2823 -0.4406  0.5134
 9322SOL    HW130859   3.053   3.996   1.284  2.4490 -2.2221  0.3989
 9322SOL    HW230860   2.965   3.902   1.204  1.0121 -1.6087  1.2309
 9323SOL     OW30861  10.286   7.306   4.415 -0.0667  0.3322  0.1636
 9323SOL    HW130862  10.293   7.239   4.347  0.9044  0.5646  0.0226
 9323SOL    HW230863  10.198   7.294   4.451  0.3541 -1.4883  0.6417
 9324SOL     OW30864   8.419   7.083   8.626  0.4016  0.1139 -0.2288
 9324SOL    HW130865   8.400   7.173   8.652  0.6069  0.4239 -1.0872
 9324SOL    HW230866   8.506   7.066   8.662  0.4369  0.3310 -0.2076
 9325SOL     OW30867   5.320   0.943   7.536  0.3170  0.9117  0.0995
 9325SOL    HW130868   5.332   0.900   7.620  4.3707  1.4705 -0.0074
 9325SOL    HW230869   5.353   1.032   7.549 -2.0790  2.1136 -1.3098
 9326SOL     OW30870   7.461  10.209   7.828 -0.1532 -0.0297 -0.4974
 9326SOL    HW130871   7.448  10.121   7.792  1.9789 -1.2021  1.3302
 9326SOL    HW230872   7.401  10.213   7.903 -2.1838  1.1606 -2.0945
 9327SOL     OW30873   3.586   3.136  10.766  0.1254  0.0674  0.2384
 9327SOL    HW130874   3.555   3.124  10.676 -2.4494 -0.1680  1.0913
 9327SOL    HW230875   3.539   3.071  10.817  0.2856  1.2751  2.0146
 9328SOL     OW30876   3.947   0.230   3.692  0.4827  0.4128 -0.0572
 9328SOL    HW130877   3.934   0.200   3.602 -0.9623 -1.7191  0.7754
 9328SOL    HW230878   3.971   0.150   3.740  0.2309  1.3227  1.6366
 9329SOL     OW30879   6.534   4.473   1.830  0.0330 -0.1320 -0.0965
 9329SOL    HW130880   6.572   4.429   1.754  0.4691 -0.3728  0.2520
 9329SOL    HW230881   6.453   4.511   1.798  1.5337  2.2046 -1.4440
 9330SOL     OW30882   0.343   8.715   9.709  0.1555 -0.1018 -0.7183
 9330SOL    HW130883   0.282   8.697   9.637  0.0765 -2.3661 -0.1457
 9330SOL    HW230884   0.297   8.687   9.788  0.5955  1.5067  0.1487
 9331SOL     OW30885   1.455   2.146   0.247 -0.2364 -0.4039  0.6070
 9331SOL    HW130886   1.461   2.054   0.275 -0.3319 -0.5301  0.2193
 9331SOL    HW230887   1.421   2.192   0.324  2.3833 -0.2252  1.7493
 9332SOL     OW30888   3.586  10.601   0.118 -0.1411 -0.3569 -0.5727
 9332SOL    HW130889   3.578  10.565   0.029 -1.0578 -0.5603 -0.4219
 9332SOL    HW230890   3.551  10.533   0.175  1.0788 -0.5078  0.0228
 9333SOL     OW30891   7.785   5.400   3.976  0.3867  0.6345  0.6491
 9333SOL    HW130892   7.710   5.358   3.934  0.0854 -0.2195  1.9781
 9333SOL    HW230893   7.789   5.487   3.936  0.9167 -0.5271 -2.0622
 9334SOL     OW30894   5.270   6.396   1.380  0.3412 -0.0090  0.3061
 9334SOL    HW130895   5.203   6.443   1.330  0.8297 -1.0269 -1.3918
 9334SOL    HW230896   5.353   6.423   1.341  0.7624 -0.6192  0.7652
 9335SOL     OW30897   4.214   1.139  10.140  0.0572  0.4643 -0.2528
 9335SOL    HW130898   4.267   1.064  10.168 -0.9445 -0.0463  0.3141
 9335SOL    HW230899   4.278   1.203  10.110  0.9858 -0.2378  0.1722
 9336SOL     OW30900   2.163   0.678   5.489 -0.5238  0.1492 -0.0587
 9336SOL    HW130901   2.251   0.644   5.501  0.1982  2.0031  0.2500
 9336SOL    HW230902   2.109   0.627   5.550  0.6049 -0.0148  0.8350
 9337SOL     OW30903   8.979   9.995  10.040  0.2618  0.0778 -0.1471
 9337SOL    HW130904   9.068   9.962  10.025 -0.2125 -1.2438 -0.1801
 9337SOL    HW230905   8.936   9.925  10.089 -0.5407  1.0407  0.5435
 9338SOL     OW30906   6.733   0.699   2.268  0.0778  0.3804  0.4255
 9338SOL    HW130907   6.802   0.638   2.294 -0.6987 -0.8641 -0.2939
 9338SOL    HW230908   6.684   0.652   2.200 -1.5002  1.2027  0.9410
 9339SOL     OW30909   2.322   6.765   5.637 -0.0852 -0.6128 -0.2561
 9339SOL    HW130910   2.380   6.691   5.624 -0.1411 -0.7204  0.1282
 9339SOL    HW230911   2.367   6.821   5.699  0.1590 -0.1070 -0.8726
 9340SOL     OW30912   7.048   4.304   7.247  0.0662 -0.4729 -0.3578
 9340SOL    HW130913   7.005   4.338   7.325 -0.2719 -2.6382  0.4721
 9340SOL    HW230914   6.987   4.240   7.211  0.9794 -0.8241 -1.3539
 9341SOL     OW30915   5.945   9.582   7.968 -0.5113  0.2400  0.2303
 9341SOL    HW130916   5.952   9.637   8.046 -1.6786 -0.7170  1.0589
 9341SOL    HW230917   6.030   9.539   7.961 -0.8706 -0.8366  1.9252
 9342SOL     OW30918   0.125   7.627   7.614 -0.6406  0.2107  0.3450
 9342SOL    HW130919   0.089   7.549   7.571 -1.1773  0.3235  0.5724
 9342SOL    HW230920   0.068   7.698   7.584 -0.5006  0.4226  0.5813
 9343SOL     OW30921   4.465   9.838   9.702 -0.0550 -0.3566 -0.1562
 9343SOL    HW130922   4.488   9.913   9.757  1.6093  0.0560 -1.3347
 9343SOL    HW230923   4.508   9.763   9.744 -0.5988 -0.4279  0.2821
 9344SOL     OW30924   2.099   8.079   8.231 -0.2101  0.0986 -0.4160
 9344SOL    HW130925   2.046   8.073   8.310 -1.3799 -0.6585 -1.2188
 9344SOL    HW230926   2.140   7.992   8.222 -0.2451  0.1130 -0.7428
 9345SOL     OW30927   9.573   5.789   9.814 -0.2213 -0.3027  0.5387
 9345SOL    HW130928   9.618   5.710   9.784  1.2449 -0.3682  2.6939
 9345SOL    HW230929   9.480   5.769   9.803  0.1651 -1.5529 -0.7500
 9346SOL     OW30930   8.397  10.796   9.162 -0.1040 -0.2493  0.0321
 9346SOL    HW130931   8.351  10.718   9.131  1.1691 -0.0116 -2.8240
 9346SOL    HW230932   8.333  10.866   9.154 -0.6151 -0.6455  0.5771
 9347SOL     OW30933   9.258   8.591   4.793 -0.3785  0.4345  0.0301
 9347SOL    HW130934   9.337   8.554   4.832  0.3655  2.6575  0.8030
 9347SOL    HW230935   9.291   8.647   4.722 -1.3956  0.1527 -0.6876
 9348SOL     OW30936   3.696   1.725   7.227 -0.3701  0.5602 -0.3415
 9348SOL    HW130937   3.717   1.679   7.308 -0.5075 -0.7171 -1.0089
 9348SOL    HW230938   3.618   1.777   7.248 -0.7554 -0.2186  0.1844
 9349SOL     OW30939   0.118   0.563   9.476 -0.1378  0.3453  0.4601
 9349SOL    HW130940   0.068   0.612   9.542 -0.8750 -1.6647  1.4948
 9349SOL    HW230941   0.192   0.527   9.524  0.2962  0.3196 -0.2232
 9350SOL     OW30942   3.979   5.067   4.328  0.3992 -0.0512 -0.5294
 9350SOL    HW130943   3.989   5.016   4.248  0.5505  1.2163 -1.3548
 9350SOL    HW230944   3.943   5.006   4.392  0.6708 -1.1950 -1.4425
 9351SOL     OW30945   3.862   4.966   8.577 -0.8273 -0.2961 -0.3418
 9351SOL    HW130946   3.805   5.034   8.614 -0.5315 -0.3044  0.1381
 9351SOL    HW230947   3.802   4.900   8.544 -1.1198  0.1972 -0.8103
 9352SOL     OW30948   3.000   9.590   6.536  0.2308  0.0971 -0.5619
 9352SOL    HW130949   2.956   9.531   6.474  0.3700  0.5039 -1.0558
 9352SOL    HW230950   3.086   9.605   6.497  0.2631  0.4850 -0.3467
 9353SOL     OW30951   3.716  10.370   7.396  0.3302  0.2944  0.9711
 9353SOL    HW130952   3.682  10.289   7.435  0.1944 -0.2621 -0.2492
 9353SOL    HW230953   3.650  10.395   7.331  0.2991  1.4792  1.4336
 9354SOL     OW30954   7.633   4.187   6.977  0.0010  0.0818 -0.6814
 9354SOL    HW130955   7.703   4.206   7.039 -1.1234  0.6688  0.4410
 9354SOL    HW230956   7.648   4.249   6.905 -0.0330  0.9864  0.0804
 9355SOL     OW30957   4.245   7.929   5.161 -0.6341  0.1383 -0.0637
 9355SOL    HW130958   4.228   7.997   5.096 -0.3995  0.2140 -0.0446
 9355SOL    HW230959   4.312   7.966   5.218  0.6960 -0.7456 -1.0146
 9356SOL     OW30960   5.339   7.863   1.398  0.0387  0.5357 -0.6630
 9356SOL    HW130961   5.376   7.781   1.366 -0.2591  0.3427 -0.5043
 9356SOL    HW230962   5.345   7.922   1.323  0.3434  0.3997 -0.7470
 9357SOL     OW30963   3.867   8.246   9.879 -0.4660 -0.2853 -0.6731
 9357SOL    HW130964   3.959   8.243   9.903 -0.4032 -1.2688 -0.9862
 9357SOL    HW230965   3.827   8.172   9.925 -1.5617  1.3709  1.1998
 9358SOL     OW30966   7.008   8.198   0.383 -0.4328  0.1938  0.3872
 9358SOL    HW130967   6.936   8.173   0.326  0.0047  0.7022 -0.4086
 9358SOL    HW230968   7.077   8.226   0.323 -0.9587  3.5403  1.1659
 9359SOL     OW30969   4.521   8.005   9.424  0.1994 -0.2044  0.4214
 9359SOL    HW130970   4.499   8.096   9.403  0.9158  0.0159  0.5938
 9359SOL    HW230971   4.599   8.012   9.479  1.1381 -0.9795 -0.7572
 9360SOL     OW30972  10.661   7.811   3.255  0.6574 -0.1070  0.4252
 9360SOL    HW130973  10.716   7.867   3.310  0.5415 -0.8941  1.3558
 9360SOL    HW230974  10.694   7.825   3.166  0.7411  1.3089  0.6534
 9361SOL     OW30975  10.164   7.265   2.491  0.3531 -0.1593 -0.2929
 9361SOL    HW130976  10.244   7.309   2.520  0.4683 -0.4561 -0.1553
 9361SOL    HW230977  10.194   7.207   2.420  0.0776  0.5522 -1.0129
 9362SOL     OW30978   5.463   9.546   8.351  0.6423  0.3341 -0.2530
 9362SOL    HW130979   5.507   9.505   8.425  0.4787  1.6270  0.6176
 9362SOL    HW230980   5.512   9.519   8.274  0.8694 -0.9804  0.3307
 9363SOL     OW30981   9.670   7.857   0.817 -0.2434  0.1753  0.1001
 9363SOL    HW130982   9.764   7.859   0.833 -0.2917  1.1780  0.3397
 9363SOL    HW230983   9.650   7.942   0.778 -1.1930  0.3540  0.9173
 9364SOL     OW30984   3.917   0.262   5.436  0.0672 -0.1445  0.5010
 9364SOL    HW130985   3.862   0.340   5.425 -1.3063 -1.2329 -0.7872
 9364SOL    HW230986   3.906   0.238   5.528  0.4003  1.0778  0.8758
 9365SOL     OW30987   9.538   8.487   5.668 -0.0918  0.2051  0.2485
 9365SOL    HW130988   9.555   8.433   5.745  1.2304  2.3196  1.5417
 9365SOL    HW230989   9.601   8.457   5.603 -0.7219 -1.1026  0.1982
 9366SOL     OW30990   7.518   3.860   8.169 -0.3907  0.2954 -0.1586
 9366SOL    HW130991   7.551   3.781   8.212  1.2314  0.8820 -0.2230
 9366SOL    HW230992   7.481   3.913   8.240 -0.2533  0.0549  0.0954
 9367SOL     OW30993   2.833  10.597   6.343 -0.2552  0.0643  0.0843
 9367SOL    HW130994   2.781  10.620   6.421 -0.5971  0.2439 -0.1916
 9367SOL    HW230995   2.822  10.672   6.284  2.7439  1.5230  1.1751
 9368SOL     OW30996  10.054   3.175   9.621  0.2296 -0.2419 -0.1975
 9368SOL    HW130997  10.032   3.154   9.530 -0.9624  1.1409 -0.2747
 9368SOL    HW230998  10.085   3.266   9.617 -0.6291  0.1180  0.8803
 9369SOL     OW30999   2.923   4.135  10.126  0.0258 -0.2949 -0.0008
 9369SOL    HW131000   2.968   4.078  10.063  0.4232 -0.4521  0.4177
 9369SOL    HW231001   2.981   4.211  10.135 -0.4389  0.1135 -0.4560
 9370SOL     OW31002   8.912   6.649   1.867  0.4104 -0.4906  0.4286
 9370SOL    HW131003   8.935   6.742   1.862 -0.6635 -0.2416 -0.1264
 9370SOL    HW231004   8.827   6.648   1.910  0.0906 -1.1658 -0.2058
 9371SOL     OW31005  10.079   0.325  10.011 -0.3851 -0.9380  0.0040
 9371SOL    HW131006  10.010   0.390  10.000 -0.4353 -0.9234  0.3902
 9371SOL    HW231007  10.055   0.254   9.952 -0.8411 -1.0226  0.2827
 9372SOL     OW31008   1.704   3.956   2.793  1.0400  0.2982  0.4123
 9372SOL    HW131009   1.796   3.976   2.775  0.3060  1.7148 -2.4238
 9372SOL    HW231010   1.688   3.874   2.746  0.7862  0.2460  0.5921
 9373SOL     OW31011   3.972   7.874   9.298 -0.4881  0.5064  0.0271
 9373SOL    HW131012   3.885   7.866   9.259 -0.3831 -2.8196  0.2128
 9373SOL    HW231013   3.987   7.790   9.341  1.6818  2.0163  2.5128
 9374SOL     OW31014   3.808   1.499   6.859 -0.3436 -1.0596  0.2889
 9374SOL    HW131015   3.725   1.455   6.840 -1.2625  0.7903 -0.1763
 9374SOL    HW231016   3.810   1.506   6.954 -1.4984  0.2629  0.2410
 9375SOL     OW31017   5.106   4.853   2.454  0.0601  0.2011  0.1370
 9375SOL    HW131018   5.184   4.830   2.404  0.5571  1.1595  0.4375
 9375SOL    HW231019   5.055   4.773   2.457  1.4147 -0.6823  0.6355
 9376SOL     OW31020   7.360   3.072   4.354 -0.1433  0.2132  0.1625
 9376SOL    HW131021   7.285   3.109   4.307 -0.1759  0.9695  0.7814
 9376SOL    HW231022   7.406   3.148   4.390  0.5187 -0.2829  0.3957
 9377SOL     OW31023   2.290   6.410   6.771 -0.2143 -0.1267 -0.0016
 9377SOL    HW131024   2.363   6.354   6.741 -1.2784 -1.1505 -0.7714
 9377SOL    HW231025   2.214   6.376   6.724 -1.0915  1.3113  0.3398
 9378SOL     OW31026  10.393   8.033   4.009 -0.0842 -0.4014 -0.4158
 9378SOL    HW131027  10.368   7.960   4.064 -1.0478  1.0019  1.1084
 9378SOL    HW231028  10.401   7.996   3.921 -0.5022 -2.3081  0.3165
 9379SOL     OW31029   4.519   6.510   8.751 -0.3390 -0.3854  0.2779
 9379SOL    HW131030   4.575   6.467   8.685 -1.2435 -2.4335  0.7532
 9379SOL    HW231031   4.566   6.589   8.774  0.6082 -0.2197 -1.9336
 9380SOL     OW31032   4.201   0.629   0.979 -0.0312 -0.0695 -0.5697
 9380SOL    HW131033   4.204   0.636   0.883 -0.0135  0.3294 -0.5404
 9380SOL    HW231034   4.206   0.720   1.010 -1.1899 -0.1072 -0.2224
 9381SOL     OW31035   6.924   1.941   4.859 -0.7855  0.4389  0.4017
 9381SOL    HW131036   6.929   2.027   4.900 -2.1211  0.3187  0.8881
 9381SOL    HW231037   6.833   1.914   4.872 -0.1228 -1.5305  1.2475
 9382SOL     OW31038   9.826   7.306   6.524 -0.2559  0.2108  0.2686
 9382SOL    HW131039   9.798   7.319   6.614  0.5606 -0.1919  0.5826
 9382SOL    HW231040   9.777   7.228   6.495 -1.8281  1.3132 -0.2190
 9383SOL     OW31041   8.338   7.844   6.895 -0.5717 -0.6837  0.0562
 9383SOL    HW131042   8.262   7.897   6.873  0.1154  0.7811  1.1051
 9383SOL    HW231043   8.355   7.793   6.815 -1.4813  0.3730 -0.8427
 9384SOL     OW31044   3.862   4.162   1.197 -0.1588 -0.1361 -0.0329
 9384SOL    HW131045   3.827   4.116   1.274  0.6729 -1.4345 -0.3867
 9384SOL    HW231046   3.853   4.098   1.126  0.6515  0.4073 -0.6378
 9385SOL     OW31047   9.187   5.901   4.569 -0.5388  0.0807  0.2357
 9385SOL    HW131048   9.168   5.965   4.638 -2.0579 -1.1543  1.0379
 9385SOL    HW231049   9.106   5.896   4.518 -1.0451 -2.2937  1.1463
 9386SOL     OW31050   6.384   9.634   3.277 -0.1553 -0.3529  0.5233
 9386SOL    HW131051   6.385   9.600   3.187 -2.0857  0.6364  0.0670
 9386SOL    HW231052   6.291   9.648   3.296  0.3796  2.5691  1.4665
 9387SOL     OW31053   4.644   1.621   7.405 -0.3452  0.0199 -0.2496
 9387SOL    HW131054   4.630   1.666   7.488  0.3866 -0.6845  0.2681
 9387SOL    HW231055   4.710   1.675   7.360  1.3543 -1.0692  0.8363
 9388SOL     OW31056  10.085   4.410   1.652 -0.4058  0.7492  0.4794
 9388SOL    HW131057  10.134   4.475   1.702  1.1469 -1.6325  2.2885
 9388SOL    HW231058   9.998   4.409   1.693  0.5361 -0.4524  2.6338
 9389SOL     OW31059   2.232   6.102  10.549  0.0643 -0.1257 -0.2742
 9389SOL    HW131060   2.275   6.033  10.499 -0.4294 -0.7196  0.0940
 9389SOL    HW231061   2.268   6.183  10.515 -1.7815 -0.3634 -3.0810
 9390SOL     OW31062   8.631   8.737   1.746 -0.5883 -0.3275 -0.6677
 9390SOL    HW131063   8.583   8.778   1.818 -0.4586 -1.5332  0.1391
 9390SOL    HW231064   8.576   8.751   1.669 -0.0432  2.3075 -0.6976
 9391SOL     OW31065   6.555   0.951   5.546 -0.1742  0.1225 -0.3013
 9391SOL    HW131066   6.532   0.995   5.464 -0.7452  1.2697  0.4430
 9391SOL    HW231067   6.501   0.994   5.612 -0.8025 -1.7482  0.4780
 9392SOL     OW31068   0.852  10.307   6.596 -0.5074  0.3615  0.0576
 9392SOL    HW131069   0.783  10.357   6.639  0.2866  1.1930  0.4058
 9392SOL    HW231070   0.920  10.371   6.577  2.0807 -0.9807  3.5459
 9393SOL     OW31071   3.755  10.260  10.564 -0.2666  0.3923  0.5761
 9393SOL    HW131072   3.710  10.178  10.543  0.8220 -0.3097  0.9053
 9393SOL    HW231073   3.692  10.329  10.542 -1.7870 -0.5648  1.7270
 9394SOL     OW31074   7.454  10.648   8.381  0.3852 -0.0368 -0.1386
 9394SOL    HW131075   7.491  10.587   8.317  1.4189 -0.3953  0.7728
 9394SOL    HW231076   7.402  10.594   8.439  0.3900  0.1127  0.0049
 9395SOL     OW31077   1.508   0.514  10.002  0.0399 -0.2084 -0.2313
 9395SOL    HW131078   1.454   0.490  10.077 -0.1046 -0.0457 -0.2830
 9395SOL    HW231079   1.596   0.524  10.038  0.1748 -1.1512 -0.2695
 9396SOL     OW31080   2.151   3.352   1.485  0.0950 -0.1317 -0.7408
 9396SOL    HW131081   2.134   3.331   1.576  0.0910 -2.7339 -1.2770
 9396SOL    HW231082   2.157   3.267   1.441  1.2676  1.0116 -2.9583
 9397SOL     OW31083   2.290   3.589   7.660  0.3801 -0.6479 -0.4888
 9397SOL    HW131084   2.305   3.528   7.732  0.3238 -0.2061 -0.0995
 9397SOL    HW231085   2.222   3.547   7.607 -2.2390  0.6340  1.6588
 9398SOL     OW31086  10.052  10.182   9.893 -0.1453 -0.5121  0.2786
 9398SOL    HW131087   9.987  10.111   9.893  0.9375 -1.5398  1.2587
 9398SOL    HW231088  10.025  10.239   9.820 -0.7572 -2.1829 -0.8519
 9399SOL     OW31089   0.078  10.231   9.360  0.0555  0.2039 -0.1725
 9399SOL    HW131090   0.096  10.298   9.295  0.4136 -0.7272 -1.0506
 9399SOL    HW231091  -0.011  10.250   9.390  0.7369  2.0527  0.8161
 9400SOL     OW31092   9.389   2.854   4.341  0.3664 -0.3228  0.1922
 9400SOL    HW131093   9.451   2.795   4.384  0.1290 -1.0196 -0.4085
 9400SOL    HW231094   9.437   2.936   4.331  1.1747 -0.8293 -0.1909
 9401SOL     OW31095   9.815   0.160  10.023 -0.0499 -0.2904  0.4089
 9401SOL    HW131096   9.835   0.172  10.116 -1.9692 -1.4074  1.0066
 9401SOL    HW231097   9.726   0.126  10.021 -1.6038  3.2577 -1.9989
 9402SOL     OW31098   9.857   8.441   1.437  0.3419  0.2898 -0.0222
 9402SOL    HW131099   9.932   8.390   1.466  0.6659  0.9127  0.2492
 9402SOL    HW231100   9.804   8.455   1.516 -0.8115 -1.3433 -0.4515
 9403SOL     OW31101   3.356   1.677   1.356 -0.2818  0.1589 -0.1033
 9403SOL    HW131102   3.315   1.731   1.424 -1.4815  1.6228 -1.8786
 9403SOL    HW231103   3.309   1.594   1.359  0.7435 -0.4054  1.8472
 9404SOL     OW31104  10.265   1.464   1.217  0.8387  0.0471  0.5681
 9404SOL    HW131105  10.357   1.447   1.237  0.9147  0.9329  1.0233
 9404SOL    HW231106  10.244   1.544   1.265 -0.3313 -0.4533  0.9479
 9405SOL     OW31107   8.890   3.683   6.921 -0.5885  0.2395  0.6878
 9405SOL    HW131108   8.888   3.726   6.836 -0.5565  2.3024  1.6856
 9405SOL    HW231109   8.867   3.751   6.984  2.8421 -0.2543  2.7165
 9406SOL     OW31110   5.880   5.634   4.603  0.0730  0.3196  0.2120
 9406SOL    HW131111   5.934   5.647   4.525  1.6421  1.7935  1.4866
 9406SOL    HW231112   5.940   5.641   4.677 -1.9066  3.0112  1.7601
 9407SOL     OW31113   2.310   2.779   9.681  0.2629 -0.2644 -0.4177
 9407SOL    HW131114   2.306   2.686   9.657 -1.3162 -0.1537 -0.7105
 9407SOL    HW231115   2.281   2.825   9.603  0.6281  0.4462 -0.1354
 9408SOL     OW31116   8.365   2.859   8.046  1.0024  0.2460 -0.1282
 9408SOL    HW131117   8.334   2.920   7.979 -0.6879 -0.5614 -0.1244
 9408SOL    HW231118   8.442   2.902   8.084 -1.1724  3.3051  1.1693
 9409SOL     OW31119   5.380   9.950   7.298 -0.5775  0.3582 -0.4576
 9409SOL    HW131120   5.458   9.894   7.298 -0.9455 -0.1644  0.0309
 9409SOL    HW231121   5.359   9.961   7.391 -1.4921 -0.0829 -0.6024
 9410SOL     OW31122   0.869   1.547   1.854 -0.4781  0.1010  0.1721
 9410SOL    HW131123   0.842   1.555   1.946 -1.0062 -1.2330  0.1502
 9410SOL    HW231124   0.788   1.562   1.804 -0.3151  0.2283 -0.0524
 9411SOL     OW31125  10.783   3.111   3.037  0.1837 -0.2276  0.4472
 9411SOL    HW131126  10.715   3.110   2.970  0.8498  1.1944 -0.2954
 9411SOL    HW231127  10.841   3.183   3.012  0.9265 -0.1985  2.0896
 9412SOL     OW31128   9.662   9.248   0.209 -0.4891  0.0881 -0.1715
 9412SOL    HW131129   9.663   9.318   0.144  2.1276  1.4596  1.1998
 9412SOL    HW231130   9.690   9.170   0.161  1.7992  1.1580 -0.7201
 9413SOL     OW31131   8.899   7.855   0.273  0.1782  0.5208  0.3414
 9413SOL    HW131132   8.913   7.763   0.296  0.1875  0.4958  0.2397
 9413SOL    HW231133   8.823   7.853   0.214  0.4237  0.5331  0.0195
 9414SOL     OW31134   7.274   8.153   3.237 -0.2334  0.0074 -0.2317
 9414SOL    HW131135   7.205   8.134   3.301 -0.3411  1.8784  0.2460
 9414SOL    HW231136   7.356   8.144   3.286 -0.3164  1.4549  0.2055
 9415SOL     OW31137   1.164   8.639   9.295 -0.2114 -0.1346 -0.9777
 9415SOL    HW131138   1.114   8.589   9.230 -1.0949 -0.5033 -0.0419
 9415SOL    HW231139   1.140   8.600   9.379  0.8709  0.3684 -0.4194
 9416SOL     OW31140   8.679   5.625   3.761 -0.0387  0.1024  0.3175
 9416SOL    HW131141   8.688   5.531   3.777  1.8780  0.2092  0.0725
 9416SOL    HW231142   8.741   5.666   3.821 -1.5145  1.3116  1.0988
 9417SOL     OW31143   6.876   2.154   5.746 -0.0741  0.0601 -0.1564
 9417SOL    HW131144   6.893   2.220   5.814 -0.1580  0.7788 -0.8246
 9417SOL    HW231145   6.963   2.134   5.710 -0.0235 -0.3598  0.1944
 9418SOL     OW31146   3.188   3.004   7.084 -1.1139 -0.2760 -0.1917
 9418SOL    HW131147   3.246   3.075   7.112 -0.7423 -0.1421 -1.2571
 9418SOL    HW231148   3.203   2.934   7.147  0.3181 -0.2947 -0.5302
 9419SOL     OW31149   7.992   9.360   3.202  0.1898  0.5260  0.1924
 9419SOL    HW131150   7.957   9.272   3.189  1.5830  0.0142 -0.2154
 9419SOL    HW231151   7.974   9.380   3.294 -0.5410  0.0163  0.1709
 9420SOL     OW31152  10.432   2.494   5.599 -0.4102  0.2184 -0.7062
 9420SOL    HW131153  10.505   2.555   5.583  0.3240 -0.2538  0.6709
 9420SOL    HW231154  10.440   2.430   5.529 -0.1343  0.7409 -1.1679
 9421SOL     OW31155   0.342   0.814   5.467  0.2928 -0.1690 -0.0333
 9421SOL    HW131156   0.318   0.895   5.422 -0.3797  0.1555  0.8824
 9421SOL    HW231157   0.378   0.843   5.550 -1.2288 -0.8190  0.8959
 9422SOL     OW31158   2.661   5.856   8.508  0.1464 -0.1402  0.3807
 9422SOL    HW131159   2.637   5.811   8.427  1.5299 -0.3306  0.0474
 9422SOL    HW231160   2.668   5.948   8.484 -0.5152 -0.0382  0.5525
 9423SOL     OW31161   7.999   4.281   0.615  0.2653  0.4773 -0.3370
 9423SOL    HW131162   7.976   4.302   0.705  1.4700 -0.8929  0.3338
 9423SOL    HW231163   7.982   4.187   0.607  1.3547  0.3225 -1.1330
 9424SOL     OW31164   9.946   2.920   0.545 -0.2243  0.1766  0.3882
 9424SOL    HW131165   9.925   2.826   0.544  0.3694  0.0184 -1.1113
 9424SOL    HW231166   9.963   2.940   0.453  0.2561  1.6281  0.7808
 9425SOL     OW31167   7.539  10.422  10.711  0.1366 -0.2050 -0.3248
 9425SOL    HW131168   7.462  10.469  10.680  0.5401  1.3166  0.8074
 9425SOL    HW231169   7.504  10.352  10.766 -0.5949  2.5763  3.1865
 9426SOL     OW31170   0.253   1.211   2.743 -0.5748 -0.2641 -0.2143
 9426SOL    HW131171   0.247   1.296   2.787 -1.9786 -0.0304 -0.7954
 9426SOL    HW231172   0.166   1.171   2.756  0.2653 -1.9265  0.6423
 9427SOL     OW31173   1.709   2.471   0.224  0.0644  0.7427 -0.1541
 9427SOL    HW131174   1.650   2.448   0.153 -0.9583  1.4685  0.4308
 9427SOL    HW231175   1.756   2.548   0.193  0.3233  0.4780 -0.4180
 9428SOL     OW31176   1.948   5.173  10.132 -0.2379  0.0917  0.1510
 9428SOL    HW131177   2.019   5.193  10.193 -1.1951  0.1290  1.2805
 9428SOL    HW231178   1.881   5.239  10.150 -0.8150 -0.2989 -0.4953
 9429SOL     OW31179   9.494   9.814   8.597 -0.4680 -0.3745  0.0114
 9429SOL    HW131180   9.580   9.847   8.569 -0.8701  0.0270 -0.8011
 9429SOL    HW231181   9.513   9.733   8.644  0.3339 -0.4548 -0.4357
 9430SOL     OW31182   1.184   7.096   0.521 -0.4612  0.4483  0.1921
 9430SOL    HW131183   1.271   7.114   0.484  0.0679  0.4813  1.4234
 9430SOL    HW231184   1.137   7.054   0.449  1.4389 -2.0424  0.2518
 9431SOL     OW31185   1.223   9.683   5.885  0.0186  0.3784  0.2447
 9431SOL    HW131186   1.203   9.594   5.857 -0.9789  0.3911  0.8585
 9431SOL    HW231187   1.141   9.715   5.924  1.2434  0.3767  3.1026
 9432SOL     OW31188   8.027   3.543   3.951 -0.7379 -0.0670  0.5792
 9432SOL    HW131189   7.973   3.614   3.984  0.4685  0.0369  2.4606
 9432SOL    HW231190   7.994   3.465   3.994  1.0038  0.1058  2.3949
 9433SOL     OW31191   7.998   0.643   2.619 -0.3324 -0.0535  0.4921
 9433SOL    HW131192   7.993   0.667   2.711 -0.5997 -0.3071  0.5467
 9433SOL    HW231193   8.085   0.671   2.591 -0.4640  0.5410  0.6693
 9434SOL     OW31194   9.953   1.462   6.500 -0.2959 -0.2966  0.0561
 9434SOL    HW131195   9.992   1.438   6.584  1.1366 -0.0682 -0.5027
 9434SOL    HW231196  10.004   1.413   6.436 -0.5403  0.4832 -0.7593
 9435SOL     OW31197   9.116   8.498   3.705  0.1407 -0.0989  0.0923
 9435SOL    HW131198   9.082   8.510   3.616 -0.4873 -1.4867  0.1184
 9435SOL    HW231199   9.205   8.466   3.693  0.3975  0.6463 -0.0161
 9436SOL     OW31200   4.830   0.024   5.250  0.1044 -0.4139 -0.8724
 9436SOL    HW131201   4.767   0.092   5.228 -0.6910 -1.3608 -1.6194
 9436SOL    HW231202   4.828  -0.036   5.176  1.1134 -1.0333 -0.4333
 9437SOL     OW31203   6.768   7.507   9.808  0.5807 -0.1500  0.0945
 9437SOL    HW131204   6.753   7.423   9.765 -1.4503  0.7725 -1.1711
 9437SOL    HW231205   6.703   7.509   9.879 -1.6688  1.5662 -1.8608
 9438SOL     OW31206   1.310   1.844   6.976  0.4886  0.1741  0.4527
 9438SOL    HW131207   1.254   1.908   7.020 -0.3836  0.5084 -1.0726
 9438SOL    HW231208   1.334   1.886   6.894  0.3195 -1.2587 -0.3626
 9439SOL     OW31209   4.542   8.842   2.610  0.5050 -0.0246  0.2686
 9439SOL    HW131210   4.564   8.799   2.692  0.7933 -0.8786 -0.2372
 9439SOL    HW231211   4.447   8.832   2.602  0.7756 -2.7674 -0.9617
 9440SOL     OW31212   4.409   4.663   8.698 -0.1118 -0.1357 -0.2097
 9440SOL    HW131213   4.456   4.662   8.782  2.0136  0.1552 -1.3120
 9440SOL    HW231214   4.426   4.750   8.662  0.4215 -0.7914 -1.6455
 9441SOL     OW31215   1.645   6.327   8.410 -0.3234  0.0442 -0.0676
 9441SOL    HW131216   1.592   6.307   8.333  0.5221 -2.2443 -0.1497
 9441SOL    HW231217   1.612   6.267   8.478 -0.3696  1.2924  1.0523
 9442SOL     OW31218   9.752  10.324   2.267  1.1042  0.1814 -0.4002
 9442SOL    HW131219   9.793  10.246   2.229  0.3024 -1.0609  1.1659
 9442SOL    HW231220   9.684  10.348   2.205  0.2396 -1.4098 -0.1243
 9443SOL     OW31221   8.730   8.130  10.770 -0.2643  0.3357  0.5223
 9443SOL    HW131222   8.741   8.078  10.690 -1.5167  0.0478  0.5146
 9443SOL    HW231223   8.640   8.113  10.797  0.3741 -0.2152  2.4585
 9444SOL     OW31224   5.581   6.887   9.758  0.1401 -0.2585 -0.4793
 9444SOL    HW131225   5.590   6.973   9.799  2.8699 -0.0418 -1.3289
 9444SOL    HW231226   5.597   6.903   9.665  2.4063 -1.8614 -0.4292
 9445SOL     OW31227   8.767   0.107   9.847  0.4381  0.5173 -0.0944
 9445SOL    HW131228   8.859   0.094   9.872  0.9577  0.9069 -1.6518
 9445SOL    HW231229   8.752   0.200   9.860 -0.2791  0.1876  1.7330
 9446SOL     OW31230   6.503   1.768   4.058 -0.4643 -0.1899 -0.3275
 9446SOL    HW131231   6.543   1.769   3.971  0.4917 -1.3221  0.0703
 9446SOL    HW231232   6.554   1.831   4.108 -0.7883  0.2033 -0.4916
 9447SOL     OW31233   3.391   8.847   8.033  0.7373  0.3381  0.0738
 9447SOL    HW131234   3.445   8.865   7.956 -0.4174 -0.2788 -0.9317
 9447SOL    HW231235   3.350   8.762   8.013 -0.6464  0.8249  0.7356
 9448SOL     OW31236   9.342   4.879   0.045  0.1249  0.3463  0.6428
 9448SOL    HW131237   9.309   4.969   0.048  0.4363  0.4922 -0.2260
 9448SOL    HW231238   9.263   4.825   0.037  0.0277  0.6654 -0.8608
 9449SOL     OW31239   4.472   9.622   8.026  0.1457  0.3158 -0.2376
 9449SOL    HW131240   4.432   9.541   8.057 -0.7162  0.7137 -0.2627
 9449SOL    HW231241   4.398   9.684   8.020  0.8834  1.2864  0.3885
 9450SOL     OW31242   9.971   8.618  10.159  0.1493 -0.2304 -0.2610
 9450SOL    HW131243   9.899   8.572  10.115  0.0047  1.1017 -1.5035
 9450SOL    HW231244   9.955   8.604  10.252 -1.1022 -0.8870 -0.5498
 9451SOL     OW31245   8.741   0.433   2.679  0.1726 -0.3775 -0.0834
 9451SOL    HW131246   8.670   0.495   2.662 -1.1210 -1.9650 -0.7196
 9451SOL    HW231247   8.776   0.413   2.592  1.5306  0.4798  0.2318
 9452SOL     OW31248   8.903   2.154   7.300  0.6448  0.5574 -0.1864
 9452SOL    HW131249   8.965   2.176   7.370 -0.4306  0.0808  0.9333
 9452SOL    HW231250   8.914   2.060   7.286  1.5396  0.8019 -1.3731
 9453SOL     OW31251   0.284   5.868   1.818  0.1081 -0.2576  0.7242
 9453SOL    HW131252   0.245   5.935   1.762  0.7282 -0.1597  0.3995
 9453SOL    HW231253   0.332   5.916   1.885  1.0633 -0.3556  0.1339
 9454SOL     OW31254   1.006   7.426   3.642 -0.0304 -0.1128  0.3389
 9454SOL    HW131255   1.092   7.467   3.649 -0.7017  1.1364  2.1679
 9454SOL    HW231256   0.974   7.423   3.732 -0.6606 -3.3848  0.1184
 9455SOL     OW31257   5.830  10.200   1.381 -0.3340  0.0214 -0.7518
 9455SOL    HW131258   5.847  10.237   1.295 -0.6627 -0.3347 -0.9713
 9455SOL    HW231259   5.793  10.113   1.364  0.1469 -0.2940 -0.2507
 9456SOL     OW31260   8.050   7.893   6.898  0.0312 -0.0506  0.0733
 9456SOL    HW131261   8.023   7.891   6.990  1.2255 -0.2225  0.4439
 9456SOL    HW231262   8.035   7.804   6.867  1.5889 -0.5869  0.7364
 9457SOL     OW31263   6.927   4.461   7.691 -0.2699 -0.0641 -0.0565
 9457SOL    HW131264   6.976   4.384   7.721 -0.1331 -0.7917 -2.0226
 9457SOL    HW231265   6.951   4.471   7.599  0.0670  2.6419  0.2300
 9458SOL     OW31266   5.396   4.141   4.161  0.3140  0.2806 -0.0707
 9458SOL    HW131267   5.385   4.134   4.256 -0.3404  1.0912 -0.0729
 9458SOL    HW231268   5.344   4.218   4.136 -1.3076 -1.1663 -1.3844
 9459SOL     OW31269   9.875   4.834   1.078 -0.1725 -0.7131 -0.0196
 9459SOL    HW131270   9.950   4.832   1.018 -1.1212 -0.9090 -1.2256
 9459SOL    HW231271   9.885   4.917   1.125  0.2752 -0.2637 -0.8725
 9460SOL     OW31272   4.002   0.566   3.093  0.2269  0.0936 -0.3919
 9460SOL    HW131273   4.046   0.590   3.175  0.0424 -0.1998 -0.2051
 9460SOL    HW231274   3.941   0.497   3.118 -0.1745  0.3355 -0.6917
 9461SOL     OW31275   1.233  10.567   5.478 -0.1776 -0.1151  0.4838
 9461SOL    HW131276   1.245  10.503   5.408 -1.0152 -1.0063  1.1327
 9461SOL    HW231277   1.320  10.577   5.516 -0.1060 -1.1940  0.6378
 9462SOL     OW31278   7.896   0.408   3.225  0.1138 -0.2718  0.2377
 9462SOL    HW131279   7.915   0.334   3.283  0.7500 -0.4806 -0.2230
 9462SOL    HW231280   7.968   0.469   3.241 -0.0629 -0.0379  0.1420
 9463SOL     OW31281   1.981   6.408   5.832 -0.1809  0.0716 -0.8440
 9463SOL    HW131282   1.958   6.341   5.767  0.1515  0.4629 -1.3699
 9463SOL    HW231283   1.987   6.489   5.782 -1.2078  0.6260 -0.1189
 9464SOL     OW31284   5.291   5.765   0.045  0.2467 -0.1989 -0.7352
 9464SOL    HW131285   5.204   5.768   0.085 -0.0163 -0.1397 -1.2954
 9464SOL    HW231286   5.351   5.754   0.119  0.0040  2.4173 -0.0651
 9465SOL     OW31287   9.885   7.123   5.662 -0.3345  0.3518  0.1351
 9465SOL    HW131288   9.859   7.215   5.657  0.0654  0.4011 -1.5352
 9465SOL    HW231289   9.971   7.125   5.703  0.4296  0.9195 -1.4046
 9466SOL     OW31290   4.449   8.797   3.838  0.2844  0.0462 -0.4887
 9466SOL    HW131291   4.438   8.756   3.752 -0.0329  0.4830 -0.6577
 9466SOL    HW231292   4.465   8.724   3.897 -0.8739 -0.3902 -0.6807
 9467SOL     OW31293   0.352   4.981   1.825  0.1789 -0.1602 -0.1549
 9467SOL    HW131294   0.347   5.050   1.891  1.8793 -1.4344  1.4272
 9467SOL    HW231295   0.406   5.018   1.755  1.2736  0.0495  0.7845
 9468SOL     OW31296   2.331  10.064   1.485  0.2466  0.2655 -1.1078
 9468SOL    HW131297   2.397  10.071   1.554 -1.6211  0.2667  0.7677
 9468SOL    HW231298   2.256  10.113   1.518 -1.3348 -1.1623 -2.3725
 9469SOL     OW31299   6.557   8.236   9.041  0.7663  0.3318  0.4517
 9469SOL    HW131300   6.470   8.240   9.001  1.7530 -0.0906 -1.8620
 9469SOL    HW231301   6.548   8.172   9.112 -0.7831  0.2245  0.1874
 9470SOL     OW31302   8.296   9.280   8.982  0.0876 -0.0692  0.2824
 9470SOL    HW131303   8.229   9.212   8.980  0.3294 -0.2996 -0.7151
 9470SOL    HW231304   8.259   9.353   8.933  0.3879 -0.0227  0.1203
 9471SOL     OW31305   8.758   8.958   4.095  0.0137 -0.5155  0.0461
 9471SOL    HW131306   8.742   9.015   4.020  1.2001  0.8614  0.7887
 9471SOL    HW231307   8.708   8.996   4.166  1.6280  0.2712  0.8163
 9472SOL     OW31308   7.705   8.386   3.782  0.6499  0.2599 -0.3755
 9472SOL    HW131309   7.641   8.383   3.711  0.4304 -1.4122 -0.1568
 9472SOL    HW231310   7.784   8.422   3.742 -0.2929  2.0083 -0.7414
 9473SOL     OW31311   3.371   5.353   4.134  0.1918  1.1706  0.5650
 9473SOL    HW131312   3.405   5.374   4.047  1.6613 -0.2060  0.7556
 9473SOL    HW231313   3.284   5.317   4.118  1.2174 -0.9967 -0.6018
 9474SOL     OW31314   1.423   8.353   6.174 -0.0592 -0.5707  0.3086
 9474SOL    HW131315   1.402   8.261   6.185  1.3201 -1.0526 -0.8106
 9474SOL    HW231316   1.504   8.354   6.124  0.7726  1.2244  1.5496
 9475SOL     OW31317   9.573   5.566   3.788  0.6460  0.2408  0.4117
 9475SOL    HW131318   9.480   5.588   3.801  0.1109 -1.0769 -0.9057
 9475SOL    HW231319   9.608   5.639   3.737  0.1753  0.4163  0.3352
 9476SOL     OW31320   7.551   5.367   3.825  0.2624 -0.2033 -0.0913
 9476SOL    HW131321   7.499   5.306   3.878  1.3548  0.3243  1.6418
 9476SOL    HW231322   7.523   5.349   3.735 -0.7984 -1.9569  0.5313
 9477SOL     OW31323   7.141   5.418   1.397  0.3144  0.0904 -0.2901
 9477SOL    HW131324   7.098   5.347   1.349 -0.4456  1.0021 -1.0054
 9477SOL    HW231325   7.172   5.377   1.477 -0.6929 -0.9101 -0.3828
 9478SOL     OW31326   5.929   9.038   2.413  0.0748  0.4657 -0.3150
 9478SOL    HW131327   5.840   9.025   2.382 -0.3240  0.3503  0.8579
 9478SOL    HW231328   5.983   8.989   2.350 -0.5335  1.6848 -1.8378
 9479SOL     OW31329  10.350   9.562   3.787  0.1212  0.2915  0.4214
 9479SOL    HW131330  10.262   9.572   3.752 -0.1909 -0.5744  0.9109
 9479SOL    HW231331  10.341   9.574   3.881  0.7021  1.1507  0.3816
 9480SOL     OW31332   1.783   8.447   9.833 -0.4388  0.3362  0.6459
 9480SOL    HW131333   1.687   8.447   9.839 -0.5010 -1.1671  0.0612
 9480SOL    HW231334   1.801   8.429   9.741  0.4194  1.6055  0.5513
 9481SOL     OW31335   0.376   4.297   6.646  0.2908 -0.3674  0.3542
 9481SOL    HW131336   0.391   4.352   6.569 -0.3880 -0.5961  0.0529
 9481SOL    HW231337   0.464   4.270   6.673  0.4354 -2.9312 -2.2548
 9482SOL     OW31338   5.440   6.022   6.158 -0.1290 -0.0447  0.1088
 9482SOL    HW131339   5.440   5.944   6.213 -0.4049 -1.6663 -2.0368
 9482SOL    HW231340   5.370   6.077   6.193 -1.0206 -1.4992  0.7028
 9483SOL     OW31341   0.290  10.542   2.330  0.1838 -0.1263  0.0947
 9483SOL    HW131342   0.278  10.487   2.407  1.4262 -0.9807 -0.2805
 9483SOL    HW231343   0.205  10.581   2.315 -0.2139 -0.3584  1.5844
 9484SOL     OW31344   0.641  10.472   9.097 -1.0180 -0.1119  0.5371
 9484SOL    HW131345   0.732  10.477   9.067 -1.2398 -0.1884 -0.1646
 9484SOL    HW231346   0.591  10.518   9.029 -1.5627 -0.5142  0.6619
 9485SOL     OW31347   8.911   8.640   5.020 -0.2360 -0.1862 -0.5562
 9485SOL    HW131348   8.955   8.619   4.938 -1.1806 -2.3857 -0.5581
 9485SOL    HW231349   8.970   8.608   5.088  0.1595  0.8872 -0.3613
 9486SOL     OW31350   8.998   6.335   1.312  0.2687 -0.3441 -0.2132
 9486SOL    HW131351   9.000   6.386   1.394 -0.2280 -1.5685  0.5969
 9486SOL    HW231352   9.076   6.363   1.264  1.3191 -0.5581  1.2880
 9487SOL     OW31353   6.711  10.273  10.697  0.2017  0.3654  0.2521
 9487SOL    HW131354   6.629  10.261  10.743  0.8235  1.5874  1.7848
 9487SOL    HW231355   6.751  10.349  10.739  1.7531  0.2895 -0.9828
 9488SOL     OW31356   1.993   4.398   5.003  0.5571 -0.4441  0.0854
 9488SOL    HW131357   1.982   4.473   4.945 -0.1223 -0.6544 -0.0687
 9488SOL    HW231358   2.086   4.375   4.995  0.6955  0.1737 -0.1123
 9489SOL     OW31359   1.940   5.790   0.130 -0.3086  0.0708 -0.0877
 9489SOL    HW131360   1.869   5.813   0.070  0.2205 -0.5608 -0.9856
 9489SOL    HW231361   1.901   5.795   0.217 -1.4637 -0.2862 -0.5681
 9490SOL     OW31362   6.959   8.912   5.821  0.5796 -0.1724  0.3762
 9490SOL    HW131363   6.887   8.909   5.758  0.4670 -0.3322  0.5111
 9490SOL    HW231364   7.029   8.958   5.775 -0.4784  2.3469  1.1396
 9491SOL     OW31365   0.362   3.622   2.559  0.1789  0.8621  0.0081
 9491SOL    HW131366   0.382   3.714   2.576  1.0712  0.9762 -1.4598
 9491SOL    HW231367   0.369   3.614   2.463 -0.4354 -0.6054  0.0695
 9492SOL     OW31368   7.612   8.349   5.426  0.2070 -0.8271 -0.3377
 9492SOL    HW131369   7.582   8.298   5.501 -1.9338  0.8416  0.0657
 9492SOL    HW231370   7.531   8.384   5.388  1.4782  1.3223 -1.2277
 9493SOL     OW31371   4.369   9.617   5.414  0.2999  0.1758 -0.7818
 9493SOL    HW131372   4.453   9.582   5.444  1.0034 -1.3498 -4.0001
 9493SOL    HW231373   4.392   9.699   5.370 -0.3331  1.0990  0.5530
 9494SOL     OW31374   8.361   0.291   5.131  0.2413 -0.1884  0.1322
 9494SOL    HW131375   8.426   0.361   5.135  0.0551 -0.0124  0.0563
 9494SOL    HW231376   8.318   0.302   5.046  0.2050 -0.3885  0.1229
 9495SOL     OW31377   2.853   3.265  10.624 -0.1527 -0.2858 -0.0931
 9495SOL    HW131378   2.948   3.257  10.624 -0.0197  1.0031 -1.0341
 9495SOL    HW231379   2.833   3.313  10.543 -1.5035  0.3422  0.5826
 9496SOL     OW31380   8.439   7.062   6.607  0.1352  0.4994 -0.1779
 9496SOL    HW131381   8.358   7.016   6.627 -1.5383  3.2719 -0.0207
 9496SOL    HW231382   8.498   7.042   6.680 -0.6430 -0.9666  0.0792
 9497SOL     OW31383   2.480   9.786   7.876  0.0669  0.2532  0.0599
 9497SOL    HW131384   2.386   9.807   7.873 -0.2765 -1.2481 -0.5523
 9497SOL    HW231385   2.483   9.697   7.910  1.3094  0.4101  0.3893
 9498SOL     OW31386   8.518   2.073   6.197  0.0382  0.1781  0.4842
 9498SOL    HW131387   8.576   2.052   6.269 -0.8652 -1.1270  0.8552
 9498SOL    HW231388   8.512   1.992   6.146 -2.2811 -0.0956  1.0701
 9499SOL     OW31389   0.233   6.578   9.208  0.8306 -0.0247  0.4143
 9499SOL    HW131390   0.201   6.589   9.118  2.4432  0.8673 -0.0867
 9499SOL    HW231391   0.161   6.535   9.254  0.1770 -1.0189 -1.4415
 9500SOL     OW31392   2.205   8.863   7.791  0.3775 -0.9387 -0.1296
 9500SOL    HW131393   2.121   8.821   7.781 -0.4995  0.4400  0.9890
 9500SOL    HW231394   2.269   8.795   7.771 -0.9633 -1.5249 -2.8679
 9501SOL     OW31395   6.006   7.641   1.619 -0.4094  0.3303  0.3310
 9501SOL    HW131396   6.044   7.634   1.706 -1.5861  0.2769  0.8572
 9501SOL    HW231397   6.081   7.647   1.560  0.4044 -0.2807  1.2854
 9502SOL     OW31398   7.043   5.643   0.632 -0.0173 -0.4003 -0.5581
 9502SOL    HW131399   7.118   5.631   0.573  1.0767  0.1796  0.6688
 9502SOL    HW231400   6.971   5.667   0.574  0.3576 -2.3446 -1.9192
 9503SOL     OW31401   8.396   5.322   4.831 -0.6631  0.0061  0.0212
 9503SOL    HW131402   8.454   5.397   4.821 -0.3532  0.0245  1.6693
 9503SOL    HW231403   8.455   5.246   4.831 -0.4847  0.0813  2.5755
 9504SOL     OW31404   9.869  10.787   6.538  0.2017 -0.4516 -0.1937
 9504SOL    HW131405   9.861  10.856   6.471 -0.8613 -0.9689 -0.6273
 9504SOL    HW231406   9.934  10.821   6.600 -0.0336  0.7789 -0.5921
 9505SOL     OW31407   5.965   1.180   7.100 -0.0323 -0.4530 -0.0285
 9505SOL    HW131408   5.951   1.263   7.055  1.2430 -0.5631 -0.6699
 9505SOL    HW231409   5.932   1.195   7.188 -0.4092  0.5230 -0.3190
 9506SOL     OW31410   9.595   7.952   3.399 -0.0429  0.4266 -0.2004
 9506SOL    HW131411   9.516   7.900   3.415  0.7987 -1.4057 -1.6869
 9506SOL    HW231412   9.657   7.923   3.465 -0.1227  0.8103  0.0477
 9507SOL     OW31413   5.084   9.223   4.924  0.3283 -0.1059 -0.3744
 9507SOL    HW131414   5.157   9.279   4.952  0.0052  1.2005 -2.0120
 9507SOL    HW231415   5.066   9.168   5.001  3.8533 -1.4421 -0.3078
 9508SOL     OW31416   6.064   8.580   0.159  0.0106  0.4294  0.6148
 9508SOL    HW131417   6.053   8.627   0.241  0.1469  0.4015  0.6486
 9508SOL    HW231418   5.982   8.595   0.112  0.6054  1.9277 -0.0036
 9509SOL     OW31419   0.495  10.050   0.102 -0.2375 -0.1827  0.0648
 9509SOL    HW131420   0.407  10.017   0.083 -0.0061 -0.3037 -0.8114
 9509SOL    HW231421   0.481  10.141   0.128 -0.4844  0.3239 -1.7228
 9510SOL     OW31422   5.282   2.589   4.170  0.2346  0.0329  0.3384
 9510SOL    HW131423   5.259   2.680   4.191 -1.4733 -0.4061  0.5029
 9510SOL    HW231424   5.244   2.538   4.241  1.9643 -0.7678  0.7384
 9511SOL     OW31425   5.328   7.858   2.257  0.4160  0.2204  0.1929
 9511SOL    HW131426   5.262   7.789   2.257  1.2338 -0.5728 -0.3201
 9511SOL    HW231427   5.389   7.833   2.327  1.7336 -0.5959 -1.1913
 9512SOL     OW31428   0.161   9.377   8.963  0.5485 -0.1290 -0.2580
 9512SOL    HW131429   0.077   9.362   8.920  0.9352 -0.8028 -0.7964
 9512SOL    HW231430   0.149   9.458   9.012  0.3454  1.1313 -2.2937
 9513SOL     OW31431   3.510   3.610   5.964 -0.1876  0.0584 -0.5885
 9513SOL    HW131432   3.427   3.653   5.987  0.5384  1.1937  0.0402
 9513SOL    HW231433   3.556   3.675   5.911  0.6572 -0.2247 -0.2067
 9514SOL     OW31434   4.912  10.497   1.252 -0.2373 -0.1312 -0.2114
 9514SOL    HW131435   4.924  10.542   1.335 -0.5612  0.7454 -0.6203
 9514SOL    HW231436   4.945  10.558   1.186 -0.5273 -0.5597 -0.7722
 9515SOL     OW31437   2.888   0.292  10.272 -0.2000  0.3771  0.1304
 9515SOL    HW131438   2.871   0.223  10.207  0.6980  1.5174 -1.4015
 9515SOL    HW231439   2.980   0.315  10.258 -0.1563  1.0674  1.4294
 9516SOL     OW31440   9.247   3.893   0.090  0.1053  0.0760  0.4416
 9516SOL    HW131441   9.172   3.837   0.071  0.2069  0.1759 -0.3030
 9516SOL    HW231442   9.210   3.980   0.105  0.0637  0.1312  0.0459
 9517SOL     OW31443   6.456   5.958   4.125 -0.1260 -0.5062 -0.1127
 9517SOL    HW131444   6.391   5.990   4.187  0.6530  0.7617  0.0899
 9517SOL    HW231445   6.525   6.024   4.127  0.9376 -1.5614 -0.6927
 9518SOL     OW31446   1.388   6.139   1.986  0.3700 -0.2081  0.0743
 9518SOL    HW131447   1.474   6.177   1.967 -0.5666  2.4661  0.8566
 9518SOL    HW231448   1.335   6.161   1.910  0.0008 -0.7301  0.1748
 9519SOL     OW31449   5.471   8.019   4.499 -0.1317 -0.0684 -0.1713
 9519SOL    HW131450   5.508   7.943   4.544 -1.3740 -0.1761  0.7040
 9519SOL    HW231451   5.536   8.040   4.431  0.8194 -1.1312  0.3734
 9520SOL     OW31452   1.795   4.070   5.196  0.4214  1.0454  0.0556
 9520SOL    HW131453   1.795   3.984   5.154 -1.8648  1.3587 -0.7069
 9520SOL    HW231454   1.762   4.053   5.284 -2.8869  1.4065 -0.9815
 9521SOL     OW31455   6.398   1.410   8.975 -0.1947 -0.3988  0.7674
 9521SOL    HW131456   6.382   1.324   9.013  0.0695 -1.6330 -1.7366
 9521SOL    HW231457   6.313   1.438   8.942 -0.0534 -0.2009  0.5740
 9522SOL     OW31458   6.229   8.264   5.207  0.5117 -0.2104  0.0457
 9522SOL    HW131459   6.313   8.258   5.252  1.0413  0.8038 -0.7718
 9522SOL    HW231460   6.252   8.278   5.115 -0.5157  2.0887  0.0734
 9523SOL     OW31461   8.955   6.060   8.509  0.4434  0.1089 -0.2700
 9523SOL    HW131462   8.899   6.137   8.506  0.4697  0.1007 -2.4079
 9523SOL    HW231463   9.044   6.094   8.500  0.3990 -0.1744 -2.1779
 9524SOL     OW31464   4.427   4.274   1.406  0.2462  0.4113 -0.3334
 9524SOL    HW131465   4.391   4.325   1.479  0.1408 -0.1946  0.0408
 9524SOL    HW231466   4.487   4.212   1.447  0.6399  0.4606 -0.8231
 9525SOL     OW31467  10.312   5.340  10.220 -0.2306  0.1869 -0.4487
 9525SOL    HW131468  10.227   5.348  10.262  0.5208  0.0958  1.1270
 9525SOL    HW231469  10.371   5.307  10.288  1.2034  0.8232 -1.3205
 9526SOL     OW31470   4.954   6.435   7.937 -0.5523  0.6887 -0.0238
 9526SOL    HW131471   5.044   6.412   7.959 -0.4755 -1.0337 -1.8265
 9526SOL    HW231472   4.911   6.351   7.922 -2.5422  1.4614  0.9583
 9527SOL     OW31473   0.996   2.906   2.414  0.1879  0.1828 -0.2227
 9527SOL    HW131474   0.961   2.995   2.420 -0.3702 -0.0824  0.5474
 9527SOL    HW231475   1.086   2.917   2.384  0.0033  0.9844 -0.4868
 9528SOL     OW31476   6.219  10.560   7.525  0.2591  0.4054 -0.2608
 9528SOL    HW131477   6.125  10.575   7.530 -0.2910 -1.0588 -3.8895
 9528SOL    HW231478   6.254  10.640   7.484  0.6303  0.8045  0.7747
 9529SOL     OW31479   4.921   7.491   0.502  0.0728 -0.3119  0.6430
 9529SOL    HW131480   4.887   7.519   0.587 -0.4705 -0.7896  0.5910
 9529SOL    HW231481   4.844   7.457   0.455  0.4339 -0.4106  0.1112
 9530SOL     OW31482   6.026   4.770   2.029  0.4117  0.0813 -0.3154
 9530SOL    HW131483   6.096   4.835   2.029  1.5591 -1.0936 -0.8146
 9530SOL    HW231484   6.071   4.687   2.048 -0.6147 -0.9011 -1.8815
 9531SOL     OW31485   8.181   3.475   6.987 -0.2717  0.2817  0.0228
 9531SOL    HW131486   8.253   3.476   7.049 -1.7504 -0.2914  1.8502
 9531SOL    HW231487   8.174   3.565   6.955  0.9837  0.4218  0.1060
 9532SOL     OW31488   7.536   7.133   2.831  0.2571 -0.1593 -0.1012
 9532SOL    HW131489   7.490   7.128   2.915 -0.3637 -1.0234 -0.4823
 9532SOL    HW231490   7.575   7.047   2.819  1.0338  0.2148 -0.3184
 9533SOL     OW31491   3.814   4.019   0.392  0.6924 -0.3334 -0.1982
 9533SOL    HW131492   3.729   3.976   0.382 -0.2227  1.3498  0.0685
 9533SOL    HW231493   3.849   3.982   0.474 -0.3837 -0.0822  0.3921
 9534SOL     OW31494   5.990   0.912   8.217  0.2056  0.1081 -0.3128
 9534SOL    HW131495   6.000   0.957   8.301  1.7871  0.0198 -0.4214
 9534SOL    HW231496   6.036   0.968   8.155 -1.7287  0.6613 -1.3530
 9535SOL     OW31497  10.371   3.052   4.200 -0.1183  0.3637  0.5162
 9535SOL    HW131498  10.388   2.973   4.251  1.2556  0.1865 -0.1688
 9535SOL    HW231499  10.409   3.034   4.114  0.0027  1.6723  0.2678
 9536SOL     OW31500   8.378   1.774   5.762 -0.4895  0.6808 -0.0240
 9536SOL    HW131501   8.341   1.686   5.749 -0.7310  0.2627  2.7920
 9536SOL    HW231502   8.304   1.833   5.747 -0.7692  0.2880 -0.2274
 9537SOL     OW31503   3.533   6.356   5.622 -0.9620  0.4550  0.2015
 9537SOL    HW131504   3.510   6.334   5.712 -1.5356  2.5985  0.6359
 9537SOL    HW231505   3.484   6.294   5.568 -0.1439 -1.2521  1.3371
 9538SOL     OW31506   8.558   7.154   9.773 -0.0141 -0.0702  0.5858
 9538SOL    HW131507   8.473   7.188   9.801 -0.7292 -1.8931  0.7557
 9538SOL    HW231508   8.582   7.209   9.698 -0.6407  1.3898  1.4075
 9539SOL     OW31509   1.842   0.194   7.753 -0.0641  0.5331 -0.1046
 9539SOL    HW131510   1.812   0.143   7.828  1.8472 -1.4006 -0.5302
 9539SOL    HW231511   1.854   0.282   7.786 -0.9404  0.1270  1.3870
 9540SOL     OW31512   2.201   7.519   4.493  0.0617  0.1735  0.3933
 9540SOL    HW131513   2.154   7.484   4.417  0.4818  1.1594 -0.3396
 9540SOL    HW231514   2.148   7.493   4.568 -0.0327 -1.3769 -0.1745
 9541SOL     OW31515  10.166   6.644   8.527  0.7755  0.2478  0.4058
 9541SOL    HW131516  10.099   6.712   8.526  0.4248  0.0509 -3.1000
 9541SOL    HW231517  10.248   6.692   8.509  0.7801 -0.0521 -0.3971
 9542SOL     OW31518   9.763   1.579   2.039 -0.0854 -0.1965  0.0973
 9542SOL    HW131519   9.762   1.491   2.001 -0.9246  0.0381 -0.4462
 9542SOL    HW231520   9.854   1.608   2.029 -0.2179 -0.2293 -1.5705
 9543SOL     OW31521   8.450   9.059   6.438 -0.3265  0.2046 -0.0017
 9543SOL    HW131522   8.472   9.068   6.531 -1.5799  0.9119  0.2403
 9543SOL    HW231523   8.496   8.980   6.410 -1.3810 -1.0650  1.6916
 9544SOL     OW31524   8.626   9.542  10.769 -0.3748 -0.3929 -0.0453
 9544SOL    HW131525   8.720   9.551  10.752 -0.4861 -0.6939 -0.8229
 9544SOL    HW231526   8.586   9.536  10.683 -1.0644 -0.7745  0.2927
 9545SOL     OW31527   4.979   5.308   7.606  0.2651  0.2757 -0.1082
 9545SOL    HW131528   4.897   5.356   7.616  0.3598  0.3399  0.3936
 9545SOL    HW231529   5.040   5.372   7.570  0.3040  0.4421  0.2542
 9546SOL     OW31530   5.134  10.298   0.211  0.4576 -0.1617  0.2273
 9546SOL    HW131531   5.074  10.335   0.277 -0.0514 -1.4048  0.4934
 9546SOL    HW231532   5.148  10.208   0.240  0.4706 -0.6362 -1.2169
 9547SOL     OW31533   3.739  10.047   3.707  0.1263 -0.1158  0.5375
 9547SOL    HW131534   3.827  10.078   3.731  1.3169 -3.0786  0.3460
 9547SOL    HW231535   3.691  10.127   3.685  2.3497  1.7241  1.9073
 9548SOL     OW31536   1.213   3.139  10.141  0.3195  0.4609 -0.1835
 9548SOL    HW131537   1.267   3.078  10.091  0.5659 -0.8018  1.5468
 9548SOL    HW231538   1.192   3.209  10.079  1.1803 -0.6850 -1.8224
 9549SOL     OW31539   3.022   8.134   5.234  0.0789 -0.6439 -0.3084
 9549SOL    HW131540   3.058   8.185   5.307  0.5836 -1.4066 -0.0075
 9549SOL    HW231541   3.047   8.043   5.253  0.0095 -0.8909 -1.3000
 9550SOL     OW31542  10.282   6.532   8.836  0.2076 -0.1326 -0.4261
 9550SOL    HW131543  10.198   6.487   8.847  0.1126 -0.1291 -1.1381
 9550SOL    HW231544  10.261   6.625   8.849  0.0711 -0.1171 -0.7429
 9551SOL     OW31545   6.867   2.242   0.271  0.3447  0.4067  0.2069
 9551SOL    HW131546   6.817   2.221   0.350  0.0061  0.7143  0.0748
 9551SOL    HW231547   6.876   2.158   0.226 -0.3835  0.4171  0.0423
 9552SOL     OW31548   4.737   2.602   3.701  0.5580  0.1251 -0.2274
 9552SOL    HW131549   4.794   2.668   3.738  1.4975 -0.8205  0.0704
 9552SOL    HW231550   4.705   2.552   3.776 -1.0118  0.8929 -0.3544
 9553SOL     OW31551   6.581   6.752   5.665  0.6613 -0.2196 -0.2777
 9553SOL    HW131552   6.486   6.744   5.663  0.6794 -0.4254 -0.3221
 9553SOL    HW231553   6.613   6.670   5.627  0.8637 -0.3085  0.0774
 9554SOL     OW31554   7.505   6.355   3.285 -0.0773 -0.1243 -0.3747
 9554SOL    HW131555   7.446   6.429   3.300 -1.1529 -1.0741  0.2823
 9554SOL    HW231556   7.475   6.288   3.346  0.3266 -1.4073 -1.5275
 9555SOL     OW31557  10.320   2.842   0.393  0.9822 -0.2500  0.4167
 9555SOL    HW131558  10.247   2.884   0.347  1.9512 -0.5475 -1.4956
 9555SOL    HW231559  10.322   2.885   0.479 -0.0396  1.3401 -0.3082
 9556SOL     OW31560   5.989   5.527   6.393  0.1033  0.2304 -0.1422
 9556SOL    HW131561   6.041   5.514   6.472  1.2981 -1.5381 -1.1680
 9556SOL    HW231562   5.992   5.622   6.378  3.6068  0.1843 -0.4978
 9557SOL     OW31563   1.496   4.113   7.963  0.6202 -0.8024 -0.0813
 9557SOL    HW131564   1.508   4.053   7.889  1.1741 -1.5635  0.6168
 9557SOL    HW231565   1.468   4.195   7.922 -0.7267 -1.6766 -1.0163
 9558SOL     OW31566   1.479   4.660   9.737 -0.4638 -0.5424 -0.1193
 9558SOL    HW131567   1.397   4.634   9.695 -0.9335 -0.4089  0.6898
 9558SOL    HW231568   1.489   4.598   9.809 -0.0065 -0.3633 -0.0268
 9559SOL     OW31569   5.075   2.840  10.072 -0.5324  0.3563  0.1399
 9559SOL    HW131570   5.073   2.746  10.055  0.1589  0.5010 -0.8251
 9559SOL    HW231571   5.091   2.847  10.166 -0.9968 -0.4804  0.2976
 9560SOL     OW31572   5.184   7.762   3.676 -0.3430  0.4735  0.1435
 9560SOL    HW131573   5.226   7.829   3.730  0.0785 -0.8471  1.5224
 9560SOL    HW231574   5.101   7.802   3.649 -0.2048  1.4706  1.1007
 9561SOL     OW31575   6.947   5.586   6.602 -0.4645  0.2272 -0.6985
 9561SOL    HW131576   6.852   5.599   6.607 -0.6004 -0.5240 -1.2628
 9561SOL    HW231577   6.980   5.666   6.562 -0.8964  0.3425 -0.8296
 9562SOL     OW31578   9.548   2.988   9.326 -0.0796 -0.0977  0.7528
 9562SOL    HW131579   9.562   2.962   9.416 -1.7786 -0.2729  1.0014
 9562SOL    HW231580   9.457   2.964   9.308  0.3069 -0.3252 -1.0967
 9563SOL     OW31581   2.060   3.753   2.461  0.1777 -0.5766 -0.2405
 9563SOL    HW131582   2.088   3.681   2.404  1.7192 -0.9528  0.9266
 9563SOL    HW231583   2.037   3.712   2.544 -1.6288  0.0154 -0.4040
 9564SOL     OW31584   3.094   5.601   6.322  0.2175 -0.1238  0.4569
 9564SOL    HW131585   3.084   5.530   6.386  2.0682  0.1267  1.0975
 9564SOL    HW231586   3.049   5.569   6.244 -0.0573 -1.4670  1.1188
 9565SOL     OW31587   8.225   6.042   8.652  0.3165 -0.3141  0.5908
 9565SOL    HW131588   8.172   6.112   8.614  1.0624  0.3224  0.7059
 9565SOL    HW231589   8.269   6.083   8.726  1.7259 -0.5669 -0.0772
 9566SOL     OW31590   2.310   3.417   9.313  0.3130 -0.0032  0.3360
 9566SOL    HW131591   2.326   3.485   9.379  2.3004 -0.3924  0.3356
 9566SOL    HW231592   2.393   3.369   9.309  0.3323  0.1390 -2.6158
 9567SOL     OW31593   9.878   1.788  10.774  0.1957 -0.6889 -0.4656
 9567SOL    HW131594   9.852   1.697  10.759  0.7189 -0.9299  0.0609
 9567SOL    HW231595   9.948   1.782  10.838  1.1957 -0.0136 -1.4667
 9568SOL     OW31596   5.064   7.859   0.515  0.3066 -0.5293  0.1323
 9568SOL    HW131597   5.088   7.793   0.451 -0.0849 -1.6974  1.1488
 9568SOL    HW231598   4.984   7.899   0.480  2.0194  1.3980 -1.8510
 9569SOL     OW31599   4.052   1.339  10.065 -0.2509  0.6162  0.5504
 9569SOL    HW131600   4.106   1.412  10.095  0.3074  0.9597 -1.1536
 9569SOL    HW231601   4.089   1.263  10.109  1.9526  0.7878 -0.8388
 9570SOL     OW31602   5.118   8.677   6.050 -0.4655  0.2445 -0.2938
 9570SOL    HW131603   5.076   8.717   6.126  1.6242 -0.8201  1.5474
 9570SOL    HW231604   5.072   8.595   6.037 -1.0302  0.5739 -0.3752
 9571SOL     OW31605   1.009   6.109   6.089 -0.1205 -0.1227 -0.2228
 9571SOL    HW131606   1.090   6.072   6.124  0.3463  0.8241 -0.2803
 9571SOL    HW231607   0.981   6.172   6.155 -0.9515 -0.6150 -0.0917
 9572SOL     OW31608   2.107   4.826  10.369  0.2152 -0.1550  0.1091
 9572SOL    HW131609   2.192   4.867  10.350 -0.1424  0.7336  0.4036
 9572SOL    HW231610   2.085   4.855  10.457 -1.2960  1.2023 -0.6614
 9573SOL     OW31611   2.871   0.209   9.825  0.5199  0.1468  0.1073
 9573SOL    HW131612   2.849   0.285   9.771 -1.0486  0.5310  1.2130
 9573SOL    HW231613   2.895   0.141   9.761  0.4259  1.0967 -0.9751
 9574SOL     OW31614   0.706   6.670   5.383 -0.3215  0.2042 -0.1003
 9574SOL    HW131615   0.618   6.697   5.357 -0.5783 -1.3780 -0.9999
 9574SOL    HW231616   0.758   6.678   5.302 -0.2488 -1.2268 -0.2253
 9575SOL     OW31617   6.381  10.093   9.843 -0.1247  0.1303 -0.4169
 9575SOL    HW131618   6.318  10.164   9.859 -1.3767 -0.7018 -1.4050
 9575SOL    HW231619   6.436  10.125   9.772 -1.3386 -0.2303 -1.5683
 9576SOL     OW31620   8.075   4.825   7.729  0.3379  0.1053  0.1712
 9576SOL    HW131621   8.121   4.900   7.768  1.3995 -0.2683 -0.3204
 9576SOL    HW231622   8.105   4.750   7.780 -2.6444  0.2201  2.3498
 9577SOL     OW31623   8.375   8.431   7.291 -0.1203  0.5783 -0.2205
 9577SOL    HW131624   8.330   8.399   7.213 -1.8367  0.3069  0.8357
 9577SOL    HW231625   8.319   8.501   7.325  1.3250  1.7010  0.0047
 9578SOL     OW31626   3.722   1.543   9.725  0.1260 -0.0574 -0.5958
 9578SOL    HW131627   3.714   1.537   9.630 -0.8508  0.9076 -0.5981
 9578SOL    HW231628   3.661   1.613   9.750  1.0119  0.3085  0.6486
 9579SOL     OW31629   7.357  10.044   4.090  0.2684  0.4586  0.0815
 9579SOL    HW131630   7.312   9.962   4.108  0.8984  0.1622  0.3132
 9579SOL    HW231631   7.396  10.070   4.173 -0.1048  1.1133  0.0677
 9580SOL     OW31632  10.238   2.425   6.403  0.1203 -0.5343  0.1455
 9580SOL    HW131633  10.162   2.483   6.410  0.6260  0.3075 -0.9838
 9580SOL    HW231634  10.221   2.356   6.466 -0.6948  0.6315  1.2636
 9581SOL     OW31635   3.896   0.181   0.227  0.1731  0.1171  0.4923
 9581SOL    HW131636   3.964   0.249   0.234 -0.7472  1.1171 -0.0378
 9581SOL    HW231637   3.925   0.125   0.155  1.4990 -0.7420  1.6281
 9582SOL     OW31638   3.233   0.259   8.160 -0.0897 -0.2605 -0.1191
 9582SOL    HW131639   3.280   0.196   8.215  0.0454  1.0484  1.3636
 9582SOL    HW231640   3.149   0.217   8.141 -1.1680  0.0863  3.1669
 9583SOL     OW31641   1.486   2.088   7.730 -0.0090  0.6223  0.3219
 9583SOL    HW131642   1.471   2.174   7.690  0.5054  0.6702  0.2309
 9583SOL    HW231643   1.505   2.108   7.822 -1.1680  0.5136  0.6069
 9584SOL     OW31644   4.311   8.012   8.391 -0.8542  0.0231  0.3044
 9584SOL    HW131645   4.386   7.958   8.415 -1.2752 -1.1855 -0.9413
 9584SOL    HW231646   4.348   8.098   8.374  0.3342 -0.6405 -0.6156
 9585SOL     OW31647   4.944   4.827   8.251  0.0067  0.6732 -0.1620
 9585SOL    HW131648   4.961   4.735   8.273 -2.3975 -0.3266 -2.0432
 9585SOL    HW231649   5.014   4.850   8.189  0.6402  0.1548  0.3453
 9586SOL     OW31650   0.669   5.123   4.476  0.1320  0.7377  0.2085
 9586SOL    HW131651   0.763   5.106   4.470  0.1713  0.4628  1.3152
 9586SOL    HW231652   0.654   5.195   4.414  0.9922  0.5096 -0.2861
 9587SOL     OW31653   4.776   5.273   0.981  0.2891  0.1496 -0.9351
 9587SOL    HW131654   4.858   5.233   0.951 -0.8193 -0.6182 -3.2051
 9587SOL    HW231655   4.753   5.223   1.059  1.6396 -0.0560 -0.6369
 9588SOL     OW31656   0.668   7.759   6.560 -0.6063  0.1470  0.4537
 9588SOL    HW131657   0.644   7.666   6.562  0.9454 -0.3158 -1.0220
 9588SOL    HW231658   0.714   7.773   6.643  0.5747 -0.8328 -0.0051
 9589SOL     OW31659   1.071   0.032  10.053  0.1828 -0.3137  0.4721
 9589SOL    HW131660   0.995   0.074  10.093 -0.1727 -1.1938  0.7443
 9589SOL    HW231661   1.116   0.103  10.007 -0.4104  0.3543  0.8994
 9590SOL     OW31662   9.368  10.457   0.747  0.5098 -0.6634 -0.0358
 9590SOL    HW131663   9.383  10.377   0.697 -0.5967 -0.0371 -1.4612
 9590SOL    HW231664   9.272  10.462   0.754  0.3281  1.9051 -2.4712
 9591SOL     OW31665   3.229  10.190   7.810 -0.4260  0.1065  0.1444
 9591SOL    HW131666   3.189  10.246   7.876 -0.6509 -0.1850  0.2577
 9591SOL    HW231667   3.172  10.198   7.734 -1.4537 -1.3202  0.7222
 9592SOL     OW31668   9.205   7.070   7.424 -0.8355 -0.2810  0.2661
 9592SOL    HW131669   9.115   7.102   7.419 -0.3878  1.0320  0.3357
 9592SOL    HW231670   9.199   6.990   7.477 -2.0002 -0.4108 -0.0424
 9593SOL     OW31671   9.235   4.689   8.456 -0.2320  0.2397 -0.5695
 9593SOL    HW131672   9.300   4.719   8.520 -0.3216 -0.3531 -0.1950
 9593SOL    HW231673   9.151   4.699   8.500 -0.2860 -0.2590 -0.5496
 9594SOL     OW31674  10.006   5.524   9.223 -0.2682 -0.2015 -0.2828
 9594SOL    HW131675  10.042   5.446   9.266  0.5134  0.1633 -0.2559
 9594SOL    HW231676  10.058   5.597   9.257 -0.0881  0.1746 -1.3224
 9595SOL     OW31677   8.334   9.542   5.321  0.1139 -0.4682 -0.5320
 9595SOL    HW131678   8.412   9.570   5.273 -1.7439  1.3426 -2.6716
 9595SOL    HW231679   8.311   9.458   5.283  0.3027 -0.4149 -0.7661
 9596SOL     OW31680   0.184   9.229   1.483  0.5948  0.2977 -0.2869
 9596SOL    HW131681   0.174   9.271   1.398  1.5668  1.1127 -0.0213
 9596SOL    HW231682   0.218   9.298   1.540 -0.4267 -0.1122  0.8777
 9597SOL     OW31683   9.586   5.403   1.591  0.3324 -0.3949  0.3810
 9597SOL    HW131684   9.497   5.403   1.555  1.1392 -1.3251 -1.8057
 9597SOL    HW231685   9.621   5.489   1.570  0.0395 -0.0909  1.0898
 9598SOL     OW31686   3.262  10.119   2.239  0.1338  0.3225 -0.1081
 9598SOL    HW131687   3.313  10.151   2.165  0.6485  0.5630  0.3469
 9598SOL    HW231688   3.216  10.196   2.271  1.1019  0.5598  0.7703
 9599SOL     OW31689   4.281   2.892   2.367 -0.1938  0.3547 -0.1397
 9599SOL    HW131690   4.309   2.818   2.313 -0.0844  0.8566 -0.7852
 9599SOL    HW231691   4.209   2.857   2.421  2.4020 -1.3277  2.5276
 9600SOL     OW31692   9.109   9.422   8.618  0.3444 -0.2573  0.2764
 9600SOL    HW131693   9.045   9.464   8.560  2.6987 -0.5343 -2.7847
 9600SOL    HW231694   9.150   9.495   8.665  0.4469  0.3579 -0.7151
 9601SOL     OW31695   5.649   0.708   9.379  1.1073  0.1087 -0.0852
 9601SOL    HW131696   5.674   0.675   9.465 -3.0493  1.3606  1.8620
 9601SOL    HW231697   5.593   0.639   9.343 -2.2633  1.9694  1.1548
 9602SOL     OW31698   7.898  10.447   9.158  0.1604 -0.1020 -0.0871
 9602SOL    HW131699   7.902  10.539   9.132  0.1168  0.3099  1.2911
 9602SOL    HW231700   7.981  10.431   9.203 -1.3512  0.4522  3.2305
 9603SOL     OW31701   8.259  10.507   1.369 -0.3276 -0.2853  0.3024
 9603SOL    HW131702   8.311  10.439   1.411  0.8194  0.7272  0.5865
 9603SOL    HW231703   8.320  10.549   1.308 -0.7317  1.0722  0.7996
 9604SOL     OW31704   8.413   7.008   2.194 -0.0396  0.1012 -0.1558
 9604SOL    HW131705   8.417   7.094   2.152  2.4108  0.6554  1.0056
 9604SOL    HW231706   8.399   7.029   2.287  0.8595 -0.7180  0.1737
 9605SOL     OW31707   8.273   4.602   7.810  0.0894 -0.0191 -0.0996
 9605SOL    HW131708   8.250   4.590   7.718 -2.2632 -1.3110  0.5826
 9605SOL    HW231709   8.369   4.602   7.810  0.2246  2.1882 -2.7557
 9606SOL     OW31710   0.629   4.288   4.859  0.3472  0.6426  0.3128
 9606SOL    HW131711   0.660   4.378   4.848 -0.9088  1.1287  0.5350
 9606SOL    HW231712   0.564   4.276   4.790  0.2724  0.0192  0.4868
 9607SOL     OW31713   6.274   2.092   5.077  0.3608  0.0287 -0.3775
 9607SOL    HW131714   6.351   2.035   5.077  0.2127 -0.2779 -2.9983
 9607SOL    HW231715   6.200   2.035   5.058 -0.4793  0.4420  1.4063
 9608SOL     OW31716   4.738   2.481   7.185 -0.0245  0.0896  0.7963
 9608SOL    HW131717   4.782   2.554   7.143  4.3543 -2.4242  0.3820
 9608SOL    HW231718   4.712   2.423   7.113  1.3294 -1.0990  1.2165
 9609SOL     OW31719   4.528   4.426   6.235 -0.3720  0.5503 -0.3364
 9609SOL    HW131720   4.457   4.413   6.297  1.3812  1.1874  1.9275
 9609SOL    HW231721   4.579   4.499   6.271  1.3324  0.2387 -1.9569
 9610SOL     OW31722   3.251  10.744   5.961  0.3896 -0.4039  0.0004
 9610SOL    HW131723   3.233  10.836   5.982 -2.7746 -1.5226  3.4265
 9610SOL    HW231724   3.336  10.726   6.003  0.7158  0.7789 -0.1223
 9611SOL     OW31725   6.100   1.516   8.126 -0.0529  0.4212 -0.0679
 9611SOL    HW131726   6.188   1.551   8.113  0.7281 -1.8387 -1.3573
 9611SOL    HW231727   6.086   1.523   8.220  2.7450 -1.7715  0.6658
 9612SOL     OW31728   2.323  10.074   0.192 -0.7847 -1.1725  0.0994
 9612SOL    HW131729   2.235  10.066   0.156 -0.1382  0.2725 -2.0375
 9612SOL    HW231730   2.333   9.997   0.248 -2.9542 -2.0365 -0.5808
 9613SOL     OW31731   9.437   6.860   1.761 -0.1006 -0.0645  0.2746
 9613SOL    HW131732   9.521   6.896   1.792  1.0039  0.0702 -2.5575
 9613SOL    HW231733   9.461   6.806   1.686 -2.7076  2.3377 -2.5909
 9614SOL     OW31734   7.186   7.720   2.919  0.0668 -0.1822  0.0415
 9614SOL    HW131735   7.225   7.806   2.932  1.1960 -0.6389 -0.2500
 9614SOL    HW231736   7.169   7.716   2.824 -1.6104  0.3772  0.2761
 9615SOL     OW31737   5.664   6.592   5.532 -0.0953 -0.0305  0.0750
 9615SOL    HW131738   5.571   6.572   5.546 -0.3281  0.3908 -0.7847
 9615SOL    HW231739   5.709   6.551   5.606 -1.0083  0.1273  0.7274
 9616SOL     OW31740   5.530   4.982  10.541 -0.1591 -0.6392  0.0087
 9616SOL    HW131741   5.584   4.922  10.593 -0.8314 -2.1756 -1.0045
 9616SOL    HW231742   5.445   4.981  10.584 -0.1645 -0.3720  0.0069
 9617SOL     OW31743   9.475   6.911   6.448 -0.2685  0.3017  0.3790
 9617SOL    HW131744   9.497   6.882   6.536  0.1307 -0.6714 -0.0386
 9617SOL    HW231745   9.439   6.834   6.405 -2.8236  1.3517  0.4485
 9618SOL     OW31746   8.933   2.415   5.422 -0.4871  0.1063 -0.0892
 9618SOL    HW131747   8.968   2.415   5.511 -3.2269 -1.8333  1.1358
 9618SOL    HW231748   9.002   2.378   5.368  0.9711  0.6426  1.3367
 9619SOL     OW31749   9.675   1.777   6.951  0.9209 -0.2689 -0.6295
 9619SOL    HW131750   9.608   1.820   6.898  0.0284  0.2004  0.8447
 9619SOL    HW231751   9.745   1.842   6.957 -0.2512  0.9113  1.2427
 9620SOL     OW31752   5.395   5.659  10.103  0.4081  0.3172 -0.3138
 9620SOL    HW131753   5.407   5.575  10.059 -0.6090  0.0684 -0.1385
 9620SOL    HW231754   5.302   5.662  10.124  0.8620  0.3660  1.9546
 9621SOL     OW31755   8.918   9.120   5.537 -0.1449 -0.2153  0.2579
 9621SOL    HW131756   8.925   9.205   5.493 -0.4683  2.0364  4.0761
 9621SOL    HW231757   8.827   9.114   5.564  0.7857  0.7344  4.1901
 9622SOL     OW31758   9.286   4.081   4.391  0.7644  0.0753  0.0642
 9622SOL    HW131759   9.236   4.042   4.320 -0.1929 -0.8007  1.1807
 9622SOL    HW231760   9.225   4.140   4.434  0.7350 -0.7892  1.2752
 9623SOL     OW31761   9.028   0.245   5.306  0.2825  0.0706 -0.5229
 9623SOL    HW131762   9.056   0.291   5.226  0.4468 -0.1676 -0.6013
 9623SOL    HW231763   8.959   0.185   5.276  2.1297 -1.9311 -0.9589
 9624SOL     OW31764   0.575   4.455   1.521 -0.0269 -0.6142  0.7440
 9624SOL    HW131765   0.610   4.541   1.499 -0.6191 -0.7890 -1.0117
 9624SOL    HW231766   0.533   4.468   1.606 -0.5971  0.9971  0.2637
 9625SOL     OW31767   9.546   3.671  10.217 -0.1107 -0.1094 -0.3498
 9625SOL    HW131768   9.510   3.690  10.304 -2.0022  0.0340 -1.1031
 9625SOL    HW231769   9.640   3.665  10.231 -0.3765 -0.3335  1.7487
 9626SOL     OW31770   9.192   7.084   6.184 -0.3291  0.2978 -0.0199
 9626SOL    HW131771   9.153   7.082   6.271 -0.0019  0.4013  0.1329
 9626SOL    HW231772   9.237   7.169   6.180  0.9098 -0.3217  0.2719
 9627SOL     OW31773   6.572   5.436   2.951  0.2174  0.1681 -0.5257
 9627SOL    HW131774   6.633   5.372   2.988  1.0417  0.7710 -0.8141
 9627SOL    HW231775   6.589   5.516   3.000  0.0477  0.4844 -0.9798
 9628SOL     OW31776   8.245   2.464   2.665 -0.3444 -0.5370 -0.6873
 9628SOL    HW131777   8.242   2.496   2.755  1.7623 -0.1747 -0.6892
 9628SOL    HW231778   8.154   2.444   2.643 -1.0249  0.3315  1.1616
 9629SOL     OW31779   6.350   5.979   5.583  0.0299  0.3551  0.2811
 9629SOL    HW131780   6.284   6.023   5.636  0.5160  0.0103  1.1874
 9629SOL    HW231781   6.308   5.968   5.497 -0.6502  1.1924  0.4853
 9630SOL     OW31782   0.210   9.450   9.625  0.5114 -0.7320  0.5622
 9630SOL    HW131783   0.248   9.362   9.630  0.4080 -0.7246  2.5300
 9630SOL    HW231784   0.147   9.453   9.697  1.4576  1.3684  1.3979
 9631SOL     OW31785   4.246   3.377   9.433 -0.5196 -0.2072 -0.1348
 9631SOL    HW131786   4.250   3.358   9.527  3.6754  0.3464 -0.0101
 9631SOL    HW231787   4.165   3.427   9.423  0.3576  2.5294  3.8473
 9632SOL     OW31788   9.612   4.976   5.600 -0.9634  0.0806 -0.2414
 9632SOL    HW131789   9.533   4.997   5.649 -0.5478  1.2156 -0.0208
 9632SOL    HW231790   9.669   4.931   5.662 -0.9200  0.4233 -0.0350
 9633SOL     OW31791   2.980   9.423   8.505  0.0621 -0.1689  0.0902
 9633SOL    HW131792   2.896   9.437   8.548  1.0425 -0.6999  2.2783
 9633SOL    HW231793   3.044   9.422   8.576  1.8976 -0.1087 -1.4847
 9634SOL     OW31794   2.796   2.063   2.411  0.3651  0.0030 -0.3020
 9634SOL    HW131795   2.733   2.116   2.361 -0.8035  0.2029  1.3220
 9634SOL    HW231796   2.844   2.127   2.463  1.7260 -0.1845 -1.2776
 9635SOL     OW31797   7.217   2.217   8.649 -0.5209  1.2288  0.6798
 9635SOL    HW131798   7.287   2.165   8.689 -0.3740  0.3844 -0.6386
 9635SOL    HW231799   7.183   2.270   8.722 -0.9434 -0.9667  2.1979
 9636SOL     OW31800   1.605   1.244   7.138  0.5024 -0.3484  0.0372
 9636SOL    HW131801   1.656   1.324   7.148 -0.4327  0.3722 -0.7748
 9636SOL    HW231802   1.642   1.184   7.203  0.9376  0.8699  0.9522
 9637SOL     OW31803   2.822   1.963   8.945 -0.3986 -0.7348 -0.2967
 9637SOL    HW131804   2.782   1.981   9.030 -1.1976 -0.2174 -0.7706
 9637SOL    HW231805   2.821   1.868   8.937  0.9753 -0.8811  0.8736
 9638SOL     OW31806  10.034  10.135   9.060  0.0001 -0.0721 -0.2476
 9638SOL    HW131807   9.965  10.198   9.037 -0.7817 -0.5450  0.7114
 9638SOL    HW231808  10.029  10.129   9.155  0.2169 -1.4077 -0.3064
 9639SOL     OW31809   2.396   8.005   6.540  0.6233 -0.2742 -0.2791
 9639SOL    HW131810   2.467   7.940   6.547  0.4485 -0.2784  2.6747
 9639SOL    HW231811   2.384   8.017   6.446  2.5540 -2.4475 -0.9009
 9640SOL     OW31812   5.363   4.387   4.539  0.5417 -0.0627 -0.3175
 9640SOL    HW131813   5.292   4.452   4.531 -0.8050 -1.3968  0.2643
 9640SOL    HW231814   5.375   4.377   4.633 -0.3309 -1.7219 -0.3503
 9641SOL     OW31815   6.191   6.669   6.604 -0.3869 -0.1104  0.0271
 9641SOL    HW131816   6.254   6.597   6.603  0.1141  0.2144 -3.5010
 9641SOL    HW231817   6.245   6.748   6.616 -0.6744 -0.1059  1.4628
 9642SOL     OW31818   3.199   7.863   3.960 -0.5590  0.8823  0.6387
 9642SOL    HW131819   3.287   7.838   3.933 -0.1845  1.0485  1.6414
 9642SOL    HW231820   3.198   7.959   3.953 -0.9967  0.8102 -0.3333
 9643SOL     OW31821   5.328   6.477   0.210 -0.8371  0.6222 -0.4689
 9643SOL    HW131822   5.290   6.564   0.209  0.8266  1.3968 -0.3875
 9643SOL    HW231823   5.329   6.449   0.118 -0.3933  1.1543 -0.6294
 9644SOL     OW31824   5.414   8.372   2.646 -0.5021  0.2919 -0.4835
 9644SOL    HW131825   5.415   8.336   2.558  0.4719 -1.1709  0.0914
 9644SOL    HW231826   5.406   8.296   2.703 -1.4168  1.2306  0.7011
 9645SOL     OW31827   9.801   7.000   5.998 -0.1576 -0.0991 -0.6983
 9645SOL    HW131828   9.748   7.017   6.076  0.0256 -1.0180 -0.3477
 9645SOL    HW231829   9.843   7.083   5.978 -0.9800  0.3918 -0.4072
 9646SOL     OW31830   9.289   4.230   5.500 -0.0699  0.1504  0.2765
 9646SOL    HW131831   9.211   4.204   5.550 -0.1043 -1.4597 -0.5697
 9646SOL    HW231832   9.254   4.278   5.425 -0.3259 -1.3600 -0.5874
 9647SOL     OW31833   6.578   7.269   9.819  0.6634  0.4224 -0.9362
 9647SOL    HW131834   6.506   7.327   9.841  1.6163  0.9060  1.1212
 9647SOL    HW231835   6.588   7.212   9.895  1.3358 -0.8140 -1.9046
 9648SOL     OW31836   8.269   3.017   3.098  0.0224 -0.4293  0.3091
 9648SOL    HW131837   8.315   2.936   3.118  0.5470 -0.2583 -0.1789
 9648SOL    HW231838   8.316   3.084   3.147 -2.4088 -0.8020  3.4842
 9649SOL     OW31839  10.495   3.080  10.456 -0.1850 -0.5172 -0.1913
 9649SOL    HW131840  10.533   3.096  10.542 -0.0514  1.2086 -0.5463
 9649SOL    HW231841  10.567   3.045  10.404 -0.2093 -1.3452  0.3172
 9650SOL     OW31842  10.487   5.731   2.644  0.0604  0.0892 -0.4117
 9650SOL    HW131843  10.573   5.708   2.680 -0.6217  1.2024  2.1029
 9650SOL    HW231844  10.431   5.657   2.668 -0.5956  1.2126  1.7660
 9651SOL     OW31845   6.128   6.168   3.611 -0.5393 -0.4924  0.3221
 9651SOL    HW131846   6.140   6.130   3.699  0.7314 -3.0661 -0.8481
 9651SOL    HW231847   6.214   6.203   3.588 -0.1854 -2.0034 -0.7837
 9652SOL     OW31848   0.903   3.329   7.189 -0.2384 -0.3321 -0.1754
 9652SOL    HW131849   0.874   3.401   7.134  2.2636  2.0656  1.4081
 9652SOL    HW231850   0.851   3.338   7.269  0.4805  0.1197  0.2517
 9653SOL     OW31851   1.894   7.833   9.969  0.4105  0.0917  0.5117
 9653SOL    HW131852   1.842   7.773  10.023  0.8776  0.1782  1.0742
 9653SOL    HW231853   1.923   7.900  10.031  0.1594  0.7162 -0.0492
 9654SOL     OW31854   4.391   4.003   3.198  0.1404  0.7390  0.4796
 9654SOL    HW131855   4.296   4.007   3.182  0.1576  2.4352  0.6335
 9654SOL    HW231856   4.398   3.984   3.292 -0.0529  0.7922  0.5057
 9655SOL     OW31857  10.460   0.949   4.501  0.4764  0.3750  0.2993
 9655SOL    HW131858  10.393   0.883   4.517 -0.1208  1.1709  1.1261
 9655SOL    HW231859  10.542   0.908   4.529  0.2028 -0.2406  0.2061
 9656SOL     OW31860   6.461   9.644   8.861  0.0129 -0.4589 -0.3920
 9656SOL    HW131861   6.389   9.707   8.863  0.7185  0.3536  0.1298
 9656SOL    HW231862   6.426   9.570   8.811 -0.9528  0.1913 -0.7214
 9657SOL     OW31863   5.900   7.911   3.593  0.2035 -0.6303 -0.6221
 9657SOL    HW131864   5.978   7.918   3.536 -0.0733  1.9646 -0.8026
 9657SOL    HW231865   5.871   7.821   3.582  2.7665 -1.4822 -1.1138
 9658SOL     OW31866   5.391   3.728  10.024 -0.1485 -0.3539  0.0209
 9658SOL    HW131867   5.411   3.753   9.934  0.4117  0.2949  0.3209
 9658SOL    HW231868   5.295   3.723  10.026 -0.1380 -1.4061 -0.8703
 9659SOL     OW31869   8.091   2.703   5.985 -0.2039 -0.3727  0.6349
 9659SOL    HW131870   8.180   2.673   6.003  0.2888  0.6444 -0.0284
 9659SOL    HW231871   8.096   2.743   5.899 -1.1564  0.3196  0.8842
 9660SOL     OW31872   8.663   8.557   3.153 -0.2657 -0.7013 -0.2706
 9660SOL    HW131873   8.727   8.567   3.222  1.0010  1.6813 -1.6502
 9660SOL    HW231874   8.587   8.517   3.195  0.6834  0.0774  2.3308
 9661SOL     OW31875   8.694   5.293   5.084  0.4794  0.1885 -0.3210
 9661SOL    HW131876   8.755   5.274   5.156 -1.3243 -1.0398  0.9573
 9661SOL    HW231877   8.672   5.207   5.048  0.5422  0.7205 -1.7001
 9662SOL     OW31878   1.645   1.985   8.376  0.3685  0.3528  0.7282
 9662SOL    HW131879   1.691   2.054   8.328 -0.0286 -0.3549 -0.7250
 9662SOL    HW231880   1.570   1.964   8.321  1.0078 -1.9257  0.6380
 9663SOL     OW31881   2.656   3.465   5.821  0.1088 -0.2609  0.5133
 9663SOL    HW131882   2.605   3.385   5.810 -0.6399  0.2284  0.3367
 9663SOL    HW231883   2.747   3.436   5.821 -0.1574 -1.1152  0.5081
 9664SOL     OW31884   1.449   9.358   2.581 -0.1287  0.2106  0.0476
 9664SOL    HW131885   1.446   9.359   2.677  1.1569  0.7889  0.1069
 9664SOL    HW231886   1.469   9.267   2.558 -1.7508 -0.2183  0.2506
 9665SOL     OW31887   7.337   1.054   6.107 -0.7388  0.5290 -0.6263
 9665SOL    HW131888   7.408   1.118   6.109 -1.1944  1.0635 -1.4039
 9665SOL    HW231889   7.274   1.086   6.172  0.6674 -1.1015  1.7113
 9666SOL     OW31890   0.152   8.415  10.576  0.3299 -0.1281  0.0149
 9666SOL    HW131891   0.092   8.482  10.608 -0.2149 -0.8993  0.6521
 9666SOL    HW231892   0.096   8.351  10.533  0.6390 -0.9887  0.8487
 9667SOL     OW31893   2.453   6.419   6.078  0.3417 -0.6890  0.1573
 9667SOL    HW131894   2.448   6.515   6.076 -0.0504 -0.7029  0.3266
 9667SOL    HW231895   2.369   6.390   6.044 -0.1422 -0.9566  1.5167
 9668SOL     OW31896   2.020  10.494   3.662  0.5415  0.2479 -0.3273
 9668SOL    HW131897   1.980  10.523   3.581 -0.7940  1.4988  0.7318
 9668SOL    HW231898   1.961  10.426   3.696  1.4438 -0.7579 -0.6988
 9669SOL     OW31899   4.722   7.205   3.518 -0.8225  0.3924  0.2071
 9669SOL    HW131900   4.708   7.299   3.529 -1.4369  0.4170 -0.6530
 9669SOL    HW231901   4.804   7.198   3.471 -0.0761  0.4281  1.4609
 9670SOL     OW31902  10.555   1.673   2.019 -0.1258  0.1533  0.2893
 9670SOL    HW131903  10.496   1.601   1.994  0.5046 -0.2863  0.0398
 9670SOL    HW231904  10.640   1.647   1.984 -0.2456  1.9243 -1.4552
 9671SOL     OW31905   5.432   2.293   4.533 -0.3409  0.7271 -0.3038
 9671SOL    HW131906   5.443   2.388   4.520 -1.7675  0.8685 -0.6144
 9671SOL    HW231907   5.441   2.281   4.627  0.7976  1.0137 -0.3494
 9672SOL     OW31908   7.916   2.340   6.198  0.3627 -0.1462 -0.0810
 9672SOL    HW131909   7.955   2.319   6.113  1.1938 -0.4199  0.3631
 9672SOL    HW231910   7.971   2.297   6.262  0.1260  0.5969  0.6491
 9673SOL     OW31911   6.507   9.252  10.559  0.0120 -0.1354  0.8558
 9673SOL    HW131912   6.442   9.211  10.502  0.5473 -0.0480  0.1713
 9673SOL    HW231913   6.497   9.206  10.643 -1.5030  0.4520  1.0303
 9674SOL     OW31914   5.055  10.675   1.089  0.5761  0.1028 -0.4587
 9674SOL    HW131915   5.059  10.769   1.070  0.9007 -0.1583 -1.7207
 9674SOL    HW231916   5.025  10.635   1.008 -0.4055 -0.8196  0.3278
 9675SOL     OW31917   8.645   0.467   6.032 -0.2478  0.2962 -0.3032
 9675SOL    HW131918   8.732   0.451   5.996  0.4209  0.2471  1.2389
 9675SOL    HW231919   8.603   0.526   5.969  2.0320  2.8397  0.3616
 9676SOL     OW31920   0.659   6.754   1.460  0.3620 -0.1528 -0.3798
 9676SOL    HW131921   0.725   6.819   1.480 -1.1189  0.9554  1.2314
 9676SOL    HW231922   0.666   6.741   1.365  0.4656  2.6636 -0.8429
 9677SOL     OW31923   8.860   2.628   7.724  0.6254 -0.2374 -0.1331
 9677SOL    HW131924   8.829   2.716   7.745 -0.1822 -0.6628  0.5290
 9677SOL    HW231925   8.892   2.593   7.807  0.7589 -0.6353 -0.3484
 9678SOL     OW31926   9.518   0.251  10.181  0.2165 -0.1316  0.5190
 9678SOL    HW131927   9.523   0.336  10.224 -0.9305 -0.1955  0.7934
 9678SOL    HW231928   9.561   0.191  10.242  1.2859  0.2842  0.1945
 9679SOL     OW31929   8.742   7.971   6.407 -0.0007  0.6900  0.5464
 9679SOL    HW131930   8.800   7.917   6.353  0.6971  2.9192 -1.0585
 9679SOL    HW231931   8.654   7.944   6.383  0.2817  1.7739 -1.9749
 9680SOL     OW31932   6.530   9.584   9.977  0.0633 -0.5589  0.1329
 9680SOL    HW131933   6.480   9.622   9.904  0.4662 -0.6752 -0.2083
 9680SOL    HW231934   6.469   9.585  10.050 -0.4160 -0.6238 -0.2583
 9681SOL     OW31935   7.810   2.486   7.150 -0.2814  0.2576  0.1419
 9681SOL    HW131936   7.717   2.480   7.170 -0.3814  0.8392 -0.1170
 9681SOL    HW231937   7.820   2.571   7.105  0.6530  1.0628  1.7837
 9682SOL     OW31938   4.709   4.166   4.747 -0.1577 -0.2166  0.3810
 9682SOL    HW131939   4.701   4.201   4.658 -1.1091  0.1605  0.6029
 9682SOL    HW231940   4.711   4.071   4.736 -1.5974 -0.2299  0.0240
 9683SOL     OW31941   5.523  10.163   0.038  0.3437  0.3259  0.3355
 9683SOL    HW131942   5.500  10.190  -0.051  0.1021 -0.7757  0.0507
 9683SOL    HW231943   5.504  10.240   0.092 -1.4888  0.3356 -0.2582
 9684SOL     OW31944   5.435  10.059   0.349  0.0716 -0.2975 -0.2570
 9684SOL    HW131945   5.483  10.090   0.272 -0.6969 -1.3807 -1.2006
 9684SOL    HW231946   5.345  10.051   0.320 -0.6367  1.1875  1.3478
 9685SOL     OW31947   3.788   7.265   1.599 -0.4928 -0.4776 -0.6294
 9685SOL    HW131948   3.852   7.195   1.614  0.4879  0.0781 -1.9742
 9685SOL    HW231949   3.779   7.307   1.684 -2.2182 -3.0766  0.6085
 9686SOL     OW31950   5.648   0.551   4.317  0.6387 -0.2934 -0.3864
 9686SOL    HW131951   5.643   0.536   4.223  0.1089 -0.3504 -0.3501
 9686SOL    HW231952   5.737   0.586   4.331  0.9556 -0.9117 -0.8133
 9687SOL     OW31953   0.845   7.386   9.215 -0.0652  0.2203  0.0063
 9687SOL    HW131954   0.884   7.454   9.271 -0.0860  0.8719 -0.7562
 9687SOL    HW231955   0.840   7.426   9.128 -0.5088 -0.5991 -0.3574
 9688SOL     OW31956   6.561   2.076   8.460  0.0796 -0.0012  0.1550
 9688SOL    HW131957   6.474   2.110   8.478  0.1781 -0.2115  1.0839
 9688SOL    HW231958   6.547   1.984   8.437  0.0693 -0.0794  0.4715
 9689SOL     OW31959   6.863   7.960  10.168 -0.0264  0.4074 -0.0078
 9689SOL    HW131960   6.957   7.952  10.182  0.2313  0.2450 -1.6770
 9689SOL    HW231961   6.829   7.872  10.185  0.9332 -1.1229 -4.6696
 9690SOL     OW31962  10.254   1.623   0.619  0.4331  0.3246  0.2829
 9690SOL    HW131963  10.190   1.634   0.690  0.2166 -0.5241  0.2338
 9690SOL    HW231964  10.264   1.528   0.612  0.4538  0.4035 -0.8291
 9691SOL     OW31965   9.866   5.221   1.932  0.5410 -0.2953 -0.3430
 9691SOL    HW131966   9.896   5.306   1.962 -0.7084 -0.0937  0.3827
 9691SOL    HW231967   9.946   5.170   1.920  1.1916  0.1521  1.7331
 9692SOL     OW31968   4.094  10.219   6.606  0.4264 -0.4111 -0.4041
 9692SOL    HW131969   4.049  10.153   6.659  0.6914  0.6317  1.1626
 9692SOL    HW231970   4.187  10.196   6.612  0.5168  0.0617  0.1222
 9693SOL     OW31971   3.522   1.217   9.014  0.0622  0.2845 -0.5232
 9693SOL    HW131972   3.457   1.165   9.060 -0.5977  0.3911 -1.3119
 9693SOL    HW231973   3.472   1.271   8.953  0.5843  2.8881  1.1670
 9694SOL     OW31974  10.780   5.305   8.418 -0.0250 -0.0688  0.6602
 9694SOL    HW131975  10.787   5.388   8.465 -1.1080  0.3397  0.1332
 9694SOL    HW231976  10.711   5.320   8.353  0.7883 -0.9128 -0.4404
 9695SOL     OW31977   6.291   8.300  10.091 -0.2993 -0.3513 -0.2622
 9695SOL    HW131978   6.310   8.288   9.999 -1.1552 -0.1220 -0.4791
 9695SOL    HW231979   6.314   8.216  10.132 -1.1702 -0.9142 -0.8984
 9696SOL     OW31980   7.580   3.386   9.296  0.6205 -0.5377  0.3635
 9696SOL    HW131981   7.655   3.351   9.344  0.0003 -0.2826  1.5326
 9696SOL    HW231982   7.542   3.452   9.354 -0.0433 -0.0945 -0.5467
 9697SOL     OW31983   8.463   4.171   5.955 -0.1519 -0.0932  0.0235
 9697SOL    HW131984   8.521   4.154   5.881 -0.8228 -1.7420 -0.1720
 9697SOL    HW231985   8.396   4.228   5.919  1.1930  1.6628  0.2002
 9698SOL     OW31986   3.944   6.129   0.460 -0.0218  0.0210  0.3465
 9698SOL    HW131987   3.886   6.083   0.399 -0.8591  0.2653  0.9389
 9698SOL    HW231988   4.004   6.177   0.404  0.2755 -1.0490 -0.2835
 9699SOL     OW31989   1.374   0.434  10.576 -0.7919 -0.1641  0.3388
 9699SOL    HW131990   1.301   0.391  10.620 -0.9245 -0.3604 -0.0740
 9699SOL    HW231991   1.350   0.527  10.577 -0.5869 -0.1129  1.0699
 9700SOL     OW31992   4.160   0.219   8.741  0.2751 -0.3485  0.4162
 9700SOL    HW131993   4.249   0.249   8.757 -0.0713  0.4843  0.8272
 9700SOL    HW231994   4.160   0.195   8.648  0.9616 -0.4910  0.4454
 9701SOL     OW31995   9.126   0.207   9.794  0.2320  0.1235  0.2176
 9701SOL    HW131996   9.152   0.199   9.703 -0.6374 -0.1544 -0.0182
 9701SOL    HW231997   9.167   0.133   9.838  1.0039  0.4997  0.1450
 9702SOL     OW31998   8.728   3.752   0.796 -0.6803  0.2193  0.4015
 9702SOL    HW131999   8.684   3.668   0.792  0.3473 -0.2740 -1.6483
 9702SOL    HW232000   8.775   3.751   0.880 -0.6062 -1.2871  0.3575
 9703SOL     OW32001   1.613   1.651   6.533 -0.3100 -0.5728 -0.1086
 9703SOL    HW132002   1.533   1.642   6.585  0.1053 -0.2406  0.6129
 9703SOL    HW232003   1.589   1.622   6.446 -1.3038 -0.1753  0.0205
 9704SOL     OW32004   0.085   3.180   0.430 -0.0805 -0.4422 -0.2918
 9704SOL    HW132005   0.152   3.228   0.382  0.1074 -0.2417  0.1634
 9704SOL    HW232006   0.134   3.115   0.481 -0.2440 -0.4136 -0.0965
 9705SOL     OW32007   6.625   1.956   2.319  0.7224  0.0319  0.4747
 9705SOL    HW132008   6.574   1.883   2.353  3.2497 -2.7267 -1.1470
 9705SOL    HW232009   6.676   1.988   2.394 -1.3828  1.1853  1.5101
 9706SOL     OW32010   9.618   0.049   8.066 -0.1509  0.2264 -0.1132
 9706SOL    HW132011   9.585   0.121   8.119  0.6760  0.2311  0.4196
 9706SOL    HW232012   9.656  -0.012   8.129  2.2097  0.9324 -0.7378
 9707SOL     OW32013   1.769   4.421   2.744 -0.0228  0.1991 -0.1933
 9707SOL    HW132014   1.698   4.366   2.711  0.6214 -1.0823  0.4732
 9707SOL    HW232015   1.842   4.360   2.759  0.7960  1.2722  0.3599
 9708SOL     OW32016   5.205   7.702   4.784  0.3912  0.4232  0.0505
 9708SOL    HW132017   5.162   7.782   4.814  3.0134  1.8970  0.2115
 9708SOL    HW232018   5.155   7.676   4.706 -0.4892  2.2840 -0.0728
 9709SOL     OW32019   5.369   4.085   3.283  0.6455 -0.1112  0.1920
 9709SOL    HW132020   5.429   4.158   3.281  2.2708 -1.3517  1.1927
 9709SOL    HW232021   5.420   4.010   3.251 -0.1263 -1.3246  1.6637
 9710SOL     OW32022   2.400   5.370   2.445 -0.1770  0.5837  0.2060
 9710SOL    HW132023   2.363   5.365   2.357 -1.6589 -1.0654  0.8553
 9710SOL    HW232024   2.343   5.432   2.491  0.7595  1.6534 -0.0497
 9711SOL     OW32025   9.990   9.891   0.516 -0.4486  0.1718 -0.0700
 9711SOL    HW132026   9.981   9.898   0.421  1.3841  1.4887 -0.2027
 9711SOL    HW232027   9.978   9.980   0.549  1.3818  0.2028  0.6345
 9712SOL     OW32028   9.740  10.008   3.275  0.0941 -0.2438  0.0273
 9712SOL    HW132029   9.792   9.928   3.289 -1.3223 -1.3431 -0.6805
 9712SOL    HW232030   9.772  10.043   3.192  0.6784 -0.1161  0.3054
 9713SOL     OW32031  10.556   6.587   9.723  0.6257 -0.1976  0.5638
 9713SOL    HW132032  10.600   6.557   9.802  0.3655 -1.3583  0.2876
 9713SOL    HW232033  10.481   6.528   9.714  0.0835  0.5621  0.0068
 9714SOL     OW32034   0.442   4.230   4.663 -0.3150 -0.0426 -0.3118
 9714SOL    HW132035   0.445   4.186   4.578  1.1391 -0.0133 -0.2939
 9714SOL    HW232036   0.422   4.161   4.726 -0.1435 -0.2976 -0.5353
 9715SOL     OW32037   7.815   6.230   3.777 -0.1094  0.4866 -0.4890
 9715SOL    HW132038   7.897   6.203   3.736 -0.1382 -0.7070  0.2115
 9715SOL    HW232039   7.756   6.249   3.704  0.4446  0.2737 -0.9945
 9716SOL     OW32040  10.347   9.541   6.324 -0.4244  0.4574  0.3215
 9716SOL    HW132041  10.328   9.539   6.230  1.8628 -1.3568 -0.1991
 9716SOL    HW232042  10.423   9.598   6.332  0.1515 -0.3697  0.8746
 9717SOL     OW32043   5.329   9.985   4.915  0.5694  0.3837 -0.2898
 9717SOL    HW132044   5.390   9.942   4.855  0.8347 -0.3463  0.4977
 9717SOL    HW232045   5.278  10.043   4.858  1.0526 -0.0279 -1.1707
 9718SOL     OW32046  10.281  10.594   1.305  0.4355 -0.2326 -0.3750
 9718SOL    HW132047  10.214  10.660   1.323  0.7143  0.5042 -1.8158
 9718SOL    HW232048  10.332  10.589   1.386 -1.9081 -1.5725  1.1350
 9719SOL     OW32049   0.837   7.144   5.553 -0.1069 -0.3255 -0.0855
 9719SOL    HW132050   0.902   7.077   5.572 -0.5332 -1.4226 -2.1639
 9719SOL    HW232051   0.769   7.098   5.504 -1.0060  1.3883 -0.5355
 9720SOL     OW32052   1.762   1.495   0.404  0.1801 -1.0516  0.3929
 9720SOL    HW132053   1.809   1.412   0.415  0.9301 -0.5257  1.2197
 9720SOL    HW232054   1.731   1.493   0.313  0.8894 -1.8742  0.1545
 9721SOL     OW32055   4.258   1.250   6.261 -0.8042 -0.6223  0.4767
 9721SOL    HW132056   4.325   1.190   6.230  1.1416  1.5540  0.2087
 9721SOL    HW232057   4.263   1.245   6.356  2.5807  2.1890  0.6650
 9722SOL     OW32058   4.434  10.613  10.095  0.0700 -0.5289 -0.0111
 9722SOL    HW132059   4.485  10.649  10.167 -1.0586  1.3490 -0.0907
 9722SOL    HW232060   4.500  10.578  10.034  1.2256  0.9533  0.3381
 9723SOL     OW32061   0.814   8.327   9.128 -0.5584 -0.4375  0.0328
 9723SOL    HW132062   0.790   8.339   9.036 -0.7592 -0.4667  0.0804
 9723SOL    HW232063   0.732   8.298   9.171 -0.1995 -1.5742 -0.0051
 9724SOL     OW32064   7.770   9.003   0.404  0.3105  0.2071 -0.3427
 9724SOL    HW132065   7.742   8.983   0.493  1.0027 -0.6987 -0.3186
 9724SOL    HW232066   7.757   8.922   0.355  1.0577  0.3347 -0.7778
 9725SOL     OW32067   8.986   1.175   3.211 -0.0451  0.4681 -0.0533
 9725SOL    HW132068   8.905   1.124   3.199  0.3753  0.2300 -2.3734
 9725SOL    HW232069   9.053   1.109   3.229  0.0175  0.4419 -0.3705
 9726SOL     OW32070   9.549   6.204   9.844 -0.4649 -0.1773  0.2345
 9726SOL    HW132071   9.556   6.133   9.907  1.4547 -0.7487 -0.5524
 9726SOL    HW232072   9.570   6.283   9.893  1.2407 -0.6436  0.3260
 9727SOL     OW32073   1.744   8.609   8.236  0.2861  0.0705  0.5936
 9727SOL    HW132074   1.795   8.576   8.163  0.5973 -0.6070  1.1040
 9727SOL    HW232075   1.758   8.704   8.235 -1.8200  0.4699 -1.8151
 9728SOL     OW32076   4.507   8.494   4.171 -0.0168  0.1261  0.2306
 9728SOL    HW132077   4.494   8.507   4.077  1.1881 -0.7316 -0.0858
 9728SOL    HW232078   4.467   8.409   4.189  2.2366 -1.1238 -0.1607
 9729SOL     OW32079   0.689   1.889   6.796  0.2386 -0.0737 -0.3464
 9729SOL    HW132080   0.761   1.830   6.822 -0.7619 -1.0746  0.2444
 9729SOL    HW232081   0.724   1.937   6.721  2.0484  0.5455  0.8330
 9730SOL     OW32082  10.044   0.290   6.112  0.1312 -0.1583  0.1706
 9730SOL    HW132083  10.001   0.340   6.181 -0.6375  0.0292 -0.4221
 9730SOL    HW232084  10.133   0.277   6.143  0.5029  1.9774  0.1342
 9731SOL     OW32085   0.916   7.916   8.110 -0.0794  0.1336  0.7229
 9731SOL    HW132086   1.004   7.954   8.108 -0.4975  1.1077  0.0547
 9731SOL    HW232087   0.862   7.978   8.060 -0.9356 -1.0005  0.2039
 9732SOL     OW32088   4.627   8.489   8.555 -0.2643  0.6830  0.4459
 9732SOL    HW132089   4.556   8.550   8.537 -0.7280  0.0466  0.0600
 9732SOL    HW232090   4.701   8.544   8.578 -0.5269  1.4104 -0.4149
 9733SOL     OW32091   6.790   9.423   2.109 -0.5374  0.1430 -0.1134
 9733SOL    HW132092   6.760   9.513   2.094 -0.5480  0.1194 -0.2335
 9733SOL    HW232093   6.724   9.368   2.065  1.2929  0.1625 -3.1616
 9734SOL     OW32094   6.657   3.240   5.904 -0.3455 -0.1555  0.1834
 9734SOL    HW132095   6.708   3.278   5.833 -0.7619  2.1683  1.0518
 9734SOL    HW232096   6.722   3.214   5.969 -0.1086  0.1430  0.0685
 9735SOL     OW32097   2.322   5.384   1.844  0.3527  0.0996  0.1678
 9735SOL    HW132098   2.372   5.306   1.867  1.6308  0.7488 -0.3212
 9735SOL    HW232099   2.249   5.351   1.792  1.1763 -0.7316 -0.4978
 9736SOL     OW32100   8.644   3.827   1.275 -0.0409 -0.4528 -0.2269
 9736SOL    HW132101   8.718   3.788   1.323  1.0059  0.7486 -0.8194
 9736SOL    HW232102   8.575   3.760   1.280  0.2370 -0.6550  2.3693
 9737SOL     OW32103   1.581   3.234   8.355  0.9307  0.0371  0.0869
 9737SOL    HW132104   1.615   3.175   8.288  0.1894  1.1220 -1.2949
 9737SOL    HW232105   1.632   3.314   8.345  0.4459  0.3976  0.4654
 9738SOL     OW32106   1.410   8.546   9.321 -0.5865  0.2139  0.4866
 9738SOL    HW132107   1.481   8.594   9.364 -0.1556  0.5217 -0.5324
 9738SOL    HW232108   1.337   8.608   9.320 -0.5883  0.2169  0.7387
 9739SOL     OW32109   3.509   3.055   4.373 -0.2906  0.3813  0.1238
 9739SOL    HW132110   3.591   3.078   4.329 -0.1628  0.5911  0.4686
 9739SOL    HW232111   3.535   3.010   4.453 -0.5273 -0.1254 -0.0765
 9740SOL     OW32112  10.486   1.900   1.781 -0.2083  0.0899  0.4004
 9740SOL    HW132113  10.438   1.841   1.839  0.2313 -1.1370 -0.4317
 9740SOL    HW232114  10.507   1.975   1.835  2.2569 -2.0039  2.5856
 9741SOL     OW32115   3.802  10.567   6.450 -0.5698  0.5010 -0.6527
 9741SOL    HW132116   3.890  10.590   6.478 -2.1025  3.4175  2.6064
 9741SOL    HW232117   3.772  10.503   6.514 -1.2924  0.5952 -0.8872
 9742SOL     OW32118   2.060   7.158   9.291  0.3189  0.4102  0.0314
 9742SOL    HW132119   2.135   7.216   9.301 -0.6749  2.0669 -1.5484
 9742SOL    HW232120   2.088   7.092   9.228  1.0823 -0.2131  0.9890
 9743SOL     OW32121   3.059   4.467   9.138 -0.2011  0.4588  0.0838
 9743SOL    HW132122   3.147   4.428   9.136 -0.9353 -1.2596 -0.2476
 9743SOL    HW232123   3.051   4.513   9.054  0.6071  1.2010  0.3965
 9744SOL     OW32124   4.368   7.285   1.264 -0.3976  0.1576  0.1202
 9744SOL    HW132125   4.318   7.203   1.259 -1.2091  0.6058  0.6666
 9744SOL    HW232126   4.435   7.268   1.330 -0.7478  0.0208  0.4468
 9745SOL     OW32127  10.250   0.272   6.947 -0.2341 -0.2171  0.5717
 9745SOL    HW132128  10.160   0.296   6.926  0.5536  0.5429 -2.4470
 9745SOL    HW232129  10.295   0.356   6.960  0.5062 -0.4480 -0.3754
 9746SOL     OW32130   9.523   3.575   4.237  0.3178  0.0465 -0.0108
 9746SOL    HW132131   9.434   3.607   4.228  0.0080 -0.5511  0.7815
 9746SOL    HW232132   9.558   3.574   4.148 -1.1645 -1.6781 -0.6237
 9747SOL     OW32133   0.938  10.008   0.021 -0.5129  0.4141 -0.4881
 9747SOL    HW132134   0.911  10.087   0.068 -0.7327  0.2460 -0.3341
 9747SOL    HW232135   0.859   9.978  -0.023 -0.6685 -0.2891  0.2647
 9748SOL     OW32136   7.027   6.390   2.636 -0.2324  0.6222 -0.2162
 9748SOL    HW132137   7.018   6.301   2.669 -1.1784  0.8756  0.2506
 9748SOL    HW232138   7.060   6.440   2.711 -0.6419  0.8422 -0.1763
 9749SOL     OW32139  10.263   5.639   3.668 -0.1417  0.7642  0.6100
 9749SOL    HW132140  10.200   5.621   3.598 -1.1788 -0.0046  1.6897
 9749SOL    HW232141  10.330   5.571   3.658 -0.4536  0.4626  0.5444
 9750SOL     OW32142   2.454   2.659   5.169  0.5216  0.2312 -0.0879
 9750SOL    HW132143   2.444   2.670   5.264 -0.4727 -0.0822 -0.1454
 9750SOL    HW232144   2.487   2.569   5.159  0.6261  0.2639 -0.0471
 9751SOL     OW32145   7.297   8.538  10.383  0.6081  0.1430  0.3827
 9751SOL    HW132146   7.369   8.569  10.438 -1.5587  3.4520  1.6538
 9751SOL    HW232147   7.276   8.613  10.327 -0.9725 -1.2097 -0.9262
 9752SOL     OW32148   7.037   3.249   0.471 -0.2191 -0.5477 -0.0976
 9752SOL    HW132149   7.025   3.154   0.478 -1.2712 -0.3028  2.7592
 9752SOL    HW232150   7.130   3.263   0.489 -0.4461 -0.9699  1.6272
 9753SOL     OW32151   3.881   0.563   1.760  0.1501  0.5408 -0.5121
 9753SOL    HW132152   3.820   0.578   1.832  1.1922 -1.4684  0.8948
 9753SOL    HW232153   3.898   0.650   1.724 -1.4781  1.4338  0.7556
 9754SOL     OW32154   8.653   3.243   7.360  0.2225 -0.4754 -0.1973
 9754SOL    HW132155   8.583   3.238   7.295  0.1860 -0.8652 -0.1323
 9754SOL    HW232156   8.734   3.244   7.309  0.1673  0.0274 -0.2745
 9755SOL     OW32157   1.288   1.579   0.545  0.0044 -0.0614  0.3862
 9755SOL    HW132158   1.341   1.551   0.471  0.7777 -0.1430  0.9538
 9755SOL    HW232159   1.266   1.670   0.526  1.9286  0.5776  0.9886
 9756SOL     OW32160  10.658   7.153   4.851  1.3299  0.6826 -0.1279
 9756SOL    HW132161  10.690   7.142   4.761  1.2440 -0.2630 -0.0565
 9756SOL    HW232162  10.717   7.098   4.903 -1.0515 -2.1741 -0.1423
 9757SOL     OW32163   3.185   8.506   3.799 -0.5672  0.4564 -0.2221
 9757SOL    HW132164   3.181   8.429   3.742 -0.5054  0.7255 -0.5977
 9757SOL    HW232165   3.188   8.470   3.887 -2.2272  0.0402 -0.2882
 9758SOL     OW32166   9.991   2.722   2.774 -0.0830 -0.1825 -0.4934
 9758SOL    HW132167   9.971   2.633   2.804 -0.8206  0.6211  1.5975
 9758SOL    HW232168   9.939   2.733   2.695 -1.8389 -0.8438  0.5220
 9759SOL     OW32169   2.439   4.514   2.689 -0.5907 -0.1668 -0.2795
 9759SOL    HW132170   2.447   4.463   2.609  1.6229 -0.1267 -0.1512
 9759SOL    HW232171   2.425   4.604   2.660  3.2448  0.4102 -0.8694
 9760SOL     OW32172   3.317   1.277   7.038  0.1722  0.2537  0.2549
 9760SOL    HW132173   3.326   1.354   6.981 -0.3166  0.0394 -0.1248
 9760SOL    HW232174   3.378   1.292   7.110 -0.1547  1.1591  0.3537
 9761SOL     OW32175   3.521   9.819   2.899 -0.5601  0.0668  0.2840
 9761SOL    HW132176   3.521   9.837   2.805  2.0333 -1.7440 -0.1858
 9761SOL    HW232177   3.545   9.902   2.939  1.4851  0.1425 -0.9645
 9762SOL     OW32178   6.226   4.679   3.183  0.1062 -0.3192 -0.2573
 9762SOL    HW132179   6.231   4.589   3.149  1.0896  0.3041 -1.9226
 9762SOL    HW232180   6.286   4.729   3.126  0.3692  1.2017  1.2741
 9763SOL     OW32181   1.717   4.870   8.817  0.5421 -0.3762 -0.1545
 9763SOL    HW132182   1.775   4.881   8.892 -1.2972  0.5482  1.2116
 9763SOL    HW232183   1.729   4.950   8.766  1.2526 -0.6787 -0.4747
 9764SOL     OW32184   9.161   0.339   2.390 -0.4687  0.3396  0.0803
 9764SOL    HW132185   9.187   0.304   2.305 -1.3162  1.6581 -0.7726
 9764SOL    HW232186   9.239   0.333   2.445 -0.4431 -2.3768 -0.1300
 9765SOL     OW32187  10.306   0.641   8.179  0.0995 -0.2867  0.1405
 9765SOL    HW132188  10.314   0.673   8.089 -1.1326 -0.6012 -0.0979
 9765SOL    HW232189  10.380   0.682   8.226  0.3813  0.3843 -0.8634
 9766SOL     OW32190   9.393   6.678   6.347 -0.1191 -0.4235  0.4336
 9766SOL    HW132191   9.480   6.643   6.331 -0.1792 -0.3616 -0.0572
 9766SOL    HW232192   9.346   6.607   6.391  0.3135 -0.2889  1.1219
 9767SOL     OW32193   8.358   8.673   9.892  0.2761  0.4294 -0.4155
 9767SOL    HW132194   8.380   8.661   9.799  2.4234 -3.0509  0.3598
 9767SOL    HW232195   8.284   8.614   9.906  0.7309  0.0077  0.2811
 9768SOL     OW32196   6.464   6.809   6.708  0.0018  0.2626  0.2817
 9768SOL    HW132197   6.427   6.764   6.784  0.1296 -0.7879 -0.2628
 9768SOL    HW232198   6.554   6.775   6.701 -0.1773 -0.0475 -0.6386
 9769SOL     OW32199   7.446   5.115   4.015 -0.4299 -0.0508  0.3535
 9769SOL    HW132200   7.358   5.081   4.000 -0.0415 -0.7275 -0.4499
 9769SOL    HW232201   7.486   5.051   4.075  0.0788 -0.6830 -0.6369
 9770SOL     OW32202   6.649   4.578   7.399  0.4367 -0.4056  0.1628
 9770SOL    HW132203   6.674   4.668   7.421  0.4023  0.1629 -1.9411
 9770SOL    HW232204   6.558   4.585   7.370  0.2400 -1.2460  0.5340
 9771SOL     OW32205   6.538   2.416   2.165 -0.1727  0.0181  0.6948
 9771SOL    HW132206   6.582   2.420   2.249  0.2109 -0.7508  0.5413
 9771SOL    HW232207   6.589   2.353   2.114  0.5747  1.6560 -0.6917
 9772SOL     OW32208   1.841   7.980   5.626 -0.3038  0.3941 -0.0101
 9772SOL    HW132209   1.789   8.010   5.700  0.3696  1.2285  0.1459
 9772SOL    HW232210   1.903   7.917   5.664 -0.7002 -0.0308 -0.0651
 9773SOL     OW32211   9.216   9.817   8.111  0.4736  0.5354 -0.2986
 9773SOL    HW132212   9.158   9.832   8.186  1.4074 -0.1055  0.5855
 9773SOL    HW232213   9.181   9.873   8.042 -0.4583  1.0897  0.5895
 9774SOL     OW32214   2.012   1.061   9.391  0.0556  0.3297 -0.3129
 9774SOL    HW132215   1.999   1.127   9.459  0.6405  1.3752 -1.1874
 9774SOL    HW232216   1.925   1.044   9.356 -0.0924  0.6656 -0.1046
 9775SOL     OW32217   6.905   5.744   2.101 -0.5047  0.3872 -0.6888
 9775SOL    HW132218   6.977   5.720   2.158 -0.6115  0.0916 -0.6729
 9775SOL    HW232219   6.888   5.836   2.119 -0.0353  0.4953 -0.8001
 9776SOL     OW32220   4.509  10.772   7.493 -0.3188  0.0860  0.0630
 9776SOL    HW132221   4.504  10.722   7.412 -1.1969 -0.1135  0.2291
 9776SOL    HW232222   4.476  10.859   7.470 -1.4000 -0.2229  0.3884
 9777SOL     OW32223   7.707   1.281  10.743  0.0711  0.0206  0.1856
 9777SOL    HW132224   7.735   1.372  10.751 -0.8913  0.5663 -1.9220
 9777SOL    HW232225   7.638   1.271  10.809  0.2118  0.7950  0.4550
 9778SOL     OW32226   2.403   9.764   5.070 -0.1652  0.0808  0.2049
 9778SOL    HW132227   2.439   9.685   5.030 -0.9962 -0.1132 -0.1650
 9778SOL    HW232228   2.312   9.741   5.091  0.3418  0.0026  2.6273
 9779SOL     OW32229   2.364   1.168   1.069 -0.5393  0.5308 -0.6684
 9779SOL    HW132230   2.457   1.165   1.092 -0.4032 -0.5360 -1.2898
 9779SOL    HW232231   2.343   1.261   1.064  0.7896  0.8019 -1.6647
 9780SOL     OW32232   7.877   9.019   7.385 -0.5213  0.2570  0.0270
 9780SOL    HW132233   7.863   9.111   7.406 -1.7575  0.3451 -1.0688
 9780SOL    HW232234   7.954   9.019   7.328 -0.0072  0.5048  0.7083
 9781SOL     OW32235   6.490  10.116   0.859 -0.1344  0.1881  0.5508
 9781SOL    HW132236   6.430  10.042   0.870  0.6061 -0.4021  0.7057
 9781SOL    HW232237   6.484  10.138   0.766 -0.3768 -0.0481  0.5083
 9782SOL     OW32238   4.751   8.034   3.460 -0.7256  0.1432 -0.1431
 9782SOL    HW132239   4.795   7.980   3.394 -0.1972  2.4890 -1.8307
 9782SOL    HW232240   4.678   7.980   3.489  1.5104 -2.7221  0.6136
 9783SOL     OW32241   2.709   3.599   9.523 -0.1132 -0.5296 -0.1574
 9783SOL    HW132242   2.688   3.526   9.581 -2.9005 -1.3426 -2.0305
 9783SOL    HW232243   2.790   3.573   9.479 -0.7347 -2.2286 -0.3493
 9784SOL     OW32244   1.895   3.035   5.848 -0.4905  0.3532  0.4160
 9784SOL    HW132245   1.987   3.056   5.835  0.0722 -2.0460  0.1589
 9784SOL    HW232246   1.878   2.962   5.789 -2.2839  0.0432  1.2415
 9785SOL     OW32247   6.218   5.588   6.577 -0.4335 -0.4588  0.2974
 9785SOL    HW132248   6.260   5.580   6.663 -0.3216  0.1049  0.3006
 9785SOL    HW232249   6.244   5.675   6.546 -0.3591 -0.7132 -0.3707
 9786SOL     OW32250   5.203   5.404   8.988 -0.2311 -0.4644 -0.1153
 9786SOL    HW132251   5.113   5.430   8.971  0.2108  1.7333  0.6594
 9786SOL    HW232252   5.254   5.443   8.916  0.2087 -1.0898 -0.1557
 9787SOL     OW32253   0.630   6.294   0.953 -0.9485 -0.2920  0.6588
 9787SOL    HW132254   0.576   6.373   0.960 -1.5134 -0.1164 -3.3952
 9787SOL    HW232255   0.720   6.325   0.964 -1.1920  0.8628 -0.4392
 9788SOL     OW32256   1.243   4.945   9.363  0.4042  0.8092  0.0318
 9788SOL    HW132257   1.315   4.992   9.405  0.6070 -0.2360  0.9238
 9788SOL    HW232258   1.220   4.877   9.426 -0.7042  0.4986 -0.6781
 9789SOL     OW32259   1.770  10.733   2.101 -0.1928  0.5068  0.3809
 9789SOL    HW132260   1.688  10.698   2.066  1.5340 -3.5375 -0.2367
 9789SOL    HW232261   1.817  10.764   2.023  1.0195 -2.4730 -0.1995
 9790SOL     OW32262   5.987   9.181   9.976  0.1688  0.2264 -0.0265
 9790SOL    HW132263   5.954   9.094   9.951  0.4367 -0.7389  2.7055
 9790SOL    HW232264   6.057   9.163  10.038  0.9558  2.4316 -0.1934
 9791SOL     OW32265   1.964   8.058   4.767 -0.2772 -0.0945 -0.2135
 9791SOL    HW132266   1.883   8.033   4.810 -0.2598  1.0791  0.5718
 9791SOL    HW232267   2.026   8.072   4.839  0.1156  0.6935 -0.6897
 9792SOL     OW32268   2.864  10.659   3.059  0.2931 -0.0082 -0.1812
 9792SOL    HW132269   2.899  10.636   2.973  0.1671 -0.8386 -0.0143
 9792SOL    HW232270   2.929  10.626   3.121  0.9402  1.5548  0.0377
 9793SOL     OW32271   9.250   6.513  10.390 -0.3451 -0.6662 -0.1233
 9793SOL    HW132272   9.311   6.570  10.438 -1.6428  0.3164  0.4260
 9793SOL    HW232273   9.273   6.525  10.298  1.0092 -1.1856  0.1266
 9794SOL     OW32274   4.661   0.820   2.337 -0.0192  0.2241 -0.0282
 9794SOL    HW132275   4.747   0.859   2.323  0.2271  0.0253  0.8838
 9794SOL    HW232276   4.658   0.745   2.277  0.8741 -0.4140  0.6987
 9795SOL     OW32277   8.043   3.881   2.277 -0.6329 -0.0112  0.4462
 9795SOL    HW132278   8.002   3.962   2.248 -1.7854 -0.3388  1.1172
 9795SOL    HW232279   7.995   3.856   2.356  0.0297 -1.0885  0.5346
 9796SOL     OW32280  10.547  10.215  10.781 -0.1153  0.3466  0.5415
 9796SOL    HW132281  10.638  10.195  10.803  0.5066 -0.3263 -2.2362
 9796SOL    HW232282  10.507  10.129  10.768 -0.8745  0.6652  0.7240
 9797SOL     OW32283   5.509   2.871   8.185  0.1245 -0.0930  0.5095
 9797SOL    HW132284   5.475   2.850   8.272 -0.4570 -0.2604  0.2448
 9797SOL    HW232285   5.447   2.934   8.149 -0.1290 -0.6936 -0.1275
 9798SOL     OW32286   3.810  10.727   6.733 -0.1850  0.2182 -0.4403
 9798SOL    HW132287   3.840  10.681   6.811 -0.5923 -0.9510 -0.9534
 9798SOL    HW232288   3.721  10.694   6.718 -0.3704  0.9325 -1.0115
 9799SOL     OW32289  10.535   0.850   0.529  0.1717 -0.6831 -0.1840
 9799SOL    HW132290  10.468   0.903   0.486  1.2770  0.5233 -0.4754
 9799SOL    HW232291  10.599   0.831   0.460  0.4461 -1.3165  0.2306
 9800SOL     OW32292   9.751   3.760   0.966 -0.2059  0.8276  0.3847
 9800SOL    HW132293   9.834   3.800   0.991  1.1523 -0.9576 -0.9569
 9800SOL    HW232294   9.751   3.675   1.011 -0.8204  0.3863 -0.4169
 9801SOL     OW32295   9.092   3.605   4.875  0.2319  0.1949 -0.3163
 9801SOL    HW132296   9.053   3.528   4.917 -1.4041  1.1574  0.0026
 9801SOL    HW232297   9.142   3.569   4.801  0.0406 -1.2194  0.2177
 9802SOL     OW32298   7.771   7.409   4.438 -0.3777  0.0564  0.1675
 9802SOL    HW132299   7.864   7.424   4.449 -0.2342  1.0667 -1.9438
 9802SOL    HW232300   7.749   7.451   4.355 -2.1231 -2.6156 -0.8883
 9803SOL     OW32301   3.530   4.557   9.020 -0.0794  0.7923  0.8930
 9803SOL    HW132302   3.608   4.544   8.966  0.5589  1.6592  1.5644
 9803SOL    HW232303   3.552   4.517   9.104 -0.5531  0.6075  0.9301
 9804SOL     OW32304   0.995   0.462   1.932 -0.5053 -0.8416  0.1583
 9804SOL    HW132305   0.969   0.483   1.843 -0.3441  0.2468  0.3544
 9804SOL    HW232306   1.086   0.434   1.925 -1.0408 -2.6114 -0.2478
 9805SOL     OW32307   2.564   5.882   7.918 -0.0121 -0.1604  0.0152
 9805SOL    HW132308   2.634   5.829   7.955 -0.1745  1.0434  2.2139
 9805SOL    HW232309   2.508   5.820   7.872  0.2221 -1.8069  1.8476
 9806SOL     OW32310   6.537   6.569   6.075 -0.2157  0.0936 -0.1723
 9806SOL    HW132311   6.514   6.610   6.158 -0.2225 -0.0917 -0.0816
 9806SOL    HW232312   6.453   6.554   6.031 -0.4786 -2.2719  0.9525
 9807SOL     OW32313   3.838  10.523   3.121 -0.2863  0.4501 -0.1398
 9807SOL    HW132314   3.888  10.446   3.148 -0.8726  0.2479  0.3945
 9807SOL    HW232315   3.808  10.563   3.203  1.2649  2.1191 -0.3368
 9808SOL     OW32316   8.677   2.515   9.064 -0.2877 -0.3613 -0.0867
 9808SOL    HW132317   8.651   2.489   8.976 -0.4421  1.3076 -0.5717
 9808SOL    HW232318   8.596   2.544   9.105  0.1163  1.0027 -0.2005
 9809SOL     OW32319   9.997   9.565   7.235  0.7053  0.1223 -0.3850
 9809SOL    HW132320  10.077   9.608   7.205  0.7223 -1.0404 -2.1328
 9809SOL    HW232321   9.926   9.618   7.200  0.7162  0.3912  0.0011
 9810SOL     OW32322   0.654   7.260   5.125  0.2131  0.4045  0.2179
 9810SOL    HW132323   0.583   7.310   5.086 -0.4609 -1.0576 -0.4838
 9810SOL    HW232324   0.732   7.288   5.077  0.0671  1.6585  0.6655
 9811SOL     OW32325   8.243  10.546   7.656  0.3776  0.1786  0.1626
 9811SOL    HW132326   8.228  10.489   7.580 -0.4674 -0.0871  0.5109
 9811SOL    HW232327   8.265  10.631   7.618  0.2087 -0.0174 -0.3874
 9812SOL     OW32328   9.425   7.728   3.474 -0.1290 -0.1702  0.1636
 9812SOL    HW132329   9.400   7.720   3.566 -0.8753 -0.9992 -0.0957
 9812SOL    HW232330   9.344   7.713   3.426  0.5231 -1.1675 -0.6672
 9813SOL     OW32331   6.947   8.336   5.121  0.0019  0.4664 -0.3990
 9813SOL    HW132332   6.918   8.251   5.154  0.6459  0.6941  0.7966
 9813SOL    HW232333   6.951   8.392   5.198  0.2985  1.3936 -1.0636
 9814SOL     OW32334   5.167   0.727   5.025 -0.5782 -0.2918  0.3456
 9814SOL    HW132335   5.242   0.781   4.998 -0.9375  0.3920  0.6800
 9814SOL    HW232336   5.111   0.724   4.948 -0.6124 -0.0827  0.3611
 9815SOL     OW32337   9.000   1.999   2.929  0.3613 -0.3582  0.0135
 9815SOL    HW132338   8.981   1.908   2.906 -1.6543 -0.1365  0.6283
 9815SOL    HW232339   8.931   2.049   2.886  1.4114  0.8965 -0.2581
 9816SOL     OW32340   0.541   1.951   8.236  0.3437  0.5323 -0.3069
 9816SOL    HW132341   0.574   1.865   8.209  0.9497  0.9134 -0.7995
 9816SOL    HW232342   0.604   2.013   8.200  0.9657  1.1039  1.6351
 9817SOL     OW32343   5.608   8.244   8.766  0.3339  0.5045 -0.5959
 9817SOL    HW132344   5.520   8.209   8.754 -0.0136  0.8992  0.7073
 9817SOL    HW232345   5.597   8.318   8.826  1.5874  0.4230 -0.2437
 9818SOL     OW32346   5.957   3.416   2.102 -0.4493  0.3562 -0.0520
 9818SOL    HW132347   5.953   3.431   2.008 -0.2974 -0.7991 -0.2571
 9818SOL    HW232348   6.051   3.408   2.121 -0.5566 -1.6467 -0.2012
 9819SOL     OW32349   5.836   3.125   2.563 -0.5647  0.6817 -0.7210
 9819SOL    HW132350   5.773   3.067   2.606  0.3234 -0.1225 -0.4680
 9819SOL    HW232351   5.822   3.111   2.469 -0.3520  0.0333 -0.6627
 9820SOL     OW32352   3.296   3.622   9.030 -0.5076  0.1804 -0.0405
 9820SOL    HW132353   3.250   3.543   9.000 -1.1577 -0.7063  2.8775
 9820SOL    HW232354   3.328   3.598   9.117 -0.5911  3.0966  0.8882
 9821SOL     OW32355   1.936   1.770   8.006 -0.0750  0.5756 -0.1987
 9821SOL    HW132356   1.932   1.798   7.914 -0.0698  0.1156 -0.3412
 9821SOL    HW232357   1.872   1.699   8.012  1.1029 -0.5317 -0.2514
 9822SOL     OW32358   6.835   7.165   7.961  0.2523  0.1726 -0.2748
 9822SOL    HW132359   6.803   7.243   7.916 -0.2036 -0.3227 -0.8301
 9822SOL    HW232360   6.930   7.167   7.949  0.2124  0.4883 -0.5395
 9823SOL     OW32361   7.426   7.082   0.112 -0.0459 -0.1201 -0.4953
 9823SOL    HW132362   7.361   7.070   0.042 -0.8445  0.4297  0.1323
 9823SOL    HW232363   7.477   7.158   0.085 -0.7919  0.5123 -0.1727
 9824SOL     OW32364   8.965   8.707   0.516  0.9891  0.1122 -0.6833
 9824SOL    HW132365   9.058   8.729   0.510  0.6670  1.4226 -1.1765
 9824SOL    HW232366   8.948   8.654   0.439  0.8692  1.7201 -1.8143
 9825SOL     OW32367   4.251   7.402   8.346  0.5961  0.5023  0.4303
 9825SOL    HW132368   4.211   7.479   8.306  1.1153  1.5731  1.8816
 9825SOL    HW232369   4.341   7.429   8.365  1.2307 -0.9508 -0.2853
 9826SOL     OW32370   8.424  10.017   2.892 -0.2461 -0.1016 -0.2634
 9826SOL    HW132371   8.493  10.004   2.956 -2.0051  1.6587  2.2116
 9826SOL    HW232372   8.358   9.951   2.913  0.5023 -1.6536 -2.4776
 9827SOL     OW32373   4.741   8.896   1.048  0.6132 -0.1849  0.1832
 9827SOL    HW132374   4.747   8.984   1.013  0.3688 -0.7488 -1.3437
 9827SOL    HW232375   4.816   8.888   1.107 -0.0210  1.4085  1.2710
 9828SOL     OW32376   8.560   2.686   9.456  0.0941  0.2751 -0.4044
 9828SOL    HW132377   8.522   2.604   9.423 -0.2189  0.1505  0.2638
 9828SOL    HW232378   8.529   2.752   9.394  1.3381 -0.2682 -1.6543
 9829SOL     OW32379   8.186   2.181   4.637  0.3923  0.0890  0.2344
 9829SOL    HW132380   8.270   2.181   4.683 -0.5304 -0.4160  1.9704
 9829SOL    HW232381   8.152   2.093   4.649 -1.6249  1.0091  1.9385
 9830SOL     OW32382  10.774   2.862  10.583  0.4143 -0.2216 -0.1405
 9830SOL    HW132383  10.705   2.847  10.648  1.5058 -0.3073  1.0231
 9830SOL    HW232384  10.821   2.938  10.615  1.0934 -0.3801 -0.7387
 9831SOL     OW32385   1.484  10.105   5.166  0.3339  0.2133 -0.5246
 9831SOL    HW132386   1.456  10.159   5.239  1.5988 -0.8471  0.8073
 9831SOL    HW232387   1.552  10.048   5.203  1.3877 -0.0123 -2.6473
 9832SOL     OW32388   3.100   1.482   8.527  0.1314  0.0907  0.0565
 9832SOL    HW132389   3.139   1.569   8.539 -0.0138  0.3808 -1.3745
 9832SOL    HW232390   3.054   1.465   8.609 -0.3621  1.6471  0.1367
 9833SOL     OW32391   9.998   6.477   2.993  0.1969 -0.6283  0.0217
 9833SOL    HW132392   9.945   6.398   2.982 -0.5136 -0.3615  1.2722
 9833SOL    HW232393   9.933   6.546   3.007  0.8557 -0.2648  1.4333
 9834SOL     OW32394   8.036   1.660   5.532  0.3948  0.5672  0.5793
 9834SOL    HW132395   8.019   1.646   5.439 -2.3978 -0.6847  1.1721
 9834SOL    HW232396   8.029   1.572   5.571  2.5834  0.8920  1.8640
 9835SOL     OW32397   3.090   5.867  10.210  0.3798  0.5968 -0.0167
 9835SOL    HW132398   3.044   5.928  10.268 -1.4049 -0.3538 -0.3405
 9835SOL    HW232399   3.086   5.910  10.124 -0.3073  0.3496 -0.1201
 9836SOL     OW32400   5.197   1.315   1.582  0.3017 -0.0260 -0.0562
 9836SOL    HW132401   5.197   1.329   1.676  1.9448 -0.1160 -0.0123
 9836SOL    HW232402   5.203   1.402   1.544 -0.0800 -0.0050 -0.0661
 9837SOL     OW32403   5.184   8.037   7.761  0.3733 -0.1321  0.1759
 9837SOL    HW132404   5.164   8.105   7.825  0.2990 -0.6157  0.6735
 9837SOL    HW232405   5.258   8.072   7.711 -0.0222  0.5507  0.0500
 9838SOL     OW32406   4.049   4.213   0.814  0.3042 -0.0546  0.3173
 9838SOL    HW132407   4.068   4.282   0.750 -0.1334 -0.2910 -0.0767
 9838SOL    HW232408   4.036   4.259   0.896  0.6856  0.2703  0.2006
 9839SOL     OW32409   2.400   6.975   9.870 -0.5826  0.1223  0.1463
 9839SOL    HW132410   2.405   6.926   9.788 -0.6387  0.4438 -0.0554
 9839SOL    HW232411   2.365   6.913   9.934  0.7002 -0.5276  0.2529
 9840SOL     OW32412   2.706   9.834   3.739 -0.1967 -0.3606  0.2295
 9840SOL    HW132413   2.797   9.858   3.725 -0.7735  1.7849 -0.1526
 9840SOL    HW232414   2.710   9.747   3.778  2.0406  0.1467  1.2858
 9841SOL     OW32415   1.651   8.903   0.526 -0.0103 -0.1736 -0.4193
 9841SOL    HW132416   1.653   8.824   0.581 -0.0549  0.8112  1.0597
 9841SOL    HW232417   1.622   8.872   0.441  1.6609 -2.0498 -0.3928
 9842SOL     OW32418   2.787   9.472   8.973  0.1202 -0.2253 -0.1428
 9842SOL    HW132419   2.785   9.526   8.894 -0.6530  0.2041  0.1591
 9842SOL    HW232420   2.819   9.531   9.042 -0.8958 -0.0907  0.2262
 9843SOL     OW32421   4.538   3.164   8.473  0.2359 -0.4553 -0.1222
 9843SOL    HW132422   4.530   3.111   8.553  0.5812  1.6616  1.3858
 9843SOL    HW232423   4.623   3.140   8.437  0.3533 -0.9842  0.4854
 9844SOL     OW32424   1.619   7.139   8.436  0.0842  0.2201 -0.4338
 9844SOL    HW132425   1.552   7.199   8.404 -0.9216 -0.2686  0.6918
 9844SOL    HW232426   1.593   7.054   8.402  0.7112  0.1885 -0.8410
 9845SOL     OW32427   6.628   9.438  10.278  0.1978  0.3441  0.7770
 9845SOL    HW132428   6.666   9.522  10.304  0.9041  0.3293 -0.1855
 9845SOL    HW232429   6.534   9.453  10.279  0.2658  0.7901  1.7997
 9846SOL     OW32430   7.162  10.735   3.987 -0.3428  0.9586  0.7640
 9846SOL    HW132431   7.203  10.820   4.006  1.2821  0.0800  1.3363
 9846SOL    HW232432   7.145  10.698   4.074  1.4108 -0.4096  0.5795
 9847SOL     OW32433   4.411   1.616   4.040  0.8455 -0.5292 -0.3498
 9847SOL    HW132434   4.406   1.677   4.114  2.7083 -1.7993  0.9386
 9847SOL    HW232435   4.328   1.626   3.994 -0.3163  0.4497  1.8295
 9848SOL     OW32436   1.772   2.707   0.078  0.3626 -0.1210 -0.0096
 9848SOL    HW132437   1.695   2.712   0.022 -0.2512  0.9235  0.8761
 9848SOL    HW232438   1.784   2.796   0.110 -0.2337 -0.8952  2.6801
 9849SOL     OW32439   7.603   8.036   1.395  0.4613  0.4857  0.5541
 9849SOL    HW132440   7.551   8.110   1.427 -1.7931 -0.0038 -1.6390
 9849SOL    HW232441   7.671   8.075   1.340  0.5080  1.0099  0.9838
 9850SOL     OW32442   0.683   0.310   4.518  0.3321 -0.5569 -0.4237
 9850SOL    HW132443   0.779   0.306   4.523  0.3782  0.9799  0.7444
 9850SOL    HW232444   0.665   0.356   4.437  0.5095 -2.0768 -1.3602
 9851SOL     OW32445   7.056   5.273   5.883  0.0415 -0.6584  0.5906
 9851SOL    HW132446   6.973   5.227   5.891 -0.8247  1.1256  2.8783
 9851SOL    HW232447   7.093   5.273   5.971  1.0995  0.9906  0.2022
 9852SOL     OW32448   2.885   3.186   3.195  0.3924  0.2454  0.1250
 9852SOL    HW132449   2.904   3.211   3.105 -2.1732 -0.6678 -0.7760
 9852SOL    HW232450   2.800   3.141   3.190  0.0525  0.3502  3.0279
 9853SOL     OW32451   9.107   2.131   4.537 -0.1572 -0.2533  0.8546
 9853SOL    HW132452   9.046   2.165   4.602 -0.9699  0.6655 -0.3469
 9853SOL    HW232453   9.052   2.092   4.470  0.5190  1.0574 -0.5154
 9854SOL     OW32454   9.933   2.873   0.196  0.4059  0.3325  0.1353
 9854SOL    HW132455   9.993   2.931   0.148 -1.0039 -0.7600 -3.2449
 9854SOL    HW232456   9.871   2.933   0.237  0.9378  1.3068 -0.4292
 9855SOL     OW32457   3.927   4.460   5.150  0.3210  0.4327 -0.2996
 9855SOL    HW132458   4.003   4.460   5.208 -0.5910 -0.9941  0.9714
 9855SOL    HW232459   3.912   4.368   5.130 -2.4940  0.3933  1.4871
 9856SOL     OW32460   1.973   2.662   4.622 -0.0924  0.3429  0.3421
 9856SOL    HW132461   1.953   2.674   4.714  0.7623  0.8723  0.4681
 9856SOL    HW232462   1.894   2.691   4.576 -0.7168 -0.3968  0.9059
 9857SOL     OW32463   1.794   4.710   4.725 -0.3036 -0.6558  0.1364
 9857SOL    HW132464   1.788   4.753   4.639  1.6089 -1.0795 -0.2630
 9857SOL    HW232465   1.718   4.742   4.773 -0.4691  0.9784 -1.1049
 9858SOL     OW32466   5.331   3.148   5.374 -1.0149 -0.9020  0.1962
 9858SOL    HW132467   5.288   3.082   5.321  0.4265 -0.7185 -1.2804
 9858SOL    HW232468   5.422   3.148   5.343 -0.7656  1.1103  0.7899
 9859SOL     OW32469   9.750   3.416   8.570 -0.1271  0.6522  0.0943
 9859SOL    HW132470   9.726   3.349   8.505 -0.6124 -0.2805  1.1946
 9859SOL    HW232471   9.670   3.466   8.584 -0.0350  0.8269 -0.0093
 9860SOL     OW32472   5.987  10.085  10.495 -0.5754 -0.0934  0.4563
 9860SOL    HW132473   5.995  10.140  10.418 -2.0621 -0.4955 -0.0026
 9860SOL    HW232474   6.068  10.102  10.545  1.0866 -0.8647 -1.8245
 9861SOL     OW32475   5.877   6.390   0.848 -0.6663  0.3166  0.6330
 9861SOL    HW132476   5.818   6.465   0.857  0.0518  0.7269  2.3041
 9861SOL    HW232477   5.965   6.427   0.860 -0.1539 -0.5123 -0.3890
 9862SOL     OW32478   3.208   1.710   5.273 -0.3352  0.1265  0.0196
 9862SOL    HW132479   3.227   1.627   5.229  0.6568 -0.3804  1.3357
 9862SOL    HW232480   3.264   1.774   5.227 -0.2957 -0.1364 -0.3056
 9863SOL     OW32481   2.634   2.604   5.759  0.1208  0.0124 -0.2311
 9863SOL    HW132482   2.540   2.596   5.772  0.1559 -0.9210 -0.5320
 9863SOL    HW232483   2.671   2.598   5.847 -0.1411  1.2124 -0.0192
 9864SOL     OW32484   5.036   0.420  10.106 -0.2827  0.5441 -0.3603
 9864SOL    HW132485   4.997   0.399  10.022 -0.3133 -0.4949 -0.0991
 9864SOL    HW232486   5.088   0.498  10.090  0.6351 -0.3037 -1.6056
 9865SOL     OW32487   3.852   0.088   4.409 -0.2164  0.3088  0.0390
 9865SOL    HW132488   3.840   0.073   4.315  0.9582 -0.1360 -0.0658
 9865SOL    HW232489   3.818   0.009   4.450 -1.3095  0.7691  0.0419
 9866SOL     OW32490   4.660   8.133   2.722 -0.5075  0.8038 -0.4194
 9866SOL    HW132491   4.724   8.066   2.748  0.0904  1.3876 -0.3733
 9866SOL    HW232492   4.712   8.202   2.681 -1.0983  1.3288 -0.3052
 9867SOL     OW32493   5.775   4.756   5.343 -0.3286  0.0547  0.1595
 9867SOL    HW132494   5.738   4.828   5.394  0.3643  0.0667  0.6629
 9867SOL    HW232495   5.725   4.679   5.370 -0.0116  0.0739  0.8172
 9868SOL     OW32496   6.213   8.972   4.116 -0.2612  0.1076 -0.4276
 9868SOL    HW132497   6.123   8.994   4.139 -0.3882 -1.5914  0.9385
 9868SOL    HW232498   6.251   8.942   4.198  0.5498 -2.3661 -1.6275
 9869SOL     OW32499   8.092   8.279   8.504  0.4386 -0.1436 -0.3762
 9869SOL    HW132500   8.136   8.230   8.574  0.0444 -0.5189 -0.3876
 9869SOL    HW232501   8.122   8.369   8.516 -2.2297  0.5347  2.4829
 9870SOL     OW32502   7.416   2.321  10.178 -0.0823  0.0564 -0.3381
 9870SOL    HW132503   7.497   2.332  10.228  0.9289 -0.7904 -1.7424
 9870SOL    HW232504   7.409   2.227  10.163 -1.1357  0.1574 -0.5694
 9871SOL     OW32505   8.062   5.948   5.965 -0.1206 -0.1810 -0.3032
 9871SOL    HW132506   8.012   5.951   5.884  1.2568 -0.3268 -1.2024
 9871SOL    HW232507   8.003   5.908   6.029 -1.6105  0.9339 -0.9198
 9872SOL     OW32508   4.285   2.794   0.414 -0.6926 -0.1087  0.6629
 9872SOL    HW132509   4.353   2.737   0.449 -0.4071 -0.1727  0.0132
 9872SOL    HW232510   4.265   2.758   0.327  0.2364  1.3524 -0.2014
 9873SOL     OW32511   3.171   1.568   5.916 -0.2860  0.1860  0.2901
 9873SOL    HW132512   3.198   1.652   5.953 -0.0926 -0.5834  1.9726
 9873SOL    HW232513   3.217   1.502   5.968  0.1528 -0.9757 -1.4787
 9874SOL     OW32514   4.463   5.473   8.971  0.4524 -0.8461  0.2076
 9874SOL    HW132515   4.441   5.513   8.887  0.4004 -1.0456  0.1253
 9874SOL    HW232516   4.425   5.385   8.967 -0.0377 -0.6604  0.6598
 9875SOL     OW32517   6.581   8.985   2.291 -0.0562  0.1972  0.6088
 9875SOL    HW132518   6.641   9.006   2.362  2.6071 -0.0814 -1.3827
 9875SOL    HW232519   6.501   8.954   2.334  1.6477 -0.6040  3.4320
 9876SOL     OW32520   4.296   5.238   4.813 -0.6427  0.1118  0.1523
 9876SOL    HW132521   4.272   5.171   4.877 -1.1889  0.0026 -0.1592
 9876SOL    HW232522   4.379   5.274   4.845  1.5226 -3.0169 -1.3925
 9877SOL     OW32523   5.678   8.973   3.576  0.4477 -0.3869  0.5527
 9877SOL    HW132524   5.726   8.904   3.622  1.0328 -2.0762 -2.3800
 9877SOL    HW232525   5.586   8.956   3.596  0.6287 -1.6286  0.4004
 9878SOL     OW32526   2.092   6.736   9.643  0.0334 -0.5926  0.1222
 9878SOL    HW132527   2.079   6.647   9.612  0.1503 -0.2082 -1.1184
 9878SOL    HW232528   2.152   6.775   9.579  1.0458 -0.0120  1.3656
 9879SOL     OW32529   0.821   7.894   8.776  0.2001 -0.0830 -0.0707
 9879SOL    HW132530   0.792   7.867   8.690  0.4381  0.3094 -0.2796
 9879SOL    HW232531   0.746   7.879   8.833  0.1952 -0.7802 -0.2549
 9880SOL     OW32532   4.993   9.075   2.080  0.2925 -0.3563  0.4597
 9880SOL    HW132533   4.944   9.117   2.010 -0.0534 -2.5830 -0.7341
 9880SOL    HW232534   5.002   9.143   2.148 -1.2426  1.2029 -0.8120
 9881SOL     OW32535   0.964   0.592   2.411  0.4277  0.2298  0.0191
 9881SOL    HW132536   0.875   0.562   2.391  1.3738 -2.2198 -0.9321
 9881SOL    HW232537   0.987   0.650   2.338  0.4784 -1.1586 -1.1041
 9882SOL     OW32538   4.313   6.625   7.618  0.8131  0.0613  0.0900
 9882SOL    HW132539   4.225   6.662   7.615  0.7998 -0.0374 -1.5182
 9882SOL    HW232540   4.305   6.539   7.576  1.2961 -0.8501  1.7559
 9883SOL     OW32541   2.081   1.741   1.477  0.1221  0.0306 -0.2163
 9883SOL    HW132542   2.173   1.721   1.460 -0.0200 -1.6684  0.7686
 9883SOL    HW232543   2.082   1.821   1.529  1.2590 -1.3454  2.0281
 9884SOL     OW32544   3.038   1.738   2.577 -0.1155  0.4099 -0.2604
 9884SOL    HW132545   3.101   1.667   2.563 -0.1660 -0.2775  2.3791
 9884SOL    HW232546   2.978   1.732   2.503  0.9798 -1.0963 -1.0901
 9885SOL     OW32547   5.766   0.598   0.159 -0.0417  0.0774  0.0771
 9885SOL    HW132548   5.858   0.623   0.151 -0.2447  0.6449 -0.5607
 9885SOL    HW232549   5.732   0.653   0.230  0.1568 -0.2838  0.4570
 9886SOL     OW32550   3.894   5.618   9.866  0.1899  0.1281 -0.9675
 9886SOL    HW132551   3.840   5.598   9.790 -0.3746 -0.6227 -0.3892
 9886SOL    HW232552   3.912   5.532   9.905 -3.7739  0.6516  2.6473
 9887SOL     OW32553   0.981   4.088   2.628 -0.0431  0.0733  0.1126
 9887SOL    HW132554   0.948   3.998   2.629  0.0145  0.0529  0.2807
 9887SOL    HW232555   1.014   4.102   2.717 -0.0100  0.2451  0.0732
 9888SOL     OW32556   0.881   2.484   9.946 -0.4862  0.0013 -0.7352
 9888SOL    HW132557   0.881   2.495  10.041 -0.2399 -0.7110 -0.6483
 9888SOL    HW232558   0.808   2.425   9.928 -0.1228 -0.3902 -0.9254
 9889SOL     OW32559   7.801   3.748   8.568 -0.2447  0.0356  0.2105
 9889SOL    HW132560   7.781   3.829   8.522 -1.5912 -0.7630 -0.7120
 9889SOL    HW232561   7.885   3.719   8.532  0.8223  1.5646  1.3824
 9890SOL     OW32562   4.048   6.599   4.896 -0.0957  0.0688  0.4983
 9890SOL    HW132563   4.063   6.590   4.990  0.6355 -0.0457  0.3768
 9890SOL    HW232564   4.086   6.684   4.873  0.1467 -0.1127  0.2222
 9891SOL     OW32565   1.102   3.629   8.914 -0.3980 -0.0995 -0.7653
 9891SOL    HW132566   1.014   3.634   8.953 -1.2115  0.1392 -2.5148
 9891SOL    HW232567   1.160   3.665   8.981 -1.9005  1.6200 -0.3146
 9892SOL     OW32568   5.252   9.803   2.220 -0.3664 -0.5280 -0.1263
 9892SOL    HW132569   5.271   9.882   2.170  0.7533 -0.6620  0.0628
 9892SOL    HW232570   5.191   9.754   2.165 -0.3075  0.0159 -0.6860
 9893SOL     OW32571   6.353  10.559   6.961 -0.6392  0.5731 -0.7358
 9893SOL    HW132572   6.420  10.618   6.928  0.1744  0.5873  0.8318
 9893SOL    HW232573   6.347  10.490   6.894  1.3702  0.2713 -0.6836
 9894SOL     OW32574   6.045   0.610   1.614 -0.5932  0.1255  0.9303
 9894SOL    HW132575   5.979   0.634   1.549  0.0591 -2.2752 -0.7649
 9894SOL    HW232576   5.999   0.614   1.697 -1.9578  1.5807  0.1684
 9895SOL     OW32577   6.180   5.925   2.824  0.5866 -0.1770  0.2575
 9895SOL    HW132578   6.189   5.888   2.736 -2.0927 -0.7622  0.1526
 9895SOL    HW232579   6.207   6.017   2.814 -1.9265  0.4522 -1.8130
 9896SOL     OW32580   4.409   7.778   9.324 -0.0080  0.8020  0.3242
 9896SOL    HW132581   4.501   7.760   9.346 -0.5251 -1.2641  0.9895
 9896SOL    HW232582   4.404   7.874   9.322  2.1730  0.9773  0.1749
 9897SOL     OW32583   6.016   7.700  10.358  0.5774 -0.3598 -0.0178
 9897SOL    HW132584   6.008   7.714  10.453  0.4387  0.1900 -0.1104
 9897SOL    HW232585   5.959   7.766  10.319  0.7343 -0.5007 -0.4913
 9898SOL     OW32586   0.470   7.153   3.428 -0.0902 -0.0385  0.0392
 9898SOL    HW132587   0.492   7.107   3.509  0.5712  0.0931 -0.0618
 9898SOL    HW232588   0.374   7.149   3.424 -0.1754  0.4706  1.1405
 9899SOL     OW32589   5.224   5.087   9.080  0.5161  0.2724  0.1627
 9899SOL    HW132590   5.306   5.136   9.082 -0.1119  1.4218 -1.0059
 9899SOL    HW232591   5.239   5.018   9.015 -0.1057  1.7947 -1.6791
 9900SOL     OW32592   3.663   2.237   5.718  0.1530 -0.8711  0.4569
 9900SOL    HW132593   3.694   2.151   5.748  0.9483 -0.7484  0.0307
 9900SOL    HW232594   3.662   2.291   5.797  0.0009 -1.1740  0.6636
 9901SOL     OW32595   1.906   3.499   2.173  0.4234 -0.1940  0.0190
 9901SOL    HW132596   1.890   3.526   2.082  0.3473  0.8833  0.3378
 9901SOL    HW232597   1.947   3.413   2.166 -0.2930 -0.4638 -1.0100
 9902SOL     OW32598   0.232   6.963   8.969  0.5531 -0.4261  0.5513
 9902SOL    HW132599   0.195   6.921   8.891 -0.8153 -2.6124  2.2563
 9902SOL    HW232600   0.160   6.965   9.032  1.6637  1.0983  1.8474
 9903SOL     OW32601   4.533   4.174   6.734 -0.2623  0.4544  0.5491
 9903SOL    HW132602   4.572   4.205   6.653  1.8117 -2.0535  0.4673
 9903SOL    HW232603   4.597   4.197   6.802  0.9400 -2.5460  0.5923
 9904SOL     OW32604   5.336  10.715   1.778  0.1765  0.0944  0.1880
 9904SOL    HW132605   5.317  10.797   1.732  0.4192  0.3004  0.4497
 9904SOL    HW232606   5.430  10.701   1.764 -0.0561 -0.6631 -0.6911
 9905SOL     OW32607   9.170   4.674   1.054  0.1887 -0.7199  0.0271
 9905SOL    HW132608   9.147   4.714   1.138  2.7207 -1.2437  1.0507
 9905SOL    HW232609   9.175   4.748   0.993  0.8574  0.0233  0.9523
 9906SOL     OW32610   1.478   2.555   8.088 -0.3739 -0.1177 -0.0057
 9906SOL    HW132611   1.405   2.502   8.119  0.4922 -1.0136  0.5724
 9906SOL    HW232612   1.451   2.583   8.000 -1.4341 -0.3681  0.2197
 9907SOL     OW32613   5.603   6.179   0.076  0.4762 -0.6118 -0.8170
 9907SOL    HW132614   5.539   6.247   0.053 -0.4061 -0.6862  1.1697
 9907SOL    HW232615   5.676   6.193   0.016 -0.6298  0.6512 -1.9458
 9908SOL     OW32616   1.091   8.999   8.100  0.4627 -0.2890 -0.2620
 9908SOL    HW132617   1.083   8.927   8.037 -1.5127 -1.4606  1.1995
 9908SOL    HW232618   1.117   8.956   8.182 -2.3750  0.3367  1.0775
 9909SOL     OW32619   5.752   2.750  10.393  0.2576 -0.1425  0.2784
 9909SOL    HW132620   5.714   2.663  10.403  2.1547 -1.0714 -0.0642
 9909SOL    HW232621   5.795   2.747  10.308  1.3377  0.7246  0.7738
 9910SOL     OW32622   3.577   1.638   7.724 -0.1767 -0.0167  0.5893
 9910SOL    HW132623   3.510   1.596   7.670 -0.7242  0.8702  0.5720
 9910SOL    HW232624   3.539   1.643   7.811 -0.7095  1.7371  0.2862
 9911SOL     OW32625   2.466   1.102   2.362  0.0005 -0.2626  0.1053
 9911SOL    HW132626   2.555   1.137   2.371  0.0018 -0.7803  2.9123
 9911SOL    HW232627   2.479   1.017   2.320  0.4289  0.9755 -2.5016
 9912SOL     OW32628   4.598   3.199   2.259 -0.2549 -0.3389  0.4308
 9912SOL    HW132629   4.671   3.138   2.251 -0.2697 -0.3015 -0.0346
 9912SOL    HW232630   4.556   3.175   2.341 -0.3993 -1.1110  0.1455
 9913SOL     OW32631   9.449   3.304   8.709  0.2827 -0.4499  0.2271
 9913SOL    HW132632   9.449   3.400   8.705  0.1935 -0.4869 -1.3699
 9913SOL    HW232633   9.515   3.283   8.775  1.1428  0.7104 -0.2098
 9914SOL     OW32634   8.052   2.672   3.184 -0.3434  0.0046 -0.0104
 9914SOL    HW132635   8.057   2.709   3.095  0.9067 -0.5168 -0.1716
 9914SOL    HW232636   8.110   2.727   3.236 -1.4294  0.5994  0.6180
 9915SOL     OW32637   7.968   7.012   2.473 -0.1473  0.1710 -0.6466
 9915SOL    HW132638   8.044   7.070   2.480 -1.4503  1.7205  2.5484
 9915SOL    HW232639   8.007   6.924   2.465  1.9013  1.1223 -2.0430
 9916SOL     OW32640   8.090   7.596   5.683 -0.7068 -0.1077  0.3107
 9916SOL    HW132641   8.131   7.680   5.663  1.4531 -0.7483  1.7393
 9916SOL    HW232642   8.129   7.535   5.620 -0.1581 -0.5446  1.0649
 9917SOL     OW32643   3.977   5.579   6.790 -0.2973 -0.5883  0.0335
 9917SOL    HW132644   3.883   5.576   6.807 -0.0100 -0.4967  1.7782
 9917SOL    HW232645   3.991   5.511   6.725 -1.2840 -2.0499  1.2748
 9918SOL     OW32646   3.236  10.613   5.403 -0.1694  0.0686 -0.4940
 9918SOL    HW132647   3.249  10.688   5.461  0.3272  1.1247 -1.9172
 9918SOL    HW232648   3.160  10.568   5.440  0.1281  0.6956  0.9666
 9919SOL     OW32649   9.517   9.120   9.249  0.4188 -0.6643 -0.3195
 9919SOL    HW132650   9.603   9.090   9.280  0.7157  0.2735 -0.1966
 9919SOL    HW232651   9.524   9.215   9.250 -1.6725 -0.4435  2.6942
 9920SOL     OW32652   7.865   2.863   7.288 -0.1386 -0.5825 -0.6158
 9920SOL    HW132653   7.868   2.795   7.355  0.8455 -0.1733 -0.2210
 9920SOL    HW232654   7.826   2.938   7.333  1.9637  0.2097  0.0397
 9921SOL     OW32655   9.039   0.926   6.258 -0.0512 -0.1230  0.5931
 9921SOL    HW132656   9.117   0.954   6.306 -0.4080 -0.0455  1.1295
 9921SOL    HW232657   8.978   0.897   6.325 -1.0158  1.1115  0.2772
 9922SOL     OW32658   3.699  10.360   1.646 -0.2973 -0.1212 -0.5102
 9922SOL    HW132659   3.717  10.318   1.562  0.7491 -0.6569 -0.0384
 9922SOL    HW232660   3.749  10.442   1.643 -1.3715  0.5422 -0.9467
 9923SOL     OW32661   2.982   9.626   4.103  0.1536  0.2037  0.1734
 9923SOL    HW132662   2.955   9.717   4.090  0.4171  0.2982  0.2942
 9923SOL    HW232663   3.047   9.630   4.173 -0.4509 -0.1677  0.7786
 9924SOL     OW32664   8.000   3.975   9.629  0.8704  0.6775 -0.0761
 9924SOL    HW132665   8.018   3.919   9.554  1.9531  0.9711 -0.0514
 9924SOL    HW232666   8.001   3.915   9.704 -1.1913  0.2158 -0.3583
 9925SOL     OW32667   2.997   4.418   3.835  0.4766 -0.3995 -0.1340
 9925SOL    HW132668   3.090   4.403   3.852  0.3464 -2.4281 -0.9192
 9925SOL    HW232669   2.951   4.371   3.905  0.0462 -1.8598 -1.3463
 9926SOL     OW32670  10.170   9.567   2.013  0.4917 -0.1315  0.0104
 9926SOL    HW132671  10.221   9.494   2.047  0.6225 -1.2217 -2.3032
 9926SOL    HW232672  10.086   9.528   1.988  0.2690  0.6608 -0.5294
 9927SOL     OW32673   8.312   0.442  10.435 -0.2464 -0.1366  0.3439
 9927SOL    HW132674   8.358   0.524  10.451  1.6260 -0.9467 -0.5957
 9927SOL    HW232675   8.357   0.377  10.489  0.1634 -1.0780 -1.0667
 9928SOL     OW32676   7.904   3.602   9.558  0.9095 -0.2404 -0.0378
 9928SOL    HW132677   7.956   3.523   9.547  0.1170 -0.8865  0.7104
 9928SOL    HW232678   7.890   3.608   9.653  0.7213  0.6334 -0.1142
 9929SOL     OW32679  10.164   9.783   4.800  0.1261 -0.7539  0.0977
 9929SOL    HW132680  10.130   9.843   4.866  0.3417 -0.0063 -0.4537
 9929SOL    HW232681  10.259   9.781   4.816  0.3706  0.5046 -1.0167
 9930SOL     OW32682   6.098   8.026   8.750  0.5027 -0.2449  0.1885
 9930SOL    HW132683   6.004   8.039   8.735  0.2453 -0.4439  1.5297
 9930SOL    HW232684   6.111   8.046   8.842  1.5927 -1.2834  0.2857
 9931SOL     OW32685   3.519   1.970   0.065  0.0500 -0.3393 -0.1749
 9931SOL    HW132686   3.471   2.053   0.062 -1.5997 -1.2370  0.0916
 9931SOL    HW232687   3.487   1.927   0.144  1.7772 -0.7320  0.3480
 9932SOL     OW32688   7.549   5.854   7.316  0.0128 -0.8495  0.5566
 9932SOL    HW132689   7.524   5.823   7.229 -2.1403  0.9462  0.4441
 9932SOL    HW232690   7.542   5.777   7.372  0.0517 -1.7236 -0.6097
 9933SOL     OW32691   1.567   6.379   4.624  0.3146  0.1959  0.2106
 9933SOL    HW132692   1.540   6.467   4.598  2.0136  0.5889 -0.2962
 9933SOL    HW232693   1.554   6.377   4.719 -0.4949  0.6937  0.1211
 9934SOL     OW32694   0.153   9.486   3.989  0.2079 -0.0168  0.2159
 9934SOL    HW132695   0.160   9.530   4.074  0.7248 -0.0257  0.1833
 9934SOL    HW232696   0.139   9.394   4.010  3.0759 -0.5107  0.3644
 9935SOL     OW32697   0.385   5.987   2.274  0.0810 -0.6506 -0.3185
 9935SOL    HW132698   0.416   6.010   2.361 -1.4357 -0.2766  0.1413
 9935SOL    HW232699   0.373   5.892   2.276 -1.8414 -0.4284  0.5477
 9936SOL     OW32700   6.786   5.898   3.095  0.0967 -0.0570 -0.1050
 9936SOL    HW132701   6.815   5.911   3.004  0.8712 -0.3419  0.0920
 9936SOL    HW232702   6.827   5.816   3.121 -1.0158 -0.5430  0.1531
 9937SOL     OW32703   0.593   2.037   4.587  0.2126  0.0073 -0.1561
 9937SOL    HW132704   0.660   2.101   4.612  0.4060 -0.2983  0.1123
 9937SOL    HW232705   0.511   2.073   4.623  0.0484  0.8856 -1.3252
 9938SOL     OW32706   5.542   7.560   3.256  0.0147 -0.2527 -0.1035
 9938SOL    HW132707   5.620   7.613   3.243 -0.8527  1.0084 -0.3795
 9938SOL    HW232708   5.508   7.545   3.168 -1.0460  0.7951  0.0995
 9939SOL     OW32709   8.169   6.300   8.437  0.6249  0.6589 -0.1867
 9939SOL    HW132710   8.247   6.299   8.382  1.2766 -1.1307  0.6799
 9939SOL    HW232711   8.123   6.219   8.414 -0.6709  1.3725 -0.2161
 9940SOL     OW32712   2.693   4.523   5.695 -0.5954  0.1571  0.2155
 9940SOL    HW132713   2.729   4.605   5.729  1.5102 -0.8423  0.5424
 9940SOL    HW232714   2.641   4.489   5.768  0.2509  0.1881  0.8445
 9941SOL     OW32715   9.576   8.980   1.630  0.6752  0.7121  0.5523
 9941SOL    HW132716   9.485   8.972   1.661  0.7007  0.8589  0.6637
 9941SOL    HW232717   9.568   8.976   1.535  0.6707 -0.4670  0.5860
 9942SOL     OW32718   6.562   7.844   1.784 -0.1191  0.5840 -0.6600
 9942SOL    HW132719   6.535   7.886   1.865 -2.4977 -0.4652 -0.8282
 9942SOL    HW232720   6.519   7.758   1.786  0.9837 -0.0580 -2.3544
 9943SOL     OW32721   5.532   3.906   2.842 -0.1498 -0.7083  0.0573
 9943SOL    HW132722   5.517   3.967   2.915  2.0469  2.1845 -1.7088
 9943SOL    HW232723   5.607   3.854   2.870 -0.5160 -0.9482  0.6100
 9944SOL     OW32724   3.533   3.262   1.600  0.1090 -0.6289  0.3579
 9944SOL    HW132725   3.451   3.287   1.643  0.4950 -1.7020  1.8167
 9944SOL    HW232726   3.571   3.345   1.571 -1.0650 -0.0349  0.4551
 9945SOL     OW32727   7.481  10.127   9.709  0.5352  0.1098 -0.2923
 9945SOL    HW132728   7.567  10.104   9.676 -0.3161 -0.4750 -2.2394
 9945SOL    HW232729   7.497  10.159   9.798  2.7655  0.3241 -0.7248
 9946SOL     OW32730   4.456   1.281  10.093  0.1254 -0.3566  0.2884
 9946SOL    HW132731   4.458   1.358  10.150  1.1494  1.5339 -2.1064
 9946SOL    HW232732   4.547   1.269  10.065 -0.2758 -1.4122 -0.6688
 9947SOL     OW32733   7.617   2.115   3.322  0.0166 -0.0521 -0.6948
 9947SOL    HW132734   7.530   2.154   3.308  0.3092  0.7360 -0.3262
 9947SOL    HW232735   7.677   2.174   3.278  0.5113  0.1354  0.2268
 9948SOL     OW32736   2.469   6.634   0.373 -0.5308  0.2127  1.0380
 9948SOL    HW132737   2.549   6.662   0.417  0.5208  0.3668 -0.8833
 9948SOL    HW232738   2.489   6.548   0.339 -1.3108  0.1161  0.8067
 9949SOL     OW32739   7.075   6.969   7.220 -0.2834  0.4791  0.1023
 9949SOL    HW132740   7.108   6.938   7.136 -1.9340 -0.3713 -0.2750
 9949SOL    HW232741   7.007   7.032   7.197  0.9221  2.1242  0.8527
 9950SOL     OW32742   9.776   3.627   1.514  0.2886 -0.0856 -0.0852
 9950SOL    HW132743   9.860   3.607   1.472  1.3759  2.0940  0.9006
 9950SOL    HW232744   9.759   3.718   1.490 -1.2267 -0.1470  0.6885
 9951SOL     OW32745   0.777   9.245   9.226  0.0336  0.2783 -0.0438
 9951SOL    HW132746   0.852   9.299   9.199  0.4570 -0.5918 -0.6713
 9951SOL    HW232747   0.748   9.203   9.145  1.1851 -2.2309  0.7156
 9952SOL     OW32748   6.713   7.299   1.488  0.3439 -0.0535 -0.0134
 9952SOL    HW132749   6.696   7.373   1.547  0.4193  0.7049 -0.9116
 9952SOL    HW232750   6.780   7.247   1.532  0.3274  0.4470  0.6122
 9953SOL     OW32751   0.056   9.537   6.723 -0.0029  0.0822 -0.2234
 9953SOL    HW132752   0.040   9.501   6.810 -0.7298  0.7787 -0.0629
 9953SOL    HW232753   0.138   9.495   6.695  0.8474  0.6825  1.2391
 9954SOL     OW32754   7.815   9.332  10.671  0.0473 -0.0199  0.2653
 9954SOL    HW132755   7.735   9.353  10.623  0.1586  0.7871  0.4176
 9954SOL    HW232756   7.785   9.282  10.747 -0.1071 -1.4981 -0.7373
 9955SOL     OW32757   9.631   6.781   3.530  0.3260 -0.1460  0.2801
 9955SOL    HW132758   9.694   6.772   3.458 -0.6831 -0.2369 -0.6210
 9955SOL    HW232759   9.646   6.705   3.585  0.1855 -0.8253 -0.6012
 9956SOL     OW32760   7.483   7.616   8.017  0.2688 -0.0219 -0.7980
 9956SOL    HW132761   7.516   7.544   8.071  1.3611  0.3987 -0.8870
 9956SOL    HW232762   7.512   7.695   8.061 -2.7475  0.4960  0.4871
 9957SOL     OW32763   6.590   8.402  10.075  0.3717 -0.3422 -0.1510
 9957SOL    HW132764   6.586   8.478  10.017  1.1094  0.6826  1.0626
 9957SOL    HW232765   6.499   8.376  10.087  0.1537 -0.0637 -1.1081
 9958SOL     OW32766   9.810   6.370   4.286 -0.4309 -0.6565 -0.6189
 9958SOL    HW132767   9.831   6.309   4.215 -2.5326  0.3825 -2.2645
 9958SOL    HW232768   9.780   6.314   4.358  1.6829 -1.7352 -0.5137
 9959SOL     OW32769   8.386   1.780   6.714 -0.1654  0.0553  0.0207
 9959SOL    HW132770   8.411   1.802   6.804 -1.7458  0.9808  0.2624
 9959SOL    HW232771   8.459   1.726   6.682 -0.0638 -1.2717  2.2255
 9960SOL     OW32772   3.206   2.906   0.363 -0.3562 -0.0620 -0.4725
 9960SOL    HW132773   3.122   2.950   0.377 -0.7067 -0.3407 -1.5775
 9960SOL    HW232774   3.271   2.976   0.370 -0.9190  0.7201 -2.3783
 9961SOL     OW32775  10.750   6.642  10.227 -0.2502  0.0870 -0.2516
 9961SOL    HW132776  10.695   6.700  10.279 -1.9951 -2.0595  0.4557
 9961SOL    HW232777  10.834   6.689  10.220 -1.1431  2.0908  1.3171
 9962SOL     OW32778   7.905   1.377   1.349  0.3583 -0.0698  0.1396
 9962SOL    HW132779   7.865   1.429   1.418  1.4299  0.0586  0.6697
 9962SOL    HW232780   7.996   1.407   1.344  1.1975 -2.2881  0.8927
 9963SOL     OW32781   9.127   0.748   4.687  0.2415 -0.4087 -0.1500
 9963SOL    HW132782   9.200   0.756   4.748  0.7548  3.8877 -0.9811
 9963SOL    HW232783   9.050   0.737   4.742  1.0690 -0.3639  1.0422
 9964SOL     OW32784   0.699   3.425  10.702 -0.2012  0.0265  0.0984
 9964SOL    HW132785   0.779   3.397  10.658 -0.0115  0.6797  0.0097
 9964SOL    HW232786   0.724   3.434  10.794 -0.4064 -0.6232  0.2238
 9965SOL     OW32787   7.511   9.072   0.964  0.1271  0.6665 -0.3236
 9965SOL    HW132788   7.595   9.089   1.006  0.6297 -1.6001 -0.2839
 9965SOL    HW232789   7.484   9.156   0.928  0.8158  2.1950  2.4724
 9966SOL     OW32790   2.259   3.051   6.183  0.0357  0.5438  0.5415
 9966SOL    HW132791   2.223   3.121   6.128 -0.9773 -2.1978 -2.5658
 9966SOL    HW232792   2.354   3.065   6.180 -0.0591  1.0314 -1.1229
 9967SOL     OW32793  10.448   2.626   0.128 -0.4191  0.3862 -0.0928
 9967SOL    HW132794  10.428   2.622   0.222 -0.0419  2.3914  0.1002
 9967SOL    HW232795  10.505   2.551   0.113 -0.6718 -0.1008  1.2182
 9968SOL     OW32796   3.473   8.179   3.865  0.1715 -0.2074  0.0924
 9968SOL    HW132797   3.527   8.257   3.855  0.1557 -0.3310 -1.0353
 9968SOL    HW232798   3.396   8.196   3.811  0.2047 -1.0335 -0.2273
 9969SOL     OW32799   5.149   2.329   9.913  0.8463  0.9611  0.3661
 9969SOL    HW132800   5.236   2.292   9.898 -0.5147 -1.5995 -2.0481
 9969SOL    HW232801   5.112   2.277   9.984  0.5688  0.7255  0.0506
 9970SOL     OW32802   1.777  10.238   9.859 -0.3757  0.1077  0.1958
 9970SOL    HW132803   1.722  10.159   9.860 -0.0150 -0.1510  1.1861
 9970SOL    HW232804   1.769  10.272   9.770  0.3428 -1.6720 -0.6040
 9971SOL     OW32805   5.351   1.181  10.189 -0.0869  0.4779  0.3425
 9971SOL    HW132806   5.292   1.195  10.115  2.1652 -0.7545 -1.8498
 9971SOL    HW232807   5.419   1.248  10.178  0.8567 -0.4103  0.5839
 9972SOL     OW32808   2.046   4.973   1.087  0.2843  0.7622  0.2793
 9972SOL    HW132809   2.027   4.911   1.016  1.5664 -1.2501  1.5952
 9972SOL    HW232810   1.961   5.011   1.109 -0.5925 -0.7329 -0.4122
 9973SOL     OW32811   3.534  10.238   9.475 -0.3623  0.2085 -0.2053
 9973SOL    HW132812   3.472  10.173   9.443 -0.9741  0.8137 -0.2662
 9973SOL    HW232813   3.501  10.321   9.443  0.4217  0.5606 -0.1403
 9974SOL     OW32814   3.354   3.961   7.009  0.4338  0.2896 -0.6701
 9974SOL    HW132815   3.376   4.050   7.037  0.5477  0.5413 -1.5235
 9974SOL    HW232816   3.426   3.936   6.951 -0.5435  0.4053 -2.0036
 9975SOL     OW32817   6.683   5.155   8.890  0.3187 -0.1459  0.3489
 9975SOL    HW132818   6.665   5.249   8.895 -0.2130  0.0408 -2.8241
 9975SOL    HW232819   6.598   5.113   8.900  0.3166 -0.1890  0.1509
 9976SOL     OW32820   2.483   4.069   6.038  0.2119  0.6205 -0.3488
 9976SOL    HW132821   2.523   4.013   6.104  2.8997  1.3176 -1.2432
 9976SOL    HW232822   2.486   4.016   5.958 -2.4119  0.0283 -0.1401
 9977SOL     OW32823   4.383   5.083   6.270 -0.1845  0.5218  0.2562
 9977SOL    HW132824   4.324   5.060   6.342 -0.7894  1.5687  0.1112
 9977SOL    HW232825   4.471   5.070   6.307 -0.4880  0.4397  0.9720
 9978SOL     OW32826   6.161   2.965  10.150  0.1430  0.0464  0.2042
 9978SOL    HW132827   6.109   3.030  10.197 -0.2083  0.0891 -0.2314
 9978SOL    HW232828   6.156   2.993  10.058 -1.5044 -1.5692 -0.2588
 9979SOL     OW32829   9.896  10.111   6.004  0.2597  0.3610 -0.2364
 9979SOL    HW132830   9.989  10.110   5.983  0.4005  1.5606  0.2620
 9979SOL    HW232831   9.863  10.191   5.965 -0.3131  0.5518  0.6076
 9980SOL     OW32832   8.823   9.620   5.161 -0.1569 -0.2734  0.2445
 9980SOL    HW132833   8.871   9.588   5.084 -1.1385 -0.4360 -0.3166
 9980SOL    HW232834   8.884   9.609   5.234  0.2922 -1.4349 -0.2802
 9981SOL     OW32835   3.360   2.200   6.164  1.1849 -0.0309  0.4290
 9981SOL    HW132836   3.298   2.127   6.162 -0.2000  1.0875 -1.6875
 9981SOL    HW232837   3.367   2.223   6.257  0.2914 -1.7001  0.9567
 9982SOL     OW32838   4.650  10.663   5.365 -0.1175 -0.7319 -0.1410
 9982SOL    HW132839   4.622  10.583   5.321 -3.2541  0.9386 -1.4973
 9982SOL    HW232840   4.722  10.697   5.311  0.8547 -2.2501  0.1380
 9983SOL     OW32841   5.988   5.148   4.921  0.2473  0.2097 -0.4131
 9983SOL    HW132842   6.019   5.069   4.966  0.1316  0.0242 -0.6559
 9983SOL    HW232843   5.893   5.141   4.922  0.1901  0.8691  0.4902
 9984SOL     OW32844   6.477   3.157   5.591  0.1832 -0.0992 -0.1182
 9984SOL    HW132845   6.525   3.231   5.629  1.3231 -1.0239  0.2676
 9984SOL    HW232846   6.543   3.107   5.543 -1.1380  0.9162 -3.2987
 9985SOL     OW32847   6.652   2.141  10.325  0.2272 -0.2929  0.2128
 9985SOL    HW132848   6.579   2.086  10.297  1.8997 -0.9456 -3.4383
 9985SOL    HW232849   6.642   2.222  10.275  1.2309  0.2110  0.7903
 9986SOL     OW32850   1.932   4.546   7.677  0.8271  0.4819 -0.0733
 9986SOL    HW132851   1.964   4.461   7.708  1.8347  0.2671 -1.5846
 9986SOL    HW232852   1.840   4.531   7.657  0.4482  0.3331  1.6492
 9987SOL     OW32853   5.515   8.503   5.654 -0.2194 -0.8518  0.1699
 9987SOL    HW132854   5.610   8.505   5.665 -0.1650 -1.8536 -0.0012
 9987SOL    HW232855   5.496   8.574   5.592  0.3622 -0.3672  0.5381
 9988SOL     OW32856   7.689   2.159  10.138 -0.5276  0.4173  0.4529
 9988SOL    HW132857   7.622   2.099  10.171 -1.0108  0.6675 -0.0569
 9988SOL    HW232858   7.726   2.199  10.216 -1.2415  0.5569  0.7247
 9989SOL     OW32859  10.428   0.915   2.639  0.5012 -0.3036 -0.4586
 9989SOL    HW132860  10.487   0.846   2.669 -0.9247 -1.3275  0.1065
 9989SOL    HW232861  10.390   0.880   2.558 -0.9514 -0.6360  0.3398
 9990SOL     OW32862  10.693   9.236   7.680  0.2129  0.0015 -0.0854
 9990SOL    HW132863  10.601   9.258   7.689  0.4120  0.4553  0.9338
 9990SOL    HW232864  10.730   9.308   7.629  0.2829  0.5622  0.7445
 9991SOL     OW32865   3.468   7.904   7.865  0.2424  0.2173 -0.5309
 9991SOL    HW132866   3.558   7.889   7.894  0.8191  0.4716 -2.1388
 9991SOL    HW232867   3.475   7.929   7.773 -1.5228 -0.5353 -0.9192
 9992SOL     OW32868   0.967   2.930   2.048 -0.3065  0.3084  0.4013
 9992SOL    HW132869   0.935   2.861   2.106 -0.6601  0.5625  0.5078
 9992SOL    HW232870   0.922   2.915   1.966  0.5646 -0.3562  0.0197
 9993SOL     OW32871   2.796   7.051   2.393  0.2942 -0.5056  0.3309
 9993SOL    HW132872   2.785   7.131   2.445  0.4719 -0.9223  1.0135
 9993SOL    HW232873   2.831   7.082   2.310  0.0126  0.1683  0.4557
 9994SOL     OW32874   9.899   2.089   0.188 -0.1760 -0.0142 -0.8051
 9994SOL    HW132875   9.984   2.125   0.214 -0.9438  0.9035  0.6012
 9994SOL    HW232876   9.896   2.100   0.093 -0.0916  3.1671 -0.5498
 9995SOL     OW32877   4.113   4.525   7.546  0.5223 -0.3127  0.4053
 9995SOL    HW132878   4.205   4.513   7.567 -0.0928 -2.8201  2.2161
 9995SOL    HW232879   4.067   4.460   7.601 -2.2131  0.0379 -1.2511
 9996SOL     OW32880   2.740   9.000   0.564  0.6273 -0.6086 -0.3855
 9996SOL    HW132881   2.746   9.080   0.511  0.6460  1.4482  2.4607
 9996SOL    HW232882   2.829   8.988   0.598 -0.1085  0.4938  2.1985
 9997SOL     OW32883   7.736   7.946   3.745 -0.4473 -0.4303 -0.1430
 9997SOL    HW132884   7.745   7.907   3.832 -1.7806  1.7579  1.0690
 9997SOL    HW232885   7.706   7.874   3.690 -0.1502 -1.7360  1.3264
 9998SOL     OW32886   0.018   9.704   0.970 -0.3154 -0.4621 -0.1953
 9998SOL    HW132887  -0.011   9.723   0.881  0.6453  1.4696 -0.1452
 9998SOL    HW232888   0.067   9.782   0.997  1.8491 -2.1152  1.0047
 9999SOL     OW32889   6.476   5.772   6.155 -0.1363  1.0730 -0.4303
 9999SOL    HW132890   6.454   5.688   6.114 -0.4008  0.7925  0.2818
 9999SOL    HW232891   6.571   5.780   6.143  0.2563 -0.3123  1.2666
10000SOL     OW32892   8.325  10.236   0.514  0.2548  0.1418  0.3601
10000SOL    HW132893   8.365  10.314   0.553 -0.2143  0.3827  0.3548
10000SOL    HW232894   8.294  10.185   0.589  1.6917 -0.6744  0.4515
10001SOL     OW32895   8.094   5.143   5.794  1.2836 -0.2049  0.2386
10001SOL    HW132896   8.021   5.188   5.836  0.0334 -1.2667 -0.7126
10001SOL    HW232897   8.065   5.052   5.786  3.4763 -1.1057  1.5122
10002SOL     OW32898   4.098   5.766   9.965  0.0591  0.2703  0.4769
10002SOL    HW132899   4.073   5.796  10.052 -1.9616 -2.2533  0.8717
10002SOL    HW232900   4.019   5.725   9.930  0.7549  1.3960 -2.6812
10003SOL     OW32901   8.838   2.356   7.681 -0.1865  0.2428 -0.2588
10003SOL    HW132902   8.859   2.338   7.589  1.3733 -0.3058  0.1668
10003SOL    HW232903   8.841   2.451   7.688 -0.5972  0.3005 -0.8343
10004SOL     OW32904   3.622   1.571   5.137 -0.1374  0.2203  0.6803
10004SOL    HW132905   3.644   1.497   5.081  0.9042  0.7397  0.3670
10004SOL    HW232906   3.694   1.575   5.200 -0.6345  0.4355  1.2395
10005SOL     OW32907   6.854   0.598   7.391 -0.7587  0.4252  0.6506
10005SOL    HW132908   6.790   0.549   7.442 -0.0530  0.8756  2.0032
10005SOL    HW232909   6.939   0.564   7.419 -0.3511  0.6513 -0.2630
10006SOL     OW32910   9.202   9.402  10.247  0.8394 -0.1807  0.0659
10006SOL    HW132911   9.288   9.440  10.226  1.8279 -1.9765  0.6366
10006SOL    HW232912   9.215   9.360  10.332 -0.7073 -0.2364  0.3018
10007SOL     OW32913  10.694   8.243   1.847  0.5124 -0.4483 -0.1506
10007SOL    HW132914  10.619   8.248   1.905 -1.2779  0.0846 -2.3516
10007SOL    HW232915  10.723   8.334   1.836  0.8051 -0.5377 -0.1242
10008SOL     OW32916   6.445   7.557   1.782 -0.5123  0.1419  0.8845
10008SOL    HW132917   6.355   7.544   1.812 -0.8413 -0.3235 -0.2593
10008SOL    HW232918   6.490   7.474   1.801 -1.2695 -0.9668 -1.7068
10009SOL     OW32919   8.085   8.687   0.602 -0.2839  0.7975  0.3852
10009SOL    HW132920   8.124   8.748   0.540 -0.7090  2.6993  1.8941
10009SOL    HW232921   8.115   8.601   0.573  1.4670  1.8146 -1.0383
10010SOL     OW32922   3.370   7.394   9.902  0.0191 -0.4427 -0.0959
10010SOL    HW132923   3.342   7.485   9.910  1.7145  0.1638 -0.6034
10010SOL    HW232924   3.331   7.364   9.821 -2.6214 -1.0239  1.2649
10011SOL     OW32925   8.565   5.816   9.004 -0.1642  0.1130 -0.3556
10011SOL    HW132926   8.521   5.741   9.043 -1.3771  0.2316 -1.4338
10011SOL    HW232927   8.530   5.891   9.052 -1.6787  0.2614 -1.6324
10012SOL     OW32928   6.728  10.690   4.410 -0.1610 -0.4583  0.6905
10012SOL    HW132929   6.672  10.762   4.382  0.1111 -0.1437  0.9372
10012SOL    HW232930   6.791  10.679   4.338 -1.7314 -2.1511 -0.5273
10013SOL     OW32931   4.552   6.589   2.873 -0.0051 -0.4856 -0.5374
10013SOL    HW132932   4.537   6.495   2.879 -0.5572 -0.4472 -1.1829
10013SOL    HW232933   4.465   6.628   2.884  0.3918  0.0155  0.9476
10014SOL     OW32934   0.989   2.070   3.916  0.3190  0.3665 -0.1046
10014SOL    HW132935   1.063   2.121   3.947 -0.1853  2.2138 -1.7411
10014SOL    HW232936   0.920   2.134   3.901 -0.1270 -0.6235 -2.8910
10015SOL     OW32937   9.923   3.128   1.466 -0.0241  0.5506  0.0508
10015SOL    HW132938   9.987   3.058   1.469  0.0174  0.5238 -1.0476
10015SOL    HW232939   9.844   3.091   1.505  0.7120  0.7156  1.8053
10016SOL     OW32940   8.649   8.288   4.507 -0.8087 -0.2786  0.2846
10016SOL    HW132941   8.719   8.252   4.561  1.0013  0.1799 -1.6144
10016SOL    HW232942   8.610   8.211   4.465  0.0155 -0.4034 -0.2835
10017SOL     OW32943   7.764   4.790   4.251  0.4049 -0.3440  0.0996
10017SOL    HW132944   7.823   4.730   4.206  1.6796  0.4092  0.7147
10017SOL    HW232945   7.815   4.823   4.325 -1.1373 -0.4344  1.2534
10018SOL     OW32946   4.068   7.052   9.114  0.0985  0.1139 -0.5896
10018SOL    HW132947   4.109   7.125   9.160  0.0049  0.9548 -1.7886
10018SOL    HW232948   4.094   6.974   9.163 -1.6959  1.0711  2.1639
10019SOL     OW32949   1.136   8.788  10.615  0.2671  0.2371 -0.5846
10019SOL    HW132950   1.131   8.694  10.628  2.5346 -0.0815 -1.5649
10019SOL    HW232951   1.164   8.823  10.700  3.1402 -0.4669 -1.1425
10020SOL     OW32952   9.136   0.142   8.413  0.0651 -0.0069 -0.8605
10020SOL    HW132953   9.107   0.052   8.399 -1.9059  0.3304  0.5444
10020SOL    HW232954   9.218   0.134   8.461 -0.7340 -1.0944  0.3928
10021SOL     OW32955  10.585   0.188   0.115  0.9722  0.0571 -0.1668
10021SOL    HW132956  10.663   0.135   0.135  0.4817 -0.6787 -0.1739
10021SOL    HW232957  10.608   0.275   0.147  1.2774 -0.4625  1.1352
10022SOL     OW32958   5.312   4.648   1.241 -0.1613  0.2362  0.3796
10022SOL    HW132959   5.269   4.679   1.161 -1.2216 -0.7981  0.5199
10022SOL    HW232960   5.379   4.587   1.210 -0.4870 -0.0687  0.2621
10023SOL     OW32961   6.751  10.777   6.657 -0.9526  0.4051 -0.5841
10023SOL    HW132962   6.787  10.689   6.655 -1.2208  0.2609  0.5553
10023SOL    HW232963   6.827  10.835   6.651 -0.5746  0.1019  0.9710
10024SOL     OW32964   3.775   0.566   7.999  0.0521 -0.0288  0.5149
10024SOL    HW132965   3.778   0.652   8.040  1.9760 -0.0077  0.4393
10024SOL    HW232966   3.834   0.573   7.924 -0.3396 -1.2065  0.0719
10025SOL     OW32967   8.659   8.086   8.999  0.5188  0.0906  0.0566
10025SOL    HW132968   8.623   8.175   9.001  0.8687  0.2207  1.4508
10025SOL    HW232969   8.709   8.082   8.918 -1.3447  0.3993 -1.1820
10026SOL     OW32970   2.215   4.832   9.116  0.2463  0.4812  0.3742
10026SOL    HW132971   2.228   4.881   9.197 -1.3449  1.7813 -0.0934
10026SOL    HW232972   2.201   4.900   9.049  2.6036 -0.5013 -1.2453
10027SOL     OW32973   0.382   3.625   9.140 -1.1379  0.3225  0.0677
10027SOL    HW132974   0.438   3.614   9.063  0.2531  2.1679  0.7288
10027SOL    HW232975   0.438   3.602   9.214 -1.7156  0.7857  0.6594
10028SOL     OW32976   3.783   4.430   1.523 -0.0593  0.6902 -0.3121
10028SOL    HW132977   3.820   4.388   1.601 -1.2088 -0.9483 -0.5819
10028SOL    HW232978   3.859   4.456   1.471  0.7284 -0.4944  0.2038
10029SOL     OW32979   0.543   2.718   6.493 -0.2529  0.3008 -0.0238
10029SOL    HW132980   0.584   2.798   6.459  0.2736  0.2263  0.4154
10029SOL    HW232981   0.594   2.647   6.454 -0.4141  0.1932 -0.0352
10030SOL     OW32982   5.816   4.157   5.110  0.0151  0.0180  0.7218
10030SOL    HW132983   5.725   4.151   5.082  1.1683  1.8992 -4.6694
10030SOL    HW232984   5.824   4.244   5.149 -0.2881  0.4527 -0.1596
10031SOL     OW32985   2.364   1.008   4.247  0.8527  0.6891 -0.6220
10031SOL    HW132986   2.341   1.100   4.260 -0.3662  0.1823  1.2474
10031SOL    HW232987   2.430   0.990   4.313 -0.1881 -0.1734  0.2315
10032SOL     OW32988   5.099   8.819   7.349  0.3417  0.5670  0.1383
10032SOL    HW132989   5.171   8.773   7.305  0.7581  1.7099 -0.4290
10032SOL    HW232990   5.127   8.911   7.349  0.0153  0.7008  2.1662
10033SOL     OW32991   1.667   1.764   0.432 -0.1866 -0.2810  0.0645
10033SOL    HW132992   1.703   1.677   0.417  0.3913 -0.9452  4.1546
10033SOL    HW232993   1.738   1.813   0.474 -0.8829  1.8597 -1.0809
10034SOL     OW32994   3.861   1.969   8.227 -0.2645 -0.8968  0.1989
10034SOL    HW132995   3.956   1.961   8.216 -0.0808 -0.6130  1.3957
10034SOL    HW232996   3.827   1.885   8.197  0.4940 -1.4860  0.9208
10035SOL     OW32997   1.630   5.629  10.160  0.0617 -0.4820 -0.2012
10035SOL    HW132998   1.704   5.661  10.211  1.6237 -1.4522 -1.7362
10035SOL    HW232999   1.596   5.706  10.115 -0.5146  0.1436  1.2467
10036SOL     OW33000   0.509   5.183   5.134 -0.1990  0.4095 -0.1943
10036SOL    HW133001   0.481   5.265   5.093 -0.7081  0.4112  0.1418
10036SOL    HW233002   0.437   5.161   5.193  0.3982  0.2629  0.4883
10037SOL     OW33003   2.308   7.220   9.869 -0.2383  0.6684  0.1375
10037SOL    HW133004   2.310   7.270   9.787  0.8768  0.2865 -0.0919
10037SOL    HW233005   2.357   7.140   9.849  1.3330  1.2236  1.5883
10038SOL     OW33006   2.054   7.133   4.639  0.0124 -0.2760  0.0029
10038SOL    HW133007   2.119   7.063   4.650 -0.7923 -1.0815 -0.2819
10038SOL    HW233008   2.049   7.175   4.725 -0.4012 -1.3601  0.5176
10039SOL     OW33009   7.891   7.539   9.145  0.2206  0.1416 -0.0091
10039SOL    HW133010   7.909   7.507   9.233 -0.1952 -1.4753 -0.4768
10039SOL    HW233011   7.944   7.618   9.137 -1.3435  1.5601  2.4124
10040SOL     OW33012   9.625   6.521   3.648  0.0489  0.2156 -0.5657
10040SOL    HW133013   9.710   6.482   3.666  1.1784  2.5040 -0.5073
10040SOL    HW233014   9.582   6.528   3.733 -0.5556 -1.5731 -0.6773
10041SOL     OW33015   9.928   4.976   5.585 -0.0034  0.2692 -0.2454
10041SOL    HW133016  10.006   4.983   5.640 -0.2297  0.3518  0.0700
10041SOL    HW233017   9.855   4.968   5.647 -0.3775  1.4805 -0.4947
10042SOL     OW33018   4.670   4.790   2.000  0.4580 -0.0218  0.2783
10042SOL    HW133019   4.673   4.697   1.976 -1.2112  0.1589 -0.8260
10042SOL    HW233020   4.762   4.816   2.003  0.9408 -1.4871 -0.3399
10043SOL     OW33021  10.107   6.589   5.916  0.2729  0.2819  0.2228
10043SOL    HW133022  10.149   6.607   5.832 -0.6096  0.8058 -0.1218
10043SOL    HW233023  10.087   6.675   5.952 -1.6815  0.0799 -0.2485
10044SOL     OW33024   3.638   9.450   4.814 -0.0398 -0.6399  0.2963
10044SOL    HW133025   3.630   9.355   4.806 -1.1580 -0.5135 -0.3140
10044SOL    HW233026   3.595   9.470   4.898 -0.8832 -0.5673 -0.1405
10045SOL     OW33027   9.304   8.322   2.916  0.1716 -0.3810 -0.0177
10045SOL    HW133028   9.266   8.284   2.995  1.9360 -0.6251  0.7536
10045SOL    HW233029   9.334   8.246   2.865 -0.2014 -0.1832 -0.5422
10046SOL     OW33030   9.294   1.042   1.983  0.7026  0.0123  0.3806
10046SOL    HW133031   9.285   1.023   2.076  0.2599  0.2090  0.3806
10046SOL    HW233032   9.297   1.137   1.978 -1.5874  0.1178  0.0173
10047SOL     OW33033   0.785   5.190   2.229 -0.0358  0.4152 -0.2678
10047SOL    HW133034   0.826   5.166   2.311 -0.6502  1.4004  0.3522
10047SOL    HW233035   0.828   5.135   2.163  1.4107  0.5730  0.5064
10048SOL     OW33036   4.093   3.647   3.736  0.2226  0.0734  0.8577
10048SOL    HW133037   4.046   3.602   3.806 -0.1352 -0.5927  0.2043
10048SOL    HW233038   4.038   3.722   3.715 -1.2266 -1.3547 -0.7276
10049SOL     OW33039   7.010   9.746   6.843  0.4446 -0.0857  0.2602
10049SOL    HW133040   6.975   9.835   6.839  2.0722  0.6232  0.9220
10049SOL    HW233041   6.973   9.710   6.923 -3.0154 -1.3277 -1.7027
10050SOL     OW33042   9.527   2.649   4.548  0.2675 -0.2752  0.1528
10050SOL    HW133043   9.601   2.595   4.575  0.1474  0.4339  2.0779
10050SOL    HW233044   9.560   2.739   4.555 -0.9073  0.0828  1.6219
10051SOL     OW33045   5.595   4.840   1.026 -0.6234  0.2714 -0.7388
10051SOL    HW133046   5.660   4.909   1.010 -0.0130  0.2919  1.5237
10051SOL    HW233047   5.641   4.759   1.004  0.0242  0.3242  0.3569
10052SOL     OW33048   6.153   5.308   6.215  0.0242 -0.1195  0.3931
10052SOL    HW133049   6.108   5.392   6.211  0.2294 -0.0391 -0.3000
10052SOL    HW233050   6.179   5.290   6.125 -0.6626 -1.2816  0.3974
10053SOL     OW33051   3.450   4.954  10.110 -0.1188  0.7687 -0.5812
10053SOL    HW133052   3.415   4.963  10.199 -0.5292  0.9365 -0.7574
10053SOL    HW233053   3.395   5.011  10.057 -0.8026 -0.4269 -1.1945
10054SOL     OW33054   5.189   4.528   0.365  1.0482  0.2798 -0.2449
10054SOL    HW133055   5.130   4.590   0.408  0.4776 -1.2556  1.2831
10054SOL    HW233056   5.235   4.484   0.436  1.0015 -1.4685 -1.2298
10055SOL     OW33057   5.136   2.740   3.884  0.2660  0.6284 -0.2889
10055SOL    HW133058   5.097   2.822   3.855 -0.1369  1.1521  1.6235
10055SOL    HW233059   5.154   2.752   3.977  2.2919 -0.6677 -0.4341
10056SOL     OW33060   3.294   2.258   3.341 -0.1376  0.1036 -0.8936
10056SOL    HW133061   3.339   2.327   3.390  0.7721 -1.4341  0.5372
10056SOL    HW233062   3.250   2.304   3.270  2.7148  1.8642 -1.6906
10057SOL     OW33063   8.524   7.880   6.271  0.5990 -0.5200  0.5842
10057SOL    HW133064   8.481   7.795   6.261 -0.7257  0.2244 -0.3946
10057SOL    HW233065   8.568   7.894   6.187  1.1055 -0.3952  0.8681
10058SOL     OW33066   1.044   0.841   7.117  0.0983 -0.4593  0.3121
10058SOL    HW133067   1.032   0.747   7.125  1.8666 -0.6098  1.6895
10058SOL    HW233068   1.138   0.854   7.121 -0.0420  1.3125 -0.9057
10059SOL     OW33069   8.373   2.920   5.145  0.1605  0.2228  0.6285
10059SOL    HW133070   8.402   2.850   5.205  1.5393 -0.5856 -0.9161
10059SOL    HW233071   8.339   2.873   5.069 -0.6260  1.2470  0.3336
10060SOL     OW33072   3.309   3.069   0.668  0.1685  0.2033 -0.2646
10060SOL    HW133073   3.253   2.992   0.652 -1.0960  0.7933  1.0578
10060SOL    HW233074   3.247   3.142   0.672  1.4284  1.4838 -2.3775
10061SOL     OW33075   7.033   3.812   7.797  0.1927 -0.0936  0.9272
10061SOL    HW133076   7.064   3.845   7.881  2.1145  4.4436 -1.2044
10061SOL    HW233077   6.995   3.889   7.754  1.7904 -1.4109 -3.3836
10062SOL     OW33078   7.272   7.656   1.773 -0.5305  0.5244 -0.4266
10062SOL    HW133079   7.347   7.604   1.743  0.5531  1.1781  1.0275
10062SOL    HW233080   7.294   7.746   1.751 -0.1195  0.9141  1.3932
10063SOL     OW33081   3.261   9.428   5.595 -0.0011 -0.3395  0.1385
10063SOL    HW133082   3.186   9.370   5.612  0.3203 -1.6715 -2.4558
10063SOL    HW233083   3.225   9.499   5.542  0.5603 -1.2187 -1.5069
10064SOL     OW33084   2.907   4.698   7.973  0.1107 -0.2212 -0.4498
10064SOL    HW133085   2.990   4.651   7.969  0.1369 -0.1787 -0.4149
10064SOL    HW233086   2.930   4.785   8.008 -0.1022 -0.5551  0.5528
10065SOL     OW33087  10.686   5.690   0.567 -0.3392 -0.0696 -0.7274
10065SOL    HW133088  10.685   5.651   0.480  2.7650  1.4170 -1.5493
10065SOL    HW233089  10.727   5.624   0.623 -0.0096 -0.0493 -0.9445
10066SOL     OW33090   1.456   1.101   0.581 -0.3319  0.2345  0.7756
10066SOL    HW133091   1.537   1.122   0.628  0.4392 -0.1052 -0.3739
10066SOL    HW233092   1.458   1.157   0.504 -0.4123 -0.8860 -0.0643
10067SOL     OW33093   0.608   0.703   7.567  1.1064  0.0815  0.1467
10067SOL    HW133094   0.546   0.758   7.616  2.0257  1.7524 -0.4578
10067SOL    HW233095   0.686   0.702   7.622  1.1230 -0.5729  0.1105
10068SOL     OW33096   3.745   0.669   6.456  0.4611 -0.1523  0.4262
10068SOL    HW133097   3.837   0.686   6.477  0.1396  0.4173  1.5005
10068SOL    HW233098   3.736   0.574   6.462  1.3457 -0.3984 -1.4222
10069SOL     OW33099   9.603   6.262   3.199 -0.1805 -0.7338  0.4204
10069SOL    HW133100   9.600   6.313   3.280  0.0501  0.7920 -0.5011
10069SOL    HW233101   9.514   6.265   3.166 -0.0074 -0.2826 -0.0145
10070SOL     OW33102   3.637   3.298   2.611  0.0550 -0.4319 -0.7817
10070SOL    HW133103   3.605   3.288   2.521 -1.5452  0.8605 -0.4007
10070SOL    HW233104   3.598   3.224   2.658  0.2168 -0.6420 -0.9737
10071SOL     OW33105  10.225   8.717  10.222  0.3956 -0.3258 -0.6122
10071SOL    HW133106  10.161   8.646  10.220  0.4229 -0.3248 -2.0084
10071SOL    HW233107  10.294   8.685  10.281  0.2843 -1.3567 -1.0174
10072SOL     OW33108   6.885   3.810  10.124 -0.4969 -0.3293 -0.6214
10072SOL    HW133109   6.835   3.825  10.044 -0.1803 -0.0675 -0.7707
10072SOL    HW233110   6.819   3.787  10.189 -0.9550  1.2154 -0.5030
10073SOL     OW33111   4.662   1.204   8.658 -1.2348  0.1839  0.3639
10073SOL    HW133112   4.568   1.201   8.639 -0.7207 -1.6144 -2.4333
10073SOL    HW233113   4.691   1.113   8.648  1.0939  0.9795 -0.5793
10074SOL     OW33114   4.113   1.984   1.256  0.4129 -0.0847 -0.3282
10074SOL    HW133115   4.116   2.038   1.177  2.2525  0.6085  0.1572
10074SOL    HW233116   4.186   1.922   1.245  0.5283 -0.1447  0.6919
10075SOL     OW33117   0.562   0.167  10.124  0.2890 -0.3030  0.0913
10075SOL    HW133118   0.548   0.089  10.072 -0.3395  0.1955 -0.5078
10075SOL    HW233119   0.653   0.162  10.152  0.1322 -1.4786  0.4634
10076SOL     OW33120   8.063   4.805   1.538 -0.0649  0.1205  0.5422
10076SOL    HW133121   7.984   4.758   1.567 -0.3973  0.5300  0.3044
10076SOL    HW233122   8.043   4.897   1.554  1.4806  0.1009  3.2276
10077SOL     OW33123   9.508   1.160   7.866  0.0356  0.0042  0.0856
10077SOL    HW133124   9.548   1.109   7.796 -0.0205  0.4550 -0.2788
10077SOL    HW233125   9.436   1.104   7.897 -0.1903 -0.0360 -0.4836
10078SOL     OW33126  10.785   8.235   9.689  0.4690 -0.7873 -0.0418
10078SOL    HW133127  10.873   8.249   9.723  0.1869  1.2252  0.0040
10078SOL    HW233128  10.788   8.149   9.648  2.1946 -1.1454  0.7564
10079SOL     OW33129   6.452   0.815   1.363 -0.6293 -0.2591 -0.2504
10079SOL    HW133130   6.450   0.727   1.401 -2.1144 -0.0072  0.3217
10079SOL    HW233131   6.463   0.872   1.439  0.3683  0.0651 -0.6243
10080SOL     OW33132   6.170   6.185   7.492 -0.1788 -0.1146 -0.3331
10080SOL    HW133133   6.243   6.175   7.430  1.5515 -1.0545  1.7442
10080SOL    HW233134   6.109   6.115   7.467 -0.2768  0.4748 -1.8942
10081SOL     OW33135   4.149  10.107   2.686 -0.4122  0.1704  0.2229
10081SOL    HW133136   4.063  10.147   2.674 -1.2721 -1.6474  0.0559
10081SOL    HW233137   4.210  10.181   2.687 -1.9357  1.4712  0.0587
10082SOL     OW33138   1.332   6.348   5.032 -0.3619  0.0713 -0.1125
10082SOL    HW133139   1.249   6.311   5.002 -0.3299  2.1044 -3.1366
10082SOL    HW233140   1.305   6.421   5.088 -0.8504  2.1474 -2.8494
10083SOL     OW33141   2.615   4.820   0.379  0.1440  0.7493  0.3529
10083SOL    HW133142   2.558   4.761   0.331  2.2201 -1.7789  0.7935
10083SOL    HW233143   2.639   4.887   0.315 -1.0659  0.2949 -0.6232
10084SOL     OW33144   5.610   9.778   5.703  0.0443  0.3161 -0.2556
10084SOL    HW133145   5.541   9.839   5.730  0.1976  0.1020  0.6384
10084SOL    HW233146   5.563   9.700   5.673 -0.1746  1.0157 -1.8461
10085SOL     OW33147  10.651   8.794   2.196  0.4798  0.2451  0.8990
10085SOL    HW133148  10.605   8.710   2.198  0.7449  0.0574 -0.1702
10085SOL    HW233149  10.597   8.852   2.249 -0.2163 -0.3517  0.8630
10086SOL     OW33150   4.309   2.294  10.352  0.1387  0.0217  0.3433
10086SOL    HW133151   4.220   2.275  10.322  0.3365  0.4118 -0.5197
10086SOL    HW233152   4.326   2.383  10.322  0.7714  0.0050  0.6321
10087SOL     OW33153   6.733   0.501   7.735 -0.3044  0.4029 -0.2459
10087SOL    HW133154   6.823   0.515   7.764  0.1062  2.3153 -2.1988
10087SOL    HW233155   6.695   0.589   7.728 -1.6720 -0.2207 -1.3887
10088SOL     OW33156   6.293   3.780   8.528  0.1603  0.5569 -0.3762
10088SOL    HW133157   6.288   3.780   8.432  1.9948 -0.4196 -0.5253
10088SOL    HW233158   6.283   3.688   8.552  2.0657  0.4361  0.1443
10089SOL     OW33159   6.360   0.155   7.170  0.0770 -1.0254 -0.0486
10089SOL    HW133160   6.440   0.154   7.118 -0.3477 -1.8689 -0.7106
10089SOL    HW233161   6.373   0.226   7.232  0.5292  0.1213 -1.4036
10090SOL     OW33162  10.539   8.479   7.616 -0.3512  0.0911 -0.5037
10090SOL    HW133163  10.447   8.496   7.633 -0.4286  0.3568 -1.1665
10090SOL    HW233164  10.585   8.516   7.692 -0.6116  2.1739 -1.2962
10091SOL     OW33165   0.261  10.025   9.447  0.3768 -0.2871 -0.4589
10091SOL    HW133166   0.182  10.079   9.443 -0.6687 -1.8155 -2.7218
10091SOL    HW233167   0.246   9.965   9.520 -0.0034  0.2549 -0.0937
10092SOL     OW33168   1.682   1.956   7.152  0.1335  0.0342 -0.6431
10092SOL    HW133169   1.601   1.905   7.158 -0.3801  0.8098 -0.8630
10092SOL    HW233170   1.731   1.915   7.080 -0.9616  0.7887 -1.8617
10093SOL     OW33171  10.206   1.246   1.403 -0.0155  0.6130  0.5451
10093SOL    HW133172  10.172   1.161   1.375  1.5887  0.7506 -2.2304
10093SOL    HW233173  10.166   1.309   1.342  1.4318  1.3473  0.3078
10094SOL     OW33174   9.051   1.361   2.475 -0.1130  0.1134 -0.7579
10094SOL    HW133175   9.089   1.392   2.557 -0.7643  1.0581 -0.7895
10094SOL    HW233176   9.045   1.266   2.485  0.1865  0.1765  0.1158
10095SOL     OW33177   0.447   0.652   2.358  0.1976  0.1360  0.0752
10095SOL    HW133178   0.538   0.623   2.369 -0.0724 -0.3317  1.1423
10095SOL    HW233179   0.416   0.607   2.279  0.4337 -0.8348  0.5330
10096SOL     OW33180   6.053   6.872   2.759  0.3338 -0.3083 -0.2819
10096SOL    HW133181   6.078   6.809   2.826  1.2318  0.0024 -0.3041
10096SOL    HW233182   6.122   6.939   2.762 -1.0650  1.1701  0.3812
10097SOL     OW33183   1.961   1.377   8.827  0.3151 -0.1901 -0.1881
10097SOL    HW133184   2.037   1.425   8.796  0.0209 -0.6959 -1.7813
10097SOL    HW233185   1.885   1.422   8.789 -0.0235 -1.1578 -0.7224
10098SOL     OW33186   6.608   0.900   0.329 -0.0712  0.0167 -0.2433
10098SOL    HW133187   6.542   0.850   0.378 -0.6741  0.5125 -0.5319
10098SOL    HW233188   6.582   0.991   0.341 -0.0955  0.1625 -1.2815
10099SOL     OW33189  10.605   9.682   8.017  0.1081  0.3099  0.2463
10099SOL    HW133190  10.521   9.636   8.019  0.1244  0.3031  0.7964
10099SOL    HW233191  10.600   9.736   7.938 -1.9078  3.0797  2.0853
10100SOL     OW33192   9.670   1.337   6.631  0.0381 -0.4581  0.3997
10100SOL    HW133193   9.722   1.275   6.681 -0.3315  0.4626  1.9872
10100SOL    HW233194   9.660   1.413   6.689 -1.4731  0.1544 -0.5930
10101SOL     OW33195   8.042   0.932   9.581  1.0842 -0.6360  0.1613
10101SOL    HW133196   8.033   0.924   9.676 -0.3764 -1.0906  0.0265
10101SOL    HW233197   8.051   0.842   9.551 -0.9094 -0.7389 -0.2844
10102SOL     OW33198   5.712   9.267   4.570 -0.4889 -0.1412  0.3623
10102SOL    HW133199   5.652   9.218   4.626  0.6839 -1.4088  0.5538
10102SOL    HW233200   5.687   9.242   4.481 -0.1296 -0.8406  0.4486
10103SOL     OW33201   0.774   5.451   4.520  0.1398  0.2130  0.5185
10103SOL    HW133202   0.805   5.539   4.541 -0.3006  0.3707  0.5203
10103SOL    HW233203   0.688   5.445   4.562  0.4355 -0.4378  1.0383
10104SOL     OW33204   8.456   3.690   4.514 -0.1500  0.0755  0.0960
10104SOL    HW133205   8.491   3.759   4.571  0.2487 -0.1485  0.1170
10104SOL    HW233206   8.425   3.737   4.437  0.1342  0.2787  0.1045
10105SOL     OW33207   6.526   5.275   6.578 -0.2116 -0.2146 -0.0995
10105SOL    HW133208   6.610   5.274   6.533 -0.1282 -0.5196  0.0626
10105SOL    HW233209   6.470   5.329   6.523 -0.2746 -1.0357 -0.8508
10106SOL     OW33210   2.774  10.028   5.366  0.3534 -0.4170  0.4674
10106SOL    HW133211   2.855  10.048   5.413  0.4744 -0.2022  0.1680
10106SOL    HW233212   2.789  10.061   5.277  0.5630 -1.8717 -0.0489
10107SOL     OW33213   3.235   3.536   1.523 -0.1034  0.4916  0.1901
10107SOL    HW133214   3.202   3.581   1.445  0.2154 -0.6914 -0.6680
10107SOL    HW233215   3.320   3.578   1.541 -0.1933  0.7930 -0.0837
10108SOL     OW33216   9.025   8.323   9.858  0.4084 -0.8759  0.3946
10108SOL    HW133217   9.016   8.418   9.861 -0.2334 -0.8704 -1.0344
10108SOL    HW233218   9.084   8.302   9.931  0.6294  0.6146  0.6714
10109SOL     OW33219  10.417   5.591   8.007 -0.1295 -0.1825  0.1269
10109SOL    HW133220  10.430   5.653   7.935 -0.9627 -0.7792 -0.5571
10109SOL    HW233221  10.476   5.622   8.076 -0.9399  1.7132  0.0229
10110SOL     OW33222   7.369   0.359   2.948  0.7686  0.0533 -0.0151
10110SOL    HW133223   7.365   0.264   2.961  2.0315 -0.4516 -2.5887
10110SOL    HW233224   7.296   0.379   2.890 -1.4770  1.3036  2.9889
10111SOL     OW33225   1.593   4.895   1.192 -0.0089 -0.3030 -0.7128
10111SOL    HW133226   1.589   4.859   1.104 -2.7167  0.1516 -0.8789
10111SOL    HW233227   1.624   4.985   1.180  0.3307 -0.4732 -1.1111
10112SOL     OW33228   9.355   6.772   0.188 -0.0855  0.1885 -0.3857
10112SOL    HW133229   9.287   6.787   0.123  0.1798  0.7029 -0.5481
10112SOL    HW233230   9.410   6.704   0.151 -0.1454  0.2242 -0.5386
10113SOL     OW33231   0.126   2.927   5.402 -0.2273 -0.2771  0.0725
10113SOL    HW133232   0.167   2.852   5.445 -1.3807 -0.7690  0.3347
10113SOL    HW233233   0.062   2.889   5.343 -1.0805  0.5082  0.4810
10114SOL     OW33234   5.588   7.106   9.936  0.0172 -0.2085 -0.0208
10114SOL    HW133235   5.511   7.122   9.991  1.0596  4.1969  0.5374
10114SOL    HW233236   5.574   7.161   9.859  2.1151 -0.1143 -0.3940
10115SOL     OW33237   0.083   8.294   0.091 -0.3544  0.0774  0.0238
10115SOL    HW133238   0.089   8.203   0.060  1.4848 -0.2736  1.2066
10115SOL    HW233239   0.159   8.304   0.149  1.6321  3.3966 -2.7283
10116SOL     OW33240   6.009   4.699   7.453 -0.3542  0.1167 -0.0557
10116SOL    HW133241   6.019   4.751   7.373 -1.8304 -0.7332 -0.8548
10116SOL    HW233242   6.015   4.762   7.524 -0.3345  1.1022 -0.9086
10117SOL     OW33243   2.769   0.700   6.300  0.5486  0.4239  0.3391
10117SOL    HW133244   2.760   0.638   6.372  0.2505  1.5425  1.2970
10117SOL    HW233245   2.860   0.692   6.272  0.9368  0.6408  1.4867
10118SOL     OW33246   8.044  10.710   4.066 -0.7999 -0.6678 -0.1823
10118SOL    HW133247   8.100  10.672   4.135 -0.3815  0.6317  0.2234
10118SOL    HW233248   8.072  10.666   3.986  0.5392 -0.3289  0.0783
10119SOL     OW33249   6.016   5.921   5.504  0.6745 -0.6401  0.0552
10119SOL    HW133250   5.981   5.974   5.575  0.1769 -0.4312 -0.3396
10119SOL    HW233251   6.066   5.984   5.451  1.5340 -0.9071  0.5360
10120SOL     OW33252   9.136   6.448   7.562  0.1699 -0.1708  0.4642
10120SOL    HW133253   9.174   6.368   7.598  2.5076  1.1456  1.2015
10120SOL    HW233254   9.155   6.515   7.629  1.1676  1.5937 -1.4496
10121SOL     OW33255  10.090   2.456   6.134 -0.6353 -0.1166  0.3445
10121SOL    HW133256  10.122   2.390   6.197  1.8836  1.0981  0.4461
10121SOL    HW233257  10.147   2.531   6.148 -0.5769  0.5223 -2.8046
10122SOL     OW33258   9.120   2.001   0.765  0.5429  0.0569  0.1422
10122SOL    HW133259   9.043   2.058   0.775  0.1159 -0.7499  1.7825
10122SOL    HW233260   9.100   1.949   0.688 -0.0991  0.5587 -0.0463
10123SOL     OW33261   9.854   4.788   1.840 -0.8847  0.2371 -0.3436
10123SOL    HW133262   9.870   4.792   1.934 -0.8529 -2.3953 -0.1728
10123SOL    HW233263   9.814   4.872   1.820  2.3960  2.4194  1.2993
10124SOL     OW33264   3.658   5.861   5.877  0.3714  0.1698  0.1458
10124SOL    HW133265   3.576   5.909   5.894 -0.4099 -0.9973 -0.1850
10124SOL    HW233266   3.725   5.912   5.922 -0.7533  0.3459  1.7239
10125SOL     OW33267   9.484   3.998   6.506  0.2191 -0.3237  0.4723
10125SOL    HW133268   9.424   3.948   6.451 -0.0222  3.1403 -2.8319
10125SOL    HW233269   9.571   3.979   6.470  0.3970 -0.1852  0.8181
10126SOL     OW33270   6.220   6.919  10.495  0.1815  0.3527 -0.5166
10126SOL    HW133271   6.254   6.984  10.433 -0.3447  1.4825  0.3575
10126SOL    HW233272   6.233   6.958  10.581 -0.3479 -0.6131  0.0228
10127SOL     OW33273   5.598   3.015   1.902 -0.6302  0.0185  0.1942
10127SOL    HW133274   5.590   3.037   1.809 -0.8715 -0.4829  0.0944
10127SOL    HW233275   5.545   3.081   1.947  0.5586  1.0828  0.0922
10128SOL     OW33276   1.907   6.601  10.602 -0.6453 -0.7489  0.0893
10128SOL    HW133277   1.981   6.556  10.643 -0.3433  0.3136  0.7480
10128SOL    HW233278   1.932   6.694  10.602 -0.6645 -0.6542 -2.4001
10129SOL     OW33279   7.731   6.971   3.045  0.0609  0.1520 -0.3846
10129SOL    HW133280   7.738   7.004   2.955  1.0189 -2.0272 -1.1965
10129SOL    HW233281   7.788   6.894   3.046 -1.5788 -1.1280  1.5066
10130SOL     OW33282  10.169   0.168   2.047  0.4262 -0.2957 -0.1766
10130SOL    HW133283  10.186   0.168   2.141  0.5204 -0.2535 -0.1934
10130SOL    HW233284  10.250   0.199   2.008 -0.4978  2.5184 -0.1067
10131SOL     OW33285  10.237   6.857   4.564 -0.0413  0.6253 -0.0841
10131SOL    HW133286  10.253   6.899   4.649 -0.9604  0.5429  0.1407
10131SOL    HW233287  10.312   6.799   4.552 -0.3755 -0.1043  1.1538
10132SOL     OW33288   4.744   4.499   7.076 -0.6268  0.1838  0.3040
10132SOL    HW133289   4.833   4.493   7.041  0.3491  0.1418  2.6195
10132SOL    HW233290   4.724   4.593   7.073 -0.4629  0.2103 -0.0825
10133SOL     OW33291   7.032  10.269   8.575  0.5310 -0.6905 -0.0753
10133SOL    HW133292   6.989  10.184   8.573  0.4823 -0.6764  0.3122
10133SOL    HW233293   6.979  10.324   8.517 -0.5811 -0.4025  1.1546
10134SOL     OW33294   1.552   3.930   7.775  0.7822 -0.2407  0.1233
10134SOL    HW133295   1.515   3.860   7.828 -1.6295  0.4591 -0.5414
10134SOL    HW233296   1.630   3.891   7.735 -0.7431 -2.7595 -0.6247
10135SOL     OW33297   2.086   3.090   2.964 -0.2647  0.3903  0.1437
10135SOL    HW133298   2.099   3.028   2.892  0.6328  0.1588  0.4952
10135SOL    HW233299   2.174   3.122   2.984 -0.8681  3.4282 -1.4438
10136SOL     OW33300   8.011   4.521   1.970 -0.3113  0.5160  0.1178
10136SOL    HW133301   8.019   4.617   1.969 -3.4934  0.9093 -1.5930
10136SOL    HW233302   7.994   4.500   2.062  0.3008  1.5889  0.4989
10137SOL     OW33303  10.128  10.755   5.121 -0.7931 -0.4416  0.4105
10137SOL    HW133304  10.053  10.770   5.179 -0.7206  0.6995  0.2348
10137SOL    HW233305  10.107  10.673   5.076 -1.6057 -0.5010  0.8739
10138SOL     OW33306   9.037   6.262   2.179 -0.0545  0.5233 -0.3009
10138SOL    HW133307   9.000   6.175   2.194  0.7955  0.2345  0.1613
10138SOL    HW233308   9.127   6.246   2.154  0.1715  1.2797  0.0069
10139SOL     OW33309   7.744   1.776   7.596 -0.2366 -0.0088  0.0753
10139SOL    HW133310   7.784   1.754   7.512 -1.3610  2.2669 -1.1493
10139SOL    HW233311   7.651   1.760   7.584 -0.4203  0.3969  0.8724
10140SOL     OW33312   9.218   3.281   6.443 -0.0782  0.4302  0.3263
10140SOL    HW133313   9.128   3.305   6.422  0.3475  1.5279 -0.3535
10140SOL    HW233314   9.231   3.312   6.532  0.1383  1.8879 -0.1779
10141SOL     OW33315   7.466  10.109  10.000  0.2708  0.2040  0.2443
10141SOL    HW133316   7.374  10.092   9.981  0.6200 -2.4593  0.4842
10141SOL    HW233317   7.466  10.189  10.052 -2.0762 -0.6298  1.6830
10142SOL     OW33318   7.629   0.727   8.889  0.0247  0.0107 -0.2260
10142SOL    HW133319   7.577   0.774   8.954  1.5470  2.1764 -0.4856
10142SOL    HW233320   7.706   0.697   8.936  0.0514 -0.4454 -0.5423
10143SOL     OW33321   2.384   3.255   7.614 -0.0803 -0.2527  0.8596
10143SOL    HW133322   2.422   3.204   7.542 -0.7027  0.4936 -0.0075
10143SOL    HW233323   2.459   3.277   7.669  0.4958 -0.3089  0.1175
10144SOL     OW33324   2.257   2.733   6.292  0.1743  0.5480 -0.5801
10144SOL    HW133325   2.226   2.815   6.254 -2.4357  0.2445  0.6288
10144SOL    HW233326   2.197   2.667   6.255  1.1332 -0.5519 -0.2101
10145SOL     OW33327   9.626   1.619   4.345 -0.5381 -0.7112 -0.6906
10145SOL    HW133328   9.541   1.652   4.374  0.2574  0.7882  0.0535
10145SOL    HW233329   9.683   1.695   4.347  1.1465 -1.9231  0.0683
10146SOL     OW33330  10.558   2.922   3.203 -0.1251 -0.2796 -0.2774
10146SOL    HW133331  10.556   2.881   3.290  0.7853  2.6922  1.2705
10146SOL    HW233332  10.643   2.966   3.200 -0.4464  0.2684 -2.4079
10147SOL     OW33333   5.171   5.930   9.779  0.2210 -0.1557 -0.1762
10147SOL    HW133334   5.143   5.969   9.696 -3.0228  1.3888  1.4616
10147SOL    HW233335   5.256   5.968   9.796  0.2389  0.7435 -2.0109
10148SOL     OW33336   7.578   5.501   2.537 -0.1379 -0.3724 -0.0010
10148SOL    HW133337   7.580   5.567   2.467  0.5837 -0.6112 -0.2175
10148SOL    HW233338   7.653   5.444   2.518 -1.3471 -1.8865 -0.4226
10149SOL     OW33339   4.396   5.839  10.207 -0.4848  0.1805  0.0685
10149SOL    HW133340   4.468   5.805  10.154  0.2294 -0.6868  1.5273
10149SOL    HW233341   4.361   5.912  10.156  1.4873  0.6895 -0.6423
10150SOL     OW33342   6.441   2.574   0.864 -0.4658 -0.0720 -0.5090
10150SOL    HW133343   6.498   2.634   0.817 -1.1491  0.2822 -0.8977
10150SOL    HW233344   6.412   2.622   0.942 -2.8061  1.0075 -1.9305
10151SOL     OW33345   4.875  10.664   6.530  0.0252  0.6093 -0.5288
10151SOL    HW133346   4.897  10.691   6.441 -0.8195  2.4156 -0.2266
10151SOL    HW233347   4.869  10.746   6.579 -0.1073 -0.3196  1.0625
10152SOL     OW33348   2.454   7.801   0.655  0.1496 -0.7803  0.4286
10152SOL    HW133349   2.396   7.829   0.584  0.7682 -1.9385 -0.5581
10152SOL    HW233350   2.517   7.872   0.664  0.1106 -0.6621 -0.2250
10153SOL     OW33351   1.624   8.107   6.973  0.1311  0.3265  0.1998
10153SOL    HW133352   1.577   8.153   6.904 -0.9289 -0.1741  0.5684
10153SOL    HW233353   1.709   8.085   6.933 -0.7280 -0.6178 -1.2315
10154SOL     OW33354   9.884   1.410   9.021 -0.6802 -0.2932  0.3120
10154SOL    HW133355   9.896   1.492   9.069 -1.7567  0.0125  0.0871
10154SOL    HW233356   9.793   1.413   8.991 -0.1634 -0.6523 -1.4081
10155SOL     OW33357   4.037   4.598   0.799 -0.3519 -0.3136 -0.7959
10155SOL    HW133358   4.006   4.530   0.740 -0.0812 -1.8078  0.7173
10155SOL    HW233359   4.119   4.564   0.835  0.9338  1.7471 -1.5604
10156SOL     OW33360   3.603   7.947   8.926  0.1802 -0.3871 -0.0402
10156SOL    HW133361   3.622   7.930   8.834 -0.0286  1.3282 -0.4247
10156SOL    HW233362   3.510   7.927   8.936 -0.5219  2.0820 -0.9301
10157SOL     OW33363   8.433   2.489   4.477 -0.0884 -0.2980  0.0953
10157SOL    HW133364   8.519   2.530   4.490  0.3480 -0.8775 -0.8372
10157SOL    HW233365   8.378   2.527   4.545  0.9744 -0.0964  0.8748
10158SOL     OW33366   9.235   7.766   7.426 -0.1350  0.2899 -0.2904
10158SOL    HW133367   9.320   7.775   7.384  0.6405  0.6398  1.2711
10158SOL    HW233368   9.174   7.807   7.366  1.1541  2.2714 -0.3454
10159SOL     OW33369   4.147   2.074   6.548  0.1222  0.5077  0.4417
10159SOL    HW133370   4.187   2.048   6.465 -0.2545  1.1310  0.0531
10159SOL    HW233371   4.074   2.014   6.560  1.0788 -0.5707  1.1028
10160SOL     OW33372  10.529   4.169   5.947 -0.0139  0.0769  0.0037
10160SOL    HW133373  10.522   4.210   5.860 -1.1317 -0.4113 -0.1485
10160SOL    HW233374  10.541   4.076   5.929  0.7487  0.0967  0.3721
10161SOL     OW33375   0.164   9.540   3.310 -0.0329 -0.1423  0.0103
10161SOL    HW133376   0.076   9.510   3.333 -0.1852  0.2562 -0.0525
10161SOL    HW233377   0.191   9.595   3.384  0.0348 -0.0029 -0.1179
10162SOL     OW33378   7.263  10.538   1.804 -0.0625  0.3281 -0.3171
10162SOL    HW133379   7.195  10.517   1.740 -0.8596  2.2665 -0.1898
10162SOL    HW233380   7.216  10.540   1.888  0.7602 -1.1519  0.2079
10163SOL     OW33381  10.634   1.442   5.537 -0.3749 -0.4295  0.3776
10163SOL    HW133382  10.672   1.388   5.605  0.3727  0.5356  0.7584
10163SOL    HW233383  10.659   1.532   5.561  0.5019 -0.1055 -1.4998
10164SOL     OW33384   5.687   1.422   6.970  0.1258  0.4756 -0.1607
10164SOL    HW133385   5.618   1.374   7.016  0.3403  0.1352 -0.1943
10164SOL    HW233386   5.639   1.480   6.910 -0.1800  1.5805  1.1101
10165SOL     OW33387   6.837   5.907   8.933 -0.1465  0.5051  0.3546
10165SOL    HW133388   6.909   5.871   8.881 -0.7759 -1.5751  0.7934
10165SOL    HW233389   6.879   5.968   8.994  1.2039 -0.3938  0.3703
10166SOL     OW33390   7.457   5.673   9.796 -0.0368 -0.2631  0.1642
10166SOL    HW133391   7.546   5.636   9.798  0.2886  0.5120  0.3859
10166SOL    HW233392   7.470   5.766   9.780 -0.7912 -0.0732  0.6078
10167SOL     OW33393   7.185   0.925   1.150 -0.0387 -0.5115  0.0496
10167SOL    HW133394   7.213   0.837   1.125 -0.6996 -0.6676 -0.1565
10167SOL    HW233395   7.091   0.926   1.132  0.2874  0.8642 -1.8348
10168SOL     OW33396   0.564   7.079   9.851  0.0445 -0.1002  0.0550
10168SOL    HW133397   0.635   7.113   9.797  0.9169  0.7131  1.6314
10168SOL    HW233398   0.484   7.103   9.804  0.7568  1.0391 -0.6095
10169SOL     OW33399   3.844   2.759   3.506 -0.0530 -0.1574 -0.2569
10169SOL    HW133400   3.832   2.800   3.420 -2.0323  1.2212  0.6102
10169SOL    HW233401   3.815   2.668   3.492  1.5462 -0.5370 -1.4743
10170SOL     OW33402  10.000   2.572   3.431  0.1053 -0.2495 -1.0586
10170SOL    HW133403   9.994   2.489   3.384  1.4341 -0.7248 -0.4376
10170SOL    HW233404  10.034   2.634   3.367  0.4545 -0.5280 -1.1458
10171SOL     OW33405   8.897   0.117   1.637 -0.6130 -0.3954  0.7076
10171SOL    HW133406   8.847   0.195   1.662 -2.3799 -1.4940  0.6809
10171SOL    HW233407   8.988   0.149   1.631 -1.4269  1.9410 -0.4934
10172SOL     OW33408   5.073   9.760  10.701 -0.6856  0.4557  0.3415
10172SOL    HW133409   5.006   9.777  10.767 -2.9933 -0.2814 -1.6844
10172SOL    HW233410   5.025   9.732  10.623  1.9917 -0.1906 -1.2305
10173SOL     OW33411  10.065   4.952   2.205  0.6949  0.3756  0.3252
10173SOL    HW133412  10.150   4.913   2.227  0.6223  0.1466  0.1995
10173SOL    HW233413  10.081   5.047   2.205  1.2748  0.2969 -1.0283
10174SOL     OW33414   9.190   8.316   3.214 -0.2398 -0.0889 -0.2457
10174SOL    HW133415   9.198   8.257   3.289  3.0573 -2.0241 -1.8683
10174SOL    HW233416   9.105   8.295   3.176 -1.1450 -0.4078  1.8421
10175SOL     OW33417   8.765   7.923  10.587  0.5138  0.1555 -0.4537
10175SOL    HW133418   8.845   7.920  10.535  0.4472  0.0331 -0.5482
10175SOL    HW233419   8.754   7.833  10.620  1.3613  0.5420  0.9898
10176SOL     OW33420   1.959   9.040   4.969 -0.0114 -0.4623  0.0233
10176SOL    HW133421   1.972   9.122   4.920  3.3137  0.5670  2.2596
10176SOL    HW233422   1.928   9.068   5.055 -0.0733 -1.6904  0.4221
10177SOL     OW33423   8.315   7.818   9.037 -0.3690  0.2562 -0.1981
10177SOL    HW133424   8.357   7.744   9.080 -0.7973  1.1332  1.8706
10177SOL    HW233425   8.381   7.853   8.977  1.5790  0.9882  2.2249
10178SOL     OW33426   7.601  10.322   4.234 -0.2560  0.1290 -0.7101
10178SOL    HW133427   7.551  10.246   4.265  0.9546 -0.3341  0.2065
10178SOL    HW233428   7.540  10.396   4.242 -0.7602 -0.3896  0.4843
10179SOL     OW33429   1.010   7.696   8.833 -0.5174 -1.0581  0.0634
10179SOL    HW133430   0.958   7.777   8.832  1.1450  0.0597 -0.2401
10179SOL    HW233431   1.095   7.723   8.867  1.2335 -1.9151 -3.2051
10180SOL     OW33432   8.348   5.264   1.576 -0.4080  0.4236 -0.4081
10180SOL    HW133433   8.405   5.292   1.505  1.2170  1.2127  1.1274
10180SOL    HW233434   8.354   5.169   1.576 -0.3272  0.4283 -1.2416
10181SOL     OW33435  10.261   3.759   5.398 -0.1830  0.0087  0.1384
10181SOL    HW133436  10.255   3.849   5.366  0.5079  0.1149  0.2799
10181SOL    HW233437  10.271   3.768   5.492 -2.6832 -0.3243  0.4851
10182SOL     OW33438   5.600  10.669   0.472 -0.3072 -0.5200  0.1902
10182SOL    HW133439   5.647  10.747   0.502 -1.6672 -0.1943  1.5997
10182SOL    HW233440   5.563  10.630   0.552 -0.6947 -1.9199 -0.6240
10183SOL     OW33441  10.239   7.334   6.190 -0.0797  0.6077 -0.1518
10183SOL    HW133442  10.281   7.420   6.198  1.8925 -0.3666  0.4655
10183SOL    HW233443  10.157   7.343   6.240 -0.0526  2.1895 -0.3300
10184SOL     OW33444  10.569   8.963   0.238 -0.2381 -0.4195 -0.3852
10184SOL    HW133445  10.591   8.903   0.166  0.5027 -0.0242 -0.4975
10184SOL    HW233446  10.478   8.942   0.259 -0.3623 -0.7701 -1.2163
10185SOL     OW33447   5.878   8.629   0.660 -0.4955 -0.1913 -0.1816
10185SOL    HW133448   5.894   8.723   0.650 -0.2867 -0.0231  1.5261
10185SOL    HW233449   5.863   8.617   0.753  2.1031 -2.2450  0.0781
10186SOL     OW33450   4.054   8.784   2.817 -0.1590 -0.6466 -0.3249
10186SOL    HW133451   4.018   8.745   2.737  2.3894 -1.4091 -1.1780
10186SOL    HW233452   4.072   8.709   2.874 -3.8520 -0.0285  1.9816
10187SOL     OW33453   2.163   6.371   9.888  0.4802 -0.4298  0.2236
10187SOL    HW133454   2.133   6.300   9.832  0.6736  0.4478 -1.0630
10187SOL    HW233455   2.248   6.342   9.921  0.9506 -0.4705 -0.9725
10188SOL     OW33456   1.060   1.753   1.390  0.2246  0.6215  0.0866
10188SOL    HW133457   1.091   1.843   1.400 -1.1090  1.0332  0.8006
10188SOL    HW233458   1.134   1.707   1.350  0.8982  2.0480 -0.4143
10189SOL     OW33459   9.525   8.465   2.833 -0.0603 -0.3021 -0.0126
10189SOL    HW133460   9.572   8.410   2.771  0.3968  1.0693 -0.9307
10189SOL    HW233461   9.440   8.421   2.845  0.2383 -1.1111 -0.8187
10190SOL     OW33462  10.716   1.860   2.276  0.2895 -0.2002 -0.3009
10190SOL    HW133463  10.637   1.906   2.247 -0.0603 -0.2540  0.5634
10190SOL    HW233464  10.784   1.888   2.214 -0.7764 -1.5185 -2.1735
10191SOL     OW33465   0.847   7.692   9.604  0.3343  0.1434  0.4500
10191SOL    HW133466   0.803   7.776   9.591  2.0290  0.9759 -0.2391
10191SOL    HW233467   0.847   7.679   9.699 -1.7689 -0.1520  0.4594
10192SOL     OW33468   1.563   0.652   2.244 -0.2653 -0.0177  0.1639
10192SOL    HW133469   1.560   0.718   2.314  0.6565  1.7526 -1.3641
10192SOL    HW233470   1.654   0.651   2.216 -0.5458 -0.9602 -0.7773
10193SOL     OW33471   7.895   3.321   4.038 -0.6500  0.2598 -0.0046
10193SOL    HW133472   7.891   3.242   3.985 -0.1101 -1.1205  1.9028
10193SOL    HW233473   7.952   3.298   4.112 -1.4263  2.0490  1.2248
10194SOL     OW33474   6.604   7.640  10.372  0.2811 -0.5390  0.3802
10194SOL    HW133475   6.615   7.656  10.466 -0.4085 -0.4453  0.4451
10194SOL    HW233476   6.683   7.677  10.332 -0.2597  1.0713  0.7423
10195SOL     OW33477   2.242   7.338   4.039 -0.3685 -0.0070 -0.0245
10195SOL    HW133478   2.278   7.402   3.976 -0.3341 -0.7928 -0.8246
10195SOL    HW233479   2.211   7.266   3.984 -1.8397  0.0019  0.7549
10196SOL     OW33480   6.737   7.518   5.827 -0.5939 -0.4401  0.2225
10196SOL    HW133481   6.699   7.433   5.847 -2.0669  0.3583  0.9383
10196SOL    HW233482   6.794   7.502   5.751 -1.6546 -1.8416 -0.3042
10197SOL     OW33483   5.261   8.242   5.351 -0.5843 -0.3158 -0.2092
10197SOL    HW133484   5.344   8.221   5.307 -1.5207  1.6143 -3.1953
10197SOL    HW233485   5.286   8.258   5.442  1.7258 -3.0923 -0.1965
10198SOL     OW33486   1.912   4.560   1.231 -0.6328  0.0322  0.5730
10198SOL    HW133487   1.893   4.647   1.266  0.0613 -0.0933  1.2794
10198SOL    HW233488   1.917   4.504   1.308 -0.6647 -0.5607  0.1491
10199SOL     OW33489   5.578   8.493   7.445  0.2092  0.2969 -0.1579
10199SOL    HW133490   5.564   8.437   7.522  1.2628  0.9494  0.5385
10199SOL    HW233491   5.528   8.451   7.375 -0.6622 -0.3931  0.8496
10200SOL     OW33492   3.996   3.198   5.960  0.3776 -0.0334 -0.1704
10200SOL    HW133493   3.990   3.254   5.883  3.5243  0.8722  0.1273
10200SOL    HW233494   3.979   3.256   6.034  1.1329 -0.0354  0.0084
10201SOL     OW33495   5.585   4.054   2.421  0.7080  0.7127  0.2213
10201SOL    HW133496   5.640   4.105   2.362  0.4756  1.7357  0.8678
10201SOL    HW233497   5.609   3.963   2.404  2.1467  1.1073  0.0523
10202SOL     OW33498   8.291   9.354   3.147 -0.1648 -0.1883 -0.1219
10202SOL    HW133499   8.200   9.325   3.159 -0.0604 -0.2324  0.5946
10202SOL    HW233500   8.286   9.449   3.148  0.1610 -0.0895  3.2695
10203SOL     OW33501   0.881   6.696  10.490 -0.0630  0.0981  0.3361
10203SOL    HW133502   0.896   6.673  10.398 -1.5027 -0.9236  0.3173
10203SOL    HW233503   0.786   6.690  10.501  0.1577 -0.7540  2.1253
10204SOL     OW33504   4.735   5.301   7.322  0.2317 -0.5407 -0.0918
10204SOL    HW133505   4.742   5.397   7.323 -2.0856 -0.3090 -0.7855
10204SOL    HW233506   4.734   5.278   7.229 -0.2025 -1.1454  0.0610
10205SOL     OW33507   6.107   5.569   3.349 -0.2942  0.0438 -0.3535
10205SOL    HW133508   6.166   5.501   3.382 -1.6886 -0.7162  0.6644
10205SOL    HW233509   6.093   5.546   3.257  0.9848  0.2587 -0.6268
10206SOL     OW33510  10.074   5.394  10.326 -0.5562 -0.3634  0.3556
10206SOL    HW133511   9.987   5.353  10.324  0.4896 -2.7318  0.3911
10206SOL    HW233512  10.078   5.436  10.412 -0.5981 -2.8682  1.6600
10207SOL     OW33513   8.292  10.788   4.253 -0.2697 -0.0138  0.3620
10207SOL    HW133514   8.376  10.781   4.298 -0.1857  0.3696  0.2650
10207SOL    HW233515   8.241  10.849   4.306 -0.1708  0.4411 -0.0615
10208SOL     OW33516   6.689   9.099   7.814  0.4961  0.2368 -0.6147
10208SOL    HW133517   6.763   9.043   7.789 -0.3956 -0.4550 -1.8007
10208SOL    HW233518   6.647   9.121   7.731 -1.1472 -0.1221  0.0891
10209SOL     OW33519  10.785   8.261   7.886 -0.2820 -0.6288  0.5582
10209SOL    HW133520  10.730   8.315   7.943 -0.4222  0.0278 -0.1761
10209SOL    HW233521  10.794   8.178   7.933 -0.8940 -0.3180  1.2487
10210SOL     OW33522   5.847   6.274   8.545  0.4640  0.3946 -0.0447
10210SOL    HW133523   5.899   6.274   8.626  0.4332  1.3402 -0.0128
10210SOL    HW233524   5.770   6.327   8.567 -0.0998 -0.2812 -0.3570
10211SOL     OW33525   1.993   0.120   3.149  0.6579 -0.0920 -0.4337
10211SOL    HW133526   1.984   0.060   3.075  0.1768 -0.0569 -0.4094
10211SOL    HW233527   2.018   0.204   3.109 -0.0703  0.0470 -0.6054
10212SOL     OW33528   3.496  10.058   6.592  0.4808  0.1228  0.1100
10212SOL    HW133529   3.421  10.109   6.560  0.6591  0.8173  0.7435
10212SOL    HW233530   3.534  10.019   6.514 -0.5440 -0.2401 -0.2208
10213SOL     OW33531   2.834   5.701   9.481  0.2794  0.5668  0.3036
10213SOL    HW133532   2.779   5.655   9.544 -1.0636  1.4575 -0.1742
10213SOL    HW233533   2.787   5.783   9.464  0.9353  0.6228 -1.3682
10214SOL     OW33534   4.365   2.507   4.162  0.7296  0.9409  0.1968
10214SOL    HW133535   4.294   2.497   4.098 -0.6864 -0.5220  1.8916
10214SOL    HW233536   4.332   2.569   4.226  0.3733 -0.7151  1.6969
10215SOL     OW33537   0.227   7.085   5.766 -0.3510 -0.0708 -0.1808
10215SOL    HW133538   0.241   7.061   5.674  0.4600 -1.1495  0.2178
10215SOL    HW233539   0.258   7.175   5.771  1.4148 -0.6227 -0.5540
10216SOL     OW33540   1.188   3.246   0.564 -0.1177 -0.5329  0.1277
10216SOL    HW133541   1.221   3.228   0.476  0.2449 -0.2423  0.2014
10216SOL    HW233542   1.257   3.215   0.622 -0.1432 -0.2736  0.2959
10217SOL     OW33543   6.605   9.163   7.557  0.0198  0.0901 -0.1892
10217SOL    HW133544   6.547   9.097   7.519 -0.1898 -0.2918  0.7538
10217SOL    HW233545   6.562   9.247   7.539  0.3896  0.0044 -1.5744
10218SOL     OW33546   9.369   0.154   1.105  0.0610 -0.1113 -0.3808
10218SOL    HW133547   9.459   0.155   1.138 -0.3309  1.4550  0.7682
10218SOL    HW233548   9.376   0.181   1.014  0.7351  0.2792 -0.2171
10219SOL     OW33549   1.617   4.290   5.117  0.0873  0.2451 -0.5017
10219SOL    HW133550   1.678   4.233   5.164 -1.4433 -0.1457  1.1335
10219SOL    HW233551   1.605   4.365   5.176  0.0824  1.0010 -1.4518
10220SOL     OW33552   8.691   6.008   6.289  0.2568 -0.6217  0.1436
10220SOL    HW133553   8.697   5.983   6.381 -1.4942  0.6322  0.6513
10220SOL    HW233554   8.753   5.950   6.245  1.9791 -0.4845  2.2299
10221SOL     OW33555   4.516   9.651   1.495  0.5748 -0.3464 -0.3448
10221SOL    HW133556   4.439   9.613   1.538  0.0271 -0.4086 -1.3470
10221SOL    HW233557   4.560   9.700   1.564  1.5046 -3.0487  1.1102
10222SOL     OW33558   1.178   0.155   0.555 -0.7244 -0.3684 -0.0060
10222SOL    HW133559   1.153   0.200   0.635 -3.0788 -1.4501 -0.0513
10222SOL    HW233560   1.101   0.162   0.498 -0.6254 -3.0234 -0.5955
10223SOL     OW33561   0.141   5.325   4.776  0.4249  0.1813  0.1455
10223SOL    HW133562   0.054   5.286   4.775  0.6246 -0.2604 -0.7777
10223SOL    HW233563   0.146   5.376   4.695  1.5821 -1.0991 -0.6373
10224SOL     OW33564  10.757   4.222   5.361 -0.1040 -0.1731 -0.2005
10224SOL    HW133565  10.700   4.292   5.391  0.9944  0.7208 -0.1040
10224SOL    HW233566  10.772   4.242   5.268 -2.1163 -1.9599 -0.9856
10225SOL     OW33567   2.616   6.330   0.896  0.3688  0.3969  0.3921
10225SOL    HW133568   2.620   6.350   0.989 -1.3823  0.1633  0.5512
10225SOL    HW233569   2.611   6.234   0.893 -2.7258  0.4694  0.2890
10226SOL     OW33570   9.331   3.412   5.258  0.1620  0.3637 -0.1759
10226SOL    HW133571   9.301   3.322   5.250  1.1456 -0.3082  2.6244
10226SOL    HW233572   9.251   3.462   5.279 -0.1194 -0.1952  0.1242
10227SOL     OW33573   4.010   4.777   6.839 -0.2569 -0.2737 -0.2909
10227SOL    HW133574   4.051   4.861   6.821 -0.7142 -0.1343 -0.7108
10227SOL    HW233575   4.079   4.713   6.823 -0.3047 -0.0700 -1.3928
10228SOL     OW33576   1.124   6.983   2.715  0.4113 -0.4411  0.0973
10228SOL    HW133577   1.099   6.899   2.753  1.6156 -1.3835 -1.0952
10228SOL    HW233578   1.167   7.030   2.787  0.5958 -1.2432  0.5258
10229SOL     OW33579   7.896   3.052   6.964  0.3808  0.9661  0.2264
10229SOL    HW133580   7.959   3.096   6.906 -0.3605  0.1964 -1.2283
10229SOL    HW233581   7.922   2.960   6.961  0.6644  0.9895  1.5886
10230SOL     OW33582   8.524   3.338   0.961 -0.0407  0.0330 -0.0023
10230SOL    HW133583   8.603   3.300   1.000 -0.3656 -1.8127 -1.0219
10230SOL    HW233584   8.464   3.349   1.035  0.3412 -0.7743  0.4450
10231SOL     OW33585   4.020   3.199   3.783 -0.4964  0.8639 -0.5702
10231SOL    HW133586   3.936   3.162   3.756  0.3243 -1.5958 -0.0741
10231SOL    HW233587   3.998   3.272   3.840 -2.3575 -0.6599  0.8016
10232SOL     OW33588   5.016   7.605   6.347 -0.2481  0.1801 -0.3874
10232SOL    HW133589   5.061   7.664   6.407  0.4112 -0.3758 -0.3274
10232SOL    HW233590   5.074   7.596   6.272 -0.9390  0.6383 -0.9950
10233SOL     OW33591   6.410   7.842   9.393  0.0967  0.0502  0.2033
10233SOL    HW133592   6.446   7.914   9.341 -1.0846  1.0528  0.7218
10233SOL    HW233593   6.406   7.768   9.332  1.4886  0.3589 -0.2921
10234SOL     OW33594   3.254   3.412  10.608  0.1337 -0.2284  0.2439
10234SOL    HW133595   3.237   3.318  10.623  1.6081 -0.6009 -0.2979
10234SOL    HW233596   3.212   3.455  10.682  1.4845 -1.5256  1.8552
10235SOL     OW33597   6.831   4.828   5.647 -0.2608  0.2393 -0.3812
10235SOL    HW133598   6.796   4.739   5.645 -1.7319  0.6505  2.1408
10235SOL    HW233599   6.923   4.816   5.673 -1.2433 -0.5532  3.3273
10236SOL     OW33600   6.601  10.005   8.578  0.5349 -0.1209 -0.8345
10236SOL    HW133601   6.562  10.018   8.491  0.9228  0.1710 -0.9701
10236SOL    HW233602   6.666   9.936   8.565  0.6870  0.0163 -0.8067
10237SOL     OW33603   6.803   1.011   8.146  0.4346 -0.0348 -0.8130
10237SOL    HW133604   6.726   0.960   8.173  1.9274 -1.9505  0.1296
10237SOL    HW233605   6.840   0.961   8.073  1.6846 -0.1195 -0.1598
10238SOL     OW33606   8.918   9.642   9.721  0.3787  0.1470 -0.1159
10238SOL    HW133607   8.837   9.596   9.744  1.0025 -1.0014 -0.1828
10238SOL    HW233608   8.940   9.609   9.634  1.5859 -0.4838  0.4149
10239SOL     OW33609   2.331   1.858  10.516  0.2564  0.1342  0.6113
10239SOL    HW133610   2.250   1.898  10.546  0.8641  1.3017  0.7640
10239SOL    HW233611   2.367   1.815  10.593 -0.9268 -1.6837  0.2006
10240SOL     OW33612   0.749  10.540   6.148 -0.9078  0.0909 -0.2211
10240SOL    HW133613   0.670  10.586   6.175 -0.6408 -1.0192  2.9822
10240SOL    HW233614   0.720  10.451   6.127 -0.5144 -0.7941  2.4769
10241SOL     OW33615   2.188   4.799   7.051  0.2472 -0.1912  0.0173
10241SOL    HW133616   2.275   4.775   7.081  0.0502 -1.8237 -0.5833
10241SOL    HW233617   2.181   4.893   7.067  1.7012 -0.2403  1.0705
10242SOL     OW33618   7.769   2.464   2.652  0.0936 -0.0504  0.0205
10242SOL    HW133619   7.780   2.523   2.727  0.9288 -2.0760  1.5973
10242SOL    HW233620   7.679   2.434   2.659  0.7089 -1.7530  1.4992
10243SOL     OW33621   3.586   9.244  10.071  0.2744 -0.0087  0.6195
10243SOL    HW133622   3.533   9.234   9.992  0.2761 -0.1763  0.6394
10243SOL    HW233623   3.631   9.328  10.059 -0.2409  0.2865  0.7465
10244SOL     OW33624   7.474   5.619   4.991  0.1406 -0.6289  0.3523
10244SOL    HW133625   7.491   5.617   5.085  1.7634  2.1448  0.2350
10244SOL    HW233626   7.384   5.650   4.983  0.0281 -0.7844  0.9626
10245SOL     OW33627   1.653   4.843   1.661 -0.3957 -0.0747 -0.0906
10245SOL    HW133628   1.662   4.802   1.575  2.4349  1.3017 -0.5545
10245SOL    HW233629   1.582   4.906   1.651 -0.0323  0.1409 -1.4557
10246SOL     OW33630   1.375   1.426   7.348  0.2225 -0.2815 -0.0134
10246SOL    HW133631   1.409   1.348   7.392 -0.1010 -0.2106  0.3676
10246SOL    HW233632   1.449   1.487   7.348  0.7241 -0.8730 -1.0310
10247SOL     OW33633   9.839  10.234   6.445  0.7700 -0.2296 -0.0540
10247SOL    HW133634   9.832  10.321   6.406  0.8180 -0.0005  0.4298
10247SOL    HW233635   9.929  10.231   6.480  0.3380  0.0617  1.1460
10248SOL     OW33636   4.809   6.114   4.867 -0.1545 -0.2660  0.5159
10248SOL    HW133637   4.777   6.202   4.883 -0.4707  0.0589 -1.6450
10248SOL    HW233638   4.869   6.097   4.940  0.2556  1.8820  0.7469
10249SOL     OW33639   0.745   9.138   8.627  0.2210  0.0260 -0.2908
10249SOL    HW133640   0.759   9.117   8.535 -0.4834  1.5784 -0.7754
10249SOL    HW233641   0.652   9.123   8.642  0.6084 -1.7358  0.6135
10250SOL     OW33642   3.413   3.545   0.184  0.2215 -0.0728 -0.1209
10250SOL    HW133643   3.509   3.546   0.181  0.2354 -0.0205  0.2669
10250SOL    HW233644   3.386   3.617   0.128  0.4361  0.6148  0.6300
10251SOL     OW33645   2.959   8.862   4.646  0.1457 -0.1642  0.2326
10251SOL    HW133646   2.868   8.830   4.647 -0.1832  0.7490  0.5728
10251SOL    HW233647   2.958   8.938   4.704  0.3684  1.8735 -2.2524
10252SOL     OW33648   7.012   6.417   1.189  0.6313  0.3695 -0.0140
10252SOL    HW133649   6.992   6.505   1.159 -0.1723  0.3280  0.3744
10252SOL    HW233650   7.108   6.411   1.183  0.5310  0.2152 -2.9118
10253SOL     OW33651   2.243   1.456   9.352  0.2589 -0.4095  0.1836
10253SOL    HW133652   2.314   1.402   9.317  0.6333  1.4334 -2.1453
10253SOL    HW233653   2.163   1.411   9.324  0.5580 -0.4838 -0.5846
10254SOL     OW33654   5.947   5.280  10.128  0.4093  0.1462  0.5302
10254SOL    HW133655   5.892   5.358  10.137 -2.1437 -1.6835  2.5014
10254SOL    HW233656   6.015   5.290  10.194 -0.1008  0.6097  0.9967
10255SOL     OW33657   8.881   2.952   1.262  0.0940  0.1035 -0.1208
10255SOL    HW133658   8.920   2.974   1.347  1.2350 -2.0817 -0.0091
10255SOL    HW233659   8.935   2.880   1.229 -1.0855  0.0811 -2.1425
10256SOL     OW33660   6.235   2.583   7.235  0.3232 -0.0123 -0.4771
10256SOL    HW133661   6.174   2.607   7.306  0.0332 -0.4906 -0.5577
10256SOL    HW233662   6.268   2.497   7.260  1.8388  0.7092  0.1268
10257SOL     OW33663   5.616   3.692   1.321 -0.1903 -0.3160  0.1635
10257SOL    HW133664   5.539   3.636   1.312 -0.6480  0.0365  1.6322
10257SOL    HW233665   5.593   3.772   1.274  1.0249 -1.7644 -3.2459
10258SOL     OW33666   3.174   9.354   0.771 -0.5043  0.4144 -0.5730
10258SOL    HW133667   3.104   9.413   0.740 -0.5501  0.4742 -0.3568
10258SOL    HW233668   3.208   9.397   0.849  0.3938  0.8472 -1.1750
10259SOL     OW33669   9.876  10.502   4.407 -0.5697  0.3592 -0.3774
10259SOL    HW133670   9.900  10.590   4.434 -1.5862  0.9738 -1.3808
10259SOL    HW233671   9.794  10.484   4.453  1.3455 -1.5536  2.6883
10260SOL     OW33672   5.321   5.345   1.058  0.2912  0.6137  0.9359
10260SOL    HW133673   5.372   5.305   0.988  0.1186 -0.4839  1.4047
10260SOL    HW233674   5.349   5.436   1.059  0.4681  0.5944 -0.3904
10261SOL     OW33675   2.695   5.837  10.361 -0.3826  0.3805 -0.7357
10261SOL    HW133676   2.664   5.760  10.313  1.0273  0.9644 -2.7088
10261SOL    HW233677   2.690   5.812  10.453 -2.2450 -1.1730 -1.2022
10262SOL     OW33678   1.984   0.186   5.474  0.2913  0.6953 -0.3389
10262SOL    HW133679   2.039   0.134   5.415 -0.5584 -1.2720  0.4958
10262SOL    HW233680   2.002   0.151   5.561 -0.6836  1.4903  0.2039
10263SOL     OW33681   4.779   4.763   8.506  0.5934  0.3013  0.2976
10263SOL    HW133682   4.762   4.847   8.548  1.8526  0.6679  0.1079
10263SOL    HW233683   4.833   4.784   8.430  0.7225 -0.6491  0.1124
10264SOL     OW33684   1.706   8.377   5.394  0.5194 -0.1734 -0.2389
10264SOL    HW133685   1.652   8.394   5.472  1.5944 -0.2588  0.5376
10264SOL    HW233686   1.685   8.450   5.336  0.1780  0.2500  0.3926
10265SOL     OW33687   9.122   3.936  10.325  0.6644  0.0413 -0.2706
10265SOL    HW133688   9.209   3.961  10.296  0.9530 -0.1571  0.4022
10265SOL    HW233689   9.103   3.995  10.398  0.6862 -0.6284  0.2837
10266SOL     OW33690   6.464   5.804   7.456  0.0259  0.0794 -0.6995
10266SOL    HW133691   6.446   5.826   7.365  0.4153 -0.1406 -0.8317
10266SOL    HW233692   6.548   5.758   7.454  0.4627  0.8261 -0.1346
10267SOL     OW33693   5.231   4.105   9.568 -0.2276  0.0938  0.2724
10267SOL    HW133694   5.253   4.189   9.607  0.0799  0.0639  0.1641
10267SOL    HW233695   5.220   4.124   9.475 -1.3983  0.2527  0.4212
10268SOL     OW33696   5.101   9.292   4.111 -0.2625 -0.4235  0.2770
10268SOL    HW133697   5.099   9.349   4.188  2.8036 -0.8809  0.8233
10268SOL    HW233698   5.136   9.209   4.144 -1.8107 -1.6761 -1.0748
10269SOL     OW33699   5.162   9.660   4.721  0.4421 -0.1854  0.0285
10269SOL    HW133700   5.100   9.619   4.661  1.7026  3.2018 -4.1559
10269SOL    HW233701   5.108   9.717   4.776 -0.6192 -2.3884  1.4249
10270SOL     OW33702   5.756   8.151   2.071 -0.0446 -0.7037 -0.2548
10270SOL    HW133703   5.802   8.206   2.008  0.7894 -0.9669  0.1121
10270SOL    HW233704   5.757   8.063   2.031  0.2334 -0.8131 -0.0091
10271SOL     OW33705   6.263   1.901   6.445  0.5477  0.2738 -0.8636
10271SOL    HW133706   6.348   1.878   6.408  0.5550 -0.0710 -0.6367
10271SOL    HW233707   6.199   1.863   6.385  0.5403 -2.4480  0.7306
10272SOL     OW33708   1.472   7.546   7.325 -0.0954 -0.0623 -0.0104
10272SOL    HW133709   1.386   7.570   7.357 -0.0940  0.8926 -0.7001
10272SOL    HW233710   1.456   7.467   7.273 -0.7672  0.8136 -1.1764
10273SOL     OW33711   2.395   2.836   2.052 -0.7206  0.2048  0.0931
10273SOL    HW133712   2.370   2.800   2.137 -0.2595 -0.0181  0.1378
10273SOL    HW233713   2.314   2.871   2.016 -1.0450 -0.2704  0.3483
10274SOL     OW33714  10.499   9.925   8.191  0.7639 -0.0027  0.3096
10274SOL    HW133715  10.439   9.921   8.265  1.6161  0.1121  1.0171
10274SOL    HW233716  10.493   9.839   8.150 -1.4119  0.6343 -0.8802
10275SOL     OW33717   8.467   2.479   2.059 -0.2964 -0.7847  0.2339
10275SOL    HW133718   8.558   2.496   2.032 -0.4819  0.7089  0.4258
10275SOL    HW233719   8.475   2.434   2.143  0.2685 -1.3538 -0.1185
10276SOL     OW33720   8.599   4.453   1.647  0.3279  0.6849  0.3785
10276SOL    HW133721   8.652   4.532   1.641  0.6537  0.4449 -0.0211
10276SOL    HW233722   8.508   4.484   1.648  0.3984  1.0294 -1.0207
10277SOL     OW33723   4.123   7.861   1.363 -0.3030 -0.0179 -0.2669
10277SOL    HW133724   4.090   7.895   1.446 -0.0427  0.3145 -0.2970
10277SOL    HW233725   4.156   7.774   1.385 -0.2304  0.0693 -0.0178
10278SOL     OW33726   9.353   7.067   2.803  0.0263 -0.2504  0.3062
10278SOL    HW133727   9.351   7.135   2.871 -0.3054  0.3596 -0.3022
10278SOL    HW233728   9.271   7.020   2.814 -1.3234  1.5640 -1.3587
10279SOL     OW33729   5.066   2.222   7.641  0.3961 -0.6579 -0.1357
10279SOL    HW133730   5.033   2.189   7.725  0.0533 -0.4752 -0.1963
10279SOL    HW233731   5.086   2.314   7.658 -0.3364 -0.4343 -0.4337
10280SOL     OW33732   9.650   9.121   8.315  0.0558 -0.4938  0.1298
10280SOL    HW133733   9.627   9.154   8.402  1.3796 -2.3226  1.2259
10280SOL    HW233734   9.740   9.151   8.301 -0.7711  1.5195 -1.5667
10281SOL     OW33735   2.316   3.380   6.835  0.4240  0.0351  0.3073
10281SOL    HW133736   2.222   3.360   6.839  0.2793  0.5500 -0.3768
10281SOL    HW233737   2.326   3.456   6.892  0.5733 -0.4917  1.0100
10282SOL     OW33738   0.523   2.221   4.995 -0.2118  0.4485 -0.1438
10282SOL    HW133739   0.534   2.203   4.902 -3.3607 -0.0235 -0.5362
10282SOL    HW233740   0.465   2.298   4.998 -1.2404 -0.3202  1.3450
10283SOL     OW33741   9.256   9.981   9.964  0.0567  0.4573 -0.0611
10283SOL    HW133742   9.275   9.902  10.014  3.2358  0.3166 -1.2314
10283SOL    HW233743   9.276   9.958   9.874  0.5712  2.4255 -0.4975
10284SOL     OW33744   4.890   6.142  10.661 -0.0738 -0.2085  0.4325
10284SOL    HW133745   4.921   6.214  10.715 -1.1912  1.1028 -0.5899
10284SOL    HW233746   4.859   6.077  10.724 -1.7431  1.4525  1.4401
10285SOL     OW33747   1.376   9.064   2.816 -0.0800 -0.1203 -0.1584
10285SOL    HW133748   1.432   9.141   2.817  1.0486 -0.9067  0.1154
10285SOL    HW233749   1.344   9.056   2.906 -1.3662  0.8226 -0.5126
10286SOL     OW33750   8.983   6.102   7.481  0.1484 -0.1572  0.0019
10286SOL    HW133751   8.950   6.018   7.512 -0.2043 -0.1606 -0.3756
10286SOL    HW233752   9.066   6.114   7.527 -0.6141  0.1003  1.3632
10287SOL     OW33753   4.186   2.905  10.368 -0.5353 -0.1334 -0.0099
10287SOL    HW133754   4.125   2.906  10.442 -0.9794  0.5613 -0.3821
10287SOL    HW233755   4.131   2.909  10.291 -0.0077  1.3876 -0.3365
10288SOL     OW33756   2.711   9.963   3.001 -0.1455  0.1600 -0.5301
10288SOL    HW133757   2.680   9.895   3.061 -2.4551 -0.6190 -2.4728
10288SOL    HW233758   2.790   9.926   2.962 -0.1156 -0.4270  0.0698
10289SOL     OW33759  10.172   2.895   5.185  0.5263 -0.0976  0.3401
10289SOL    HW133760  10.086   2.872   5.219 -0.9265  2.6479 -1.1798
10289SOL    HW233761  10.194   2.824   5.124 -0.7186 -0.7204  0.5927
10290SOL     OW33762   8.229   9.977   0.236  0.4392 -0.1625  0.4905
10290SOL    HW133763   8.321  10.000   0.246  0.5679  0.0132 -0.9053
10290SOL    HW233764   8.231   9.893   0.190 -0.0928 -0.9725  1.8888
10291SOL     OW33765   8.878   0.038   4.439 -0.5023 -0.3373 -0.2685
10291SOL    HW133766   8.949   0.003   4.386  0.8924  2.3259 -0.3314
10291SOL    HW233767   8.884  -0.009   4.522  0.1514 -1.4197 -0.9162
10292SOL     OW33768   0.904   5.133   3.065  0.4007 -0.4460 -0.7738
10292SOL    HW133769   0.922   5.214   3.112  0.7066 -0.5314 -0.7380
10292SOL    HW233770   0.812   5.115   3.082 -0.0349  0.6134 -1.8932
10293SOL     OW33771   7.842   5.021   2.716  0.3198 -0.0287  0.3218
10293SOL    HW133772   7.897   4.947   2.690 -0.1599  0.0980 -1.1653
10293SOL    HW233773   7.753   4.993   2.694  0.0057  0.5501  0.8144
10294SOL     OW33774  10.733   0.132   2.103  0.2156 -0.3131  0.2236
10294SOL    HW133775  10.779   0.148   2.021  1.8996 -1.8560  0.8029
10294SOL    HW233776  10.651   0.090   2.077  0.4924 -0.3080 -0.6935
10295SOL     OW33777   4.538   2.678   4.015  0.0635  0.0420 -0.0856
10295SOL    HW133778   4.578   2.604   3.969  0.0526  1.0946 -1.8784
10295SOL    HW233779   4.476   2.637   4.076  0.0440 -1.4293 -1.0334
10296SOL     OW33780   8.653   1.231   3.215 -0.0772  0.4571  0.0764
10296SOL    HW133781   8.681   1.146   3.181  0.4157  1.3966 -2.0585
10296SOL    HW233782   8.679   1.229   3.307 -0.8348 -1.9858  0.3102
10297SOL     OW33783   1.400   2.498  10.371 -0.0053  0.6717 -0.2583
10297SOL    HW133784   1.418   2.407  10.393  1.2375  0.5899 -1.4602
10297SOL    HW233785   1.483   2.544  10.385  0.3905  0.9195 -2.9122
10298SOL     OW33786   2.952   6.162   8.708  0.0725  0.3517 -0.2844
10298SOL    HW133787   3.027   6.103   8.711  1.7747  2.3937  2.5643
10298SOL    HW233788   2.906   6.147   8.790 -1.1090  1.0493 -0.7851
10299SOL     OW33789   4.962  10.378   1.900  0.0946  0.1466  0.0679
10299SOL    HW133790   4.973  10.473   1.901 -1.4489  0.4559 -2.7788
10299SOL    HW233791   5.046  10.344   1.869 -0.3849  0.9018 -2.2159
10300SOL     OW33792   8.417   4.100   8.046 -0.1246  0.0313 -0.6902
10300SOL    HW133793   8.345   4.160   8.066 -0.6694 -0.4596 -1.1290
10300SOL    HW233794   8.482   4.154   8.002 -0.4429  0.3836 -0.7343
10301SOL     OW33795   8.717   3.172   9.173  0.4027 -0.6310 -0.0519
10301SOL    HW133796   8.735   3.078   9.180 -0.8886 -0.8063  1.5724
10301SOL    HW233797   8.631   3.177   9.132 -0.3573 -0.2670  1.5134
10302SOL     OW33798   5.390   2.312   5.140  0.1225  0.0804  0.2238
10302SOL    HW133799   5.478   2.290   5.170 -0.5177 -0.7737  1.5375
10302SOL    HW233800   5.389   2.408   5.140  2.1178  0.2554 -3.1202
10303SOL     OW33801   8.852   4.679   8.282 -1.1469 -0.4870 -0.1556
10303SOL    HW133802   8.880   4.765   8.315  1.2380 -1.7185  1.3188
10303SOL    HW233803   8.777   4.657   8.336 -0.5418 -0.1628  0.8532
10304SOL     OW33804   5.538   1.190   1.328  0.0714 -0.4379  0.0303
10304SOL    HW133805   5.517   1.141   1.407  0.1058 -0.0800  0.2623
10304SOL    HW233806   5.623   1.156   1.300  0.8973  0.6641  1.1324
10305SOL     OW33807   1.719   8.772   3.170  0.1014  0.1052  0.0214
10305SOL    HW133808   1.749   8.692   3.214 -2.0620 -1.2636 -0.7976
10305SOL    HW233809   1.799   8.821   3.151  1.4486 -1.5482  1.1185
10306SOL     OW33810   2.514   9.312   8.988 -0.3289  0.7066  0.0134
10306SOL    HW133811   2.589   9.265   8.953  1.5656  2.3669  1.5788
10306SOL    HW233812   2.503   9.388   8.930  1.0479  1.9560  1.2962
10307SOL     OW33813   3.635  10.377  10.329 -0.3330 -0.6690 -0.1572
10307SOL    HW133814   3.670  10.463  10.354  2.6754 -2.2762  1.6890
10307SOL    HW233815   3.658  10.368  10.237 -0.6973  0.4978 -0.3777
10308SOL     OW33816   5.666   3.036   3.600 -0.2900 -0.0059 -0.2336
10308SOL    HW133817   5.586   3.050   3.650 -0.4265  0.9099 -0.6800
10308SOL    HW233818   5.704   3.124   3.591  1.3596 -0.5508  0.9271
10309SOL     OW33819   1.480   5.175   4.529 -0.0410 -0.3983 -0.1480
10309SOL    HW133820   1.465   5.268   4.549 -0.2174 -0.5983  0.7070
10309SOL    HW233821   1.446   5.129   4.606 -2.0047 -1.3196 -1.4989
10310SOL     OW33822   8.184   5.518   3.156  0.5081 -0.1458  0.1367
10310SOL    HW133823   8.131   5.442   3.131  0.2342  0.1499 -0.1856
10310SOL    HW233824   8.224   5.493   3.240  0.0307 -0.4523  0.2736
10311SOL     OW33825   8.036   9.162  10.227 -0.1418  0.0291 -0.1159
10311SOL    HW133826   8.131   9.165  10.215  0.1348  0.2919  1.7909
10311SOL    HW233827   8.009   9.254  10.231 -0.4812 -0.0440 -0.6181
10312SOL     OW33828   7.166   1.867   8.630 -0.1286  0.1436 -0.5654
10312SOL    HW133829   7.108   1.807   8.582  0.7998  0.1327 -1.7242
10312SOL    HW233830   7.107   1.931   8.670 -0.9336  0.8246 -2.6754
10313SOL     OW33831  10.025   9.980   1.856  0.2146 -0.2200  0.0740
10313SOL    HW133832  10.120   9.989   1.847 -0.1476  2.2794 -2.3798
10313SOL    HW233833  10.003  10.038   1.929  0.3752  1.1306 -0.9116
10314SOL     OW33834   0.549   2.368   2.393 -0.4831  0.4921  0.3090
10314SOL    HW133835   0.548   2.397   2.302 -1.0789 -1.2395 -0.2806
10314SOL    HW233836   0.639   2.340   2.409 -0.5311  0.1810  0.0347
10315SOL     OW33837   5.308  10.340   4.969 -0.3822 -0.5749 -0.8114
10315SOL    HW133838   5.256  10.282   4.914 -4.1566  1.8180 -0.1681
10315SOL    HW233839   5.270  10.330   5.057  2.5636 -1.0891  0.5413
10316SOL     OW33840   0.919   0.360   7.664  0.2627  0.1893  0.0241
10316SOL    HW133841   0.864   0.388   7.591 -0.5974  0.9298  0.9203
10316SOL    HW233842   0.859   0.357   7.739  1.0261 -0.9553  0.6296
10317SOL     OW33843   6.965   7.764   0.133  0.1224 -0.5116 -0.1202
10317SOL    HW133844   7.041   7.810   0.097  0.1472  0.2536  0.8793
10317SOL    HW233845   6.967   7.784   0.226 -0.0305 -2.3083  0.3019
10318SOL     OW33846   2.597   1.455   5.397 -0.4143 -0.3432 -0.4228
10318SOL    HW133847   2.552   1.520   5.342 -3.0390 -0.6356  1.2188
10318SOL    HW233848   2.583   1.485   5.487 -0.0575 -2.1931  0.2917
10319SOL     OW33849   0.164   0.276   5.540  0.0408  0.4284 -0.4235
10319SOL    HW133850   0.198   0.289   5.452  2.8385 -0.4407  0.4066
10319SOL    HW233851   0.139   0.184   5.542  1.1339  0.1162 -0.0265
10320SOL     OW33852   0.168   9.287   6.536 -0.0248  0.0493  0.0949
10320SOL    HW133853   0.231   9.356   6.553 -0.4378  0.5393 -0.3225
10320SOL    HW233854   0.220   9.216   6.498  0.4012  0.1314  0.5276
10321SOL     OW33855   5.316   8.526   3.134 -0.5921 -0.4506 -0.4079
10321SOL    HW133856   5.329   8.614   3.098  1.5863 -0.6236 -0.2104
10321SOL    HW233857   5.325   8.468   3.058  2.0191 -0.6923 -0.0051
10322SOL     OW33858  10.390   5.349   5.089  0.5809  0.3074 -0.4309
10322SOL    HW133859  10.343   5.429   5.110 -0.1361 -0.1085 -0.3887
10322SOL    HW233860  10.425   5.364   5.001 -0.2541  0.3739 -0.7700
10323SOL     OW33861   7.851   0.875   3.584  0.0405  0.3253  0.7556
10323SOL    HW133862   7.879   0.963   3.608  0.2200  0.2109  0.9713
10323SOL    HW233863   7.929   0.821   3.595  0.5663  0.5208 -1.6017
10324SOL     OW33864   9.952   4.521   7.816 -0.0536 -0.1088  0.3962
10324SOL    HW133865   9.922   4.526   7.725  1.8380 -0.5862 -0.2918
10324SOL    HW233866   9.939   4.609   7.851 -0.7300  0.0993 -0.3482
10325SOL     OW33867   0.982   0.854   5.881 -0.4322 -0.6130 -0.0438
10325SOL    HW133868   0.942   0.926   5.832  1.4747  1.5510  1.3450
10325SOL    HW233869   0.909   0.808   5.921 -1.8684 -0.9547 -2.8206
10326SOL     OW33870   4.314   8.142   7.899  0.5977  0.3371  0.0675
10326SOL    HW133871   4.348   8.230   7.881  0.4615  0.4818  0.5029
10326SOL    HW233872   4.264   8.152   7.980  0.0631 -0.0138 -0.2142
10327SOL     OW33873   4.429   8.380   9.174 -0.3072  0.0599 -0.2214
10327SOL    HW133874   4.522   8.355   9.174  0.2324  1.9268 -0.8750
10327SOL    HW233875   4.383   8.299   9.155  1.2516 -0.7453 -0.7474
10328SOL     OW33876   0.886   2.368   2.277 -0.6511  0.3598 -0.0259
10328SOL    HW133877   0.924   2.299   2.332 -2.0543  0.7703  1.5374
10328SOL    HW233878   0.961   2.422   2.251  0.2127 -0.6250  0.3603
10329SOL     OW33879   9.893   3.646   8.462  0.1591 -0.1819  0.2377
10329SOL    HW133880   9.923   3.694   8.539 -2.2710 -0.5616  1.5111
10329SOL    HW233881   9.839   3.575   8.497 -4.2432  1.8051 -1.7298
10330SOL     OW33882   6.165  10.398   0.518  0.0491  0.1375 -0.3337
10330SOL    HW133883   6.080  10.411   0.559  0.5060  0.2726  0.5887
10330SOL    HW233884   6.223  10.373   0.590  0.8760  0.4250 -0.8842
10331SOL     OW33885   0.993   2.602   9.344  0.0507  0.2167 -0.8083
10331SOL    HW133886   0.961   2.663   9.410  1.8621  0.9136 -0.5028
10331SOL    HW233887   1.000   2.655   9.264  2.0572  0.6048 -0.4337
10332SOL     OW33888   4.865   5.014   6.972  0.4145 -0.0731 -0.1214
10332SOL    HW133889   4.957   4.995   6.988  0.1120 -1.6189  0.0272
10332SOL    HW233890   4.854   5.005   6.878  0.3353 -0.3206 -0.0895
10333SOL     OW33891   0.528   9.175   9.481 -0.1777 -0.1737 -0.2964
10333SOL    HW133892   0.559   9.155   9.569  3.7314 -1.8699 -1.8104
10333SOL    HW233893   0.544   9.095   9.431 -1.5265  0.9673 -2.7386
10334SOL     OW33894   9.815   0.540  10.001 -0.3576 -0.2717 -0.3076
10334SOL    HW133895   9.733   0.526  10.050  1.0336 -2.4151  1.6501
10334SOL    HW233896   9.880   0.559  10.069  0.8683  1.1644 -1.7998
10335SOL     OW33897  10.758   4.209   3.970  0.0869  0.3635  0.1285
10335SOL    HW133898  10.824   4.146   3.939  1.2386  0.8455  1.4967
10335SOL    HW233899  10.723   4.170   4.050 -0.1279  0.8630  0.2825
10336SOL     OW33900   9.059   3.130   1.408 -0.5809 -0.0367  0.0151
10336SOL    HW133901   8.975   3.127   1.454 -1.0174 -0.7283 -0.7801
10336SOL    HW233902   9.123   3.101   1.472 -1.2671 -1.6576  0.0197
10337SOL     OW33903   1.611   7.555   0.410  0.0730 -0.8391  0.2365
10337SOL    HW133904   1.575   7.589   0.491 -0.7163 -0.1742 -0.3825
10337SOL    HW233905   1.544   7.495   0.377  1.0308 -2.2848  0.8218
10338SOL     OW33906   3.592   5.251   1.836  0.2618 -0.2846  0.1902
10338SOL    HW133907   3.669   5.247   1.892  0.0575  2.3080  0.7972
10338SOL    HW233908   3.520   5.225   1.893  0.3658 -0.0289  0.4422
10339SOL     OW33909   0.819   3.130   6.486 -0.0752 -0.3713  0.0085
10339SOL    HW133910   0.778   3.199   6.435  0.8551 -0.0345 -0.2958
10339SOL    HW233911   0.806   3.050   6.434 -0.6404 -0.3351  0.0849
10340SOL     OW33912   3.563   6.298   8.457  0.4407  0.2397 -0.4047
10340SOL    HW133913   3.481   6.341   8.481  0.9479 -0.3103  2.7435
10340SOL    HW233914   3.618   6.307   8.535  2.4418 -1.5697 -1.5258
10341SOL     OW33915   1.222  10.732   9.284 -0.4418  0.1987  0.3340
10341SOL    HW133916   1.177  10.717   9.366 -0.4923 -0.9474  0.1081
10341SOL    HW233917   1.299  10.675   9.288 -1.0631 -0.7705 -0.8921
10342SOL     OW33918   0.692   8.504   5.994  0.4693  0.0072  0.3654
10342SOL    HW133919   0.687   8.418   6.037  1.6919  0.2859  1.1095
10342SOL    HW233920   0.603   8.519   5.961  0.6153 -2.3469 -1.3990
10343SOL     OW33921  10.476   1.020   0.899  0.6286 -0.1160 -0.1561
10343SOL    HW133922  10.566   1.043   0.923  1.1041  1.3691 -2.8969
10343SOL    HW233923  10.422   1.088   0.941  1.0501  0.4084 -0.4520
10344SOL     OW33924   9.368   3.591   0.350  0.2249  0.3604  0.2130
10344SOL    HW133925   9.366   3.496   0.339 -5.3419  0.2280 -0.4947
10344SOL    HW233926   9.368   3.625   0.260 -0.8066  0.8747  0.3976
10345SOL     OW33927   8.419   0.965   8.005  0.0592  0.4877 -0.1244
10345SOL    HW133928   8.403   0.895   8.068 -1.4777  1.6547  0.8525
10345SOL    HW233929   8.405   1.046   8.055 -2.1877  1.4582 -2.1501
10346SOL     OW33930   1.644   6.655   1.702  0.0984  0.1558  0.3482
10346SOL    HW133931   1.699   6.585   1.739 -1.3830 -0.7103  0.9977
10346SOL    HW233932   1.662   6.653   1.608  0.7638 -0.4791  0.4816
10347SOL     OW33933   2.759   7.009   9.130 -0.1555  0.1762 -0.1061
10347SOL    HW133934   2.789   7.064   9.057 -0.0659 -2.1369 -1.9137
10347SOL    HW233935   2.671   6.980   9.104  0.5704 -2.1266 -0.2229
10348SOL     OW33936   7.739   6.103   4.012 -0.2495 -0.7763 -0.2396
10348SOL    HW133937   7.776   6.139   3.932 -0.5593 -1.5449 -0.7350
10348SOL    HW233938   7.815   6.081   4.066  0.0428 -2.2056 -1.1854
10349SOL     OW33939   2.289   8.751   9.409  0.0712 -0.0233 -0.2836
10349SOL    HW133940   2.305   8.702   9.490 -1.0961  2.0840  1.3073
10349SOL    HW233941   2.291   8.843   9.436 -0.1494  0.7563 -2.7178
10350SOL     OW33942   4.339   6.946   4.963 -0.3865  0.0581  0.2601
10350SOL    HW133943   4.405   7.014   4.971  0.6847 -0.9165 -0.0660
10350SOL    HW233944   4.316   6.923   5.053  0.6983 -0.5081  0.4085
10351SOL     OW33945   9.512  10.116   8.785  0.0339  0.0830  0.3313
10351SOL    HW133946   9.521  10.069   8.868 -3.2640 -1.3986  0.0261
10351SOL    HW233947   9.562  10.064   8.722  2.2720  1.0300  1.2099
10352SOL     OW33948   7.326   3.949  10.410  0.0435  0.3628 -0.1885
10352SOL    HW133949   7.276   4.003  10.349  0.0411 -0.0202 -0.5349
10352SOL    HW233950   7.415   3.947  10.374 -0.0167 -0.0700 -0.3228
10353SOL     OW33951   3.215  10.034   6.330  0.6730  0.0474  0.1164
10353SOL    HW133952   3.147  10.041   6.263 -0.0757 -1.0350  0.7400
10353SOL    HW233953   3.282   9.978   6.290  0.2268 -0.5972  0.2495
10354SOL     OW33954   9.123   3.869   7.924  0.3124 -0.3101  0.2135
10354SOL    HW133955   9.137   3.784   7.882 -0.2327 -0.7136  0.8158
10354SOL    HW233956   9.074   3.920   7.860  1.4380 -0.1207 -0.5149
10355SOL     OW33957   3.829   4.148   3.455 -0.2710  0.0406  0.3973
10355SOL    HW133958   3.911   4.100   3.461 -0.6143 -0.9146 -1.6693
10355SOL    HW233959   3.765   4.094   3.501 -0.0418  0.0926  0.7829
10356SOL     OW33960   7.160   0.861   0.507  0.0247  0.0384  0.1374
10356SOL    HW133961   7.219   0.891   0.576  0.3599  1.7263 -0.8139
10356SOL    HW233962   7.203   0.784   0.470 -0.0592 -0.7596  1.6329
10357SOL     OW33963   1.458   1.964   2.974 -0.2071  0.3699  0.4151
10357SOL    HW133964   1.528   2.024   2.946  0.1897  0.5272  1.7042
10357SOL    HW233965   1.388   2.022   3.004  0.4765  0.2519  2.4070
10358SOL     OW33966   3.211   6.853   6.246 -0.0466 -0.5281  0.8401
10358SOL    HW133967   3.221   6.917   6.176  0.2511  0.3023  1.6238
10358SOL    HW233968   3.168   6.779   6.204  1.2547 -0.5690 -0.5260
10359SOL     OW33969   9.230   4.555   0.815  0.3717  0.3655 -0.1016
10359SOL    HW133970   9.212   4.598   0.899  2.6369  2.1901 -0.4456
10359SOL    HW233971   9.295   4.488   0.837 -1.1126 -1.1038 -0.0149
10360SOL     OW33972   8.940   9.979   4.027 -0.2139 -0.7753  0.4494
10360SOL    HW133973   8.955  10.028   3.946 -1.6028 -0.6587  0.2384
10360SOL    HW233974   8.899   9.898   3.998  0.9438 -1.5507  0.9042
10361SOL     OW33975   9.016   6.195   7.181 -0.7327 -0.2174 -0.3024
10361SOL    HW133976   9.023   6.191   7.276  1.4480 -0.0330 -0.4008
10361SOL    HW233977   8.935   6.148   7.161  0.2476 -2.8964  1.4545
10362SOL     OW33978   4.970   1.591   2.016  0.4607 -0.1478 -0.4050
10362SOL    HW133979   4.916   1.649   2.069  0.6496  1.3557 -1.7465
10362SOL    HW233980   5.058   1.602   2.051  0.3102 -0.5182  0.0847
10363SOL     OW33981   8.689   3.462  10.386 -0.0659  0.5936  0.2042
10363SOL    HW133982   8.702   3.490  10.476  1.3074  1.1586 -0.1384
10363SOL    HW233983   8.667   3.542  10.338 -1.8069  0.1442  0.1805
10364SOL     OW33984   9.477   5.941   3.044  0.2282 -0.4794 -0.4881
10364SOL    HW133985   9.434   6.013   3.089  1.0818  0.1022 -0.5705
10364SOL    HW233986   9.406   5.880   3.021 -0.4118 -0.0068  0.1935
10365SOL     OW33987   5.281   0.122   8.753 -0.0099  0.0796  0.7131
10365SOL    HW133988   5.199   0.132   8.705 -0.1180  0.4029  0.9618
10365SOL    HW233989   5.349   0.147   8.691  0.0005 -1.3046  0.1252
10366SOL     OW33990   2.268   2.716   8.915  0.1196  0.5845  0.0488
10366SOL    HW133991   2.332   2.712   8.843 -0.1761  1.3836 -0.2670
10366SOL    HW233992   2.206   2.784   8.888 -1.1565 -0.4986  0.1219
10367SOL     OW33993   1.326   2.315   3.724  0.4839  0.6738 -0.1971
10367SOL    HW133994   1.321   2.304   3.629 -1.1115 -0.3876 -0.0241
10367SOL    HW233995   1.412   2.281   3.748  1.5186  2.2861 -1.3906
10368SOL     OW33996   0.761   1.096   6.173  0.4716 -0.0715  0.1163
10368SOL    HW133997   0.803   1.182   6.166  1.2133 -0.3042  1.3518
10368SOL    HW233998   0.806   1.054   6.246 -1.0035 -0.8748  0.5860
10369SOL     OW33999   8.020   6.910   0.017 -0.8062  0.2039 -0.6417
10369SOL    HW134000   7.974   6.970   0.076 -1.2732  0.1874 -0.9885
10369SOL    HW234001   8.111   6.911   0.048 -1.1999 -0.4442  0.6098
10370SOL     OW34002   3.745   2.428   5.163  0.6425  0.2900  0.3218
10370SOL    HW134003   3.798   2.432   5.242  0.5853  1.9051  0.3150
10370SOL    HW234004   3.655   2.440   5.193  0.6093  0.7947  0.0313
10371SOL     OW34005   5.935   5.328   8.356 -0.4013 -0.3564 -0.5819
10371SOL    HW134006   5.940   5.232   8.350 -0.2099 -0.4409  0.6374
10371SOL    HW234007   5.867   5.352   8.294 -0.7919 -1.3300 -0.5502
10372SOL     OW34008   8.615   6.453   6.371  0.3902  0.2231  0.2362
10372SOL    HW134009   8.671   6.392   6.419  1.2091 -0.7685 -1.8585
10372SOL    HW234010   8.643   6.445   6.280 -2.9644 -0.0996 -0.8975
10373SOL     OW34011   4.311   9.316   9.159  0.0514 -0.3649  0.0579
10373SOL    HW134012   4.360   9.270   9.090 -0.4228 -2.5873  1.0981
10373SOL    HW234013   4.376   9.335   9.226  0.2418  0.4700 -0.3578
10374SOL     OW34014   5.161   8.525   2.587 -0.5691  0.2915  0.3695
10374SOL    HW134015   5.247   8.485   2.599 -0.4069  0.8486  1.1958
10374SOL    HW234016   5.107   8.487   2.656 -0.7433  0.5842  0.3978
10375SOL     OW34017   0.900   5.617   0.739 -0.9171  0.0156  0.2805
10375SOL    HW134018   0.809   5.621   0.766 -1.4381 -1.7751 -1.0058
10375SOL    HW234019   0.898   5.630   0.644  0.2021  0.2518  0.2704
10376SOL     OW34020   6.004   0.094   7.553 -0.3479  0.4829  0.8724
10376SOL    HW134021   5.998  -0.001   7.546  2.3810  0.3293 -0.9835
10376SOL    HW234022   6.069   0.109   7.622  0.9530  0.8715 -0.3948
10377SOL     OW34023   4.352   3.072   5.363  0.0745  0.1861  0.0565
10377SOL    HW134024   4.267   3.087   5.404  0.8624  1.0205  1.4897
10377SOL    HW234025   4.356   3.137   5.293 -0.6746 -0.2293 -0.3864
10378SOL     OW34026   0.986   5.605   7.001 -0.4364  0.1584  0.7650
10378SOL    HW134027   0.915   5.666   6.984  0.6914  1.7316  1.4569
10378SOL    HW234028   1.065   5.654   6.978  0.4235 -1.8355 -0.8502
10379SOL     OW34029   6.147   1.023   2.143 -0.2343 -0.2843  0.1326
10379SOL    HW134030   6.112   1.093   2.199 -1.2680  0.4165 -1.3354
10379SOL    HW234031   6.189   1.070   2.071  1.2727 -1.1750  0.3835
10380SOL     OW34032   9.410   5.479   6.828  0.3876 -0.0965  0.2625
10380SOL    HW134033   9.473   5.461   6.898  0.8123  0.5558  0.0553
10380SOL    HW234034   9.363   5.397   6.817  1.0189 -0.5153  0.6067
10381SOL     OW34035  10.377   3.004   6.271  0.0613 -0.6512 -0.0638
10381SOL    HW134036  10.470   3.023   6.261  0.5870 -2.0666  1.6578
10381SOL    HW234037  10.355   3.036   6.359 -1.1622 -0.0792 -0.5521
10382SOL     OW34038   4.512   7.951   7.875  0.2672 -0.1084  0.6123
10382SOL    HW134039   4.534   7.907   7.957 -1.6708 -0.8722  0.7860
10382SOL    HW234040   4.457   8.025   7.902 -0.1439 -0.1972  0.0223
10383SOL     OW34041   6.440   3.747   2.131 -0.0495  0.4835 -0.4080
10383SOL    HW134042   6.466   3.686   2.200 -1.1960  1.0186  0.5408
10383SOL    HW234043   6.518   3.800   2.115 -0.1328  1.2573  1.4832
10384SOL     OW34044   8.383   2.419   1.800 -0.5024  0.0544 -0.4950
10384SOL    HW134045   8.395   2.436   1.894 -2.4558 -1.2681  0.0629
10384SOL    HW234046   8.338   2.496   1.767 -0.3069  0.2893 -0.2174
10385SOL     OW34047   0.389   1.348   4.388  0.6197  0.0828 -0.1540
10385SOL    HW134048   0.408   1.440   4.371  0.2806  0.3807  0.9855
10385SOL    HW234049   0.338   1.320   4.313  0.3640  0.9432 -0.3101
10386SOL     OW34050   3.365   2.763   9.617 -0.6484  0.0689 -0.2447
10386SOL    HW134051   3.459   2.750   9.630 -0.6985 -1.3002 -1.0741
10386SOL    HW234052   3.324   2.702   9.678 -1.0343  1.0874  0.5461
10387SOL     OW34053   2.842   6.367   1.528  0.1383  0.3359 -0.2633
10387SOL    HW134054   2.922   6.325   1.496  0.7230  0.9074  0.4101
10387SOL    HW234055   2.775   6.300   1.519  0.8681 -0.4531 -0.0602
10388SOL     OW34056   7.675   6.167   0.434 -0.6674  0.6074  0.5002
10388SOL    HW134057   7.711   6.105   0.498 -0.5855  0.4245  0.2754
10388SOL    HW234058   7.731   6.245   0.444  1.7355 -0.6427 -1.8544
10389SOL     OW34059   2.539   7.456   9.349  0.4098 -0.0720 -0.0851
10389SOL    HW134060   2.534   7.514   9.273  0.5693 -0.9916 -0.8176
10389SOL    HW234061   2.477   7.386   9.330  2.0101 -1.4799 -0.4211
10390SOL     OW34062   7.608   1.909   4.761 -0.2549  0.2811  0.1279
10390SOL    HW134063   7.658   1.862   4.694  2.1099  1.1853  1.1499
10390SOL    HW234064   7.535   1.947   4.713  0.6880 -0.0844 -1.7266
10391SOL     OW34065   4.719   2.607   4.759  0.2941  0.5877 -0.6114
10391SOL    HW134066   4.654   2.540   4.736 -0.0055  0.7253 -0.1911
10391SOL    HW234067   4.803   2.567   4.740  0.2442 -0.6949  1.5066
10392SOL     OW34068   5.941   0.724   7.231 -0.0378  0.2749 -0.0612
10392SOL    HW134069   5.850   0.754   7.220 -0.6557 -1.1803  0.7739
10392SOL    HW234070   5.975   0.778   7.302 -0.4822  0.3637  0.0933
10393SOL     OW34071   5.988   6.932   9.623  0.4733  0.2348  0.4979
10393SOL    HW134072   6.024   6.878   9.693  1.4147 -0.6168 -0.6084
10393SOL    HW234073   6.012   7.022   9.647  0.1222  0.0324  1.6410
10394SOL     OW34074   3.099  10.540   0.256 -0.8907  0.1565 -0.1116
10394SOL    HW134075   3.166  10.593   0.299 -1.1752  1.1166 -0.8241
10394SOL    HW234076   3.123  10.541   0.164 -0.9626 -0.8825 -0.1482
10395SOL     OW34077   6.074   5.781   4.786  0.0529 -0.2424 -0.3901
10395SOL    HW134078   6.167   5.792   4.768 -0.1693  3.2827 -0.0453
10395SOL    HW234079   6.070   5.708   4.847  2.8956  0.9150  1.3732
10396SOL     OW34080   9.126   3.669   8.636 -0.0686  0.2619 -0.3695
10396SOL    HW134081   9.186   3.684   8.563  0.2078 -1.3500 -0.5250
10396SOL    HW234082   9.041   3.653   8.595  0.0564 -0.4953 -0.3656
10397SOL     OW34083   3.105   3.639   1.740  0.9001  0.3481  0.0611
10397SOL    HW134084   3.123   3.618   1.648 -1.9922  2.8877 -1.2724
10397SOL    HW234085   3.040   3.574   1.767 -1.2586  1.8653 -1.1315
10398SOL     OW34086   1.512   1.756   8.801 -0.3908 -0.0973 -0.0778
10398SOL    HW134087   1.470   1.673   8.824 -1.0590  0.6163  1.4525
10398SOL    HW234088   1.515   1.757   8.705 -0.4471 -1.8291 -0.1222
10399SOL     OW34089   1.748   4.206   5.793 -0.3343  0.2281 -0.0974
10399SOL    HW134090   1.820   4.211   5.730  2.1271 -1.6452  2.3166
10399SOL    HW234091   1.679   4.157   5.748  1.8083 -2.1225 -1.0366
10400SOL     OW34092   3.694   4.964   0.740  0.4189 -0.1492 -0.5217
10400SOL    HW134093   3.763   4.912   0.699 -0.3354 -1.1988 -0.5019
10400SOL    HW234094   3.740   5.021   0.801  1.1806 -1.8319  0.5562
10401SOL     OW34095   0.939   3.730   5.781 -0.0217 -0.1662  0.5007
10401SOL    HW134096   0.888   3.801   5.742  1.9228  2.8437  2.9837
10401SOL    HW234097   0.889   3.703   5.858  0.3631  0.2312  0.8965
10402SOL     OW34098   6.455   2.040   5.321 -0.5669  0.0421  0.5217
10402SOL    HW134099   6.408   1.985   5.258  0.0286  1.7819 -1.5747
10402SOL    HW234100   6.483   2.116   5.270  2.4659  0.2135  2.2186
10403SOL     OW34101   1.805   6.591   4.970  0.0160  0.4553 -0.5038
10403SOL    HW134102   1.762   6.652   4.911 -1.1227  0.5965  0.4437
10403SOL    HW234103   1.881   6.640   5.004 -0.3680  1.0177 -0.4512
10404SOL     OW34104   6.007   2.333   4.931 -0.5959 -0.4908 -0.4943
10404SOL    HW134105   5.992   2.281   5.010 -1.0962  1.6103  0.8845
10404SOL    HW234106   6.078   2.393   4.956  0.1044 -0.6204 -2.0896
10405SOL     OW34107   3.765   3.839   6.265 -0.8283 -0.4771 -0.0948
10405SOL    HW134108   3.721   3.765   6.223 -0.5087 -0.7938  0.1173
10405SOL    HW234109   3.746   3.827   6.358  1.2502 -1.7014  0.2360
10406SOL     OW34110   4.401   0.346   6.327 -0.1389 -0.3284 -0.0583
10406SOL    HW134111   4.308   0.367   6.329 -0.2326 -0.5712 -1.0972
10406SOL    HW234112   4.416   0.316   6.237  0.7132 -1.3323  0.4074
10407SOL     OW34113   6.337   1.940   7.474  0.3258 -0.3719  0.2208
10407SOL    HW134114   6.362   1.906   7.560  1.0591  1.6162  0.8548
10407SOL    HW234115   6.421   1.964   7.433 -0.0470 -0.8665 -0.8688
10408SOL     OW34116   2.214   0.483   9.776  0.4914  0.0167 -0.0230
10408SOL    HW134117   2.200   0.558   9.834  1.1716  1.0883 -1.1910
10408SOL    HW234118   2.133   0.478   9.724  0.7869  0.5036 -0.5407
10409SOL     OW34119   6.178   6.240   9.622  0.2790  0.0715  0.7153
10409SOL    HW134120   6.115   6.177   9.586 -0.4108  0.7366  0.7286
10409SOL    HW234121   6.178   6.312   9.560 -0.7173  1.1075  1.8497
10410SOL     OW34122   1.856   4.781   2.058  0.6528  0.1283  0.1213
10410SOL    HW134123   1.821   4.871   2.054 -0.6071 -0.3226  0.5543
10410SOL    HW234124   1.895   4.775   2.145 -2.2141 -0.7181  1.5005
10411SOL     OW34125   8.254   3.894   5.985 -0.1271  0.4553 -0.3725
10411SOL    HW134126   8.250   3.966   6.049  0.4566  1.0313 -0.9650
10411SOL    HW234127   8.244   3.938   5.900 -0.6035 -0.2705 -0.6992
10412SOL     OW34128   2.817  10.683   5.859 -0.0274 -0.1992  0.4643
10412SOL    HW134129   2.731  10.720   5.838  0.9064  2.1082  0.4054
10412SOL    HW234130   2.855  10.661   5.774 -0.1813 -0.3790  0.4392
10413SOL     OW34131   9.159   8.596   2.341 -0.1159 -0.4919  0.3513
10413SOL    HW134132   9.231   8.571   2.398 -0.4360 -1.0827  0.5042
10413SOL    HW234133   9.094   8.527   2.352 -0.2406 -0.5491 -0.6245
10414SOL     OW34134   1.480   4.434   1.258  0.0333 -0.3020  0.0251
10414SOL    HW134135   1.427   4.504   1.219 -0.0911 -0.8631 -0.8556
10414SOL    HW234136   1.468   4.360   1.199  1.6240 -0.5169 -0.0793
10415SOL     OW34137  10.015  10.627   8.267  0.1887 -0.7703  0.0458
10415SOL    HW134138  10.056  10.697   8.217 -0.2646 -0.4478  0.1270
10415SOL    HW234139  10.089  10.572   8.296  0.6279  0.1730  0.7616
10416SOL     OW34140   0.654   4.236   6.672  0.0792  0.4515  0.1778
10416SOL    HW134141   0.721   4.194   6.617  0.2812  0.5402  0.3556
10416SOL    HW234142   0.695   4.317   6.703 -0.6341  1.2777 -0.9356
10417SOL     OW34143  10.015   0.002   1.297  0.0535 -0.2970 -0.3196
10417SOL    HW134144  10.047   0.067   1.235 -0.5054 -0.2071 -0.5197
10417SOL    HW234145   9.953  -0.051   1.246 -0.1078 -0.4717  0.0549
10418SOL     OW34146   6.471   2.247   4.885 -0.1461  0.3571  0.1267
10418SOL    HW134147   6.389   2.213   4.921  0.5217 -0.3504  1.0219
10418SOL    HW234148   6.510   2.173   4.839  1.1579 -0.0669  1.8097
10419SOL     OW34149   6.124   5.105   8.494  0.0671  0.3392  0.3278
10419SOL    HW134150   6.157   5.164   8.561 -1.7800  0.7380  0.9359
10419SOL    HW234151   6.168   5.133   8.413 -0.7156  2.5543  0.5975
10420SOL     OW34152   7.823   7.671   5.786  0.6927 -0.3037 -0.2280
10420SOL    HW134153   7.871   7.608   5.732  0.7895  0.1891 -0.7312
10420SOL    HW234154   7.737   7.632   5.800 -0.3315  0.7097 -3.0213
10421SOL     OW34155   0.700  10.350   1.597  0.2325 -0.0579  0.6209
10421SOL    HW134156   0.782  10.392   1.622 -0.5711  1.8952  0.1235
10421SOL    HW234157   0.634  10.393   1.651 -0.6760 -0.4009 -0.1938
10422SOL     OW34158   6.288   6.537   1.881 -0.2962 -0.1450  0.2806
10422SOL    HW134159   6.255   6.543   1.970 -0.4895  0.3042  0.1814
10422SOL    HW234160   6.383   6.545   1.890 -0.3134 -0.1287  0.4498
10423SOL     OW34161   6.827   8.569   7.277 -0.2531 -0.2531 -0.1217
10423SOL    HW134162   6.795   8.481   7.261  2.4610 -1.2703 -0.4372
10423SOL    HW234163   6.912   8.557   7.319 -0.1528  2.2313  0.5609
10424SOL     OW34164   7.124   2.409   4.809 -0.2223  0.0074 -0.1840
10424SOL    HW134165   7.164   2.474   4.867 -2.3916 -1.1837  2.9274
10424SOL    HW234166   7.049   2.454   4.770  0.1628  0.2842 -0.6087
10425SOL     OW34167   8.741   6.108   0.202  0.0827  0.5917 -0.0197
10425SOL    HW134168   8.835   6.088   0.200  0.5051  1.9139  2.4931
10425SOL    HW234169   8.732   6.186   0.147  0.3325  0.1077 -0.7626
10426SOL     OW34170   1.020   5.448   7.656 -0.4080 -0.5116  0.4599
10426SOL    HW134171   1.106   5.488   7.655 -0.3055 -0.7224 -0.3016
10426SOL    HW234172   0.961   5.517   7.624 -0.3006 -0.8006 -0.3967
10427SOL     OW34173   4.875   7.758   8.065  0.1632 -0.4493  0.3906
10427SOL    HW134174   4.848   7.788   7.978  0.5338 -0.7113  0.1791
10427SOL    HW234175   4.901   7.667   8.052  1.0993 -0.2200  0.5845
10428SOL     OW34176   6.288   1.716   2.164  0.3488  0.0909 -0.1077
10428SOL    HW134177   6.221   1.769   2.206  0.1177  0.5958 -1.0907
10428SOL    HW234178   6.240   1.660   2.103  0.7309 -0.1719 -0.1738
10429SOL     OW34179   3.735   2.657   3.130 -0.1227 -0.0907  0.1554
10429SOL    HW134180   3.685   2.575   3.141 -0.5050 -0.0557 -1.1298
10429SOL    HW234181   3.704   2.692   3.046  1.1811  0.5739 -0.0671
10430SOL     OW34182   4.028   6.347   4.804  0.1145  0.2963  0.3112
10430SOL    HW134183   4.037   6.436   4.839  2.6529  0.3522 -0.2778
10430SOL    HW234184   4.073   6.292   4.868 -0.9858 -0.5265  0.4045
10431SOL     OW34185   1.241   7.044   6.206  0.0922 -0.4607 -0.0290
10431SOL    HW134186   1.220   7.036   6.299  0.6883  0.1043  0.1628
10431SOL    HW234187   1.300   6.970   6.189 -0.1674 -0.6744 -0.0036
10432SOL     OW34188   8.378   6.526   9.878  0.2035 -0.2456 -0.1045
10432SOL    HW134189   8.374   6.507   9.972  1.0040  0.8894  0.1807
10432SOL    HW234190   8.408   6.617   9.873  0.9551 -0.5379 -1.4640
10433SOL     OW34191   1.724   0.277   2.367  0.5892 -0.0517  0.4766
10433SOL    HW134192   1.688   0.331   2.437 -0.4785 -0.6021  0.3753
10433SOL    HW234193   1.817   0.270   2.388  0.4533  0.5063  1.3522
10434SOL     OW34194   4.341   8.925   1.188  0.1408  0.6827  0.0006
10434SOL    HW134195   4.407   8.990   1.213  0.0238  1.7308 -2.1768
10434SOL    HW234196   4.391   8.847   1.166  0.3864  0.4399  1.3438
10435SOL     OW34197   7.492   3.213   9.916 -0.6986  0.0049  0.0364
10435SOL    HW134198   7.497   3.297   9.870 -2.2613  0.0097 -0.1493
10435SOL    HW234199   7.584   3.191   9.932 -0.1592  0.8298 -1.5746
10436SOL     OW34200   2.680   6.226   6.417  0.4299  0.2025 -0.0239
10436SOL    HW134201   2.653   6.209   6.327 -1.2246  0.0529  0.4592
10436SOL    HW234202   2.696   6.139   6.454  2.0582  0.3060 -0.4135
10437SOL     OW34203   4.860   9.980   2.172  0.3553  0.0092 -0.0056
10437SOL    HW134204   4.868  10.076   2.171  1.2892 -0.0625 -0.3273
10437SOL    HW234205   4.767   9.964   2.188  0.1582  0.9732 -0.1151
10438SOL     OW34206   5.068   1.704  10.513 -0.4538  0.0688  0.2355
10438SOL    HW134207   4.995   1.689  10.452 -1.2503  0.0068  1.1912
10438SOL    HW234208   5.090   1.797  10.501 -1.6888  0.4779  1.0113
10439SOL     OW34209   4.681   7.868   5.144  0.4465 -0.4652  0.0649
10439SOL    HW134210   4.765   7.909   5.166  0.5314 -0.5607 -0.0808
10439SOL    HW234211   4.670   7.886   5.051 -0.0390  0.1644  0.2344
10440SOL     OW34212   7.273   5.800   5.212  0.3107 -0.2236  0.5541
10440SOL    HW134213   7.231   5.885   5.208  0.4575 -0.0541  1.9389
10440SOL    HW234214   7.233   5.749   5.142 -0.3688  0.7195  0.2420
10441SOL     OW34215   3.390   1.881   3.884  0.1423  0.0823  0.4206
10441SOL    HW134216   3.332   1.879   3.807  1.5797  0.0165 -0.7101
10441SOL    HW234217   3.338   1.840   3.954 -0.7250 -1.1382 -0.8726
10442SOL     OW34218   4.430   3.807   5.878  0.3681 -0.3532  0.1855
10442SOL    HW134219   4.401   3.851   5.958  0.5796  1.7457 -0.8467
10442SOL    HW234220   4.355   3.814   5.819 -0.0537 -2.5273  0.3733
10443SOL     OW34221   1.127  10.315   8.464 -0.2668  0.3107  0.3483
10443SOL    HW134222   1.145  10.236   8.516 -0.9002  1.0192  1.6887
10443SOL    HW234223   1.183  10.382   8.502  1.2284  0.2597 -1.6055
10444SOL     OW34224   3.649   4.742   5.919  0.4945 -0.0271 -0.6548
10444SOL    HW134225   3.721   4.690   5.882  0.9071  0.4355 -0.5154
10444SOL    HW234226   3.671   4.751   6.012  0.2469  0.0992 -0.6069
10445SOL     OW34227   2.322   1.832   5.387  0.1340  0.1164 -0.0537
10445SOL    HW134228   2.283   1.850   5.302 -0.2024  0.8900  0.2597
10445SOL    HW234229   2.291   1.902   5.444  0.6653 -0.1731  0.6151
10446SOL     OW34230   2.562   0.300   3.650 -0.6411  0.1595 -0.4539
10446SOL    HW134231   2.485   0.291   3.706  0.8571 -0.8092  1.5304
10446SOL    HW234232   2.573   0.214   3.610 -1.2187  0.6175 -1.6469
10447SOL     OW34233   5.592   9.266   5.595 -0.7900  0.3475  0.1353
10447SOL    HW134234   5.641   9.200   5.546 -0.3433  0.9122 -0.1979
10447SOL    HW234235   5.504   9.263   5.558 -0.8446 -0.2345  0.3004
10448SOL     OW34236   5.367   5.282   5.288  0.3587  0.0730 -0.2765
10448SOL    HW134237   5.389   5.189   5.284 -2.4517 -0.6319 -1.6590
10448SOL    HW234238   5.399   5.310   5.374  1.6016 -2.0414  0.0329
10449SOL     OW34239   0.438   6.762   8.989  0.0919  0.1110  1.1620
10449SOL    HW134240   0.382   6.835   8.962 -0.9327 -0.3940  1.8759
10449SOL    HW234241   0.420   6.693   8.924  1.6630  0.7360  0.0071
10450SOL     OW34242   3.772   2.715   7.371 -0.5438  0.0042  0.3627
10450SOL    HW134243   3.765   2.669   7.287  1.3403 -0.3452  0.3595
10450SOL    HW234244   3.723   2.660   7.432 -0.4160 -0.6835 -0.1424
10451SOL     OW34245   7.560   9.188   0.004 -0.1698 -0.4866 -0.4763
10451SOL    HW134246   7.551   9.171   0.098  0.6743  0.0955 -0.2780
10451SOL    HW234247   7.479   9.235  -0.019  0.7681  1.7921  0.5646
10452SOL     OW34248   8.256   3.514   2.401 -0.2891  0.2636 -0.8401
10452SOL    HW134249   8.312   3.503   2.324 -1.1503  0.0561 -1.4555
10452SOL    HW234250   8.304   3.575   2.457  1.8552 -1.9742 -0.0461
10453SOL     OW34251   1.619   1.279  10.645  0.2030 -0.5494  0.2717
10453SOL    HW134252   1.566   1.224  10.702 -1.2226 -1.5284 -1.8715
10453SOL    HW234253   1.559   1.346  10.612  1.4540  1.1883  1.3097
10454SOL     OW34254   6.697   9.386   4.990  0.4729 -0.2318  0.5078
10454SOL    HW134255   6.710   9.436   5.070  0.8305 -1.8680  1.5167
10454SOL    HW234256   6.785   9.373   4.955  0.6653 -2.1515  1.5629
10455SOL     OW34257  10.221  10.295   2.463 -0.3577  0.7350  0.3631
10455SOL    HW134258  10.294  10.234   2.469 -0.3380  0.8960  2.2709
10455SOL    HW234259  10.178  10.273   2.381 -0.7695 -2.3359  1.2899
10456SOL     OW34260   4.105   1.884   3.201 -0.5129  0.1007  0.0086
10456SOL    HW134261   4.109   1.884   3.106  1.5040 -0.9829  0.0547
10456SOL    HW234262   4.113   1.792   3.226 -1.2754  0.3342  1.2485
10457SOL     OW34263   7.066   4.745   0.618 -0.7034 -0.0385 -0.0574
10457SOL    HW134264   6.980   4.779   0.593 -0.6068 -0.8179 -1.5656
10457SOL    HW234265   7.115   4.822   0.649 -1.0537  0.8956 -1.7302
10458SOL     OW34266   8.624   1.723   0.064  0.2861  0.0706  0.0297
10458SOL    HW134267   8.584   1.807   0.041 -0.1934  0.0995  0.9126
10458SOL    HW234268   8.552   1.660   0.056  0.7336 -0.3290 -0.9953
10459SOL     OW34269   8.381   7.265   2.367 -0.2687  0.2187 -1.2442
10459SOL    HW134270   8.349   7.350   2.335 -0.5216  0.1700 -1.1253
10459SOL    HW234271   8.474   7.279   2.384 -0.6260  0.9462  0.3139
10460SOL     OW34272   8.229   1.422   9.702 -0.5014  0.1148  0.1433
10460SOL    HW134273   8.189   1.342   9.736 -0.9972  0.9564  1.6305
10460SOL    HW234274   8.197   1.428   9.612 -0.2481 -1.4756 -0.0807
10461SOL     OW34275   7.757  10.506   0.671  0.4720 -0.3261  0.5460
10461SOL    HW134276   7.719  10.506   0.759  0.0920  1.1463  0.4042
10461SOL    HW234277   7.763  10.598   0.647 -0.0633 -0.7090 -1.2420
10462SOL     OW34278   1.759   6.552   1.107 -0.3978 -0.2812 -0.2722
10462SOL    HW134279   1.696   6.608   1.153 -0.7412  0.2821 -1.3838
10462SOL    HW234280   1.827   6.535   1.171 -0.8789  0.4432  0.4598
10463SOL     OW34281   4.282   4.532   4.661  0.3229  0.7167 -0.2704
10463SOL    HW134282   4.350   4.577   4.711  0.5284  0.4422 -0.3083
10463SOL    HW234283   4.201   4.573   4.691  0.5998  2.1157 -1.3109
10464SOL     OW34284   4.433   1.240   2.493 -0.1611  0.3683 -0.1747
10464SOL    HW134285   4.359   1.298   2.478  0.6477  1.7624  1.0005
10464SOL    HW234286   4.408   1.158   2.451 -1.6906  1.2915 -1.1714
10465SOL     OW34287   6.822   7.287   2.817 -0.3118 -0.3271 -0.4644
10465SOL    HW134288   6.759   7.284   2.745 -0.3617  0.1750 -0.4487
10465SOL    HW234289   6.776   7.246   2.890  0.8871 -3.8707 -1.5222
10466SOL     OW34290  10.450   1.856   3.494  0.2562 -0.0917  0.0261
10466SOL    HW134291  10.533   1.856   3.542 -1.1651  1.2922  2.7228
10466SOL    HW234292  10.383   1.852   3.562 -1.9493  2.2736 -1.8200
10467SOL     OW34293   2.223   3.735  10.238  0.2277 -0.1646  0.0689
10467SOL    HW134294   2.281   3.809  10.224  1.5423 -1.3819 -1.4229
10467SOL    HW234295   2.243   3.704  10.326 -0.1353  1.0501  0.5923
10468SOL     OW34296   1.355   1.824   7.608 -0.1926 -0.1750  0.1505
10468SOL    HW134297   1.366   1.735   7.644 -0.2041  0.5730  2.1252
10468SOL    HW234298   1.444   1.860   7.607 -0.3342  0.1886  0.4722
10469SOL     OW34299   8.586   7.792   4.990  0.1986  0.0391  0.3690
10469SOL    HW134300   8.614   7.701   4.998  0.9038  0.2380  0.2585
10469SOL    HW234301   8.602   7.829   5.077  0.1187  0.1080  0.3542
10470SOL     OW34302   5.464  10.278   9.928  0.2024 -0.6935  0.0851
10470SOL    HW134303   5.554  10.247   9.928  0.2727 -0.4990 -0.3694
10470SOL    HW234304   5.443  10.291   9.836 -0.2390 -0.5875  0.1974
10471SOL     OW34305   9.752   1.770   3.624  0.2634  0.5757  0.2315
10471SOL    HW134306   9.804   1.697   3.656 -1.1378 -0.4660  0.2106
10471SOL    HW234307   9.667   1.761   3.667 -1.8110 -1.0023 -3.6185
10472SOL     OW34308   4.291   2.633   1.776  0.0218 -0.4997 -0.2991
10472SOL    HW134309   4.269   2.640   1.683  2.0246  3.5246 -0.7051
10472SOL    HW234310   4.375   2.586   1.778 -0.0249 -0.5928 -0.5312
10473SOL     OW34311   4.772   1.135   7.902 -0.5461 -0.0030 -0.2210
10473SOL    HW134312   4.781   1.072   7.830 -3.1386  0.2891 -0.8805
10473SOL    HW234313   4.791   1.084   7.980  0.4788 -0.7992 -0.9601
10474SOL     OW34314   2.534   4.653   8.190 -0.0173 -0.4199 -0.1305
10474SOL    HW134315   2.591   4.597   8.137 -0.0180  0.2857 -0.9049
10474SOL    HW234316   2.591   4.685   8.260 -0.4929 -2.8591  1.4604
10475SOL     OW34317   9.314   0.559   3.517 -0.4038 -0.0551  0.3787
10475SOL    HW134318   9.322   0.625   3.448 -0.3538 -0.8290 -0.3692
10475SOL    HW234319   9.221   0.538   3.520 -0.6313  0.9695  1.5188
10476SOL     OW34320   6.027  10.176   5.095 -0.2170 -0.2596 -0.1769
10476SOL    HW134321   6.120  10.152   5.096 -0.2465 -0.4992 -1.4864
10476SOL    HW234322   6.021  10.250   5.155  0.7016 -0.6189  0.3971
10477SOL     OW34323   0.148  10.794   1.360 -0.2492  0.0698  0.1936
10477SOL    HW134324   0.116  10.704   1.368 -0.6966  0.2369  0.3486
10477SOL    HW234325   0.112  10.838   1.437 -1.9940  0.9544 -1.0644
10478SOL     OW34326   3.646   0.051   5.499 -0.5843  0.5385  0.7054
10478SOL    HW134327   3.736   0.052   5.468 -0.5546 -0.1376  0.7452
10478SOL    HW234328   3.623  -0.042   5.503 -1.5473  0.7240 -0.0669
10479SOL     OW34329   9.257   8.801   1.447 -0.1389 -0.0229 -0.0006
10479SOL    HW134330   9.286   8.781   1.536  0.4506 -1.6207 -0.5025
10479SOL    HW234331   9.338   8.816   1.398 -0.3213 -1.0506 -0.6587
10480SOL     OW34332   9.873   1.660   7.799  0.8092  0.1870 -0.3566
10480SOL    HW134333   9.816   1.677   7.873  0.3533 -3.3682  0.2920
10480SOL    HW234334   9.905   1.746   7.772 -2.3908  2.0184  1.1910
10481SOL     OW34335   8.737   0.015   9.591 -0.4164  0.3141 -0.3578
10481SOL    HW134336   8.779   0.043   9.673  2.6176 -3.0707 -0.5105
10481SOL    HW234337   8.791   0.053   9.522  0.2356 -1.0622 -0.6340
10482SOL     OW34338   1.296   2.343   7.880 -0.1964  0.3722  0.5131
10482SOL    HW134339   1.321   2.424   7.835 -2.1477  0.3708 -0.6774
10482SOL    HW234340   1.208   2.361   7.913  0.4164 -0.3269  2.7105
10483SOL     OW34341  10.750   0.433   8.056  0.2799  0.3019 -0.3511
10483SOL    HW134342  10.675   0.471   8.009  0.0474 -0.9218 -1.0007
10483SOL    HW234343  10.810   0.406   7.987 -0.2143 -1.8405 -0.0127
10484SOL     OW34344   2.847   1.798   0.577  0.1128 -0.7457  0.1437
10484SOL    HW134345   2.788   1.744   0.630 -1.4050  1.0729  0.4289
10484SOL    HW234346   2.789   1.844   0.517  1.0777  1.9427  1.1465
10485SOL     OW34347   6.711   1.910   8.226 -0.2547  0.6508 -0.0478
10485SOL    HW134348   6.673   1.839   8.277  1.8586 -1.8053 -1.6452
10485SOL    HW234349   6.804   1.909   8.249  0.4610  0.5391 -2.6270
10486SOL     OW34350   9.633   5.477   7.869  0.0322  0.1977  0.9288
10486SOL    HW134351   9.718   5.499   7.832 -0.1363  1.2806  1.1592
10486SOL    HW234352   9.571   5.533   7.821 -0.4001  0.3144  1.6159
10487SOL     OW34353   0.745   7.787  10.341 -0.6868  0.3975 -0.6275
10487SOL    HW134354   0.666   7.788  10.287 -2.9698  1.9508  2.4155
10487SOL    HW234355   0.760   7.879  10.363  2.1633  0.1733 -1.2240
10488SOL     OW34356   9.636   7.509   7.277  0.6277  0.3826  0.0754
10488SOL    HW134357   9.709   7.552   7.233  0.5187 -0.8810 -1.4297
10488SOL    HW234358   9.561   7.523   7.218  0.0011  0.3824  0.8542
10489SOL     OW34359   6.307   9.102   8.191  0.3882 -0.5091  0.2279
10489SOL    HW134360   6.224   9.114   8.144 -0.1374 -1.5366  0.8520
10489SOL    HW234361   6.285   9.123   8.282  0.6474 -1.3587  0.4996
10490SOL     OW34362   9.398   4.321   5.744  0.2775 -0.0391 -0.0420
10490SOL    HW134363   9.328   4.265   5.779 -0.0769  1.1247  1.1893
10490SOL    HW234364   9.377   4.329   5.651 -0.2212 -1.1239 -0.0450
10491SOL     OW34365   3.546   2.197   3.956  0.0719 -0.3655  0.2179
10491SOL    HW134366   3.536   2.252   4.034 -2.5747  0.2899 -0.4972
10491SOL    HW234367   3.490   2.121   3.974 -1.4245  0.2879 -1.4149
10492SOL     OW34368   0.517   6.566   6.638 -0.3918  0.1985 -0.1773
10492SOL    HW134369   0.535   6.660   6.631 -1.6468  0.8221  3.3028
10492SOL    HW234370   0.592   6.531   6.685 -0.6074 -0.2929 -0.1984
10493SOL     OW34371   0.628   4.906  10.408  0.1928 -0.0049 -0.0493
10493SOL    HW134372   0.623   5.001  10.403  0.1085  0.0332  0.6700
10493SOL    HW234373   0.718   4.885  10.385 -0.2473  0.0991 -2.1160
10494SOL     OW34374   5.530   9.379   8.654 -0.1875  0.0391 -0.2517
10494SOL    HW134375   5.596   9.446   8.670  0.5504 -0.7995  0.3799
10494SOL    HW234376   5.459   9.398   8.715  0.1018  0.1397  0.0542
10495SOL     OW34377   5.740   4.178   4.071 -0.3756  0.1717 -0.2821
10495SOL    HW134378   5.734   4.271   4.052 -0.4158  0.3151  0.3880
10495SOL    HW234379   5.660   4.158   4.119 -0.1725 -0.1101 -0.0542
10496SOL     OW34380   5.449   6.652   6.457  0.3676  0.2133  1.0262
10496SOL    HW134381   5.483   6.586   6.518  2.1432  0.7814  0.6955
10496SOL    HW234382   5.527   6.687   6.414 -0.6602  1.5857  0.2283
10497SOL     OW34383   6.184   9.931   4.077 -0.0291  0.0445 -0.4935
10497SOL    HW134384   6.177  10.014   4.124  1.3245  0.2748 -0.6465
10497SOL    HW234385   6.102   9.923   4.029  0.2665  1.8663 -1.3866
10498SOL     OW34386   9.874   8.616  10.437  0.1006  0.1178 -0.0109
10498SOL    HW134387   9.817   8.552  10.480  0.8280 -1.3059 -1.1040
10498SOL    HW234388   9.923   8.656  10.509  0.9024 -1.8357  0.5981
10499SOL     OW34389   7.769   3.222   2.709 -0.0013 -0.4841 -0.0876
10499SOL    HW134390   7.825   3.201   2.784 -0.1663 -1.9613 -0.3542
10499SOL    HW234391   7.820   3.285   2.658  0.0569  0.6545  1.3160
10500SOL     OW34392   6.123   1.202   5.840  0.2493  0.0942  0.0151
10500SOL    HW134393   6.043   1.161   5.808 -1.1934  1.8378  1.1885
10500SOL    HW234394   6.135   1.279   5.784  0.4057  0.5140  0.6145
10501SOL     OW34395   1.928   2.131   6.642  0.1078 -0.2206 -0.0705
10501SOL    HW134396   1.989   2.080   6.588  0.5479 -0.2268  0.4136
10501SOL    HW234397   1.980   2.154   6.720 -0.5245 -0.2525  0.3629
10502SOL     OW34398   2.533   8.984   5.316 -0.0373 -0.8384  0.5075
10502SOL    HW134399   2.605   9.046   5.298  0.2792 -1.1001  0.8695
10502SOL    HW234400   2.537   8.970   5.410 -2.2062  1.1618  0.9997
10503SOL     OW34401   1.256   6.685   0.975 -0.3389  0.7325  0.3192
10503SOL    HW134402   1.336   6.737   0.968  0.2490 -0.3079 -1.2250
10503SOL    HW234403   1.263   6.642   1.060  0.4576  1.0894  0.4445
10504SOL     OW34404   6.464   0.553   9.418 -0.0158  0.3446  0.0821
10504SOL    HW134405   6.491   0.462   9.423  0.2640  0.4592  0.8838
10504SOL    HW234406   6.536   0.602   9.458 -1.0263  0.7135  1.5632
10505SOL     OW34407   3.785  10.768   7.860 -0.3471 -0.2445 -0.4683
10505SOL    HW134408   3.775  10.837   7.926  1.2328 -0.6944  0.2818
10505SOL    HW234409   3.757  10.809   7.778  1.3183  1.5831 -0.1949
10506SOL     OW34410   8.434   4.411  10.409 -0.4064 -0.2415  0.3700
10506SOL    HW134411   8.378   4.419  10.333 -0.9494 -0.0249  0.7875
10506SOL    HW234412   8.481   4.328  10.395 -1.8308 -1.1360  0.6552
10507SOL     OW34413   3.056   5.330   7.300 -0.3537  0.2854  0.7105
10507SOL    HW134414   2.985   5.380   7.341  0.5504  1.9851  0.2842
10507SOL    HW234415   3.025   5.240   7.301 -2.5411  0.9753  0.4957
10508SOL     OW34416   0.805   3.021   8.192  0.2891  0.5740 -0.8984
10508SOL    HW134417   0.890   3.056   8.219  0.2810  0.4565 -0.7184
10508SOL    HW234418   0.827   2.957   8.124  0.3578  0.4440 -0.7569
10509SOL     OW34419   4.955   4.963   6.083  0.2869 -0.4505 -0.5060
10509SOL    HW134420   5.050   4.964   6.071  0.2136  0.4659 -1.1274
10509SOL    HW234421   4.934   5.052   6.111 -0.1388 -1.2219  1.8480
10510SOL     OW34422   7.717   7.438   8.921  0.0166 -0.1655 -0.2783
10510SOL    HW134423   7.773   7.457   8.996  0.4502 -0.4593 -0.5223
10510SOL    HW234424   7.774   7.450   8.845 -0.3461 -0.1268 -0.5471
10511SOL     OW34425   8.293   4.012   9.829 -0.1913  0.3283 -0.3161
10511SOL    HW134426   8.207   4.051   9.845 -0.1864  0.5505 -0.8171
10511SOL    HW234427   8.355   4.075   9.865 -0.2982 -1.0295  2.4757
10512SOL     OW34428   7.708  10.710   7.263 -0.2847  0.5800 -0.5883
10512SOL    HW134429   7.768  10.694   7.336  0.0180  1.0742 -0.7297
10512SOL    HW234430   7.743  10.787   7.219 -1.1196  0.9905 -0.5588
10513SOL     OW34431   9.988   1.183   1.853  0.4752 -0.1139 -0.2853
10513SOL    HW134432   9.905   1.223   1.878  0.1859 -0.6939 -0.2983
10513SOL    HW234433   9.965   1.121   1.783  1.2811  1.6310 -2.1869
10514SOL     OW34434   2.424   4.331   2.460 -0.2901  0.2528 -0.0901
10514SOL    HW134435   2.330   4.312   2.460 -0.1845 -0.7989  3.3936
10514SOL    HW234436   2.465   4.253   2.496  2.0493  0.5325 -1.8894
10515SOL     OW34437   9.270   7.875   8.230 -0.3623  0.2571  0.2937
10515SOL    HW134438   9.196   7.930   8.204 -1.0328 -0.4490  0.6769
10515SOL    HW234439   9.292   7.825   8.152 -1.2325 -0.5755  0.5599
10516SOL     OW34440   6.381   9.782   1.753 -0.1737  0.0628  0.5992
10516SOL    HW134441   6.417   9.747   1.672  0.9458  0.3537  0.9571
10516SOL    HW234442   6.456   9.818   1.800 -0.7527 -0.3253  1.8853
10517SOL     OW34443   4.253   0.246   3.890  0.2647 -0.1027 -0.2088
10517SOL    HW134444   4.281   0.211   3.805  0.4891 -2.3176  0.7086
10517SOL    HW234445   4.281   0.337   3.889 -0.6561  0.2447 -2.9125
10518SOL     OW34446   8.106   6.003   1.687 -0.3458  0.1466 -0.3581
10518SOL    HW134447   8.061   6.083   1.714 -0.1807  0.1615 -0.1270
10518SOL    HW234448   8.036   5.941   1.669 -0.4771 -0.8218  2.9074
10519SOL     OW34449   3.084   2.697   1.444 -0.3037 -0.0389  0.1938
10519SOL    HW134450   3.175   2.667   1.441 -0.3617 -0.2965  0.7636
10519SOL    HW234451   3.081   2.772   1.385  0.4167  0.3259  0.6079
10520SOL     OW34452   9.311   9.510   3.562  0.3760 -0.3061  0.1502
10520SOL    HW134453   9.393   9.548   3.592 -1.0323  0.5427  3.3336
10520SOL    HW234454   9.278   9.572   3.497  1.2946  0.4077  0.3438
10521SOL     OW34455   7.208   7.198   5.664  0.2276 -0.0399 -0.1850
10521SOL    HW134456   7.226   7.224   5.574 -0.0021 -1.5918 -0.7045
10521SOL    HW234457   7.274   7.244   5.716  0.7293  0.4152 -1.2036
10522SOL     OW34458   4.929   3.054   2.455  0.5351 -0.0527  0.0910
10522SOL    HW134459   4.990   3.128   2.459 -1.7318  2.0738 -1.2687
10522SOL    HW234460   4.925   3.032   2.362 -0.0499 -0.7922  0.2819
10523SOL     OW34461   9.765   6.363   7.056  0.0209 -0.1228  0.8168
10523SOL    HW134462   9.712   6.371   6.977 -0.8823 -2.5522  1.1039
10523SOL    HW234463   9.819   6.443   7.057 -0.7244  0.4855 -1.6291
10524SOL     OW34464   1.331   5.695   4.284 -0.4491  0.1075 -0.1148
10524SOL    HW134465   1.256   5.721   4.337  0.3530  1.4557  0.4078
10524SOL    HW234466   1.352   5.772   4.232 -0.3783 -0.7606 -1.4355
10525SOL     OW34467  10.061   1.471   3.045 -0.1188  0.2231 -0.0884
10525SOL    HW134468  10.016   1.496   3.125 -1.5589  2.2470 -1.4138
10525SOL    HW234469  10.142   1.522   3.045 -0.6211  1.0412 -0.3767
10526SOL     OW34470   0.475   8.989   5.533  0.8492 -0.1788 -0.1029
10526SOL    HW134471   0.404   9.053   5.534  0.2787 -0.7437 -1.3993
10526SOL    HW234472   0.432   8.905   5.550  1.3215 -0.4264 -0.1064
10527SOL     OW34473   1.488  10.452   9.635 -0.5360 -0.2275 -0.4378
10527SOL    HW134474   1.447  10.479   9.717 -1.5957  0.7351 -1.2547
10527SOL    HW234475   1.424  10.393   9.595 -0.2595 -0.2800 -0.8103
10528SOL     OW34476   3.090   7.076   5.535 -0.4761 -0.0252 -0.1425
10528SOL    HW134477   3.073   6.985   5.560  1.8704 -0.1019  1.5115
10528SOL    HW234478   3.140   7.112   5.608 -1.2945  2.6147 -0.7757
10529SOL     OW34479   0.810   4.489   6.667  0.1527  0.0439 -0.1326
10529SOL    HW134480   0.759   4.570   6.661  2.4080  1.4894 -1.2418
10529SOL    HW234481   0.873   4.495   6.595  2.6562 -1.0308  1.8413
10530SOL     OW34482   1.307   7.909   5.627 -0.4044 -0.0521 -0.1399
10530SOL    HW134483   1.240   7.976   5.616  0.0996  0.7237  1.2905
10530SOL    HW234484   1.370   7.927   5.556 -0.4205  0.8244  0.0522
10531SOL     OW34485  10.226   3.643   2.371  0.3914 -0.0859 -0.1429
10531SOL    HW134486  10.216   3.612   2.281  0.3836 -2.0132  0.4753
10531SOL    HW234487  10.137   3.641   2.407  0.6449 -1.2779  0.4733
10532SOL     OW34488   5.345   6.603  10.102 -0.0389  0.4822 -0.2466
10532SOL    HW134489   5.289   6.620  10.177 -1.2185  0.8374 -1.1684
10532SOL    HW234490   5.404   6.533  10.131 -1.3754 -0.3449  0.5611
10533SOL     OW34491   5.181   3.780   3.040 -0.1512  0.0597  0.3115
10533SOL    HW134492   5.105   3.761   3.095  0.0875 -0.0766  0.5910
10533SOL    HW234493   5.256   3.776   3.099 -0.0233  1.2674  0.2622
10534SOL     OW34494   2.710   7.215   6.028  0.6205 -0.0574 -0.4530
10534SOL    HW134495   2.707   7.295   6.081 -0.2523 -0.7739  0.6265
10534SOL    HW234496   2.703   7.144   6.092  0.0287 -0.9645 -1.4952
10535SOL     OW34497   6.432   2.033   9.344 -0.2145 -0.8121  0.1405
10535SOL    HW134498   6.406   2.051   9.254 -1.4377 -1.7505  0.2615
10535SOL    HW234499   6.420   2.116   9.390 -0.9760 -0.6809 -0.2774
10536SOL     OW34500  10.290   9.324   5.400  0.0538 -0.0362 -0.0653
10536SOL    HW134501  10.230   9.268   5.450  0.1830  1.4638  1.9261
10536SOL    HW234502  10.243   9.407   5.391  1.1080  0.5883 -0.0387
10537SOL     OW34503   8.946   9.727   0.993 -0.0897 -0.5838 -0.6840
10537SOL    HW134504   8.877   9.723   0.926  0.4627 -0.5680 -1.2642
10537SOL    HW234505   8.970   9.636   1.008 -0.6810 -0.6344 -0.0056
10538SOL     OW34506   9.211   3.119   4.041 -0.2245  0.0598  0.7821
10538SOL    HW134507   9.281   3.184   4.048 -0.0637 -0.2090  1.7639
10538SOL    HW234508   9.256   3.035   4.031 -0.4217  0.0006  0.3749
10539SOL     OW34509   5.760   1.817   5.820 -0.4066  0.0190 -0.2588
10539SOL    HW134510   5.812   1.755   5.770 -2.2523 -0.3322 -1.8450
10539SOL    HW234511   5.734   1.769   5.899 -0.3614 -0.6311 -0.6326
10540SOL     OW34512   9.071   6.348   9.052  0.1420 -0.2043 -0.2136
10540SOL    HW134513   9.054   6.287   9.124  0.2691 -1.0212 -0.8557
10540SOL    HW234514   8.987   6.393   9.039 -0.1544 -0.7254 -0.1617
10541SOL     OW34515   8.280   6.670  10.748  0.1162  0.3060  0.2943
10541SOL    HW134516   8.349   6.731  10.774  2.3303 -2.1951  0.6366
10541SOL    HW234517   8.244   6.707  10.668  1.5145  1.9314  0.3648
10542SOL     OW34518   8.592   7.761   2.817  0.3898  0.0268 -0.2310
10542SOL    HW134519   8.607   7.787   2.908 -0.6115  1.2891 -0.3996
10542SOL    HW234520   8.635   7.829   2.765 -0.0005 -0.0808 -0.6964
10543SOL     OW34521   4.613   0.091   4.079  0.2428  0.1262  0.1212
10543SOL    HW134522   4.639   0.181   4.094  0.4498  0.4762 -2.0556
10543SOL    HW234523   4.695   0.043   4.065  0.1071 -0.2877  0.7127
10544SOL     OW34524   1.025   2.094   0.503 -0.6783  0.5909 -0.6666
10544SOL    HW134525   1.034   2.166   0.441  0.1426  1.4172  0.3774
10544SOL    HW234526   0.946   2.115   0.552  0.1171  1.3621  0.3317
10545SOL     OW34527  10.298   7.004   7.345  0.0829 -0.1922  0.3079
10545SOL    HW134528  10.289   7.052   7.427 -1.0268 -0.6370  0.4636
10545SOL    HW234529  10.361   7.055   7.294  0.5745  0.2344  1.3210
10546SOL     OW34530   6.383   0.520   1.045 -0.3701  0.3982  0.6015
10546SOL    HW134531   6.423   0.436   1.067  0.8015  1.1724  1.5705
10546SOL    HW234532   6.299   0.497   1.005 -0.1932 -1.2163  1.0828
10547SOL     OW34533   0.513   3.547   8.894 -0.4968  0.6079 -0.5281
10547SOL    HW134534   0.532   3.577   8.805  1.1135  3.1843  0.5574
10547SOL    HW234535   0.467   3.464   8.883 -0.0536  0.6905 -3.7285
10548SOL     OW34536   1.058   9.143   8.562 -0.3570 -0.7186  0.0398
10548SOL    HW134537   1.048   9.236   8.584  0.2544 -0.8621  0.9952
10548SOL    HW234538   1.058   9.141   8.466 -0.1950  0.2914  0.0068
10549SOL     OW34539   8.803   2.521   5.765 -0.0571 -0.5189 -0.1388
10549SOL    HW134540   8.727   2.488   5.717 -0.1836 -2.4460  1.2782
10549SOL    HW234541   8.878   2.479   5.722  0.0044 -0.5473 -0.0045
10550SOL     OW34542   2.209   4.562   1.696  0.0219  0.5715 -1.0121
10550SOL    HW134543   2.140   4.560   1.762 -0.3266  1.7597 -1.3041
10550SOL    HW234544   2.259   4.481   1.710  1.0643  1.5709  1.8855
10551SOL     OW34545   4.206   7.839   8.738  0.6006 -0.4653  0.5068
10551SOL    HW134546   4.217   7.891   8.659  0.2616 -0.4766  0.4536
10551SOL    HW234547   4.114   7.814   8.739  0.5667 -0.3386  0.9850
10552SOL     OW34548   4.788   8.417   7.464  0.1367 -0.0952 -0.1382
10552SOL    HW134549   4.749   8.404   7.378 -0.0207  0.5892 -0.1722
10552SOL    HW234550   4.731   8.481   7.507  0.4318 -0.1433  0.3352
10553SOL     OW34551  10.749   5.991   9.956  0.4246  0.2033  0.6734
10553SOL    HW134552  10.737   5.912  10.008 -0.5312  0.1795  0.4310
10553SOL    HW234553  10.709   6.060  10.009  0.2086  0.3238  0.3538
10554SOL     OW34554   7.768   4.604   6.104  0.0757 -0.6505 -0.4727
10554SOL    HW134555   7.673   4.600   6.118  0.0077  0.9196 -0.3165
10554SOL    HW234556   7.802   4.646   6.183  0.8401 -0.7478 -0.7465
10555SOL     OW34557   6.461   8.176   3.773  0.2411  0.5837  0.0222
10555SOL    HW134558   6.530   8.221   3.822  1.3922  0.3771 -1.3382
10555SOL    HW234559   6.458   8.088   3.813 -1.5398  1.5527  2.2276
10556SOL     OW34560   0.622   9.790   5.714 -0.2804 -0.7401  0.2822
10556SOL    HW134561   0.615   9.885   5.712 -1.2747 -0.8051  0.1184
10556SOL    HW234562   0.651   9.766   5.626  1.6868 -0.4921  0.8215
10557SOL     OW34563   3.998  10.352   8.485 -0.4083 -0.0778 -0.1326
10557SOL    HW134564   3.957  10.280   8.531  1.8425 -1.0943  0.4142
10557SOL    HW234565   4.020  10.416   8.553  0.1545 -0.1856 -0.2032
10558SOL     OW34566   9.607   4.416   8.771  0.2874  0.4572  0.8099
10558SOL    HW134567   9.697   4.429   8.802  0.2375 -2.7566  2.8183
10558SOL    HW234568   9.615   4.345   8.707 -0.5639  2.0714 -1.1930
10559SOL     OW34569   4.859   0.807   1.362  0.7648  0.2098  0.1048
10559SOL    HW134570   4.811   0.890   1.366 -2.4568 -1.5073  0.3980
10559SOL    HW234571   4.923   0.814   1.433  0.2336  2.2468  0.4552
10560SOL     OW34572   7.553   5.718   7.090  0.1205 -0.1219 -0.2282
10560SOL    HW134573   7.622   5.688   7.032 -0.4047 -0.4704 -0.6839
10560SOL    HW234574   7.473   5.712   7.038 -0.2169  0.5539  0.1885
10561SOL     OW34575   9.658   2.595   3.431  0.4174 -0.3723  0.4795
10561SOL    HW134576   9.607   2.671   3.404  0.8312 -0.3329 -0.2029
10561SOL    HW234577   9.749   2.624   3.426  0.5376  0.5377  4.5055
10562SOL     OW34578   2.058   5.289   8.822 -0.1972 -0.4357 -0.1019
10562SOL    HW134579   2.105   5.304   8.740 -0.4799 -0.2370 -0.2287
10562SOL    HW234580   2.004   5.367   8.833 -0.5470 -0.6933  0.0064
10563SOL     OW34581   0.415   9.674   1.626 -0.2762  0.3578  0.4786
10563SOL    HW134582   0.419   9.737   1.553  1.0111  0.6407  0.7682
10563SOL    HW234583   0.381   9.725   1.699  0.8247  0.7596  0.7293
10564SOL     OW34584   0.859   2.472   8.781  0.0144 -0.3742  0.1577
10564SOL    HW134585   0.949   2.457   8.810 -0.1323  2.0963  2.2006
10564SOL    HW234586   0.868   2.508   8.693  0.9637 -0.8434  0.0549
10565SOL     OW34587   2.057  10.030   0.129  0.4559 -0.2096 -0.0109
10565SOL    HW134588   2.030   9.972   0.058  1.9419  0.7307 -1.4117
10565SOL    HW234589   1.999  10.106   0.121 -0.9653 -1.0881  1.3344
10566SOL     OW34590   7.348   1.269   1.563 -0.4227  0.1572 -0.0662
10566SOL    HW134591   7.400   1.226   1.632  0.0687  1.2817  0.2857
10566SOL    HW234592   7.323   1.197   1.505  1.3598 -0.4635 -0.1330
10567SOL     OW34593   5.925  10.569   0.943  0.8678 -0.7037  0.5860
10567SOL    HW134594   6.007  10.560   0.991  0.4313 -1.9470  1.1398
10567SOL    HW234595   5.859  10.533   1.002 -0.2108  1.0501  0.4889
10568SOL     OW34596   3.566  10.438   7.169  0.0820 -0.3638  0.2486
10568SOL    HW134597   3.535  10.517   7.126 -0.6129  0.5628  2.3146
10568SOL    HW234598   3.612  10.389   7.100  0.2418  1.6587 -1.1606
10569SOL     OW34599   2.618   0.393   8.412  0.9022  0.4387 -0.0864
10569SOL    HW134600   2.709   0.366   8.403  1.0546  0.5437  1.0002
10569SOL    HW234601   2.618   0.452   8.487  0.0812  1.1449 -0.6289
10570SOL     OW34602   0.097   2.517   5.692 -0.1015  0.1254  0.4352
10570SOL    HW134603   0.031   2.494   5.757 -0.8513  0.2441 -0.2705
10570SOL    HW234604   0.161   2.570   5.740  0.1436 -1.0262  1.4016
10571SOL     OW34605   9.606   0.879   6.766  0.3945 -0.1360  0.2247
10571SOL    HW134606   9.612   0.795   6.812  0.9432  0.0143  0.4432
10571SOL    HW234607   9.586   0.943   6.835 -0.3193 -0.1320  0.0120
10572SOL     OW34608   0.153   0.361   1.106  0.8842 -0.0036 -0.1360
10572SOL    HW134609   0.101   0.282   1.124  0.8346  0.1839  0.5704
10572SOL    HW234610   0.089   0.432   1.111  1.2357  0.2585  1.0092
10573SOL     OW34611   2.517   8.420   1.225  0.2025  0.2576  0.1947
10573SOL    HW134612   2.437   8.431   1.275  0.2866 -1.5401  0.7864
10573SOL    HW234613   2.489   8.384   1.140  0.2670  1.0211 -0.1573
10574SOL     OW34614   7.998   9.056   8.015  0.0670 -0.3174 -0.0519
10574SOL    HW134615   7.957   9.124   8.068 -1.0562 -1.1041  0.1321
10574SOL    HW234616   7.995   9.089   7.925 -2.0937 -0.8210 -0.2221
10575SOL     OW34617   0.222  10.606   8.309  0.4553  0.0431 -0.1000
10575SOL    HW134618   0.264  10.690   8.288 -0.8355  0.3829 -1.5202
10575SOL    HW234619   0.282  10.540   8.274  1.2702  0.3621  0.6378
10576SOL     OW34620   5.419   8.242   3.127 -0.0511 -0.4203  0.0850
10576SOL    HW134621   5.486   8.233   3.194  0.4224  0.7127 -0.2256
10576SOL    HW234622   5.359   8.307   3.161 -0.0903 -0.2144 -0.3668
10577SOL     OW34623   1.668   2.992   4.584 -0.2460 -0.5963 -0.1501
10577SOL    HW134624   1.635   2.989   4.495  0.1851  0.6123 -0.3738
10577SOL    HW234625   1.708   2.906   4.598  1.7420 -0.0392 -1.9599
10578SOL     OW34626   4.902   9.933   9.144  0.4039  0.5615  0.5752
10578SOL    HW134627   4.905   9.947   9.239 -1.6901 -0.5738  0.8829
10578SOL    HW234628   4.943   9.847   9.131 -1.2614 -0.3238  0.8008
10579SOL     OW34629   6.294   8.659   6.867  0.2593 -0.2601 -0.7767
10579SOL    HW134630   6.342   8.664   6.950  0.9633  4.3791 -1.1945
10579SOL    HW234631   6.202   8.671   6.893  0.4326  0.7329 -0.5639
10580SOL     OW34632   3.593   6.922   6.032 -0.1891 -0.2792  0.3451
10580SOL    HW134633   3.525   6.871   5.990 -0.1963 -0.2250  0.2912
10580SOL    HW234634   3.624   6.866   6.104  0.3002 -0.6559 -0.1482
10581SOL     OW34635   1.803   5.763   1.385  0.5131  0.5633 -0.1689
10581SOL    HW134636   1.877   5.796   1.334  1.1916 -0.3809  0.1829
10581SOL    HW234637   1.836   5.683   1.426 -0.3746  0.6975  0.8447
10582SOL     OW34638   7.821  10.185   4.345  0.4225  0.4529 -0.2465
10582SOL    HW134639   7.739  10.228   4.319 -1.5056 -0.7379  3.2672
10582SOL    HW234640   7.831  10.115   4.281 -2.7163 -0.8755  0.5094
10583SOL     OW34641   7.872   4.543   4.203  0.1215  0.2365 -0.4495
10583SOL    HW134642   7.857   4.544   4.108 -0.2527 -0.8256 -0.4089
10583SOL    HW234643   7.967   4.535   4.213  0.0794 -0.6256 -0.7360
10584SOL     OW34644   8.571   5.575   1.929 -0.7005 -0.1335 -0.7831
10584SOL    HW134645   8.574   5.637   1.855 -2.1686  1.1244  0.1612
10584SOL    HW234646   8.627   5.615   1.996 -3.4387  1.4741  0.7096
10585SOL     OW34647  10.435   0.316   9.606  0.2613  0.1960 -0.1186
10585SOL    HW134648  10.460   0.250   9.542  1.1735 -0.5441  0.9634
10585SOL    HW234649  10.346   0.293   9.631  0.7683 -1.0327  0.6879
10586SOL     OW34650   4.490   8.707  10.378  0.3412 -0.0946  0.2309
10586SOL    HW134651   4.411   8.668  10.415 -0.4211 -0.4114 -1.5791
10586SOL    HW234652   4.468   8.799  10.366  0.1670 -0.2098 -0.3973
10587SOL     OW34653   0.794   4.011   0.221 -0.3507  0.0505 -0.3141
10587SOL    HW134654   0.856   4.053   0.281  0.1908 -0.1518 -0.7209
10587SOL    HW234655   0.826   3.921   0.213  0.3694  0.4255 -1.9268
10588SOL     OW34656   8.489   4.497   5.722  0.5099  0.1771  0.0330
10588SOL    HW134657   8.427   4.535   5.659  0.4249  1.3405  0.7866
10588SOL    HW234658   8.461   4.406   5.730  0.0001  0.2231 -0.9692
10589SOL     OW34659   6.253   2.263   7.852  0.2582  0.4990  0.5161
10589SOL    HW134660   6.181   2.267   7.915 -0.8446  1.3258 -0.7420
10589SOL    HW234661   6.268   2.170   7.840  0.7223  0.3159  2.2258
10590SOL     OW34662  10.349   1.736   1.387 -0.2975  0.2552 -0.2449
10590SOL    HW134663  10.290   1.674   1.432  0.6803 -1.0303 -0.6638
10590SOL    HW234664  10.338   1.818   1.435 -2.2440 -0.0001 -0.1679
10591SOL     OW34665   5.167   3.425   5.342 -0.1157 -0.0091 -0.0414
10591SOL    HW134666   5.107   3.454   5.274 -0.7584 -0.7107  0.2095
10591SOL    HW234667   5.232   3.371   5.296 -0.2415 -0.0513 -0.1681
10592SOL     OW34668   3.150   1.148  10.680 -0.0456 -0.0712 -1.0312
10592SOL    HW134669   3.170   1.154  10.587  0.6097  0.6218 -0.8574
10592SOL    HW234670   3.233   1.168  10.724 -0.7210  1.2294 -0.2933
10593SOL     OW34671   9.519   5.261   7.678 -0.6689  0.5059  0.3385
10593SOL    HW134672   9.544   5.325   7.611  0.3201 -0.0592  0.1510
10593SOL    HW234673   9.563   5.290   7.757  2.0455 -1.3419 -0.3408
10594SOL     OW34674   9.387   3.432  10.483 -0.2493  0.0859  0.3376
10594SOL    HW134675   9.374   3.387  10.566  1.2461 -0.0355  0.5379
10594SOL    HW234676   9.340   3.378  10.419 -1.2449  0.0765  1.0570
10595SOL     OW34677   0.233   5.995   6.297  0.0584 -0.0043 -0.4889
10595SOL    HW134678   0.254   6.069   6.353  2.4742 -0.7077 -0.3169
10595SOL    HW234679   0.248   6.026   6.208 -0.9629  0.2816 -0.5726
10596SOL     OW34680   2.946   0.505   3.087 -0.4654  0.8027 -0.7771
10596SOL    HW134681   2.904   0.566   3.147  0.2593  0.6008 -0.0521
10596SOL    HW234682   2.876   0.445   3.061 -0.2868 -0.7888  1.9961
10597SOL     OW34683   0.489   0.128   0.623  0.0251 -0.5639  0.5233
10597SOL    HW134684   0.395   0.112   0.632  0.1784 -0.5743  2.4438
10597SOL    HW234685   0.530   0.052   0.665  0.9070 -0.5176 -0.2183
10598SOL     OW34686   4.323  10.377   4.282  0.7635 -0.2351  0.0218
10598SOL    HW134687   4.382  10.330   4.340  0.7343  0.9037  1.0051
10598SOL    HW234688   4.239  10.378   4.329  0.8352  1.0136  0.1640
10599SOL     OW34689   7.575   1.937   2.939  0.5596  1.0255 -0.0160
10599SOL    HW134690   7.523   1.976   2.869  2.2628  1.5636 -1.0457
10599SOL    HW234691   7.623   2.011   2.977 -1.0787  0.9305  2.4735
10600SOL     OW34692   0.879   2.471   5.577  0.4376  0.1762 -0.2494
10600SOL    HW134693   0.879   2.435   5.665  0.7802 -0.0340 -0.3314
10600SOL    HW234694   0.914   2.559   5.587  1.0278 -0.0530 -0.2509
10601SOL     OW34695   5.368   4.331   8.599 -0.2291 -0.1070 -0.0344
10601SOL    HW134696   5.426   4.296   8.666  1.1783  1.4066 -0.3912
10601SOL    HW234697   5.285   4.346   8.644 -0.6729 -2.9798  0.3272
10602SOL     OW34698   6.351   5.080   0.623 -1.0584 -0.7027 -0.9179
10602SOL    HW134699   6.287   5.009   0.627 -0.2133 -1.4774 -0.8284
10602SOL    HW234700   6.423   5.050   0.678 -0.8512  0.4060 -0.5535
10603SOL     OW34701  10.179   6.853   1.559 -0.0628  0.1691 -0.0956
10603SOL    HW134702  10.213   6.898   1.636 -2.4285  0.8029  0.6530
10603SOL    HW234703  10.112   6.912   1.524 -3.2049 -2.5384  0.8376
10604SOL     OW34704   9.267   4.955   9.962  0.1314 -0.6995 -0.0906
10604SOL    HW134705   9.205   4.972  10.033  0.1882 -2.6898  0.5138
10604SOL    HW234706   9.338   4.906  10.004  0.9985 -0.4382 -1.2069
10605SOL     OW34707  10.559   3.176   2.869  0.0974  0.6221  0.7325
10605SOL    HW134708  10.571   3.248   2.807  0.7496  1.0790  1.3648
10605SOL    HW234709  10.489   3.123   2.832  1.2191  0.2607 -0.9810
10606SOL     OW34710   7.167   4.861   2.746  0.3029  0.0667 -0.2483
10606SOL    HW134711   7.147   4.846   2.654 -1.8655  0.5517  0.0864
10606SOL    HW234712   7.119   4.940   2.768  2.4547  1.1453  0.8163
10607SOL     OW34713   8.962  10.294   2.993 -0.3166 -0.1669  0.3198
10607SOL    HW134714   8.994  10.204   2.999 -1.3169 -0.6753 -1.3759
10607SOL    HW234715   8.897  10.302   3.062 -0.3105 -0.7711  0.3950
10608SOL     OW34716   9.117   5.127   1.787 -0.1042 -0.7810  0.4624
10608SOL    HW134717   9.054   5.188   1.825  0.2405 -0.4473  0.5134
10608SOL    HW234718   9.120   5.150   1.694  0.9368  0.1308  0.6905
10609SOL     OW34719   4.380  10.044   8.315 -0.7082 -1.1674 -0.2715
10609SOL    HW134720   4.399  10.085   8.400 -2.2528  2.2785 -1.4210
10609SOL    HW234721   4.292  10.007   8.326 -0.2957 -2.0969  0.0283
10610SOL     OW34722   2.683   3.941   4.007  0.3247 -0.3732 -0.4084
10610SOL    HW134723   2.714   3.870   4.063 -0.0545 -0.5406 -0.4084
10610SOL    HW234724   2.649   3.898   3.929  0.1983 -0.1858 -0.4589
10611SOL     OW34725   6.101   5.959  10.288  0.0782 -0.4380 -0.0159
10611SOL    HW134726   6.164   5.917  10.229 -0.8544  0.6665 -1.8839
10611SOL    HW234727   6.143   5.956  10.373  1.3815 -2.3326 -0.6558
10612SOL     OW34728   3.336  10.343   7.385 -0.0541 -0.2061  0.3321
10612SOL    HW134729   3.326  10.422   7.439 -1.5814 -0.6327  0.7415
10612SOL    HW234730   3.409  10.362   7.327 -1.0946  1.9893 -0.3640
10613SOL     OW34731  10.559   5.372   0.769  0.2355  0.0772  0.1047
10613SOL    HW134732  10.505   5.438   0.726 -0.3711 -0.5195 -0.0693
10613SOL    HW234733  10.639   5.418   0.793  0.7083  0.3729 -1.8981
10614SOL     OW34734   8.401   7.645   6.225 -0.5049  0.4690 -0.7666
10614SOL    HW134735   8.388   7.560   6.182  0.0643 -0.4957  0.8824
10614SOL    HW234736   8.313   7.679   6.238 -0.9657 -1.2555  1.1412
10615SOL     OW34737   4.905   0.337   2.196  0.0190 -0.2163 -0.7159
10615SOL    HW134738   4.841   0.384   2.250 -0.4772 -2.2473  0.5797
10615SOL    HW234739   4.924   0.398   2.124 -0.1273  2.1667  1.1164
10616SOL     OW34740   2.220   6.692   1.598  0.1858 -0.2636 -0.5390
10616SOL    HW134741   2.249   6.678   1.688 -0.3699 -1.7838 -0.5525
10616SOL    HW234742   2.299   6.684   1.545  0.0910 -2.7192 -0.4363
10617SOL     OW34743   8.592   7.299   3.377 -0.1284  0.2783  0.2575
10617SOL    HW134744   8.649   7.226   3.402  0.7876 -0.0689 -2.4574
10617SOL    HW234745   8.627   7.374   3.424  1.4422 -0.3023  0.0895
10618SOL     OW34746   1.218   9.310   8.774 -0.2488  0.2609 -0.3274
10618SOL    HW134747   1.251   9.319   8.863 -0.4764 -0.7831 -0.1201
10618SOL    HW234748   1.130   9.274   8.785 -0.0692 -0.3972 -0.9910
10619SOL     OW34749   2.267   8.550   2.783  0.9187  0.4984 -0.4824
10619SOL    HW134750   2.232   8.464   2.805  1.2056  0.3642 -0.5461
10619SOL    HW234751   2.351   8.555   2.830  1.0187  0.6433 -0.6720
10620SOL     OW34752   1.704   7.457   0.865 -0.0436 -0.3525  0.2872
10620SOL    HW134753   1.780   7.433   0.811 -0.5290 -0.3360 -0.4096
10620SOL    HW234754   1.741   7.474   0.952  0.9371  0.8983 -0.3351
10621SOL     OW34755   5.682   9.058   6.614  0.1539 -0.0140  0.5558
10621SOL    HW134756   5.705   9.009   6.535  1.6550 -1.0187  1.5653
10621SOL    HW234757   5.662   9.146   6.582 -0.5484 -0.7247 -1.0688
10622SOL     OW34758   6.115   1.769   8.851 -0.0754 -0.7807  0.2016
10622SOL    HW134759   6.192   1.825   8.843 -0.6862  0.0350 -0.1232
10622SOL    HW234760   6.129   1.698   8.789 -0.0152 -0.1152 -0.5611
10623SOL     OW34761   2.935   1.170   6.513 -0.1040 -0.2433 -0.2821
10623SOL    HW134762   2.926   1.262   6.487  1.7423  0.1355  0.2884
10623SOL    HW234763   2.846   1.143   6.535 -0.6781  1.4232 -0.4032
10624SOL     OW34764   4.151   3.215   6.325  0.5397  0.2479  0.2139
10624SOL    HW134765   4.247   3.223   6.328  0.7516 -1.8713  1.6089
10624SOL    HW234766   4.135   3.135   6.275 -0.4445  0.0216  0.8666
10625SOL     OW34767   6.447  10.374   8.128 -0.0359 -0.5931 -0.5926
10625SOL    HW134768   6.384  10.388   8.198 -0.7583  1.1141 -1.5419
10625SOL    HW234769   6.526  10.342   8.173  0.2057  2.3436  1.2859
10626SOL     OW34770   6.361   6.151   2.841  0.0292  0.0588 -0.4278
10626SOL    HW134771   6.393   6.236   2.811 -0.0283 -0.1030 -0.9571
10626SOL    HW234772   6.388   6.146   2.933  2.5975 -0.5594 -1.1340
10627SOL     OW34773   8.708   7.553   4.213  0.6460  0.2389  0.4270
10627SOL    HW134774   8.749   7.639   4.201  0.8215  0.1915  0.6728
10627SOL    HW234775   8.752   7.496   4.150 -0.5286  0.6681 -0.8263
10628SOL     OW34776   7.967   5.554   9.929 -0.4478  0.0949  0.6055
10628SOL    HW134777   7.957   5.626   9.867  2.4278 -0.7320 -0.9689
10628SOL    HW234778   8.017   5.591  10.001 -0.3041  0.0681  0.5200
10629SOL     OW34779   4.881   0.977  10.621 -0.4868 -0.6951  0.0529
10629SOL    HW134780   4.940   1.051  10.635 -0.3813 -0.9253  0.8686
10629SOL    HW234781   4.939   0.905  10.595 -0.7661 -0.0095 -2.8526
10630SOL     OW34782   0.334   9.404   1.660 -0.5784 -0.5314  0.9340
10630SOL    HW134783   0.346   9.401   1.755 -0.5869  0.4922  0.9866
10630SOL    HW234784   0.356   9.494   1.637 -0.8547 -0.6959  0.0027
10631SOL     OW34785   2.308   7.472   8.064  0.0468 -0.1713 -0.7782
10631SOL    HW134786   2.319   7.513   8.150  0.1109  1.0581 -1.3647
10631SOL    HW234787   2.379   7.408   8.059 -0.0797 -0.4082  0.1637
10632SOL     OW34788   5.153   5.866   6.390  0.4422  0.2294 -0.0304
10632SOL    HW134789   5.086   5.816   6.437 -0.1403 -1.0680 -2.1008
10632SOL    HW234790   5.103   5.924   6.333  0.9843 -0.9833 -1.8455
10633SOL     OW34791   3.502   7.513   4.306  0.2952 -0.3694 -0.1721
10633SOL    HW134792   3.413   7.488   4.332 -0.6143  2.4000 -0.2824
10633SOL    HW234793   3.557   7.478   4.376 -1.2965  0.6648  1.7055
10634SOL     OW34794   5.484   0.196   9.480  0.0093  0.2905  0.4356
10634SOL    HW134795   5.483   0.291   9.491 -0.4862  0.3871 -0.3532
10634SOL    HW234796   5.406   0.177   9.427  0.5652 -0.4532 -0.1392
10635SOL     OW34797   1.108   7.285   2.024  0.1214  0.2025  0.0819
10635SOL    HW134798   1.037   7.341   1.993  1.0910  0.7247 -1.3441
10635SOL    HW234799   1.068   7.200   2.038 -0.8776  0.6178 -0.1877
10636SOL     OW34800   1.255   3.192   0.298 -0.6032  0.2959 -0.1376
10636SOL    HW134801   1.300   3.109   0.308 -3.2089 -1.4940 -1.8518
10636SOL    HW234802   1.276   3.220   0.209  0.0739  1.4163  0.3474
10637SOL     OW34803   5.936   6.514   4.602 -0.4699  0.2803 -0.4515
10637SOL    HW134804   6.006   6.579   4.590 -1.1481  0.8265 -1.6551
10637SOL    HW234805   5.855   6.562   4.581 -0.8579 -1.3719 -3.1493
10638SOL     OW34806   5.383   4.050   4.446 -0.1811  0.0272  0.0740
10638SOL    HW134807   5.470   4.048   4.484 -0.1655  0.0635  0.0397
10638SOL    HW234808   5.332   4.108   4.503 -1.0254 -2.3555  1.9123
10639SOL     OW34809   3.035   5.787   5.509  0.5193 -0.2946 -0.6075
10639SOL    HW134810   2.970   5.769   5.441  0.3925  1.0424 -0.8788
10639SOL    HW234811   3.075   5.702   5.527 -3.3276 -1.8761  1.7611
10640SOL     OW34812   9.093   7.159   9.243  0.0693 -1.0953 -0.1580
10640SOL    HW134813   9.008   7.142   9.201  0.1862 -1.4772 -0.2499
10640SOL    HW234814   9.074   7.156   9.337  0.0329 -1.4739 -0.1747
10641SOL     OW34815   4.854   4.270   5.169 -1.0542 -0.3512 -0.0486
10641SOL    HW134816   4.937   4.250   5.212 -1.5465  1.6597  2.0162
10641SOL    HW234817   4.828   4.187   5.128  1.5978 -1.2023 -0.2033
10642SOL     OW34818   5.565   2.559  10.315  0.2068  0.7474 -0.2469
10642SOL    HW134819   5.526   2.541  10.230  1.3144  0.1101 -0.6457
10642SOL    HW234820   5.542   2.650  10.333 -1.9379  0.2393 -0.1529
10643SOL     OW34821   6.032   5.576  10.616 -0.6033  0.5636  0.1153
10643SOL    HW134822   5.982   5.548  10.693  0.2135 -1.1256  0.0623
10643SOL    HW234823   6.057   5.666  10.636  0.5519 -0.1909  2.3556
10644SOL     OW34824   4.506   7.557   7.501 -0.0736  0.0144  0.2770
10644SOL    HW134825   4.506   7.602   7.586  0.2791  0.6736 -0.0654
10644SOL    HW234826   4.541   7.622   7.440 -2.5641  0.4001 -0.8345
10645SOL     OW34827   8.627   9.097   2.416 -0.4912  0.5300  0.2206
10645SOL    HW134828   8.628   9.044   2.496 -0.7393 -0.4942 -0.4303
10645SOL    HW234829   8.685   9.170   2.435 -1.0438  0.6422  1.5574
10646SOL     OW34830   5.486   1.983  10.304 -0.1998 -0.1516  0.2459
10646SOL    HW134831   5.420   2.051  10.305 -0.2466 -0.2029  0.9063
10646SOL    HW234832   5.567   2.029  10.281 -0.2080  0.1498  0.8059
10647SOL     OW34833   1.496   1.237   7.502  0.0860  0.1932  0.2034
10647SOL    HW134834   1.462   1.275   7.583 -0.5481  0.1159 -0.0222
10647SOL    HW234835   1.493   1.143   7.516 -1.0178  0.1399 -0.2917
10648SOL     OW34836  10.059   1.429   7.800  0.0218  0.3844 -0.1885
10648SOL    HW134837  10.017   1.391   7.877 -0.8870 -0.7358 -1.2068
10648SOL    HW234838  10.002   1.502   7.775 -0.1816  0.1811 -0.3245
10649SOL     OW34839   4.788   2.973   9.711  0.9119 -0.1492  0.1046
10649SOL    HW134840   4.816   2.971   9.803  0.3641  0.0456  0.2802
10649SOL    HW234841   4.822   2.892   9.674  2.1714  0.3389  0.1680
10650SOL     OW34842   4.365   0.256   1.325 -0.1632 -0.1966 -0.4717
10650SOL    HW134843   4.412   0.233   1.245  1.9944  2.9229 -0.2552
10650SOL    HW234844   4.306   0.327   1.299 -0.4898 -0.1201  0.4393
10651SOL     OW34845   9.756   6.267   4.894  0.0630  0.2477 -0.1407
10651SOL    HW134846   9.683   6.329   4.891  0.5233  0.8323  0.4108
10651SOL    HW234847   9.833   6.321   4.876  0.4472 -0.2067  0.1402
10652SOL     OW34848   3.910   4.400   2.998 -0.2275 -0.1775  0.2927
10652SOL    HW134849   3.991   4.351   3.004 -0.1843 -0.1618 -0.1037
10652SOL    HW234850   3.861   4.377   3.077  0.3935  0.2329  0.8064
10653SOL     OW34851   9.035   8.887   1.312  0.0078  0.4838  0.2605
10653SOL    HW134852   8.988   8.936   1.379 -2.5555 -0.8676 -0.4489
10653SOL    HW234853   9.121   8.871   1.350 -0.2702  2.4476  1.8974
10654SOL     OW34854   4.465   5.983  10.699 -0.0699 -0.9053  0.2265
10654SOL    HW134855   4.506   6.030  10.626  0.6900  0.4531  1.4840
10654SOL    HW234856   4.453   5.894  10.666  3.0011 -1.1358 -0.5895
10655SOL     OW34857   8.212   1.820   4.307  0.0951 -0.5236 -0.0776
10655SOL    HW134858   8.217   1.907   4.345  2.9906 -0.9284  0.6922
10655SOL    HW234859   8.263   1.764   4.366 -0.0809 -2.3444 -1.5270
10656SOL     OW34860   6.104   4.418   8.611  0.3450 -0.1082  0.5332
10656SOL    HW134861   6.024   4.432   8.662  0.8098  1.0036  0.9866
10656SOL    HW234862   6.073   4.391   8.524 -0.5106  0.2287  0.7288
10657SOL     OW34863   7.795   4.350   3.834 -0.1789  0.2299  0.0793
10657SOL    HW134864   7.784   4.335   3.740  2.6205 -0.7462 -0.1940
10657SOL    HW234865   7.814   4.264   3.870  1.8883  1.0081  0.9823
10658SOL     OW34866  10.304   3.483   3.698 -0.3575  0.0497  0.0988
10658SOL    HW134867  10.355   3.492   3.618 -1.0515  0.1839 -0.3306
10658SOL    HW234868  10.225   3.534   3.683 -0.7694 -0.4119  0.6368
10659SOL     OW34869   9.506   8.286   8.118  0.2139 -0.1770 -0.0238
10659SOL    HW134870   9.596   8.318   8.124  0.3823 -0.5345 -0.6109
10659SOL    HW234871   9.453   8.359   8.151  0.7420 -0.1242  0.7261
10660SOL     OW34872   9.808   3.391   3.508 -0.7480 -0.1839 -0.4574
10660SOL    HW134873   9.845   3.319   3.560 -0.1638 -0.2303 -0.9203
10660SOL    HW234874   9.878   3.413   3.446 -1.0390  0.5774 -0.5228
10661SOL     OW34875   4.272   2.252   5.148  0.2196 -0.1026  0.0016
10661SOL    HW134876   4.201   2.222   5.204  1.2144  0.5110  1.6454
10661SOL    HW234877   4.228   2.309   5.084 -1.0865 -1.7264 -0.6088
10662SOL     OW34878   4.544   2.077   7.741 -0.3662  0.3516  0.2994
10662SOL    HW134879   4.616   2.139   7.727  0.8042 -0.2938  2.9394
10662SOL    HW234880   4.465   2.132   7.735  0.4776  1.5712 -0.1220
10663SOL     OW34881   8.415   3.911   2.988  0.1268  0.0743 -0.2291
10663SOL    HW134882   8.371   3.909   2.903 -1.0693 -0.2516  0.3681
10663SOL    HW234883   8.505   3.885   2.969  0.0439  0.6070 -1.4751
10664SOL     OW34884   7.994   5.626   5.952  0.0281 -0.1154 -0.2219
10664SOL    HW134885   7.998   5.596   6.043  0.3210  1.6115  0.3858
10664SOL    HW234886   7.904   5.657   5.941  0.1355  0.1634 -0.3401
10665SOL     OW34887   7.275   4.072   4.561  0.3751 -0.1905  0.2430
10665SOL    HW134888   7.366   4.091   4.536  0.5961 -1.2397  0.1821
10665SOL    HW234889   7.269   3.976   4.555 -1.3452 -0.0179 -1.9134
10666SOL     OW34890   8.512   0.903   8.611 -0.2395 -0.0532 -0.7022
10666SOL    HW134891   8.595   0.931   8.650  0.2988  0.7399 -2.3301
10666SOL    HW234892   8.454   0.978   8.622 -0.2377 -0.0139 -0.9411
10667SOL     OW34893   7.680   4.905   1.319  0.2614  0.4978 -0.3203
10667SOL    HW134894   7.625   4.902   1.241 -1.3512 -2.5701  0.7833
10667SOL    HW234895   7.665   4.993   1.355 -2.0940  0.5865 -1.3376
10668SOL     OW34896   9.110   0.877   3.024 -0.3763 -0.3205 -0.4550
10668SOL    HW134897   9.031   0.863   3.075  1.0696 -1.6257  1.5959
10668SOL    HW234898   9.131   0.790   2.989  0.6797 -0.2332 -0.0898
10669SOL     OW34899   7.536   3.183   7.142  0.1765  0.4414  0.4135
10669SOL    HW134900   7.482   3.172   7.220 -1.0267  0.3694 -0.3852
10669SOL    HW234901   7.625   3.193   7.174 -0.3836  1.1023  1.8288
10670SOL     OW34902   4.668   5.918   5.553  0.0734  0.1955 -0.1693
10670SOL    HW134903   4.731   5.868   5.605  0.2569 -0.1227 -0.6894
10670SOL    HW234904   4.665   5.873   5.468 -2.3485 -1.0285  0.4597
10671SOL     OW34905   6.870   0.065   0.205  0.3018  0.0799  0.3633
10671SOL    HW134906   6.897   0.130   0.270  1.3438 -0.6045  0.6361
10671SOL    HW234907   6.913  -0.016   0.233 -1.3795 -0.8733  0.3205
10672SOL     OW34908   0.642   8.006   1.243 -0.5507 -0.3253  0.1273
10672SOL    HW134909   0.598   7.926   1.271  1.3259 -1.0114  1.3336
10672SOL    HW234910   0.654   8.056   1.324  0.5684 -0.0356 -0.1947
10673SOL     OW34911   2.142   5.016   2.548 -0.7477 -0.3092 -0.6507
10673SOL    HW134912   2.170   5.026   2.639  1.3918 -0.5696 -1.2477
10673SOL    HW234913   2.084   4.940   2.549 -0.1152 -0.7954  0.3673
10674SOL     OW34914   1.005   5.804  10.023 -0.6941  0.3566  0.1460
10674SOL    HW134915   1.081   5.747  10.017 -0.1226  1.1251 -0.0511
10674SOL    HW234916   0.982   5.805  10.116 -0.0864  0.6017  0.2982
10675SOL     OW34917   2.008   3.989  10.645 -0.0377 -0.0354  0.3033
10675SOL    HW134918   1.933   4.023  10.693  0.3214 -0.4383  1.1918
10675SOL    HW234919   1.972   3.923  10.586 -0.3385 -0.5585  1.0607
10676SOL     OW34920   5.247   2.647   6.966 -0.4640 -0.1208  0.1113
10676SOL    HW134921   5.329   2.627   6.920  1.5634  0.0110  3.3946
10676SOL    HW234922   5.235   2.741   6.953  2.0669  0.6947  2.5079
10677SOL     OW34923   8.000   1.553   8.930  0.2545 -0.0909  0.0505
10677SOL    HW134924   7.912   1.589   8.927  0.5125  0.7101  1.4826
10677SOL    HW234925   8.006   1.510   9.016  1.2418 -0.1855 -0.0522
10678SOL     OW34926   8.186   9.792   4.816  0.0676 -0.1016 -0.1671
10678SOL    HW134927   8.214   9.731   4.885  1.0617 -0.2872 -0.7202
10678SOL    HW234928   8.215   9.878   4.848  1.8663 -0.3560 -0.9947
10679SOL     OW34929   2.648   9.797   5.213 -0.2749  0.3559  0.1229
10679SOL    HW134930   2.569   9.808   5.160  0.2083  0.1410 -0.6753
10679SOL    HW234931   2.643   9.865   5.279 -1.7146 -0.4239  0.8434
10680SOL     OW34932   1.225   5.909   0.959  0.0336  0.0712  0.1732
10680SOL    HW134933   1.137   5.911   0.997 -0.6238  0.0991 -1.3017
10680SOL    HW234934   1.215   5.859   0.878  0.7043  2.6184 -1.5910
10681SOL     OW34935   5.187   3.017   0.639  0.6270 -0.0141  0.5420
10681SOL    HW134936   5.183   3.027   0.543 -1.5489  2.9732  0.7767
10681SOL    HW234937   5.115   2.958   0.660  1.4958 -1.1795  0.3571
10682SOL     OW34938   0.727   1.212   9.628  0.2989 -0.3861  0.5219
10682SOL    HW134939   0.638   1.223   9.660  0.2336 -0.3328  0.3176
10682SOL    HW234940   0.780   1.209   9.708  0.2777  0.9956  0.6165
10683SOL     OW34941  10.619   5.112   0.457 -0.4379 -0.3012 -0.2398
10683SOL    HW134942  10.663   5.100   0.541  1.1796 -0.8857 -1.1395
10683SOL    HW234943  10.530   5.139   0.481  0.7192  2.3749  1.6563
10684SOL     OW34944   9.109   5.029   9.567  0.3135  0.0415  0.8238
10684SOL    HW134945   9.142   4.973   9.496 -1.0223 -0.0634  0.2543
10684SOL    HW234946   9.116   5.118   9.532  0.4547  0.0603  0.8993
10685SOL     OW34947   7.242   2.981   9.410  0.3722  0.5404  0.5980
10685SOL    HW134948   7.318   2.938   9.371 -1.5070 -1.1929 -1.4252
10685SOL    HW234949   7.261   2.982   9.504  2.2250 -1.2403  0.3127
10686SOL     OW34950   0.571   6.598   4.543  0.0762  0.0889 -0.1270
10686SOL    HW134951   0.611   6.659   4.604  1.5134 -0.2993 -0.6410
10686SOL    HW234952   0.490   6.641   4.515  0.0327  0.8205  1.0743
10687SOL     OW34953   1.672   1.271   6.410 -0.0285 -0.0205 -0.0093
10687SOL    HW134954   1.693   1.184   6.444  0.5057  0.2978  0.5021
10687SOL    HW234955   1.688   1.330   6.483 -0.4457  0.5073 -0.3314
10688SOL     OW34956   3.892   9.942   3.246 -0.3203  0.1132  0.3181
10688SOL    HW134957   3.862   9.854   3.267  0.8696 -0.0930  1.2797
10688SOL    HW234958   3.874   9.952   3.152 -1.2750 -0.8123  0.3902
10689SOL     OW34959   2.575   2.492   4.349 -0.2155  0.4041  0.0860
10689SOL    HW134960   2.573   2.545   4.429 -1.3025  1.3480 -0.5269
10689SOL    HW234961   2.597   2.554   4.280 -0.5229 -0.1501 -0.5206
10690SOL     OW34962   2.698   9.263   5.276  0.6191 -0.7769 -0.1194
10690SOL    HW134963   2.769   9.327   5.274  0.4975 -0.6345 -2.0774
10690SOL    HW234964   2.622   9.311   5.244  0.0909 -1.4133  0.1623
10691SOL     OW34965   6.260  10.014  10.166 -0.1558  0.0374  0.6540
10691SOL    HW134966   6.299  10.073  10.230 -1.8293 -0.0393  1.7876
10691SOL    HW234967   6.298   9.928  10.185  0.7273  0.3421  0.3267
10692SOL     OW34968   0.374   0.186   2.526  0.8279  0.1554 -0.1736
10692SOL    HW134969   0.419   0.264   2.557 -0.0355  1.4991 -2.1271
10692SOL    HW234970   0.443   0.135   2.483  1.5149 -0.5242  1.6204
10693SOL     OW34971   6.724   7.935   0.360  0.2105  0.1633  0.3340
10693SOL    HW134972   6.798   7.897   0.407  0.0806  0.5994  0.9065
10693SOL    HW234973   6.764   7.997   0.298  0.3318  0.3055  0.5534
10694SOL     OW34974   5.460   3.240   0.503  0.0480 -0.6701  0.1336
10694SOL    HW134975   5.505   3.266   0.423 -0.4724  0.3065  0.1430
10694SOL    HW234976   5.489   3.151   0.519  2.6351  0.1874  0.6169
10695SOL     OW34977  10.614   3.614  10.576  0.1498  0.3391  0.3016
10695SOL    HW134978  10.605   3.622  10.671 -0.6707 -0.4396  0.3076
10695SOL    HW234979  10.706   3.632  10.558  0.3083  0.4979  1.2446
10696SOL     OW34980   2.308   3.016   4.493 -1.3023  0.0854  0.9767
10696SOL    HW134981   2.326   3.064   4.573 -0.3563 -0.3236  1.0202
10696SOL    HW234982   2.281   2.929   4.523 -1.8427  0.2124  0.8695
10697SOL     OW34983   2.584  10.345   7.561  0.0522  0.3429 -0.6989
10697SOL    HW134984   2.566  10.251   7.565 -0.5634  0.5163  1.0169
10697SOL    HW234985   2.628  10.365   7.643  0.5798  1.4955 -1.2367
10698SOL     OW34986   6.752   8.095   7.895 -0.0319 -0.1578  1.1280
10698SOL    HW134987   6.688   8.035   7.855  0.3867  0.6879 -0.9495
10698SOL    HW234988   6.832   8.043   7.904  0.0194 -0.2212  0.3404
10699SOL     OW34989  10.427   5.223   9.391 -0.9285  0.0923 -0.1545
10699SOL    HW134990  10.497   5.285   9.413 -1.4453  0.3371  0.8887
10699SOL    HW234991  10.373   5.219   9.471 -0.3222 -2.5132  0.2137
10700SOL     OW34992   6.340  10.694   8.216 -0.2604  0.4536 -0.1231
10700SOL    HW134993   6.351  10.603   8.245  1.3284 -0.0116 -1.9327
10700SOL    HW234994   6.277  10.732   8.277  0.2340 -1.4115  1.6447
10701SOL     OW34995   1.081   1.788   2.604 -0.7385 -0.3173  0.0244
10701SOL    HW134996   1.058   1.862   2.660 -0.9106 -0.4199  0.0925
10701SOL    HW234997   1.151   1.742   2.651  0.1963  0.4656 -0.5746
10702SOL     OW34998   9.957   0.072   2.300  0.3087 -0.1304  0.5245
10702SOL    HW134999   9.988   0.040   2.216  0.6239  2.2458 -0.3521
10702SOL    HW235000   9.903   0.001   2.335  1.4790 -1.7986 -0.9069
10703SOL     OW35001   6.792   8.639   2.281  0.0695 -0.1185  0.3359
10703SOL    HW135002   6.779   8.640   2.186  0.7508 -2.8375  0.1429
10703SOL    HW235003   6.827   8.726   2.301  1.5060 -0.0293 -2.1658
10704SOL     OW35004   6.006   2.385   9.352  0.0483  0.2709 -0.0588
10704SOL    HW135005   5.935   2.370   9.290 -0.2409 -0.2885  0.3974
10704SOL    HW235006   6.068   2.441   9.305 -0.3281  0.1338 -0.7280
10705SOL     OW35007  10.674   1.689   7.563 -0.1128  0.8196 -0.1517
10705SOL    HW135008  10.761   1.713   7.593 -0.0853  0.6914 -0.1305
10705SOL    HW235009  10.621   1.686   7.643  0.0920 -0.0932 -0.0385
10706SOL     OW35010   1.780   0.125   4.688  0.7991 -0.5246  0.3992
10706SOL    HW135011   1.861   0.075   4.702  1.6455  0.5396 -0.4945
10706SOL    HW235012   1.772   0.180   4.766  0.0033 -1.7882  1.2668
10707SOL     OW35013   2.448   7.641   4.830  0.3615  0.0654 -0.4436
10707SOL    HW135014   2.429   7.663   4.739 -0.2832 -0.4298 -0.4358
10707SOL    HW235015   2.369   7.667   4.878  0.8309  0.6504  0.0379
10708SOL     OW35016   3.922   4.556   3.840 -0.4955 -0.8220  0.6598
10708SOL    HW135017   3.846   4.535   3.893 -1.3057  0.0114 -0.1365
10708SOL    HW235018   3.910   4.506   3.759 -0.9399  0.3883 -0.0445
10709SOL     OW35019   9.189   9.284   2.225  0.4922 -0.0142 -0.0395
10709SOL    HW135020   9.098   9.289   2.255  0.6448  1.0156  0.3034
10709SOL    HW235021   9.227   9.211   2.274  0.1692  0.3186  0.7140
10710SOL     OW35022  10.788   9.618   7.193  0.3048  0.0449  0.5367
10710SOL    HW135023  10.797   9.529   7.160  1.5377  0.5091 -0.5215
10710SOL    HW235024  10.718   9.657   7.140  0.9677  0.2072 -0.2484
10711SOL     OW35025   5.352   0.105  10.373 -0.2112 -0.3893  0.1958
10711SOL    HW135026   5.300   0.081  10.450  0.7482  0.3874  1.1186
10711SOL    HW235027   5.439   0.069  10.391  0.7470  2.0439  0.7478
10712SOL     OW35028   4.431   0.376  10.629 -0.0720  0.4578 -0.4139
10712SOL    HW135029   4.466   0.364  10.717 -1.3434  0.8965  0.1761
10712SOL    HW235030   4.507   0.396  10.576  1.1325 -2.5223 -0.0019
10713SOL     OW35031   6.653   4.495   8.969 -0.7258  0.1971  0.2859
10713SOL    HW135032   6.715   4.491   9.042 -1.1525  1.1253  0.7153
10713SOL    HW235033   6.567   4.483   9.010 -1.0937  2.1056  0.1696
10714SOL     OW35034   1.879   6.836   6.955 -0.0212  0.2185 -0.0714
10714SOL    HW135035   1.923   6.784   7.023 -1.5385  0.2352  0.9811
10714SOL    HW235036   1.927   6.918   6.953 -0.1510  0.3537  1.2612
10715SOL     OW35037   5.974   9.501   1.055  0.5744 -0.6302 -0.4238
10715SOL    HW135038   6.005   9.584   1.092 -0.1303 -0.2165 -0.7357
10715SOL    HW235039   5.932   9.456   1.128 -1.8555  0.6932 -0.8968
10716SOL     OW35040   8.318   3.317   5.969  0.2821 -0.5660 -0.0857
10716SOL    HW135041   8.394   3.372   5.987  0.9634 -1.0524 -1.3733
10716SOL    HW235042   8.343   3.229   5.999 -0.6825 -0.3045  1.6633
10717SOL     OW35043   9.214   1.801   4.976 -0.5640  0.2916  0.2377
10717SOL    HW135044   9.266   1.871   5.015 -1.6000  1.3030 -0.1489
10717SOL    HW235045   9.278   1.748   4.928  0.5282 -0.1878  2.1399
10718SOL     OW35046  10.535   5.713   4.606 -0.7535 -0.2651  0.7773
10718SOL    HW135047  10.484   5.776   4.555  0.5501  0.7991  0.7160
10718SOL    HW235048  10.506   5.627   4.575 -0.3921  0.3382 -1.3925
10719SOL     OW35049   6.068   1.118   8.007 -0.2657 -0.2811 -0.0113
10719SOL    HW135050   6.024   1.056   7.949  0.1577 -1.0344  0.4632
10719SOL    HW235051   6.153   1.133   7.965 -0.2669 -0.2201  0.0082
10720SOL     OW35052   0.748   2.304   0.308  0.0687 -0.2615 -0.0347
10720SOL    HW135053   0.793   2.345   0.382  1.0066  0.9362 -1.2124
10720SOL    HW235054   0.815   2.249   0.267  0.6311  1.7168 -1.9371
10721SOL     OW35055   5.442   4.297   0.823 -0.3424  0.2315  0.4009
10721SOL    HW135056   5.485   4.277   0.907  0.6505 -0.8427 -0.3313
10721SOL    HW235057   5.472   4.385   0.801 -0.6652  0.5518  1.2011
10722SOL     OW35058   2.699   6.881   7.729  0.0132  0.6212 -0.7145
10722SOL    HW135059   2.645   6.960   7.730 -1.1763 -0.1679  0.0878
10722SOL    HW235060   2.687   6.845   7.641 -0.2619  0.7858 -0.7453
10723SOL     OW35061   9.497   3.465   2.836  0.3532  0.0751  0.0869
10723SOL    HW135062   9.488   3.386   2.888 -0.6472 -0.0857 -0.3188
10723SOL    HW235063   9.465   3.535   2.893  1.0437  0.1666  0.3700
10724SOL     OW35064   8.929   5.945   3.982 -0.0308  0.0944  0.4598
10724SOL    HW135065   8.915   5.940   3.887 -0.4396  2.5075  0.3235
10724SOL    HW235066   8.863   5.885   4.019 -0.1272 -0.5760 -0.7456
10725SOL     OW35067   4.444   9.027   4.008  0.0565 -0.2742  0.6215
10725SOL    HW135068   4.452   8.954   3.946  2.4169  1.5161 -1.4066
10725SOL    HW235069   4.519   9.017   4.066 -0.1617 -0.0030  0.9484
10726SOL     OW35070   9.035   0.014   1.319  0.1088 -0.4509  0.0003
10726SOL    HW135071   9.025   0.072   1.244  0.8339  0.1416  0.3475
10726SOL    HW235072   8.948  -0.025   1.332 -0.1946 -0.0154 -0.6938
10727SOL     OW35073   5.811   1.250  10.524  0.0445 -0.2263  0.1466
10727SOL    HW135074   5.846   1.262  10.436  1.2642  1.9093  0.8406
10727SOL    HW235075   5.876   1.197  10.569  1.5058  2.0018  0.8310
10728SOL     OW35076   7.294   7.905   7.635 -0.2875  0.4227 -0.4134
10728SOL    HW135077   7.355   7.840   7.599 -0.3810 -0.2475  0.6004
10728SOL    HW235078   7.208   7.867   7.623 -0.3780  0.5657 -0.2355
10729SOL     OW35079   9.574   8.171   2.205  0.3788  0.0645 -0.0100
10729SOL    HW135080   9.518   8.146   2.279 -0.4665  1.0018 -0.3082
10729SOL    HW235081   9.625   8.245   2.237 -1.5017  1.8706 -0.9418
10730SOL     OW35082   4.122   0.004  10.414  0.0598  0.2204 -0.4769
10730SOL    HW135083   4.119  -0.052  10.492 -2.0302  1.1481  0.1651
10730SOL    HW235084   4.212   0.039  10.414  0.0182  0.4984  1.7725
10731SOL     OW35085   7.211   9.386   9.789 -0.1207  0.1244  0.3843
10731SOL    HW135086   7.178   9.297   9.796 -1.1018  0.2410 -1.7623
10731SOL    HW235087   7.276   9.382   9.719 -1.8662  1.4249 -1.4579
10732SOL     OW35088   4.783   6.141   1.609 -0.4089 -0.1987  0.0701
10732SOL    HW135089   4.701   6.181   1.638  0.6564  0.5744  2.2200
10732SOL    HW235090   4.851   6.189   1.656  1.3274 -0.6561 -1.8468
10733SOL     OW35091   3.869   3.984  10.423 -0.2360  0.4305 -0.1253
10733SOL    HW135092   3.936   4.052  10.419  0.0192  0.1402 -1.0246
10733SOL    HW235093   3.860   3.953  10.333  0.2044 -1.2446  0.3628
10734SOL     OW35094   7.360  10.537   6.532 -0.1331 -0.0557  0.2891
10734SOL    HW135095   7.447  10.550   6.495  0.5753 -0.6492  1.6761
10734SOL    HW235096   7.300  10.554   6.459  1.2144 -2.1511 -1.4436
10735SOL     OW35097   3.598   3.140   5.046 -0.2707 -0.0797 -0.1059
10735SOL    HW135098   3.552   3.207   5.097  1.6069  0.1672  1.3341
10735SOL    HW235099   3.557   3.145   4.959 -1.4157  1.6476  0.4772
10736SOL     OW35100   9.992   2.109   4.737 -0.4268  0.2903  0.0328
10736SOL    HW135101  10.016   2.070   4.652 -1.2833  1.9057 -1.0004
10736SOL    HW235102   9.922   2.053   4.770  0.7615 -1.0888  0.3144
10737SOL     OW35103   2.028   2.281   4.356  0.1970  0.0855 -0.0665
10737SOL    HW135104   2.022   2.242   4.269 -0.4902 -2.0160  0.8399
10737SOL    HW235105   2.090   2.224   4.403  2.7978  2.7852  0.0883
10738SOL     OW35106   8.555   1.147   0.093  0.0384  0.0637  0.0934
10738SOL    HW135107   8.561   1.239   0.065 -3.0486 -0.0024 -1.1680
10738SOL    HW235108   8.543   1.098   0.011  0.9184 -1.4372  0.8094
10739SOL     OW35109  10.269   3.705   5.668 -0.5202 -0.1015 -0.1396
10739SOL    HW135110  10.222   3.624   5.647 -0.7141  0.1259 -0.6137
10739SOL    HW235111  10.200   3.771   5.676 -0.2858  0.2829 -1.0777
10740SOL     OW35112   8.992   5.226   6.448  0.3078  0.1155  0.2542
10740SOL    HW135113   8.900   5.217   6.473 -0.1203  2.8172 -0.1241
10740SOL    HW235114   9.040   5.225   6.532  0.0517 -1.6574  0.4347
10741SOL     OW35115   2.499   4.116   2.582  0.6168  0.1307  0.2530
10741SOL    HW135116   2.590   4.094   2.604  0.8359  0.1650 -0.5899
10741SOL    HW235117   2.462   4.035   2.548  0.6284  0.3676 -0.3307
10742SOL     OW35118   4.698   1.304   3.476 -0.2802 -0.5430  0.1056
10742SOL    HW135119   4.648   1.309   3.557  0.6690 -0.8957  0.7378
10742SOL    HW235120   4.662   1.373   3.421 -0.5352  0.1193  1.0717
10743SOL     OW35121   1.693   5.338   0.248 -0.3892 -0.1420  0.1807
10743SOL    HW135122   1.636   5.350   0.172  0.1284 -0.7521 -0.3123
10743SOL    HW235123   1.765   5.284   0.216  0.7528  1.0475  0.6453
10744SOL     OW35124   7.837   9.835   7.723 -0.0224  0.7840  0.4043
10744SOL    HW135125   7.820   9.886   7.644 -0.2566 -0.1382 -0.1453
10744SOL    HW235126   7.933   9.834   7.730 -0.0215  1.8636  0.8094
10745SOL     OW35127   9.093   8.261   0.282  0.1222  0.6079  0.4349
10745SOL    HW135128   9.136   8.346   0.293 -0.1426  0.4029  4.3138
10745SOL    HW235129   9.150   8.200   0.328 -1.2641 -0.7671  0.3859
10746SOL     OW35130   0.166   6.081   1.698 -0.0494 -0.3006 -0.0327
10746SOL    HW135131   0.192   6.169   1.672  0.9566 -0.1553  1.3553
10746SOL    HW235132   0.116   6.047   1.623 -0.6726  1.5187 -0.4846
10747SOL     OW35133   3.923   2.808   6.009 -0.4232 -0.0191 -0.2027
10747SOL    HW135134   3.895   2.772   5.925 -1.1853 -1.9699  0.8263
10747SOL    HW235135   3.881   2.753   6.075  2.1515 -0.1886  1.4657
10748SOL     OW35136   6.809   4.370   0.087 -0.1319  0.0473 -0.1623
10748SOL    HW135137   6.754   4.398   0.159 -2.4903 -2.5347 -0.8015
10748SOL    HW235138   6.893   4.413   0.103 -1.4173  1.8537  2.4585
10749SOL     OW35139   9.250   0.184   3.916  0.1163 -0.1749 -0.7182
10749SOL    HW135140   9.300   0.103   3.923  0.6473  0.1744 -0.3792
10749SOL    HW235141   9.159   0.157   3.927  0.2259 -0.8199 -1.3436
10750SOL     OW35142   0.812   2.574   8.526 -0.3908  0.0712  0.3748
10750SOL    HW135143   0.760   2.523   8.464 -0.7443 -0.7290  1.3049
10750SOL    HW235144   0.760   2.652   8.542 -0.4798  0.0995 -0.0344
10751SOL     OW35145   6.883   1.940   4.498  0.2905 -0.0449  0.1968
10751SOL    HW135146   6.901   1.859   4.545 -1.2141 -0.5520 -0.0408
10751SOL    HW235147   6.817   1.916   4.432  0.2783  1.2339 -0.2975
10752SOL     OW35148   5.479   1.049   2.810 -0.1888  0.0781 -0.0097
10752SOL    HW135149   5.431   1.061   2.728 -0.0066  0.5031 -0.0573
10752SOL    HW235150   5.560   1.097   2.797  0.1647 -0.4727  0.1486
10753SOL     OW35151   5.206   2.953  10.323  0.1845 -0.3617  0.4421
10753SOL    HW135152   5.243   3.041  10.325  1.1815 -0.7761  0.8862
10753SOL    HW235153   5.267   2.900  10.375  0.1403 -1.5171 -0.6365
10754SOL     OW35154   9.063   5.827   0.302  0.0647  0.3119  0.5022
10754SOL    HW135155   9.052   5.920   0.283 -2.2404  0.1787  0.9585
10754SOL    HW235156   9.064   5.822   0.398  1.5513 -0.0379  0.5018
10755SOL     OW35157   6.228   0.347   3.535  0.0429 -0.6351 -0.3248
10755SOL    HW135158   6.148   0.396   3.519 -1.2278 -2.4886  0.0077
10755SOL    HW235159   6.218   0.267   3.483  1.9121 -0.6877 -0.6576
10756SOL     OW35160   5.449   7.714   6.255 -0.4370 -0.0861 -0.1756
10756SOL    HW135161   5.367   7.702   6.207 -0.7602 -0.7158  0.5171
10756SOL    HW235162   5.502   7.770   6.198  0.0081 -2.4537 -2.2890
10757SOL     OW35163   0.574   6.521  10.243  0.6661  0.1284 -0.2205
10757SOL    HW135164   0.530   6.569  10.173  0.5297 -2.2502 -1.9232
10757SOL    HW235165   0.512   6.451  10.266  1.0829  0.3466  1.6916
10758SOL     OW35166   0.042   8.752   5.643 -0.0618 -0.2841 -0.2374
10758SOL    HW135167   0.042   8.777   5.550  3.1371 -2.2916 -0.9289
10758SOL    HW235168   0.076   8.662   5.644 -1.2522 -0.8302  2.8336
10759SOL     OW35169   9.552   3.059  10.681  0.2540  0.6034 -0.2480
10759SOL    HW135170   9.513   2.987  10.731  1.9154  1.0763  1.9060
10759SOL    HW235171   9.573   3.021  10.596 -1.4744 -0.6240 -0.1741
10760SOL     OW35172   5.949   3.561   8.518 -0.3090  0.0934 -0.4231
10760SOL    HW135173   5.998   3.509   8.453  3.3253 -0.5639  2.4891
10760SOL    HW235174   5.896   3.497   8.565  1.6717 -0.5762  1.0287
10761SOL     OW35175   3.351   2.247   9.287 -0.5626 -0.1870  0.2520
10761SOL    HW135176   3.430   2.299   9.273  0.3203 -1.5243  0.0413
10761SOL    HW235177   3.307   2.289   9.360 -0.1756  1.1609 -0.2514
10762SOL     OW35178   5.900   3.287   6.432 -0.1393 -0.0364 -0.7569
10762SOL    HW135179   5.862   3.247   6.354  1.0889  0.4450 -1.6340
10762SOL    HW235180   5.977   3.233   6.453 -0.2919  0.0053 -0.0483
10763SOL     OW35181   2.289   5.260   6.332 -0.0153  0.2801 -0.4107
10763SOL    HW135182   2.197   5.251   6.354  0.3584  0.2803  1.2907
10763SOL    HW235183   2.325   5.171   6.342 -0.0751 -0.0406 -2.5041
10764SOL     OW35184   4.423   1.033   3.261 -0.3129 -0.1900  0.6272
10764SOL    HW135185   4.400   0.960   3.204  0.1481 -0.3941  0.6973
10764SOL    HW235186   4.465   0.992   3.336  0.2642  0.1672  0.5040
10765SOL     OW35187   1.441   5.110   9.404  0.0739  0.2097 -0.6289
10765SOL    HW135188   1.516   5.052   9.410 -0.5736 -0.5373  0.6120
10765SOL    HW235189   1.479   5.198   9.405  0.9615 -0.1637 -0.5820
10766SOL     OW35190   3.887   0.106   8.422  0.5891  0.2797 -0.1317
10766SOL    HW135191   3.828   0.114   8.497  0.2193  0.7719 -0.4648
10766SOL    HW235192   3.876   0.016   8.393  0.9812 -0.0108  0.6005
10767SOL     OW35193   2.615   8.439   8.527  0.3579 -0.4527 -0.0689
10767SOL    HW135194   2.558   8.515   8.537  1.4540  0.4641 -0.5397
10767SOL    HW235195   2.577   8.390   8.454 -1.1790 -1.1593  1.1540
10768SOL     OW35196   7.004   1.575   1.268 -0.0066  0.0717 -0.3140
10768SOL    HW135197   7.080   1.534   1.310  1.2780  1.4750 -1.2052
10768SOL    HW235198   6.985   1.518   1.194  0.1476 -0.3052 -0.0720
10769SOL     OW35199   9.262   0.182   4.947  0.0272 -0.2863 -0.1156
10769SOL    HW135200   9.199   0.120   4.984  1.4956 -1.4604  0.5153
10769SOL    HW235201   9.285   0.145   4.862  0.4561 -0.3059  0.0048
10770SOL     OW35202   7.857   8.478   3.088  0.1078  0.7295  0.3826
10770SOL    HW135203   7.824   8.462   3.176  0.5242  0.4806  0.4982
10770SOL    HW235204   7.873   8.572   3.085 -2.3570  1.2040 -0.3012
10771SOL     OW35205   8.374  10.512   9.415 -0.5469  0.3012  0.3816
10771SOL    HW135206   8.319  10.563   9.356  2.4864  2.6902 -0.6787
10771SOL    HW235207   8.382  10.567   9.494  0.2503 -0.0055  0.5229
10772SOL     OW35208   9.178  10.624   5.361  0.0363 -0.4815  0.3794
10772SOL    HW135209   9.091  10.618   5.320 -0.1497  0.5156  0.6082
10772SOL    HW235210   9.168  10.691   5.428  0.8139 -0.8382  0.8626
10773SOL     OW35211   7.099   3.552   0.669 -0.2189 -0.2318 -0.2841
10773SOL    HW135212   7.150   3.631   0.685 -0.6102 -0.1274  0.4801
10773SOL    HW235213   7.140   3.512   0.592  0.6673  0.1286 -0.0069
10774SOL     OW35214   3.585   2.671   4.765  0.2329 -0.3902 -0.2983
10774SOL    HW135215   3.508   2.638   4.810 -0.6020  1.7748 -0.0281
10774SOL    HW235216   3.565   2.659   4.672 -0.9173  1.0512 -0.2764
10775SOL     OW35217   1.339   6.130   8.485 -0.7275  0.0933  0.2693
10775SOL    HW135218   1.254   6.169   8.462  0.3212  2.0963 -0.4898
10775SOL    HW235219   1.328   6.101   8.575 -1.8872  1.3997  0.5856
10776SOL     OW35220   6.783  10.408   3.039  0.0991  0.0042 -0.3207
10776SOL    HW135221   6.836  10.349   2.986  0.8443 -1.3412  1.7913
10776SOL    HW235222   6.730  10.349   3.094  0.7445  1.2334  1.7341
10777SOL     OW35223   6.609  10.014   0.568 -0.1041 -0.5846 -0.2603
10777SOL    HW135224   6.516   9.997   0.578 -0.0514  0.0334  1.5000
10777SOL    HW235225   6.616  10.110   0.571  0.6991 -0.6677  0.8437
10778SOL     OW35226   4.635   3.570   5.204  0.1149  0.3174  0.1041
10778SOL    HW135227   4.553   3.581   5.155  0.3316  1.6220 -0.0167
10778SOL    HW235228   4.684   3.651   5.186  0.8910  0.1018  1.1751
10779SOL     OW35229   3.575   1.705   0.048  0.2773  0.5967 -0.2147
10779SOL    HW135230   3.578   1.800   0.037  0.8877  0.4367 -1.7340
10779SOL    HW235231   3.519   1.674  -0.023  0.1720 -0.1924  0.2003
10780SOL     OW35232   3.474   0.581   9.872  0.1550 -0.5857  0.2831
10780SOL    HW135233   3.458   0.585   9.966 -0.1800 -1.3974  0.2620
10780SOL    HW235234   3.439   0.664   9.839 -0.0884 -0.4714  0.8163
10781SOL     OW35235   6.017   3.504   9.562  0.1843  0.2952  0.4419
10781SOL    HW135236   6.014   3.594   9.529  1.0388  0.0822 -0.2744
10781SOL    HW235237   6.037   3.513   9.655  0.5968  0.8502  0.3085
10782SOL     OW35238   5.102   0.387   4.755  0.2618 -0.1188  0.9436
10782SOL    HW135239   5.147   0.350   4.830  1.8471 -0.0936  0.0605
10782SOL    HW235240   5.158   0.367   4.680 -1.6446 -0.8498 -0.3859
10783SOL     OW35241   4.012   1.541   2.157 -0.6467  0.8992  0.1381
10783SOL    HW135242   3.996   1.489   2.236  0.5163  1.2288  0.6149
10783SOL    HW235243   3.946   1.511   2.095 -1.6345  0.6837  1.2592
10784SOL     OW35244   9.585   8.186   5.372  0.1142 -0.5260  0.1456
10784SOL    HW135245   9.560   8.227   5.289  0.2766  1.4476  1.0123
10784SOL    HW235246   9.510   8.132   5.396  0.8203 -2.6680 -2.1841
10785SOL     OW35247   2.864  10.237   6.885  0.2809  0.2847 -0.2417
10785SOL    HW135248   2.792  10.198   6.835 -0.3233  0.3386  0.5742
10785SOL    HW235249   2.864  10.190   6.968  2.5195 -1.1575 -0.9446
10786SOL     OW35250   1.426   7.025   2.359 -0.0052 -0.5405  0.6567
10786SOL    HW135251   1.430   6.989   2.447 -0.4965  1.9638  1.7717
10786SOL    HW235252   1.335   7.014   2.332  0.2249 -1.6430  0.2676
10787SOL     OW35253   7.573   2.552   6.828 -0.3919  0.0202  0.8911
10787SOL    HW135254   7.608   2.639   6.810  2.6689 -0.6688  2.7062
10787SOL    HW235255   7.586   2.503   6.747  0.5201  0.5122  0.7280
10788SOL     OW35256   1.969   8.690   0.363 -0.1577  0.4776  0.1045
10788SOL    HW135257   2.043   8.750   0.365  0.2059  0.0173  1.6739
10788SOL    HW235258   1.965   8.654   0.452 -0.8617 -1.2073 -0.5754
10789SOL     OW35259   9.663   0.375   2.671  0.5743 -0.2859 -0.6273
10789SOL    HW135260   9.690   0.284   2.679  1.8739  0.1280 -0.0788
10789SOL    HW235261   9.727   0.424   2.723 -0.0216  0.9518 -1.0188
10790SOL     OW35262   6.674   2.796   6.812 -0.0331 -0.0384  0.3756
10790SOL    HW135263   6.638   2.734   6.875 -0.5752 -1.3713 -1.1777
10790SOL    HW235264   6.645   2.764   6.727  1.6761  1.0060 -0.6643
10791SOL     OW35265   7.143   9.012   2.588  0.6876 -0.0924 -0.0802
10791SOL    HW135266   7.147   8.951   2.515  0.2855  0.3448 -0.4723
10791SOL    HW235267   7.057   8.997   2.628  0.4720  0.3970 -0.3449
10792SOL     OW35268   6.404   7.022   3.044  0.1515 -0.0329 -0.0393
10792SOL    HW135269   6.410   7.115   3.020  0.8990 -0.0130  0.1978
10792SOL    HW235270   6.378   7.022   3.136 -2.3913 -0.1083 -0.6703
10793SOL     OW35271   6.059   2.660   0.930 -0.7125 -0.2241 -0.5676
10793SOL    HW135272   6.073   2.586   0.871 -1.2563 -0.3218 -0.5742
10793SOL    HW235273   6.108   2.637   1.009 -1.0901 -0.7094 -0.4721
10794SOL     OW35274   4.495   4.427   8.889  0.2653 -0.7783 -0.0553
10794SOL    HW135275   4.496   4.352   8.949 -1.5055 -0.8720 -0.0945
10794SOL    HW235276   4.434   4.489   8.929  1.1197  0.3370 -0.4248
10795SOL     OW35277   7.159   2.211  10.048 -0.3547 -0.0463  0.3586
10795SOL    HW135278   7.167   2.289  10.102 -0.4530 -0.9449  1.7369
10795SOL    HW235279   7.151   2.139  10.111  0.5337 -1.2607 -0.8529
10796SOL     OW35280   4.554   1.986   0.635  0.5672  0.1414 -0.1473
10796SOL    HW135281   4.602   1.936   0.702  1.9637  0.8731 -0.5624
10796SOL    HW235282   4.606   1.974   0.556 -1.0912 -0.7515 -1.1493
10797SOL     OW35283   1.303   0.010   3.019 -0.5449 -0.4701 -0.0882
10797SOL    HW135284   1.250   0.090   3.013  1.4434  0.8442 -1.3696
10797SOL    HW235285   1.345   0.016   3.105  1.9422  1.5724 -1.2855
10798SOL     OW35286   1.966   4.951   1.829  0.3182 -0.1466 -0.2723
10798SOL    HW135287   2.016   5.016   1.877 -0.7613  0.0132  0.6828
10798SOL    HW235288   1.875   4.981   1.836  0.1103 -0.1409 -2.3783
10799SOL     OW35289   7.076   8.598   7.886 -0.4893  0.0325  0.0134
10799SOL    HW135290   7.063   8.541   7.810  1.0561 -0.9786  0.4583
10799SOL    HW235291   7.171   8.613   7.888 -0.1665 -1.6078  2.8572
10800SOL     OW35292   1.875   9.464   3.071  0.2655 -0.0310 -0.6752
10800SOL    HW135293   1.858   9.546   3.119 -0.3740 -1.0747  0.9611
10800SOL    HW235294   1.921   9.492   2.992  2.0134  1.7386  0.8640
10801SOL     OW35295   7.994  10.274   6.701  0.4987 -0.0295  0.1298
10801SOL    HW135296   7.961  10.184   6.702  0.7700 -0.1319  0.0576
10801SOL    HW235297   8.085  10.267   6.730 -0.0577  0.4745  2.1516
10802SOL     OW35298   1.359   5.473   4.693  0.0248 -0.8173  0.2075
10802SOL    HW135299   1.397   5.411   4.756  2.6566  0.1098 -0.3342
10802SOL    HW235300   1.265   5.461   4.701  0.3700 -2.8013  2.2054
10803SOL     OW35301   0.475   7.762   1.312  0.6164  0.0153  0.0484
10803SOL    HW135302   0.468   7.751   1.217  1.0463  1.3053 -0.1512
10803SOL    HW235303   0.515   7.680   1.342 -1.8893 -1.5500 -0.5095
10804SOL     OW35304  10.570   3.708   0.093 -0.5091 -0.7134  0.1531
10804SOL    HW135305  10.602   3.786   0.138  1.3021 -1.5120  0.3225
10804SOL    HW235306  10.477   3.726   0.079 -0.6500  0.5036  2.2090
10805SOL     OW35307   2.105   8.535   3.120  0.2311  0.5167 -0.9683
10805SOL    HW135308   2.175   8.482   3.157  0.5517  1.3656 -0.3425
10805SOL    HW235309   2.075   8.485   3.044  0.9727 -0.2346 -0.7778
10806SOL     OW35310   4.878   6.183   7.948  0.2502  0.2795  0.2118
10806SOL    HW135311   4.885   6.098   7.904 -2.0332  0.7651 -1.3036
10806SOL    HW235312   4.835   6.164   8.031  0.7780 -0.1682  0.3859
10807SOL     OW35313   8.129   3.865   2.994  0.0445  0.2393 -0.1110
10807SOL    HW135314   8.207   3.897   3.040  0.3742 -1.5450  0.6780
10807SOL    HW235315   8.072   3.833   3.064 -0.3148 -0.7212 -0.8234
10808SOL     OW35316   6.101   5.401   4.245 -0.7673 -0.4104 -0.8439
10808SOL    HW135317   6.083   5.495   4.241 -1.4776 -0.5040  0.0085
10808SOL    HW235318   6.072   5.374   4.332  1.1413 -1.0752 -0.3711
10809SOL     OW35319   6.551   6.136   1.188 -0.0507  0.2453  0.1419
10809SOL    HW135320   6.604   6.214   1.172  0.2165  0.2557  1.0111
10809SOL    HW235321   6.614   6.065   1.199 -0.2512  0.1018  0.3793
10810SOL     OW35322   5.341   0.417   3.398  0.0373  0.0438  0.3763
10810SOL    HW135323   5.273   0.350   3.389  0.4879 -0.1384 -2.4296
10810SOL    HW235324   5.398   0.383   3.468  0.3654 -2.6574 -1.0480
10811SOL     OW35325   8.243   3.760  10.517 -0.0031 -0.4888  0.5195
10811SOL    HW135326   8.319   3.818  10.519 -0.6255  0.3887 -0.6071
10811SOL    HW235327   8.198   3.781  10.436 -1.8926 -0.4371  1.5278
10812SOL     OW35328   6.709   1.947   1.719  0.6508  0.1734 -0.4060
10812SOL    HW135329   6.724   2.031   1.764 -0.3218  0.5977 -0.8507
10812SOL    HW235330   6.753   1.958   1.635  0.0025  0.4891 -0.7155
10813SOL     OW35331   2.964   2.191   3.983  0.0149 -0.5228  0.7558
10813SOL    HW135332   2.876   2.219   3.959  0.1811  0.3461  1.1060
10813SOL    HW235333   3.011   2.186   3.900 -0.3521 -0.9371  0.5733
10814SOL     OW35334   3.997  10.343  10.338  0.3477  0.2403 -0.3820
10814SOL    HW135335   4.064  10.307  10.280  0.2282 -0.5036 -0.0748
10814SOL    HW235336   3.916  10.337  10.288 -0.4126 -3.5318  0.9087
10815SOL     OW35337   9.276  10.343   1.431 -0.7434  0.3300  0.3769
10815SOL    HW135338   9.366  10.320   1.409 -1.5310 -1.8231 -0.8777
10815SOL    HW235339   9.282  10.432   1.466  1.6447  0.8529 -1.1320
10816SOL     OW35340   0.643   7.087   5.331 -0.1388 -0.7878 -0.5810
10816SOL    HW135341   0.555   7.055   5.314 -0.6121 -0.1565  0.5725
10816SOL    HW235342   0.656   7.158   5.268 -0.5555 -0.7305 -0.6044
10817SOL     OW35343   5.657   9.627   2.594  0.3070 -0.4223  0.0261
10817SOL    HW135344   5.747   9.633   2.561  0.5947 -0.3689  0.7953
10817SOL    HW235345   5.617   9.558   2.542 -0.4366  2.0890 -3.0634
10818SOL     OW35346   5.810  10.139   2.779  0.1522 -0.5162 -0.3685
10818SOL    HW135347   5.729  10.124   2.729 -0.3597  1.4766 -0.2265
10818SOL    HW235348   5.872  10.171   2.715 -0.2951  1.3793  0.0809
10819SOL     OW35349   3.086   5.358   9.263  0.6699  0.2252 -0.1852
10819SOL    HW135350   3.054   5.316   9.343  0.0606  0.6698 -0.1898
10819SOL    HW235351   3.026   5.430   9.248 -0.7284 -1.2725 -2.3970
10820SOL     OW35352   2.936  10.097   4.204  0.3121  0.3461  0.0562
10820SOL    HW135353   2.959  10.173   4.151 -2.5854 -0.4501 -2.6513
10820SOL    HW235354   2.877  10.131   4.271 -0.4402  0.6387 -0.7324
10821SOL     OW35355   8.141   8.158   1.998  0.3466  0.0742 -0.3843
10821SOL    HW135356   8.111   8.068   1.988  0.9505 -0.2346  0.4808
10821SOL    HW235357   8.186   8.177   1.916  1.2968 -0.8494 -0.1016
10822SOL     OW35358   6.549  10.527   0.930 -0.0771  0.0376 -0.5448
10822SOL    HW135359   6.588  10.569   1.007  2.8755 -1.4543 -1.0858
10822SOL    HW235360   6.622  10.482   0.887 -1.8372 -0.2225 -3.5730
10823SOL     OW35361   9.558   4.468   2.497 -0.9622 -1.0242 -0.1629
10823SOL    HW135362   9.607   4.536   2.450 -0.8029 -0.8324  0.2759
10823SOL    HW235363   9.475   4.461   2.450 -1.6781  0.6736  0.7674
10824SOL     OW35364   7.310   7.534   0.384 -0.2730  0.1948 -0.1882
10824SOL    HW135365   7.236   7.492   0.339 -1.0169 -1.7583  2.5551
10824SOL    HW235366   7.372   7.463   0.399 -0.2318  0.6277  2.0306
10825SOL     OW35367   8.507   1.791  10.319 -0.1413 -0.5012  0.1824
10825SOL    HW135368   8.485   1.884  10.330 -0.5687 -0.6130  0.2743
10825SOL    HW235369   8.426   1.744  10.338 -0.3473 -0.8256 -1.3755
10826SOL     OW35370   1.510   2.033   2.347 -0.0239 -0.7023  0.5612
10826SOL    HW135371   1.577   1.969   2.323 -1.1300 -1.3300 -1.0341
10826SOL    HW235372   1.493   2.080   2.266 -1.9040 -0.9416  0.7830
10827SOL     OW35373   7.385   3.244   8.301 -0.6690 -0.4127  0.0008
10827SOL    HW135374   7.364   3.156   8.332 -2.4241  0.3235  1.0776
10827SOL    HW235375   7.367   3.300   8.376  0.7106  0.8606 -0.5731
10828SOL     OW35376   4.168   8.809   9.621 -0.2967 -0.2841  0.4002
10828SOL    HW135377   4.116   8.728   9.622 -2.2439  0.8722 -0.7809
10828SOL    HW235378   4.186   8.824   9.528 -0.7458  1.0693  0.5111
10829SOL     OW35379   6.481   3.239   4.145 -0.1261  0.0484 -0.1121
10829SOL    HW135380   6.425   3.182   4.093  0.3387 -0.2805 -0.2605
10829SOL    HW235381   6.545   3.180   4.185  0.0947  0.4126  0.0825
10830SOL     OW35382   1.473   1.565   3.094 -0.1479  0.0511  0.1298
10830SOL    HW135383   1.485   1.614   3.013  1.0831  0.7810  0.7277
10830SOL    HW235384   1.502   1.476   3.073  2.0566  0.6820  0.2574
10831SOL     OW35385   7.925   2.071   5.639  0.1902  0.1639 -0.3458
10831SOL    HW135386   7.891   2.093   5.553  2.4755 -2.5289 -2.1402
10831SOL    HW235387   7.979   2.146   5.664 -2.3548  2.0236  0.0107
10832SOL     OW35388   5.795   2.094   3.250 -0.6624  0.1087 -0.3373
10832SOL    HW135389   5.796   2.189   3.246 -3.0328  0.2245  0.1912
10832SOL    HW235390   5.725   2.068   3.190 -1.5671 -1.1285  1.1732
10833SOL     OW35391   4.952   3.624   1.400 -0.1470  0.4567  0.1130
10833SOL    HW135392   4.883   3.690   1.396 -0.2704  0.3004 -0.5195
10833SOL    HW235393   5.033   3.674   1.414 -0.2067  0.7635 -0.6130
10834SOL     OW35394   1.255  10.538   8.567  0.0972 -0.6605  0.2771
10834SOL    HW135395   1.323  10.544   8.500 -0.0173  0.9493  0.2708
10834SOL    HW235396   1.177  10.575   8.526 -0.7638 -2.2648  0.3675
10835SOL     OW35397   8.611   1.328  10.656  0.4070 -0.3525  0.1667
10835SOL    HW135398   8.560   1.407  10.638  0.7137  0.0123  0.8682
10835SOL    HW235399   8.612   1.280  10.573 -0.6406 -0.1150  0.0045
10836SOL     OW35400   7.997   1.622   5.267 -0.2180  0.3640  0.1844
10836SOL    HW135401   7.917   1.575   5.293 -0.0188  0.4218  0.9259
10836SOL    HW235402   7.978   1.654   5.179  0.2770 -2.5496 -1.0785
10837SOL     OW35403   5.968   3.938   0.361 -0.2022  0.1358 -0.7763
10837SOL    HW135404   5.898   4.003   0.357 -0.3952  0.0632  0.8462
10837SOL    HW235405   5.977   3.907   0.271 -1.0907  1.3662 -1.3106
10838SOL     OW35406   9.477   7.648  10.178 -0.2646  0.3062  0.4577
10838SOL    HW135407   9.532   7.618  10.251 -0.1906  1.6195  0.9725
10838SOL    HW235408   9.511   7.601  10.102 -0.4985 -1.2832  1.2770
10839SOL     OW35409   2.445   0.428  10.331  0.2118  0.2290 -0.1659
10839SOL    HW135410   2.483   0.408  10.245  1.6379 -3.1983  1.0885
10839SOL    HW235411   2.519   0.456  10.384  0.6738 -3.4415  1.4293
10840SOL     OW35412   8.016   3.824   9.398 -0.3118 -0.5030  0.1865
10840SOL    HW135413   7.939   3.767   9.409 -1.0757  0.6486  1.0545
10840SOL    HW235414   8.089   3.763   9.389 -1.2099 -1.6293  0.2458
10841SOL     OW35415  10.561   2.918   9.124 -0.6162  0.3024 -0.1102
10841SOL    HW135416  10.473   2.955   9.117 -2.1341 -2.9294 -0.3648
10841SOL    HW235417  10.599   2.929   9.037 -1.5684  0.0151 -0.5747
10842SOL     OW35418  10.348   1.226   1.043  0.3727 -0.5873 -0.2637
10842SOL    HW135419  10.321   1.308   1.002 -1.7849 -0.0492  1.9785
10842SOL    HW235420  10.424   1.249   1.096 -1.4465  0.5902  2.0097
10843SOL     OW35421   6.811   4.913  10.540 -0.2806  0.1073 -0.0752
10843SOL    HW135422   6.771   4.993  10.573 -1.7780 -0.3874 -0.6257
10843SOL    HW235423   6.903   4.920  10.566 -0.3280  2.0958 -0.3115
10844SOL     OW35424   8.274   0.284   0.811  0.8200 -0.4653 -0.2417
10844SOL    HW135425   8.310   0.203   0.775 -0.8167 -1.4357  0.2067
10844SOL    HW235426   8.217   0.255   0.882  0.5194  1.1167  0.1952
10845SOL     OW35427   1.782   6.417   0.669  0.2844  0.1903 -0.6428
10845SOL    HW135428   1.872   6.387   0.683 -0.2016 -1.0189  0.0563
10845SOL    HW235429   1.792   6.504   0.630  1.7603  0.5049  0.3264
10846SOL     OW35430   0.595   6.677   9.667  0.0771  0.3963  0.0511
10846SOL    HW135431   0.537   6.696   9.740 -2.0919 -0.2693 -1.4165
10846SOL    HW235432   0.627   6.588   9.683  1.6745  1.1558  1.4208
10847SOL     OW35433   5.928  10.350   9.190  0.1090 -0.3706 -0.1979
10847SOL    HW135434   5.884  10.398   9.120 -1.8639  0.5633  1.5723
10847SOL    HW235435   6.014  10.392   9.198 -0.3146  0.6539 -0.8957
10848SOL     OW35436   4.954   3.310   0.990 -0.2312  0.1133 -0.1717
10848SOL    HW135437   4.864   3.304   0.958 -0.1592 -0.6076 -0.2470
10848SOL    HW235438   5.003   3.346   0.916 -0.5079  0.7834 -0.0315
10849SOL     OW35439   2.936   9.847   8.755  0.5899  0.2832  0.2784
10849SOL    HW135440   2.954   9.895   8.835  0.4372  0.7440  0.0360
10849SOL    HW235441   3.016   9.855   8.703  1.1595 -1.0508  0.8871
10850SOL     OW35442   0.621   1.132   5.163  0.2781 -0.0556  0.5476
10850SOL    HW135443   0.696   1.162   5.215 -0.8338  0.7237  1.7771
10850SOL    HW235444   0.594   1.051   5.206  1.2257 -1.1071 -0.7443
10851SOL     OW35445   6.097   9.599   9.124 -0.4628  0.0585 -0.0059
10851SOL    HW135446   6.131   9.669   9.181  0.8238  0.5105 -1.2612
10851SOL    HW235447   6.005   9.590   9.149 -0.2380  1.0482  1.3182
10852SOL     OW35448  10.463   9.493   4.110 -0.0029  0.1373  0.3380
10852SOL    HW135449  10.503   9.520   4.192 -0.1656  0.6900  0.2399
10852SOL    HW235450  10.378   9.537   4.109  0.0516  0.2353 -0.1830
10853SOL     OW35451   9.122   4.913   9.008 -0.1380  0.5822 -0.2267
10853SOL    HW135452   9.134   4.819   9.009  1.5220  0.7349 -2.0572
10853SOL    HW235453   9.034   4.926   8.973 -0.5371 -0.2586  0.4328
10854SOL     OW35454   1.295   1.746   7.967 -0.0084 -0.4445 -0.1494
10854SOL    HW135455   1.266   1.828   7.926  0.4732  0.8565  1.9261
10854SOL    HW235456   1.342   1.700   7.898 -0.1033  1.1344 -1.3263
10855SOL     OW35457   0.191   1.027   2.565  0.0824 -0.5419  0.1614
10855SOL    HW135458   0.265   0.986   2.520  0.4618 -0.7252  0.9309
10855SOL    HW235459   0.223   1.114   2.589 -0.4330 -0.0981 -0.7249
10856SOL     OW35460   4.280   4.728   6.297 -0.0376  0.7844 -0.1034
10856SOL    HW135461   4.261   4.804   6.352  0.4374  0.6680  0.2337
10856SOL    HW235462   4.373   4.738   6.275 -0.0609  0.4814 -0.3426
10857SOL     OW35463   7.616   3.975   2.664  0.0992  0.0128  0.0231
10857SOL    HW135464   7.630   3.880   2.672 -1.0005 -0.0851  1.1078
10857SOL    HW235465   7.577   4.000   2.748 -0.6687  1.2313 -0.6849
10858SOL     OW35466   9.582   9.275   7.755  0.1079 -0.3273 -0.2939
10858SOL    HW135467   9.491   9.261   7.779 -0.5458  0.5531 -2.0672
10858SOL    HW235468   9.624   9.306   7.835 -0.8388 -1.9133  0.8738
10859SOL     OW35469   6.037   2.060   8.295  0.2402 -0.1461  0.0814
10859SOL    HW135470   6.065   2.119   8.225  0.8078 -0.1364  0.3115
10859SOL    HW235471   5.947   2.037   8.272  0.1965  0.3759 -0.3018
10860SOL     OW35472   6.121   6.133   2.293 -0.0340  0.2066  0.4662
10860SOL    HW135473   6.210   6.146   2.325 -0.3033 -0.1646  1.3848
10860SOL    HW235474   6.127   6.053   2.240  0.0851 -0.1029  0.9362
10861SOL     OW35475   2.364   1.479   3.538 -0.3264  0.2491  0.0164
10861SOL    HW135476   2.367   1.572   3.516 -2.9153  0.2246 -0.7485
10861SOL    HW235477   2.276   1.451   3.512  0.9997 -2.8743 -1.6141
10862SOL     OW35478   4.296   1.757   8.841 -0.0730  0.2993  0.2008
10862SOL    HW135479   4.324   1.768   8.932 -0.1892  1.0436  0.1515
10862SOL    HW235480   4.314   1.665   8.821  0.3240  0.2315  0.8522
10863SOL     OW35481   6.551   7.036   4.209  0.1058 -0.2861 -0.5667
10863SOL    HW135482   6.579   7.061   4.121 -0.9327 -0.5306 -0.9800
10863SOL    HW235483   6.624   6.985   4.244  0.6099 -0.0138 -1.2076
10864SOL     OW35484   9.015   4.594   6.060 -0.0113  0.3281  0.1755
10864SOL    HW135485   8.920   4.592   6.067  0.0943 -0.6204  1.8383
10864SOL    HW235486   9.033   4.563   5.971 -1.2431  0.0469  0.0089
10865SOL     OW35487   3.558   1.041   9.637  0.3073  0.1959  0.4275
10865SOL    HW135488   3.641   1.024   9.682  0.0211 -1.7208  0.3422
10865SOL    HW235489   3.493   0.995   9.690 -0.7046  1.5752  0.4273
10866SOL     OW35490   8.647  10.064   6.263 -0.5204  0.1078 -0.7264
10866SOL    HW135491   8.717  10.037   6.323  0.2652 -0.6274 -1.9472
10866SOL    HW235492   8.619  10.149   6.297  1.5814  0.8686 -0.7130
10867SOL     OW35493   4.668   1.433   1.992 -0.1149 -1.3898  0.0586
10867SOL    HW135494   4.761   1.434   1.969  0.0338 -1.0405  0.6767
10867SOL    HW235495   4.628   1.381   1.922  0.2356  0.1035 -1.3219
10868SOL     OW35496   5.745   9.230   9.709  0.0648  0.1534 -0.2124
10868SOL    HW135497   5.763   9.199   9.621 -0.8894 -1.5610  0.1460
10868SOL    HW235498   5.828   9.267   9.739  1.2781 -1.9108 -0.7828
10869SOL     OW35499   5.715   6.640   6.180 -0.0703 -0.0777  0.0477
10869SOL    HW135500   5.794   6.678   6.143  0.9567 -1.0688  1.0990
10869SOL    HW235501   5.690   6.699   6.251  0.2728 -0.2210  0.2938
10870SOL     OW35502   0.707   3.213   0.705 -0.1853  0.2089 -0.5133
10870SOL    HW135503   0.751   3.200   0.789 -1.2544 -1.6234 -0.1911
10870SOL    HW235504   0.667   3.300   0.713 -0.3307  0.0336  0.9198
10871SOL     OW35505   6.067   9.847   1.983 -0.0880 -0.2505 -0.3865
10871SOL    HW135506   6.121   9.892   1.918  1.2478  1.6357  1.8672
10871SOL    HW235507   6.104   9.759   1.987 -1.3845 -1.0402 -3.3742
10872SOL     OW35508   1.912   3.514   1.606 -0.1424 -0.0507 -0.3270
10872SOL    HW135509   1.971   3.588   1.594  0.6862 -0.4685  0.9004
10872SOL    HW235510   1.942   3.449   1.542  0.1726  0.0662 -0.2991
10873SOL     OW35511   6.230   5.997   0.883  0.0301 -0.5026 -0.4229
10873SOL    HW135512   6.188   6.064   0.938  0.1448 -1.3863  0.7768
10873SOL    HW235513   6.165   5.976   0.817 -0.4896 -0.1231 -0.0424
10874SOL     OW35514   8.570   3.662   9.461 -0.3546  0.3033 -0.2142
10874SOL    HW135515   8.553   3.570   9.437  2.3581 -0.2958 -0.1356
10874SOL    HW235516   8.621   3.696   9.387 -0.7015  1.5496  0.1056
10875SOL     OW35517   3.190  10.040   5.711 -0.5160  0.1370  0.4625
10875SOL    HW135518   3.259  10.105   5.698 -2.3249  2.0800  0.0556
10875SOL    HW235519   3.204  10.007   5.800  2.3978 -1.4471 -0.4493
10876SOL     OW35520   7.428   0.961   3.862  0.9513 -0.1102  0.4750
10876SOL    HW135521   7.407   0.871   3.837  0.1200 -0.3264  1.8248
10876SOL    HW235522   7.494   0.952   3.930 -0.1828  0.1898  1.6607
10877SOL     OW35523   0.265   5.526   5.113  0.2176 -0.1120  0.6362
10877SOL    HW135524   0.249   5.495   5.202 -2.7508 -1.2313 -0.1716
10877SOL    HW235525   0.224   5.613   5.110  0.1115 -0.1699  0.3239
10878SOL     OW35526   1.098   1.322   2.500 -0.2040 -0.0264 -0.0316
10878SOL    HW135527   1.094   1.286   2.589 -1.0764 -0.6486 -0.3044
10878SOL    HW235528   1.160   1.267   2.454  0.3928  0.4131  0.2351
10879SOL     OW35529   0.437   8.249   7.287  0.1952 -0.3067 -0.8126
10879SOL    HW135530   0.522   8.268   7.325 -0.4087 -0.5082  0.7260
10879SOL    HW235531   0.405   8.174   7.337  0.0582 -1.6908 -2.8749
10880SOL     OW35532   8.046   3.169   8.391 -0.4668  0.0776  0.2409
10880SOL    HW135533   8.015   3.224   8.318  1.1286  0.0960 -0.4539
10880SOL    HW235534   7.972   3.110   8.409 -2.4137  2.6266  1.2700
10881SOL     OW35535   7.682   1.820   9.000 -0.0913 -0.6217  0.3176
10881SOL    HW135536   7.712   1.841   9.088  2.2228  1.6195 -0.8951
10881SOL    HW235537   7.601   1.870   8.990  0.3706  0.2188  0.7058
10882SOL     OW35538   3.621   4.774   8.262 -0.3779  0.1931  0.4685
10882SOL    HW135539   3.666   4.841   8.314  0.5535  1.2844 -1.6246
10882SOL    HW235540   3.690   4.733   8.211 -1.4890  0.7270 -1.5652
10883SOL     OW35541   3.384   1.398   2.470  0.4479 -0.4826  0.1848
10883SOL    HW135542   3.432   1.458   2.414 -1.1424 -0.3618 -1.1316
10883SOL    HW235543   3.448   1.368   2.534  1.7093  1.2785 -0.1792
10884SOL     OW35544   5.634   0.809   4.051 -0.3008 -0.4671 -0.1087
10884SOL    HW135545   5.548   0.828   4.012 -0.6543 -1.7584 -0.0045
10884SOL    HW235546   5.621   0.725   4.096  0.7036 -0.0944  0.9048
10885SOL     OW35547   7.060   8.722   3.307  0.3964 -0.8367  0.6724
10885SOL    HW135548   7.077   8.635   3.272 -1.5321 -1.2527  0.6675
10885SOL    HW235549   6.972   8.744   3.276  0.6713  0.9532  1.0111
10886SOL     OW35550   7.836   3.092   2.026 -0.2101  0.9567 -0.0798
10886SOL    HW135551   7.918   3.107   1.980 -0.2743 -0.4027 -0.6590
10886SOL    HW235552   7.851   3.014   2.079 -1.8187 -0.7410 -1.9719
10887SOL     OW35553   0.960   4.391   8.343 -0.8676  0.1840 -0.2286
10887SOL    HW135554   0.884   4.342   8.374 -0.2210  0.1791  1.4203
10887SOL    HW235555   1.022   4.324   8.313 -1.3338  0.1760 -1.2440
10888SOL     OW35556   2.301   1.239   9.717  0.4039 -0.0344 -0.1563
10888SOL    HW135557   2.361   1.277   9.654  1.6543 -0.7562  0.5616
10888SOL    HW235558   2.351   1.234   9.799 -0.6474 -0.5960  0.4867
10889SOL     OW35559   0.672   5.223  10.490 -0.1901 -0.3605 -0.2147
10889SOL    HW135560   0.664   5.315  10.467 -2.8134 -0.3727  0.3389
10889SOL    HW235561   0.746   5.191  10.438  0.0166  1.7531 -1.3107
10890SOL     OW35562   7.710   8.348   0.656  0.1287  0.0995 -0.1233
10890SOL    HW135563   7.619   8.378   0.655 -0.5766 -1.8735 -0.0759
10890SOL    HW235564   7.731   8.333   0.564 -0.2345 -1.1331 -0.0270
10891SOL     OW35565   5.267   8.477   9.413  0.6752 -0.7307 -0.6825
10891SOL    HW135566   5.209   8.495   9.339  0.7884 -0.9306 -0.8186
10891SOL    HW235567   5.349   8.522   9.392 -0.0050  1.0728  0.3301
10892SOL     OW35568   5.444   3.445   9.947 -0.3304  0.1452  0.0517
10892SOL    HW135569   5.416   3.520   9.999  0.3167  0.0668  0.5211
10892SOL    HW235570   5.538   3.437   9.965 -0.0823  0.1471 -1.1570
10893SOL     OW35571   5.227   5.980   6.690  0.6249 -0.2466 -0.5073
10893SOL    HW135572   5.310   6.027   6.683  0.7420 -0.5718 -1.4985
10893SOL    HW235573   5.185   5.993   6.605 -0.2256 -0.3117 -0.1087
10894SOL     OW35574   7.823   4.571   8.705  0.0045  0.1733 -0.5256
10894SOL    HW135575   7.809   4.538   8.794  0.0856  0.0759 -0.5486
10894SOL    HW235576   7.742   4.618   8.684  0.2662  0.8169 -0.1254
10895SOL     OW35577   2.004   4.493   8.232  0.0142 -0.1405 -0.2271
10895SOL    HW135578   2.087   4.540   8.240 -0.5656  0.5618  4.1482
10895SOL    HW235579   1.951   4.548   8.173  1.1658  1.8937  0.5217
10896SOL     OW35580  10.137   9.405   0.998  0.6735 -0.0517  0.2475
10896SOL    HW135581  10.076   9.363   0.937  1.8833  0.3521 -1.3101
10896SOL    HW235582  10.081   9.436   1.070 -1.3357  2.1686 -2.0723
10897SOL     OW35583   6.673   0.932   3.444  0.7528  0.4487 -0.2181
10897SOL    HW135584   6.665   1.021   3.411 -2.6886  0.8267  1.2228
10897SOL    HW235585   6.692   0.942   3.537 -0.2355 -0.2801  0.0772
10898SOL     OW35586   7.889   2.012   2.892 -0.7823 -0.3263 -0.0391
10898SOL    HW135587   7.897   1.991   2.985 -1.0027  2.1003  0.5811
10898SOL    HW235588   7.949   2.086   2.878 -0.0858 -1.1769 -2.0553
10899SOL     OW35589   9.385  10.283   0.275  0.5364  0.0226 -0.1804
10899SOL    HW135590   9.370  10.371   0.310 -0.2787 -0.0820 -0.2505
10899SOL    HW235591   9.423  10.234   0.349 -1.4043 -0.2717  0.6903
10900SOL     OW35592   6.619   9.101   8.956  0.2521 -0.0789  0.2505
10900SOL    HW135593   6.711   9.109   8.929 -0.1624 -0.7477 -1.4901
10900SOL    HW235594   6.582   9.039   8.894 -1.1098 -0.7270  1.6624
10901SOL     OW35595   6.576   1.100   2.504  0.2513  0.0836 -0.2451
10901SOL    HW135596   6.613   1.017   2.476  0.9340  0.5592 -0.8018
10901SOL    HW235597   6.598   1.107   2.597 -1.2827 -1.1199  0.2470
10902SOL     OW35598   7.631   5.969   7.638 -0.3057 -0.2101  0.1874
10902SOL    HW135599   7.630   6.049   7.691  0.0573  0.3565 -0.6437
10902SOL    HW235600   7.545   5.930   7.653  0.5655 -1.2989  3.0070
10903SOL     OW35601   3.164  10.605  10.422  0.0244  0.1936  0.3816
10903SOL    HW135602   3.132  10.652  10.346  1.2511 -0.7303 -0.7415
10903SOL    HW235603   3.259  10.602  10.411  0.2485  0.1688  2.0261
10904SOL     OW35604   9.053   1.115  10.317 -0.3992  0.2371  0.3290
10904SOL    HW135605   9.042   1.208  10.300 -0.7739  0.2355  0.5536
10904SOL    HW235606   9.054   1.107  10.412  0.8083  0.1417  0.3239
10905SOL     OW35607   2.838   6.844   7.941 -0.3041 -0.0317  0.0228
10905SOL    HW135608   2.897   6.772   7.915 -0.2517  0.2117 -0.5391
10905SOL    HW235609   2.786   6.862   7.863 -0.4143  0.4476  0.2031
10906SOL     OW35610   5.190   8.024   4.754 -0.3199 -0.2933  0.4449
10906SOL    HW135611   5.267   8.079   4.740  1.3673 -2.3480  1.0637
10906SOL    HW235612   5.157   8.050   4.840  1.7679 -1.5914  1.7369
10907SOL     OW35613   0.959  10.319   0.647  0.1032  0.2501  0.1056
10907SOL    HW135614   1.051  10.339   0.630  0.2064  0.1303  0.5200
10907SOL    HW235615   0.953  10.224   0.638  0.4540  0.0052  2.0617
10908SOL     OW35616  10.600  10.022   2.286  0.3206  0.1646 -0.7216
10908SOL    HW135617  10.640  10.062   2.363 -0.3661  1.1867 -0.8715
10908SOL    HW235618  10.601   9.928   2.305  0.0451  0.3995  0.5961
10909SOL     OW35619   6.373   1.498   9.753  0.2362 -0.1921  0.1257
10909SOL    HW135620   6.306   1.471   9.690 -0.5675 -2.5023  1.8166
10909SOL    HW235621   6.417   1.416   9.778  2.8873  1.0890  0.0324
10910SOL     OW35622  10.247   7.985   2.538 -0.0216  0.3285 -0.3301
10910SOL    HW135623  10.290   8.054   2.589  1.3168 -0.4473 -0.3699
10910SOL    HW235624  10.319   7.936   2.498 -0.9263 -1.2533 -0.0968
10911SOL     OW35625   9.696   0.484   9.764 -0.1608 -0.9311  0.0379
10911SOL    HW135626   9.756   0.499   9.837 -0.2355 -1.8455  0.3104
10911SOL    HW235627   9.737   0.526   9.689  0.0478 -0.2028  0.5543
10912SOL     OW35628   1.963   7.482   9.082  0.6392  0.1078  0.0033
10912SOL    HW135629   2.031   7.451   9.142 -1.0882  2.2664  3.3658
10912SOL    HW235630   1.881   7.463   9.126 -0.9261 -0.2948 -2.8500
10913SOL     OW35631  10.330  10.583   2.445  0.0413 -0.1094  0.3186
10913SOL    HW135632  10.280  10.613   2.370  1.1598 -2.1327 -1.3683
10913SOL    HW235633  10.289  10.499   2.469  1.2879 -0.7698  0.2313
10914SOL     OW35634   7.288   5.876   9.150 -0.0191 -0.7414 -0.3108
10914SOL    HW135635   7.283   5.797   9.096  0.9036  0.2993 -2.0008
10914SOL    HW235636   7.289   5.948   9.087  0.2919  0.5751  1.1394
10915SOL     OW35637   3.949   6.210   9.298 -0.1558 -0.3005  0.2996
10915SOL    HW135638   3.936   6.166   9.214  0.0174 -1.4382  0.8437
10915SOL    HW235639   4.043   6.201   9.316 -0.3893 -1.1924  1.1929
10916SOL     OW35640  10.541   3.267   8.968 -0.3578  0.2609 -0.3891
10916SOL    HW135641  10.548   3.359   8.992  1.0792 -0.0824  0.6811
10916SOL    HW235642  10.483   3.229   9.035 -3.1794  0.8049 -2.3226
10917SOL     OW35643   8.397   5.622   5.162 -0.1229 -0.1612 -0.2159
10917SOL    HW135644   8.396   5.649   5.254  1.1579 -2.5355  0.5890
10917SOL    HW235645   8.321   5.565   5.153  0.7570 -1.4067 -0.0688
10918SOL     OW35646   2.211   1.394   8.559 -0.1580 -0.0480  0.8432
10918SOL    HW135647   2.304   1.405   8.574 -0.0849  0.4528  0.0887
10918SOL    HW235648   2.174   1.482   8.570 -0.2982  0.0631 -0.4095
10919SOL     OW35649   6.981   5.990   7.715 -0.1174  0.1977  0.5799
10919SOL    HW135650   7.057   6.026   7.762  1.0996 -0.2529 -0.9495
10919SOL    HW235651   7.015   5.970   7.628 -2.2793  0.9498 -0.4937
10920SOL     OW35652   9.194   9.058   6.944 -0.2754 -0.0573 -0.1255
10920SOL    HW135653   9.141   9.067   6.865  2.0006  0.5779 -1.6597
10920SOL    HW235654   9.203   8.963   6.956 -0.7365 -0.1564 -0.5321
10921SOL     OW35655   4.871   4.465   1.709 -0.3975 -0.2496  0.0606
10921SOL    HW135656   4.953   4.466   1.759 -0.5635 -0.6329  0.3421
10921SOL    HW235657   4.899   4.454   1.618 -0.2096 -5.1902  0.4402
10922SOL     OW35658   5.374   5.178   5.764 -0.3842 -0.8032  0.0275
10922SOL    HW135659   5.329   5.208   5.843 -1.3967 -3.3814  0.5464
10922SOL    HW235660   5.467   5.185   5.786 -0.5942  0.7500  0.5173
10923SOL     OW35661   2.674   9.851   5.768 -0.0618 -0.2951  1.3559
10923SOL    HW135662   2.764   9.821   5.779  0.6002  1.2186  0.4439
10923SOL    HW235663   2.666   9.925   5.828  0.6228  2.0505 -1.1943
10924SOL     OW35664   2.468   7.948   7.287 -0.3096  0.2543 -0.5518
10924SOL    HW135665   2.429   7.927   7.201 -0.6698  2.0220 -0.8670
10924SOL    HW235666   2.537   8.012   7.267  0.9104 -0.7509  0.3068
10925SOL     OW35667   3.025   7.442   7.757 -0.9801  0.5042 -0.8223
10925SOL    HW135668   2.953   7.474   7.703 -0.5291  0.8269 -1.2338
10925SOL    HW235669   2.987   7.434   7.845 -0.9582  2.7136 -0.5654
10926SOL     OW35670   7.225   2.840   9.042  0.2125  0.5266 -0.4419
10926SOL    HW135671   7.285   2.768   9.064  0.8910  1.0379 -0.5928
10926SOL    HW235672   7.145   2.796   9.011  0.5896 -0.1623 -0.4560
10927SOL     OW35673   9.526   7.418   2.246 -0.6000  0.3481  0.1191
10927SOL    HW135674   9.435   7.392   2.235  0.0655 -2.1425 -0.0372
10927SOL    HW235675   9.574   7.370   2.179  0.9862  0.6240  0.9981
10928SOL     OW35676   3.065   4.343   5.185 -0.8357  0.3356 -0.0580
10928SOL    HW135677   3.018   4.419   5.220 -0.1414  0.9423 -0.4136
10928SOL    HW235678   3.144   4.336   5.239  0.5704  1.6765 -1.8319
10929SOL     OW35679   4.503   3.025   6.649 -0.0608 -0.4092  0.4364
10929SOL    HW135680   4.411   3.020   6.622 -0.1901  0.5019  0.6701
10929SOL    HW235681   4.537   2.936   6.636 -1.0210 -0.7998  0.5266
10930SOL     OW35682   1.474   2.192   7.992  0.0353  0.1364 -0.2570
10930SOL    HW135683   1.467   2.203   8.087 -1.0112  0.7503 -0.3926
10930SOL    HW235684   1.398   2.238   7.957 -0.3641 -1.2594 -1.3172
10931SOL     OW35685   3.158   4.466   5.622 -0.2968  0.0764  0.4945
10931SOL    HW135686   3.092   4.396   5.617  0.6365 -0.7568 -0.9119
10931SOL    HW235687   3.201   4.464   5.537  0.0485  2.1164  0.5706
10932SOL     OW35688  10.426   4.410   4.868  0.5369 -0.2044  0.0741
10932SOL    HW135689  10.334   4.417   4.894  0.4277  2.1352 -0.7862
10932SOL    HW235690  10.428   4.439   4.777  1.7877 -2.8044 -0.8510
10933SOL     OW35691   6.711   2.695  10.396 -0.8322 -0.3372  0.3475
10933SOL    HW135692   6.728   2.779  10.437  1.3596 -1.1310  1.2120
10933SOL    HW235693   6.744   2.705  10.307 -1.6065  0.0403  0.0940
10934SOL     OW35694   8.065   3.280   4.716 -0.3310 -0.5356  0.2422
10934SOL    HW135695   8.045   3.373   4.723  0.1516 -0.4782  1.0585
10934SOL    HW235696   8.158   3.277   4.694 -0.0984 -0.8201  1.2051
10935SOL     OW35697   0.277   9.778   6.481 -0.1570 -0.2262  0.0031
10935SOL    HW135698   0.290   9.793   6.387  0.6328  1.6941  0.3691
10935SOL    HW235699   0.333   9.843   6.524 -1.4101 -0.2500  1.8038
10936SOL     OW35700   1.556   5.823  10.440  0.1747 -0.1454  0.2898
10936SOL    HW135701   1.605   5.850  10.517 -0.4812  0.7488  0.4049
10936SOL    HW235702   1.619   5.828  10.368  0.6534 -0.5049  0.6810
10937SOL     OW35703   7.133   8.083   0.795  0.0868  0.2972 -0.2187
10937SOL    HW135704   7.172   8.052   0.713  0.6097 -0.4091  0.2776
10937SOL    HW235705   7.196   8.146   0.829  0.5679 -0.4670  0.3329
10938SOL     OW35706   3.057   6.768   5.476 -0.4083 -0.3618  0.0941
10938SOL    HW135707   3.035   6.695   5.418 -2.4000  0.5845 -0.4197
10938SOL    HW235708   3.086   6.726   5.557 -2.3960 -1.7873  0.1432
10939SOL     OW35709   8.853   1.225   7.598 -0.3157  0.2102 -0.3399
10939SOL    HW135710   8.946   1.244   7.586 -0.1918 -0.0342  0.1869
10939SOL    HW235711   8.814   1.309   7.623 -0.0497  0.1200  0.4329
10940SOL     OW35712   5.017   0.420   4.237  0.2066 -0.3539  0.0432
10940SOL    HW135713   5.112   0.428   4.223  0.3960 -1.4581  0.6286
10940SOL    HW235714   4.980   0.425   4.150  0.8004  0.1220 -0.1925
10941SOL     OW35715   5.432   7.490   0.121 -0.2331  0.2118  0.5837
10941SOL    HW135716   5.364   7.471   0.057  1.5543 -1.0660 -1.0616
10941SOL    HW235717   5.513   7.487   0.071  1.1703  0.2030  2.7418
10942SOL     OW35718   8.352   4.382   3.116  0.2461  0.1299  0.1931
10942SOL    HW135719   8.347   4.288   3.133  0.2090 -0.4739 -2.5970
10942SOL    HW235720   8.436   4.394   3.071 -0.3171  1.1812 -0.6375
10943SOL     OW35721   0.604   3.944   9.935 -0.6623 -0.2427 -0.4860
10943SOL    HW135722   0.607   3.965   9.841  1.7009 -1.6037 -0.8085
10943SOL    HW235723   0.515   3.911   9.949 -1.7770  1.9943 -1.7247
10944SOL     OW35724   6.986   3.696   5.534  0.2089 -0.0351 -0.0784
10944SOL    HW135725   7.010   3.701   5.441  1.4843  1.4622  0.2888
10944SOL    HW235726   6.891   3.681   5.533  0.4520 -2.0244 -1.5920
10945SOL     OW35727   7.676   8.298   8.490  0.1980 -0.3861 -0.2553
10945SOL    HW135728   7.764   8.261   8.483  1.1628  1.7997 -0.4422
10945SOL    HW235729   7.651   8.319   8.400 -0.4786 -0.8249 -0.1849
10946SOL     OW35730   2.932   4.682   1.764  0.0481  0.2021 -0.0856
10946SOL    HW135731   2.892   4.730   1.692 -1.7646 -1.6675 -0.4370
10946SOL    HW235732   2.859   4.660   1.822  0.8414 -1.6900  0.2814
10947SOL     OW35733   7.231   8.218   0.228 -0.0081 -0.1955 -0.3473
10947SOL    HW135734   7.292   8.185   0.295 -0.0230 -1.6781 -1.0250
10947SOL    HW235735   7.285   8.225   0.149 -0.1041  1.1016 -0.3226
10948SOL     OW35736   0.740   0.272   6.101  0.1867 -0.6581 -0.3885
10948SOL    HW135737   0.665   0.214   6.107  1.3648 -2.1061  1.5774
10948SOL    HW235738   0.780   0.252   6.016 -0.4317 -1.4504 -0.5018
10949SOL     OW35739   5.745  10.431   5.186  0.7597 -0.0655  0.5170
10949SOL    HW135740   5.671  10.370   5.182  1.4066 -0.8247 -0.3022
10949SOL    HW235741   5.753  10.451   5.279 -0.4908  0.0655  0.6219
10950SOL     OW35742   9.750   3.129   2.699 -0.0840 -0.1160  0.7079
10950SOL    HW135743   9.820   3.134   2.634 -0.6581 -0.3760  0.0546
10950SOL    HW235744   9.776   3.057   2.756 -0.0103 -0.4780  0.2265
10951SOL     OW35745   6.164   0.464   7.032  0.2049  0.3404 -0.1941
10951SOL    HW135746   6.248   0.504   7.055  0.3068  0.9072 -1.4854
10951SOL    HW235747   6.151   0.486   6.940 -0.5261 -1.2398 -0.5052
10952SOL     OW35748   7.752   0.092  10.694  0.0392 -0.2189 -0.0933
10952SOL    HW135749   7.679   0.081  10.756  1.0296  0.8707  1.3212
10952SOL    HW235750   7.711   0.128  10.615 -1.0666 -0.3398  0.4049
10953SOL     OW35751   3.119   6.833   0.163  0.8595 -0.4850 -0.2780
10953SOL    HW135752   3.066   6.869   0.092 -0.6053 -2.3827 -0.2127
10953SOL    HW235753   3.145   6.909   0.215  1.2210  0.8464 -2.3181
10954SOL     OW35754   8.582   8.028   9.404 -0.4767  0.1665 -0.2644
10954SOL    HW135755   8.596   7.985   9.320 -0.1066  0.7631 -0.5192
10954SOL    HW235756   8.644   7.985   9.464 -0.5145 -0.0420 -0.3769
10955SOL     OW35757   4.137   1.915   8.290 -0.0101  0.3973  0.1600
10955SOL    HW135758   4.088   1.883   8.365 -0.4681  1.7712  0.4804
10955SOL    HW235759   4.227   1.886   8.306 -0.8056 -3.2032 -1.0335
10956SOL     OW35760   7.385   4.078   7.796  0.2871  0.0321 -0.5842
10956SOL    HW135761   7.329   4.093   7.873  2.8441  2.9675  0.9490
10956SOL    HW235762   7.464   4.038   7.832  1.2536  0.8070 -1.7503
10957SOL     OW35763   0.398   9.326   4.217 -0.0261 -0.2296  0.0259
10957SOL    HW135764   0.394   9.420   4.205 -0.5309 -0.4825 -2.1410
10957SOL    HW235765   0.475   9.312   4.272  0.4120  1.3908 -0.1336
10958SOL     OW35766   6.165   0.038   8.386 -0.1272  0.4931  0.2548
10958SOL    HW135767   6.100   0.100   8.420 -1.4510 -1.4417  1.4936
10958SOL    HW235768   6.165  -0.033   8.451 -0.3739 -1.8839 -2.1964
10959SOL     OW35769   5.629   8.162  10.542  0.4305  0.2610 -0.3433
10959SOL    HW135770   5.604   8.224  10.474 -0.0140 -0.8017 -1.1921
10959SOL    HW235771   5.548   8.115  10.563  0.7583 -0.0622  0.2449
10960SOL     OW35772  10.123   1.823   2.781 -0.6065  0.0048 -0.5580
10960SOL    HW135773  10.066   1.894   2.752 -0.5692  0.1435 -0.2943
10960SOL    HW235774  10.118   1.758   2.711  0.7199  1.0170 -1.6529
10961SOL     OW35775   2.341  10.263   4.610  0.3674 -0.3693 -0.1401
10961SOL    HW135776   2.380  10.336   4.562  1.2221 -0.5424  0.2763
10961SOL    HW235777   2.261  10.300   4.648  0.5026  0.1975 -0.4015
10962SOL     OW35778   8.886   4.931   1.565 -0.3753 -0.6086 -0.1195
10962SOL    HW135779   8.866   5.002   1.505 -5.1583 -1.2556  0.3610
10962SOL    HW235780   8.897   4.973   1.650  2.0194 -0.1348 -0.5723
10963SOL     OW35781   5.634  10.139   2.531  0.3786  0.1172  0.3925
10963SOL    HW135782   5.563  10.117   2.471  1.0169  1.0456 -0.7410
10963SOL    HW235783   5.705  10.080   2.506  0.9796  1.1623 -0.4638
10964SOL     OW35784   7.745   0.643   0.505  0.1373 -0.1868  0.5681
10964SOL    HW135785   7.726   0.568   0.449 -1.5801 -1.0774  2.1989
10964SOL    HW235786   7.826   0.680   0.471 -0.3498 -1.2229 -1.8708
10965SOL     OW35787   6.105   1.695  10.051  0.0927 -0.4251 -0.0463
10965SOL    HW135788   6.123   1.623  10.111  2.0232  1.2079  1.4555
10965SOL    HW235789   6.050   1.755  10.101  1.5791  0.8821  0.0970
10966SOL     OW35790   8.566   9.873   9.264  0.1396 -0.0616  0.0370
10966SOL    HW135791   8.574   9.832   9.351 -1.6686 -1.6780 -0.4707
10966SOL    HW235792   8.501   9.942   9.276  0.1889 -0.0204  0.0648
10967SOL     OW35793   3.665   4.397   2.898 -0.1694  0.3133 -0.1339
10967SOL    HW135794   3.754   4.367   2.911 -0.2525 -0.3444 -1.0029
10967SOL    HW235795   3.661   4.482   2.943  0.5887 -0.1203  0.7732
10968SOL     OW35796   1.503  10.191   4.350 -0.3311  1.3006  0.3426
10968SOL    HW135797   1.452  10.199   4.269 -1.5375  0.1266  0.9539
10968SOL    HW235798   1.594  10.195   4.322 -0.6784 -0.8102 -1.3055
10969SOL     OW35799   7.206   9.370   6.529 -0.3275  0.2310 -0.0056
10969SOL    HW135800   7.281   9.315   6.506 -0.1582  0.2981  0.3652
10969SOL    HW235801   7.231   9.409   6.613 -0.6129  0.5636 -0.0735
10970SOL     OW35802   1.087   6.679   6.770  0.4308  0.2013 -0.3270
10970SOL    HW135803   1.097   6.649   6.861 -2.3896 -2.5049 -0.7436
10970SOL    HW235804   1.137   6.616   6.718 -1.1274 -0.6150 -0.8772
10971SOL     OW35805   5.227   6.595   6.282 -0.3969  0.1514  0.1802
10971SOL    HW135806   5.205   6.672   6.229  2.0653  0.5683 -0.3618
10971SOL    HW235807   5.256   6.632   6.365 -0.8778 -0.3270  0.5683
10972SOL     OW35808   8.544   1.492   8.544 -0.1634  0.3200  0.0378
10972SOL    HW135809   8.634   1.508   8.514  0.1654 -1.5992 -0.1111
10972SOL    HW235810   8.548   1.504   8.639  0.9689 -2.3469  0.4304
10973SOL     OW35811   2.811   3.633   3.466 -0.2665 -0.6574  0.2518
10973SOL    HW135812   2.840   3.577   3.538  0.7584 -0.3312  0.1073
10973SOL    HW235813   2.785   3.571   3.397  0.2168 -0.9692  0.3413
10974SOL     OW35814   9.465   9.902   0.935  0.0700  0.0540  0.0989
10974SOL    HW135815   9.450   9.969   1.002  1.5195  1.7602 -1.1746
10974SOL    HW235816   9.382   9.855   0.930 -0.0535 -0.2605  3.1414
10975SOL     OW35817   3.772   9.516   3.782  0.3620  0.2425 -0.3154
10975SOL    HW135818   3.865   9.536   3.784  0.1784  1.0867  0.0059
10975SOL    HW235819   3.732   9.588   3.734 -0.1824  0.1360 -0.0347
10976SOL     OW35820   0.093   6.665   3.146 -0.5723 -0.1423 -0.4927
10976SOL    HW135821   0.092   6.755   3.178 -1.6812 -0.3546  0.1216
10976SOL    HW235822   0.153   6.667   3.071  1.1237  0.6289  0.8118
10977SOL     OW35823   7.885  10.548   2.008 -0.4373 -0.0794 -0.0489
10977SOL    HW135824   7.928  10.601   1.941 -1.2759  1.5327  0.6430
10977SOL    HW235825   7.809  10.599   2.035 -0.7385 -1.1954  1.3607
10978SOL     OW35826   3.476   1.506   4.381  0.5501 -0.0353  0.3849
10978SOL    HW135827   3.413   1.575   4.401  0.1790  0.2187 -1.4972
10978SOL    HW235828   3.560   1.552   4.369  0.6821 -0.1362  0.8952
10979SOL     OW35829   0.203   7.308   0.372  0.6450  0.0045 -0.1727
10979SOL    HW135830   0.296   7.330   0.371  0.5193  0.5360 -0.2626
10979SOL    HW235831   0.185   7.276   0.284  0.7131  0.0193 -0.1919
10980SOL     OW35832   4.174   8.942   4.084  0.2854  0.4073  0.4698
10980SOL    HW135833   4.149   8.882   4.013  2.6824  0.7984 -0.8296
10980SOL    HW235834   4.254   8.983   4.052  0.8834  1.3751  3.0334
10981SOL     OW35835   7.618   3.111   5.234 -0.1579  0.1593  0.7103
10981SOL    HW135836   7.529   3.100   5.202  0.0855 -0.9027  0.3685
10981SOL    HW235837   7.630   3.206   5.239  0.6078  0.7145 -4.8416
10982SOL     OW35838  10.003   1.919   9.264  0.0827  0.1129 -0.4831
10982SOL    HW135839  10.078   1.944   9.319  0.3503 -1.8588  0.1051
10982SOL    HW235840   9.930   1.912   9.325 -0.2176  0.3968 -0.8009
10983SOL     OW35841   9.531   8.691   8.511 -0.0323 -0.3765 -0.2697
10983SOL    HW135842   9.447   8.700   8.467 -0.3018  0.0331  0.3049
10983SOL    HW235843   9.588   8.754   8.468  0.2352 -1.2717 -1.2404
10984SOL     OW35844   2.724   4.542   4.598  0.3996  0.0495  0.2924
10984SOL    HW135845   2.768   4.626   4.595  1.8897 -0.5775  2.4093
10984SOL    HW235846   2.727   4.516   4.690 -2.9254 -0.8538  0.2939
10985SOL     OW35847   5.413   0.115   0.375  0.1892 -0.3167  0.0317
10985SOL    HW135848   5.418   0.028   0.414  1.7311 -0.4042 -0.2923
10985SOL    HW235849   5.400   0.174   0.449  2.0300 -0.5774  0.6233
10986SOL     OW35850   6.965   2.566   8.193 -0.2185  0.0699  0.2661
10986SOL    HW135851   7.005   2.538   8.275  0.4300 -3.2092 -1.0196
10986SOL    HW235852   6.885   2.611   8.220  0.8385  0.6728  2.7030
10987SOL     OW35853   1.064   7.457  10.491  0.0610  0.2156  0.0194
10987SOL    HW135854   1.152   7.495  10.485 -0.1621  0.7920  0.2661
10987SOL    HW235855   1.051   7.441  10.584 -0.1279  0.2255 -0.0042
10988SOL     OW35856   3.985   0.508   9.467  0.5008 -0.0928 -0.4220
10988SOL    HW135857   3.942   0.566   9.403 -1.4929  0.4933  1.3364
10988SOL    HW235858   3.913   0.462   9.510  1.8997 -1.8427  0.1708
10989SOL     OW35859   8.083   0.573   0.955 -0.2549 -0.0424  0.0810
10989SOL    HW135860   8.096   0.528   1.038 -2.0971 -0.4546  0.2013
10989SOL    HW235861   7.988   0.584   0.949  0.0006  2.6083 -0.5995
10990SOL     OW35862   3.097   4.927   7.995 -0.1218  0.3622  0.1686
10990SOL    HW135863   3.184   4.951   8.027  0.1749 -0.4928  0.0114
10990SOL    HW235864   3.055   5.011   7.973  0.6698  0.7717  0.2147
10991SOL     OW35865   9.252   5.774   8.880 -0.4884  0.3288 -0.2886
10991SOL    HW135866   9.212   5.700   8.833  0.8182 -0.7835  0.2721
10991SOL    HW235867   9.280   5.834   8.811 -1.7593  0.4200 -0.7470
10992SOL     OW35868   0.844   1.680   7.896  0.2777 -0.2880  0.1662
10992SOL    HW135869   0.870   1.628   7.972  0.3202 -0.3041  0.1406
10992SOL    HW235870   0.750   1.691   7.906  0.5378  1.3587  1.2741
10993SOL     OW35871   5.315   3.954   7.856 -0.0554 -0.2054 -0.0341
10993SOL    HW135872   5.285   4.044   7.869 -1.7339 -0.7318 -0.0251
10993SOL    HW235873   5.264   3.902   7.918 -0.2966 -1.3681 -1.1548
10994SOL     OW35874   8.655   0.733   2.400  0.6154 -0.0493 -0.0573
10994SOL    HW135875   8.570   0.740   2.356 -0.0734 -1.1710  1.0353
10994SOL    HW235876   8.704   0.669   2.348  0.0265 -0.9285  0.4520
10995SOL     OW35877   2.814   0.368   7.169 -0.0679 -0.3361 -0.2681
10995SOL    HW135878   2.724   0.386   7.140  0.0027 -0.0163 -0.2923
10995SOL    HW235879   2.803   0.315   7.248 -0.2607 -1.4100 -0.9911
10996SOL     OW35880   5.652   5.438  10.104  0.1489  0.2996  0.1391
10996SOL    HW135881   5.561   5.421  10.077  0.0072  1.1125  0.0881
10996SOL    HW235882   5.701   5.438  10.022  0.1771  0.0112  0.1529
10997SOL     OW35883   1.938   8.923   9.113 -0.9585 -0.0395 -0.1536
10997SOL    HW135884   1.949   8.872   9.033  1.0767 -1.3990  0.9187
10997SOL    HW235885   1.978   8.870   9.181  0.7352  2.6940  1.1412
10998SOL     OW35886   8.788   5.520   7.848 -0.3219 -0.4202  0.0583
10998SOL    HW135887   8.799   5.613   7.869  0.7036 -0.6206  0.4811
10998SOL    HW235888   8.867   5.498   7.799  0.2873 -1.4738  1.4546
10999SOL     OW35889  10.737   0.327   5.277  0.2658 -0.7734 -0.2487
10999SOL    HW135890  10.749   0.242   5.234  0.3965 -0.1400 -1.5060
10999SOL    HW235891  10.748   0.391   5.206  2.7151  0.4340  1.1112
11000SOL     OW35892   7.803   4.860   0.596  0.3461  0.1316 -0.6164
11000SOL    HW135893   7.728   4.899   0.641 -0.0650  0.4576 -1.5468
11000SOL    HW235894   7.877   4.877   0.653 -0.5005 -1.6519  1.1606
11001SOL     OW35895   9.954   8.700   2.632  0.7388  0.0776 -0.4313
11001SOL    HW135896   9.981   8.635   2.698  1.4738  0.6517 -0.1572
11001SOL    HW235897   9.890   8.754   2.677 -2.2121 -2.2478 -1.5442
11002SOL     OW35898   0.857   6.050   8.166 -0.1578  0.3261  0.8848
11002SOL    HW135899   0.779   6.008   8.129  0.0342 -0.7711  1.6974
11002SOL    HW235900   0.893   6.101   8.093 -0.8306 -0.2966  0.0998
11003SOL     OW35901   4.819   3.579  10.361  0.1222 -0.5693 -0.3680
11003SOL    HW135902   4.804   3.606  10.270  0.1457  2.2877  0.3603
11003SOL    HW235903   4.912   3.560  10.366  0.0728 -1.0161 -0.9756
11004SOL     OW35904   6.508   1.143   7.053  0.2430  0.0683 -0.3134
11004SOL    HW135905   6.426   1.185   7.077  0.4843  1.3400 -1.6333
11004SOL    HW235906   6.554   1.129   7.136  0.2042  2.5397  0.1710
11005SOL     OW35907   7.352   6.657   4.005  0.4295  0.0673 -0.6027
11005SOL    HW135908   7.271   6.669   4.053  0.3009 -0.3265 -0.7117
11005SOL    HW235909   7.336   6.580   3.950  0.9953 -0.2275 -0.3671
11006SOL     OW35910   8.746   6.657   6.644 -0.0420  0.1271  0.1185
11006SOL    HW135911   8.717   6.650   6.735 -0.3818 -0.6926 -0.0439
11006SOL    HW235912   8.667   6.681   6.596 -0.0160 -0.1194 -0.0487
11007SOL     OW35913   6.305   4.225   6.775  0.0327  0.2699  0.3651
11007SOL    HW135914   6.376   4.268   6.728  0.7822 -0.0790  1.1578
11007SOL    HW235915   6.234   4.220   6.711  1.1338 -0.4865 -0.8476
11008SOL     OW35916   1.671   5.702   7.048  0.1711 -0.5328 -0.5928
11008SOL    HW135917   1.734   5.755   7.096 -0.5403 -1.5063  1.5733
11008SOL    HW235918   1.681   5.614   7.084 -1.7803 -0.8999 -0.7997
11009SOL     OW35919   1.481   0.090  10.773 -0.4157 -0.1917 -0.1773
11009SOL    HW135920   1.418   0.029  10.812  1.0374  0.9635  4.7097
11009SOL    HW235921   1.432   0.172  10.764 -0.1284  0.4052  2.5975
11010SOL     OW35922   1.214   8.002   6.054  0.1264 -0.0857 -0.6071
11010SOL    HW135923   1.200   8.095   6.033 -1.4912  0.2477  1.5618
11010SOL    HW235924   1.130   7.974   6.091  0.8247 -2.2451 -0.5744
11011SOL     OW35925   3.646   6.408   0.958  0.2060 -0.3943 -0.1674
11011SOL    HW135926   3.726   6.357   0.965  1.1310  0.8604 -1.0366
11011SOL    HW235927   3.608   6.382   0.874 -0.3116 -0.9977  0.2500
11012SOL     OW35928   6.755   9.417   8.832  0.1468 -0.6298  0.1469
11012SOL    HW135929   6.824   9.430   8.767  0.3546 -3.1071 -0.2311
11012SOL    HW235930   6.779   9.335   8.875 -1.7006 -0.6792  1.1672
11013SOL     OW35931   6.895   3.765   8.282  0.5986  0.1975  0.7097
11013SOL    HW135932   6.906   3.702   8.353  0.3589  1.4029  1.8581
11013SOL    HW235933   6.847   3.717   8.214 -1.9220 -0.1449  2.6000
11014SOL     OW35934   7.586   2.055   5.191  0.2855  0.2864 -0.8661
11014SOL    HW135935   7.556   2.126   5.134  0.1147  1.2518  0.3882
11014SOL    HW235936   7.505   2.020   5.229  0.2725 -1.3094 -2.2726
11015SOL     OW35937   6.847   2.393   3.161 -0.2840  0.2713  0.0455
11015SOL    HW135938   6.902   2.445   3.104 -0.6612  0.7889  0.1479
11015SOL    HW235939   6.848   2.305   3.122 -0.3702  0.5665 -0.6390
11016SOL     OW35940   9.522   8.146   0.296 -0.3821  0.6613 -0.7092
11016SOL    HW135941   9.555   8.068   0.342 -0.0175  2.0434  1.5326
11016SOL    HW235942   9.542   8.129   0.204  1.6592 -0.9605 -0.0620
11017SOL     OW35943   4.994  10.684  10.505  0.1129  0.3924 -0.4259
11017SOL    HW135944   4.931  10.673  10.575  0.1456  3.1221  0.1405
11017SOL    HW235945   5.019  10.595  10.480  0.4492 -0.7225  3.3244
11018SOL     OW35946   0.084   1.115   1.667  0.4187 -0.3386  0.7110
11018SOL    HW135947   0.047   1.129   1.754  0.5301 -0.0466  0.7157
11018SOL    HW235948   0.053   1.029   1.640 -1.7729  0.6076 -0.0361
11019SOL     OW35949   3.948   0.623   2.144 -1.3764  0.4161  0.1185
11019SOL    HW135950   3.897   0.581   2.075  0.3072  1.1820 -1.6825
11019SOL    HW235951   3.886   0.681   2.189 -2.2534  0.8119 -1.5489
11020SOL     OW35952   6.709   4.563  10.720  0.9891 -0.0878 -0.1680
11020SOL    HW135953   6.773   4.508  10.765  0.4136 -1.1955 -0.6602
11020SOL    HW235954   6.625   4.523  10.741  0.5287  0.8257 -0.2498
11021SOL     OW35955   6.845   4.917   0.432  0.3313  0.6212 -1.0124
11021SOL    HW135956   6.843   4.996   0.486 -0.5397 -0.1667  0.1845
11021SOL    HW235957   6.754   4.903   0.407 -0.0010 -1.3678  0.9626
11022SOL     OW35958   3.628   8.854   7.256 -0.2718  0.3751 -0.0611
11022SOL    HW135959   3.616   8.861   7.351 -1.5059 -0.0810 -0.1628
11022SOL    HW235960   3.656   8.763   7.242  0.1243  0.5039 -0.1213
11023SOL     OW35961   8.306  10.703   5.515 -0.5080 -0.0831  0.0959
11023SOL    HW135962   8.212  10.709   5.535 -0.5331 -2.5619  1.0523
11023SOL    HW235963   8.349  10.706   5.600 -0.1118 -3.6311  0.1568
11024SOL     OW35964   2.708   5.535   2.196  0.5089  0.1611  0.3736
11024SOL    HW135965   2.797   5.553   2.225  0.4375  0.4363  0.4219
11024SOL    HW235966   2.718   5.509   2.104  1.0009 -3.0780  1.2290
11025SOL     OW35967   3.243   7.821   1.587  0.1628 -0.4994  0.4043
11025SOL    HW135968   3.150   7.836   1.604 -0.1289  1.9087 -2.5347
11025SOL    HW235969   3.244   7.751   1.522  0.1983  0.6651 -0.9045
11026SOL     OW35970   3.290   8.475   9.388 -0.0580  0.1820 -0.5438
11026SOL    HW135971   3.333   8.420   9.453  2.2361  1.3631 -0.9490
11026SOL    HW235972   3.361   8.504   9.330 -1.4507  1.9980 -1.4661
11027SOL     OW35973   1.938   2.385   9.123 -0.2692 -0.0194  0.1204
11027SOL    HW135974   1.950   2.394   9.218 -0.3525 -0.8563  0.2119
11027SOL    HW235975   1.858   2.436   9.105  0.5428  1.3507  0.2677
11028SOL     OW35976   9.904  10.419  10.347 -0.1966  0.0548  0.6208
11028SOL    HW135977   9.827  10.368  10.322  0.6075 -0.7812 -0.2894
11028SOL    HW235978   9.885  10.451  10.434 -1.7098  0.1453  0.2817
11029SOL     OW35979   5.819   8.322   2.295 -0.2937  0.0231  0.7401
11029SOL    HW135980   5.912   8.324   2.273 -0.5370  1.5509 -0.3147
11029SOL    HW235981   5.784   8.252   2.240 -0.0645  0.6899 -0.2922
11030SOL     OW35982   8.641  10.755   3.148 -0.3960 -0.0545 -0.1787
11030SOL    HW135983   8.648  10.784   3.056 -2.1184 -0.7366 -0.5438
11030SOL    HW235984   8.618  10.835   3.196  0.0178  0.2059 -0.4026
11031SOL     OW35985   2.720   0.824   8.607  0.0376 -0.5285  0.3194
11031SOL    HW135986   2.751   0.792   8.691 -1.5482 -1.2689  0.6644
11031SOL    HW235987   2.690   0.913   8.625  0.9433 -0.1914  0.2143
11032SOL     OW35988   6.038   1.840   5.566 -0.4913  0.2452  0.1648
11032SOL    HW135989   5.974   1.882   5.508 -0.3917  0.9293  0.5429
11032SOL    HW235990   6.014   1.748   5.566 -1.4752  0.4942  0.3016
11033SOL     OW35991   9.002   9.127   1.161  0.1345 -0.1035  0.2737
11033SOL    HW135992   8.950   9.103   1.238 -0.9557 -0.7761 -0.6335
11033SOL    HW235993   9.093   9.118   1.190 -0.2412  0.1101  1.6126
11034SOL     OW35994   9.605   2.581   5.832 -0.0472 -0.1405 -0.3423
11034SOL    HW135995   9.649   2.522   5.893 -0.7313 -0.0035  0.2912
11034SOL    HW235996   9.673   2.605   5.769  0.4128 -1.0660 -0.2189
11035SOL     OW35997   3.932   1.146   4.546  0.2733 -0.4816 -0.0799
11035SOL    HW135998   3.933   1.129   4.640 -1.8806  1.5878  0.4065
11035SOL    HW235999   3.850   1.108   4.515  1.2901 -1.7864 -1.3255
11036SOL     OW36000   9.044   3.048   7.157 -0.1350 -0.3364  0.1866
11036SOL    HW136001   9.014   2.961   7.181 -0.0200 -0.4907 -0.2247
11036SOL    HW236002   8.985   3.075   7.086  0.1755 -0.3014 -0.0577
11037SOL     OW36003   0.644   8.376   4.098 -0.7788 -0.1323  0.0590
11037SOL    HW136004   0.573   8.369   4.033  0.8543  0.6982 -1.9172
11037SOL    HW236005   0.691   8.455   4.073  0.2902 -0.1328  1.9354
11038SOL     OW36006   1.383   5.637   3.025 -0.1902 -0.0520  0.3188
11038SOL    HW136007   1.312   5.625   2.962  0.2265  1.4033 -0.4779
11038SOL    HW236008   1.395   5.732   3.030  1.2059 -0.2390  0.9860
11039SOL     OW36009   9.551   2.921  10.450 -0.6231 -0.8332  0.2073
11039SOL    HW136010   9.461   2.890  10.450 -0.4537 -1.3392 -0.5210
11039SOL    HW236011   9.588   2.889  10.368 -0.3226  0.9971 -0.4228
11040SOL     OW36012   0.315   0.875   9.757 -0.1924 -0.2262 -0.7413
11040SOL    HW136013   0.390   0.910   9.806  0.8473 -0.9736 -1.7719
11040SOL    HW236014   0.252   0.849   9.825  1.2962 -1.4197  0.2415
11041SOL     OW36015   9.211   7.132   3.492 -0.1848  0.6002  0.0753
11041SOL    HW136016   9.179   7.207   3.542 -2.7039 -0.6385  0.4689
11041SOL    HW236017   9.291   7.105   3.539 -0.1053  2.0648  0.8376
11042SOL     OW36018   0.539   5.434   5.952  0.3808  0.0063  0.7522
11042SOL    HW136019   0.474   5.386   5.900 -0.9527  1.6356  0.8244
11042SOL    HW236020   0.489   5.503   5.995  1.7070 -0.3599  3.0561
11043SOL     OW36021   4.176   0.444   2.189  0.2592  0.0526  0.1453
11043SOL    HW136022   4.092   0.489   2.200  1.4622  2.9216 -1.3721
11043SOL    HW236023   4.242   0.513   2.196  2.4382 -1.8962  0.0208
11044SOL     OW36024   4.321   2.268   7.268  0.1853  0.2372  0.1346
11044SOL    HW136025   4.330   2.336   7.202 -0.1014 -0.4399 -0.6308
11044SOL    HW236026   4.237   2.286   7.310  0.5459  0.8911  0.5830
11045SOL     OW36027   5.995   2.932   6.244  0.2252 -1.0596  0.5330
11045SOL    HW136028   6.084   2.901   6.229  0.1168 -1.3187  0.4111
11045SOL    HW236029   6.004   3.000   6.310  0.4866 -1.2357  0.6806
11046SOL     OW36030   1.130   6.760   6.204  0.2283  0.1527 -0.2767
11046SOL    HW136031   1.039   6.733   6.218  0.5197 -0.3796  0.6340
11046SOL    HW236032   1.123   6.834   6.143 -0.6922 -1.0946 -1.7652
11047SOL     OW36033   1.323   3.888   7.132  0.2423 -0.1869  0.4790
11047SOL    HW136034   1.324   3.901   7.037  2.0105  2.3532  0.7303
11047SOL    HW236035   1.413   3.860   7.153  0.2325  0.5138  1.5127
11048SOL     OW36036  10.779   3.710   7.548  0.2689 -0.4046  0.4297
11048SOL    HW136037  10.773   3.765   7.627 -1.4138  0.6448 -0.3804
11048SOL    HW236038  10.730   3.631   7.571 -0.6086  0.0908  0.3065
11049SOL     OW36039   9.479   2.782   1.312 -0.2553  0.1335  0.2807
11049SOL    HW136040   9.423   2.860   1.314 -1.7384 -0.8626 -0.7156
11049SOL    HW236041   9.516   2.782   1.223  2.0699  1.2245  1.1655
11050SOL     OW36042   6.204   1.584   5.785  0.1917 -0.6072  0.4118
11050SOL    HW136043   6.258   1.577   5.864 -1.0348 -0.8188  1.2593
11050SOL    HW236044   6.254   1.539   5.717  2.5595  1.8666  0.3327
11051SOL     OW36045   4.238   6.254   0.532 -0.5549 -0.4711  0.1797
11051SOL    HW136046   4.180   6.294   0.467  0.3774  0.3453 -0.1749
11051SOL    HW236047   4.299   6.202   0.481  0.5458  0.6371  0.3353
11052SOL     OW36048   1.269   5.710   7.208  0.3386 -0.0451 -0.5994
11052SOL    HW136049   1.241   5.728   7.118  2.7693 -0.7809 -1.5887
11052SOL    HW236050   1.236   5.784   7.259  0.6074  1.4478 -2.4711
11053SOL     OW36051   8.225   9.507   7.270  0.0873  0.6097  0.2182
11053SOL    HW136052   8.209   9.599   7.289  2.9035  1.2262  0.0034
11053SOL    HW236053   8.304   9.486   7.319 -0.2514 -1.6141 -0.0856
11054SOL     OW36054   4.201   4.017   0.543  0.4974  0.2156  0.1529
11054SOL    HW136055   4.269   4.077   0.572  1.0699 -0.3189 -0.0679
11054SOL    HW236056   4.220   4.001   0.450 -0.1541  0.3641 -0.0114
11055SOL     OW36057  10.155   1.639   4.188  0.6241  0.0746  0.6764
11055SOL    HW136058  10.168   1.713   4.128 -1.7534  2.5867  3.0094
11055SOL    HW236059  10.069   1.604   4.165  0.8794 -0.7387  0.8991
11056SOL     OW36060   7.910   0.328   2.377  0.0871 -0.4973 -0.0128
11056SOL    HW136061   7.901   0.333   2.472  1.9294  0.6281  0.1566
11056SOL    HW236062   7.949   0.242   2.361 -1.0469 -1.0500  0.1553
11057SOL     OW36063   2.080   9.595  10.753 -0.4241  0.0968 -0.1883
11057SOL    HW136064   2.160   9.598  10.805  0.2440 -0.2585 -1.1720
11057SOL    HW236065   2.071   9.684  10.719  0.7205 -0.3395 -1.7559
11058SOL     OW36066   0.604   7.758   2.231  0.0700  0.2288 -0.0752
11058SOL    HW136067   0.662   7.683   2.242 -1.8294 -1.1018  1.4498
11058SOL    HW236068   0.594   7.794   2.320 -2.1418 -0.1752 -0.1056
11059SOL     OW36069   7.135   1.148   9.318  0.3696 -0.3186 -0.8093
11059SOL    HW136070   7.155   1.170   9.408 -0.7542  1.3994 -0.9212
11059SOL    HW236071   7.039   1.151   9.313  0.2864 -2.5149 -1.5828
11060SOL     OW36072   0.815   5.803   4.973  0.2180 -0.4312 -0.0013
11060SOL    HW136073   0.830   5.843   5.059  1.9475 -0.9344 -0.0358
11060SOL    HW236074   0.873   5.852   4.914  2.7887 -3.1687  0.0326
11061SOL     OW36075   1.246   9.714   7.804  0.3528  0.1684 -0.2532
11061SOL    HW136076   1.332   9.673   7.796 -0.3456 -1.6386  0.9855
11061SOL    HW236077   1.265   9.805   7.827  1.9521  0.6248 -2.9415
11062SOL     OW36078   0.052   1.831  10.687 -0.1916  0.6987 -0.2136
11062SOL    HW136079   0.021   1.872  10.768 -0.5392 -1.1072  0.5997
11062SOL    HW236080  -0.028   1.809  10.639 -0.0378  0.2194 -0.2561
11063SOL     OW36081   6.909   4.917   0.784  0.6057  0.2615  0.0984
11063SOL    HW136082   6.822   4.944   0.757  0.0626 -0.5762  0.9369
11063SOL    HW236083   6.894   4.846   0.847  1.8009  1.9959  2.4847
11064SOL     OW36084   2.952   5.504  10.384  0.0094 -0.1772  0.2178
11064SOL    HW136085   2.941   5.597  10.404 -0.9317  0.1481 -1.5929
11064SOL    HW236086   2.974   5.501  10.291 -0.3949 -1.7825  0.1348
11065SOL     OW36087   7.082   3.017   7.297  0.6302  0.1750 -0.1138
11065SOL    HW136088   7.028   3.096   7.291  2.2767  1.2500 -3.2304
11065SOL    HW236089   7.063   2.981   7.384 -2.7935  2.0508  0.0704
11066SOL     OW36090   3.450   9.394   7.635 -0.2732  0.1901 -0.3226
11066SOL    HW136091   3.407   9.403   7.720  1.8095  1.3419  0.6816
11066SOL    HW236092   3.452   9.483   7.599 -0.1504 -0.1074 -1.0699
11067SOL     OW36093   6.161   1.896   7.727 -0.7071 -0.4720  0.5925
11067SOL    HW136094   6.130   1.979   7.691 -0.0775 -0.2115  0.6472
11067SOL    HW236095   6.200   1.920   7.811 -1.5569 -0.9810  1.1444
11068SOL     OW36096   6.502   8.306   6.087  0.1798 -0.0125 -0.0866
11068SOL    HW136097   6.419   8.341   6.119 -0.8174 -1.4964 -0.8994
11068SOL    HW236098   6.537   8.257   6.161  0.4244  0.7809  0.3216
11069SOL     OW36099   4.433   2.684   9.879 -0.3838  0.1521 -0.0028
11069SOL    HW136100   4.392   2.688   9.793  0.8052  1.9356 -0.5425
11069SOL    HW236101   4.361   2.690   9.941 -1.0962  1.0871 -0.8972
11070SOL     OW36102   0.523   1.974   7.317 -0.1239  0.0332  0.2461
11070SOL    HW136103   0.579   2.051   7.306 -0.6867  0.1344 -2.6012
11070SOL    HW236104   0.448   1.991   7.260 -0.3394 -2.5074 -0.3273
11071SOL     OW36105   0.607   4.662   9.635 -0.1619  0.3868  0.4065
11071SOL    HW136106   0.565   4.743   9.609 -1.2449 -0.5473 -0.9468
11071SOL    HW236107   0.596   4.604   9.559  3.1007 -0.1193  0.1700
11072SOL     OW36108  10.767   6.047   7.228  0.1400  0.0368 -0.3643
11072SOL    HW136109  10.814   5.979   7.180 -1.0002 -1.1197  0.0789
11072SOL    HW236110  10.810   6.049   7.314  0.3396  0.0428 -0.4652
11073SOL     OW36111   9.609   7.443   4.265 -0.5124 -0.1276  0.8653
11073SOL    HW136112   9.691   7.429   4.218 -0.0709 -0.2173  1.6495
11073SOL    HW236113   9.576   7.355   4.284  0.0364 -0.1011  1.9657
11074SOL     OW36114  10.521   2.598   7.714 -0.1526 -0.6685 -0.3555
11074SOL    HW136115  10.430   2.607   7.687 -0.3759 -2.7842 -0.4148
11074SOL    HW236116  10.517   2.558   7.801  0.7322 -0.3919 -0.1713
11075SOL     OW36117   1.558   7.224   1.647  0.4417  0.1316 -0.3935
11075SOL    HW136118   1.651   7.235   1.665  0.0310  0.6551  1.7283
11075SOL    HW236119   1.515   7.240   1.731 -1.6638  1.0979 -1.5573
11076SOL     OW36120   6.325   7.058   6.666  0.3314  0.2700 -0.8251
11076SOL    HW136121   6.413   7.092   6.680  0.2724 -0.2563  1.2275
11076SOL    HW236122   6.334   6.964   6.682 -0.6592  0.2743 -0.1808
11077SOL     OW36123   2.033   0.578   0.801 -0.3859 -0.0189 -0.1683
11077SOL    HW136124   2.015   0.554   0.710 -0.2671  1.0800 -0.4943
11077SOL    HW236125   2.126   0.604   0.800 -0.1899 -0.6732  0.4199
11078SOL     OW36126   3.936   0.834   1.946  0.2693 -0.1390 -0.1337
11078SOL    HW136127   3.941   0.782   2.026  1.2007 -0.7678 -0.5830
11078SOL    HW236128   4.023   0.874   1.938 -0.3533  1.3272  0.0756
11079SOL     OW36129   0.833   7.140   7.727  0.6179 -0.0108  0.7568
11079SOL    HW136130   0.744   7.118   7.753  0.6558  0.7414  1.5403
11079SOL    HW236131   0.861   7.207   7.789  1.4255  0.3744 -0.0011
11080SOL     OW36132   0.267   9.576   4.470 -0.2803 -0.0477  0.0800
11080SOL    HW136133   0.309   9.516   4.532  0.3890 -1.2270 -1.4526
11080SOL    HW236134   0.275   9.662   4.512  0.5169 -0.7347  1.4379
11081SOL     OW36135   1.110   8.974   6.770 -0.5788  0.4071 -0.1914
11081SOL    HW136136   1.175   9.014   6.713 -1.1442  0.9720 -0.4481
11081SOL    HW236137   1.054   8.924   6.711 -0.5119  0.0972  0.0043
11082SOL     OW36138   3.046   0.619   7.838 -0.2523 -0.1758 -0.0084
11082SOL    HW136139   2.979   0.638   7.905 -0.8112 -1.4259 -0.1866
11082SOL    HW236140   3.118   0.580   7.887 -0.8339 -1.4831 -0.1746
11083SOL     OW36141  10.445   4.590   6.439 -0.8097  0.7877 -0.2443
11083SOL    HW136142  10.497   4.622   6.512 -1.0510 -0.6607  0.6137
11083SOL    HW236143  10.468   4.497   6.433  0.1378  1.0954 -2.8175
11084SOL     OW36144   8.027   1.886   4.914 -0.4766 -0.3204 -0.0460
11084SOL    HW136145   8.121   1.869   4.911 -0.6096 -1.0015 -0.6378
11084SOL    HW236146   8.004   1.904   4.823 -1.1945 -1.7460 -0.1774
11085SOL     OW36147   7.138   7.924   5.573 -0.0848  0.2118 -0.7641
11085SOL    HW136148   7.150   7.883   5.658  0.0518 -0.2987 -1.0252
11085SOL    HW236149   7.139   7.851   5.511 -2.0987  0.3507 -1.0286
11086SOL     OW36150   3.669   4.501   0.644  0.1922 -1.0345 -0.4335
11086SOL    HW136151   3.587   4.490   0.691  0.7301 -2.8987  0.1392
11086SOL    HW236152   3.688   4.414   0.607  2.4445 -0.9487  0.3736
11087SOL     OW36153   5.318   6.125   9.612 -0.3018  0.0380  0.3202
11087SOL    HW136154   5.228   6.159   9.608 -0.3316 -0.0583  0.1682
11087SOL    HW236155   5.370   6.191   9.565 -0.4191 -0.3177 -0.3266
11088SOL     OW36156   5.330   5.352   8.488  0.3099 -0.2072 -0.4773
11088SOL    HW136157   5.283   5.374   8.569  0.6055 -0.4147 -0.2476
11088SOL    HW236158   5.318   5.257   8.478  0.2004 -0.1698 -0.7275
11089SOL     OW36159   5.236   0.969   0.573 -0.0854  0.3384 -0.4587
11089SOL    HW136160   5.247   1.047   0.627 -0.0543  0.6488 -0.9078
11089SOL    HW236161   5.267   0.897   0.628 -0.4055  0.6037  0.0706
11090SOL     OW36162   2.740  10.006   8.621 -0.1837  0.5180  0.2164
11090SOL    HW136163   2.691   9.931   8.586 -0.6085  0.7738  0.2606
11090SOL    HW236164   2.822   9.967   8.653  0.4464  0.3609 -1.5144
11091SOL     OW36165   3.945   1.572   9.880 -0.1885  0.5507 -0.1062
11091SOL    HW136166   3.947   1.492   9.932 -1.4738  0.3615 -0.3194
11091SOL    HW236167   3.881   1.555   9.811 -0.9854  1.9930  0.2338
11092SOL     OW36168   1.827   6.801   9.665 -0.0622 -0.5740  0.0849
11092SOL    HW136169   1.776   6.746   9.605 -1.2365  0.4666  0.0970
11092SOL    HW236170   1.919   6.779   9.646 -0.3768  0.0341 -2.3930
11093SOL     OW36171   7.253   2.636   3.895  0.2812  0.6274  0.4639
11093SOL    HW136172   7.346   2.640   3.873  0.0774  0.5905 -0.4414
11093SOL    HW236173   7.251   2.624   3.990  1.2568 -1.7789  0.2631
11094SOL     OW36174   3.461   6.929   1.078 -0.2075 -0.3112 -0.4414
11094SOL    HW136175   3.444   6.836   1.094 -1.0093 -0.2724 -1.0052
11094SOL    HW236176   3.444   6.940   0.984  0.5157  0.2762 -0.5147
11095SOL     OW36177   5.370   8.517   7.975 -0.0074  0.3307 -0.5061
11095SOL    HW136178   5.367   8.429   8.011 -0.6825  0.6960  0.3654
11095SOL    HW236179   5.459   8.547   7.993 -0.4188  0.6253  1.2225
11096SOL     OW36180   6.953   9.105   9.100 -0.4841  0.0515  0.0363
11096SOL    HW136181   6.999   9.174   9.051 -0.1786  1.0006  1.6071
11096SOL    HW236182   7.014   9.080   9.169 -0.3371 -2.2719 -0.8306
11097SOL     OW36183   8.053   2.273   0.591 -0.5042 -0.0785  0.9534
11097SOL    HW136184   8.082   2.322   0.668  1.9323  1.0724 -0.5789
11097SOL    HW236185   8.047   2.339   0.522 -0.4530 -1.4214 -0.3781
11098SOL     OW36186   2.286   2.578   4.055 -0.1326 -0.2650 -0.5505
11098SOL    HW136187   2.294   2.499   4.108  1.2608  0.0476 -0.2461
11098SOL    HW236188   2.360   2.575   3.995 -0.1626  0.7158 -0.6609
11099SOL     OW36189   9.873  10.175   0.688  0.2686 -0.1697  0.6616
11099SOL    HW136190   9.816  10.229   0.742  0.9851 -0.5086  1.7980
11099SOL    HW236191   9.814  10.135   0.623 -0.4053  1.2329  0.3743
11100SOL     OW36192   3.440  10.712   7.092 -0.4335 -0.8011  0.0895
11100SOL    HW136193   3.400  10.799   7.082 -0.0141 -0.6108  0.0364
11100SOL    HW236194   3.464  10.707   7.184 -3.1284 -2.0472  0.8294
11101SOL     OW36195   7.803   1.017   0.109  0.1374 -0.2401  0.0659
11101SOL    HW136196   7.847   1.026   0.193 -0.4374 -0.8087  0.4390
11101SOL    HW236197   7.818   1.101   0.065  1.9754 -0.5934 -0.0267
11102SOL     OW36198   1.797   0.107   0.471  0.2299 -0.4048  0.2362
11102SOL    HW136199   1.796   0.093   0.565  0.0512 -1.1411  0.1348
11102SOL    HW236200   1.716   0.066   0.440  0.0305  0.2869 -0.1795
11103SOL     OW36201   0.541   9.270   9.840 -0.0769 -0.3948  0.2737
11103SOL    HW136202   0.624   9.295   9.881 -0.3437  1.8651 -0.4074
11103SOL    HW236203   0.563   9.196   9.784  2.1407  1.6995 -1.9064
11104SOL     OW36204   6.153   8.005   0.389 -0.0489 -0.7387 -0.1916
11104SOL    HW136205   6.226   8.057   0.423 -0.4249  0.2671 -0.8832
11104SOL    HW236206   6.080   8.067   0.383 -0.8806 -1.6474  0.1709
11105SOL     OW36207   3.935   5.972   6.134 -0.2448 -0.4127  0.0518
11105SOL    HW136208   3.997   6.045   6.129 -0.6569 -0.1158 -1.0542
11105SOL    HW236209   3.928   5.940   6.044  1.2338 -2.9554  0.7442
11106SOL     OW36210   5.005   3.844   2.098 -0.0035  0.0648  0.3106
11106SOL    HW136211   4.956   3.763   2.084 -0.4517 -0.0613  2.2661
11106SOL    HW236212   5.085   3.817   2.143  0.9027  0.4922 -1.0154
11107SOL     OW36213   6.168   6.674   4.037 -0.0353 -0.2213 -0.3842
11107SOL    HW136214   6.077   6.701   4.048  0.1306 -0.3967  1.9998
11107SOL    HW236215   6.177   6.655   3.943 -2.4702 -0.3100 -0.6521
11108SOL     OW36216   1.020   4.995   2.769  0.0632  0.8267  0.3063
11108SOL    HW136217   0.956   5.061   2.794  0.8303  1.4057  0.7593
11108SOL    HW236218   1.060   4.966   2.851 -0.3829 -0.3502  0.1412
11109SOL     OW36219   5.821   8.377   3.627  0.3005 -0.6756  0.3267
11109SOL    HW136220   5.728   8.399   3.622  0.3821 -0.6209 -3.5986
11109SOL    HW236221   5.855   8.434   3.696 -2.5094 -0.6815  1.8520
11110SOL     OW36222   7.698   8.596   5.469  0.3985 -0.0721  0.4913
11110SOL    HW136223   7.685   8.503   5.451 -1.5660 -0.2071  2.2213
11110SOL    HW236224   7.770   8.599   5.531 -0.0767 -0.5237  1.0692
11111SOL     OW36225   7.953   4.190   6.416  0.2606  0.6791 -0.0088
11111SOL    HW136226   7.993   4.181   6.502 -1.4448  1.0385  0.8795
11111SOL    HW236227   7.971   4.281   6.390  3.2172 -0.1829 -1.4035
11112SOL     OW36228   1.314   0.992   2.046 -0.3440 -0.2179  0.2558
11112SOL    HW136229   1.397   0.946   2.049 -0.1494  0.1147  0.0083
11112SOL    HW236230   1.311   1.032   1.959 -0.3705  0.4949  0.5763
11113SOL     OW36231   8.666   1.479   4.986  0.5319 -0.0375  0.3835
11113SOL    HW136232   8.724   1.553   5.004  1.1352 -0.0931 -1.1288
11113SOL    HW236233   8.724   1.412   4.948 -0.3578 -0.4228 -0.3365
11114SOL     OW36234   3.071  10.538   6.476  0.3407 -0.3249 -0.4004
11114SOL    HW136235   3.113  10.465   6.430  0.4328 -1.2627  1.1004
11114SOL    HW236236   2.985  10.546   6.434 -0.1107 -2.0557  0.1106
11115SOL     OW36237   4.253   2.897   9.071 -0.0579  0.0222  0.2661
11115SOL    HW136238   4.343   2.865   9.081 -0.0005  0.1544  0.1754
11115SOL    HW236239   4.252   2.979   9.120  0.2815  0.7844 -0.9654
11116SOL     OW36240   2.439   9.408   9.235  0.2911 -0.5053 -0.0918
11116SOL    HW136241   2.464   9.355   9.159  1.0319 -0.4757  0.1234
11116SOL    HW236242   2.477   9.494   9.218  0.2095 -0.4155  0.1750
11117SOL     OW36243   9.948   7.588   1.095  0.3248  0.2167 -0.0812
11117SOL    HW136244   9.951   7.493   1.110 -2.1031  0.1049  0.2050
11117SOL    HW236245   9.935   7.626   1.182  1.0157  0.8128 -0.2257
11118SOL     OW36246   5.246   7.594   5.315  0.5219  0.2769 -0.1997
11118SOL    HW136247   5.319   7.581   5.375  0.0353  0.4793  0.4447
11118SOL    HW236248   5.227   7.506   5.281  0.3667  0.0592  0.4504
11119SOL     OW36249   3.033   3.992   4.552 -0.1175 -0.2853  0.4036
11119SOL    HW136250   3.002   4.080   4.528  0.1558 -0.5778 -1.1668
11119SOL    HW236251   3.128   3.998   4.546 -0.1232 -1.1920 -1.9340
11120SOL     OW36252   7.240   9.687   2.919 -0.0726 -0.4377 -0.0838
11120SOL    HW136253   7.312   9.632   2.952  0.8201 -0.3399 -1.7386
11120SOL    HW236254   7.206   9.731   2.996  2.6908  0.7131  0.6107
11121SOL     OW36255   7.249   2.546   1.956  0.0815 -0.2176 -0.6795
11121SOL    HW136256   7.342   2.554   1.974  0.2709 -0.7609 -1.3603
11121SOL    HW236257   7.220   2.474   2.014 -0.5398  1.7577  1.6248
11122SOL     OW36258   2.589   0.365   3.184  0.2024  0.5747  0.0690
11122SOL    HW136259   2.618   0.330   3.099  0.4669  0.3571  0.2504
11122SOL    HW236260   2.511   0.314   3.205 -0.1102  0.9170 -0.2456
11123SOL     OW36261   2.469   7.827  10.130  0.2824 -0.1913 -0.1342
11123SOL    HW136262   2.399   7.770  10.163 -1.4534  1.0137 -1.5559
11123SOL    HW236263   2.484   7.890  10.201 -1.0986  0.3871 -0.3236
11124SOL     OW36264   1.250   7.555   4.828  0.5381 -0.2950  0.0549
11124SOL    HW136265   1.279   7.646   4.828 -2.1874  0.6480  0.9262
11124SOL    HW236266   1.329   7.506   4.853  2.0803  1.7830 -0.4420
11125SOL     OW36267   8.027   6.657   3.303 -0.3161  0.2687  0.0717
11125SOL    HW136268   8.064   6.572   3.324  0.7796  0.6459 -0.2267
11125SOL    HW236269   7.976   6.682   3.380 -0.0844 -0.3511  0.4299
11126SOL     OW36270   9.547   4.938   7.288  0.0652 -0.2070 -0.6540
11126SOL    HW136271   9.533   4.860   7.340 -1.7644 -0.5781 -1.6102
11126SOL    HW236272   9.638   4.962   7.303  1.3267 -3.6710 -1.8544
11127SOL     OW36273   7.232   3.511  10.622  0.3627  0.3140 -0.4366
11127SOL    HW136274   7.194   3.594  10.592 -1.9505  0.3988  2.2803
11127SOL    HW236275   7.326   3.528  10.627  0.2545  1.8956 -2.3669
11128SOL     OW36276   2.167   7.772   7.945  0.0466  0.1072  0.3589
11128SOL    HW136277   2.169   7.853   7.895  0.8630  0.3613  0.7951
11128SOL    HW236278   2.210   7.708   7.888  1.0974  0.4283  0.7815
11129SOL     OW36279   8.751   7.669  10.689  0.5630 -0.2757 -0.6333
11129SOL    HW136280   8.694   7.657  10.614 -0.5499 -0.7489  0.2592
11129SOL    HW236281   8.743   7.588  10.739  2.9049 -0.8443 -1.0395
11130SOL     OW36282   4.313   0.784   1.571 -0.2930 -0.4182  0.7927
11130SOL    HW136283   4.362   0.857   1.534  0.4399 -1.1265  0.3340
11130SOL    HW236284   4.271   0.821   1.649 -1.3836  0.9438 -0.3714
11131SOL     OW36285   8.690   1.713   7.723  0.0306  0.0746 -0.2497
11131SOL    HW136286   8.777   1.752   7.735  0.1361  0.1503 -1.1538
11131SOL    HW236287   8.636   1.753   7.790  0.8393 -0.4332  0.7279
11132SOL     OW36288   8.706  10.607   2.000 -0.5412 -0.2507 -0.0919
11132SOL    HW136289   8.630  10.664   2.010 -0.5006 -0.4167  1.2988
11132SOL    HW236290   8.748  10.638   1.920 -1.2189  0.8550 -0.0426
11133SOL     OW36291   0.672   1.569   9.232  0.1737 -0.1446  0.2627
11133SOL    HW136292   0.662   1.590   9.139 -0.7432 -0.2403  0.3331
11133SOL    HW236293   0.594   1.518   9.254  0.0290  0.4711  1.2545
11134SOL     OW36294   5.135   0.981   3.480 -0.0434 -0.5251  0.5638
11134SOL    HW136295   5.181   0.910   3.525  0.3519 -1.3254 -1.0281
11134SOL    HW236296   5.136   0.955   3.387  0.3287  1.6919 -0.0992
11135SOL     OW36297   2.009   0.708   9.153 -0.4764  0.8326 -0.4966
11135SOL    HW136298   2.062   0.735   9.228 -0.5654  0.5569 -0.3315
11135SOL    HW236299   2.023   0.614   9.146  0.7246  1.0745 -1.7694
11136SOL     OW36300   5.930   7.656   9.450  0.3091  0.2533 -0.4731
11136SOL    HW136301   6.019   7.667   9.482  0.7999 -0.3641 -1.5503
11136SOL    HW236302   5.923   7.716   9.376 -1.2239  2.6138  1.4546
11137SOL     OW36303   4.270   9.231   1.410  0.3651  0.3482  0.1103
11137SOL    HW136304   4.330   9.213   1.338  0.1655 -0.8184  0.2182
11137SOL    HW236305   4.198   9.280   1.370 -0.5686 -1.6966 -0.8616
11138SOL     OW36306   9.649   6.815   2.965 -0.6245 -0.2050 -0.0063
11138SOL    HW136307   9.569   6.827   2.913 -0.4462 -0.3075 -0.3122
11138SOL    HW236308   9.674   6.903   2.992 -0.1770 -0.0318 -0.9284
11139SOL     OW36309   0.519  10.024  10.475  0.0266 -0.0641 -0.4308
11139SOL    HW136310   0.520   9.984  10.388 -0.9714 -2.0342  0.3767
11139SOL    HW236311   0.551  10.113  10.462 -0.8093 -0.0633 -2.9251
11140SOL     OW36312   7.540   5.471   0.574 -0.1159 -0.4418  0.4363
11140SOL    HW136313   7.607   5.510   0.631 -0.5914 -0.2109  0.8490
11140SOL    HW236314   7.577   5.478   0.486 -0.4026  1.4853  0.4190
11141SOL     OW36315   1.038   0.099   4.733  0.5216 -0.6666  0.2382
11141SOL    HW136316   1.116   0.149   4.757  1.3920 -2.4551  1.2932
11141SOL    HW236317   1.039   0.023   4.790 -2.7920 -0.0927  1.3284
11142SOL     OW36318   0.592   7.893   0.823  0.2109  0.5972  0.1243
11142SOL    HW136319   0.679   7.854   0.827 -0.2985 -0.7630 -1.1494
11142SOL    HW236320   0.600   7.964   0.759  0.0452 -0.5681 -1.2315
11143SOL     OW36321   2.451   4.718   7.174  0.3749  0.0966 -0.4150
11143SOL    HW136322   2.534   4.758   7.200  0.9241 -0.0089 -1.9430
11143SOL    HW236323   2.475   4.631   7.143 -0.4313 -0.2563 -0.0892
11144SOL     OW36324   3.427   3.553   7.191 -0.4664  0.5798  0.4245
11144SOL    HW136325   3.411   3.489   7.122  0.7183  0.4463  0.2494
11144SOL    HW236326   3.340   3.583   7.218 -0.9496  1.3270 -1.7633
11145SOL     OW36327   1.308   8.708   9.661 -0.5739 -0.3595  0.0640
11145SOL    HW136328   1.368   8.752   9.720  0.5805  0.0379 -1.3700
11145SOL    HW236329   1.306   8.762   9.583 -1.6633 -1.1481 -0.4851
11146SOL     OW36330   2.863   0.999   2.233 -0.4450  0.3349  0.1743
11146SOL    HW136331   2.818   1.037   2.308  1.3046  0.4362  1.2316
11146SOL    HW236332   2.822   1.039   2.157  0.7426  3.8625  1.1776
11147SOL     OW36333  10.310   0.744   9.667  0.0483 -0.0002  0.2209
11147SOL    HW136334  10.366   0.669   9.683 -2.9172 -2.7172 -0.9884
11147SOL    HW236335  10.356   0.796   9.601  1.1420 -2.1380 -0.7987
11148SOL     OW36336   5.204   6.706   5.666 -0.1244 -0.2956 -0.2819
11148SOL    HW136337   5.128   6.695   5.608 -0.9044  0.1387  0.6388
11148SOL    HW236338   5.212   6.801   5.676 -0.6372 -0.3870  1.1337
11149SOL     OW36339   6.972   1.358   3.188  0.1469  0.3539  0.5575
11149SOL    HW136340   6.947   1.268   3.168 -1.5770  0.8258  0.4180
11149SOL    HW236341   6.979   1.400   3.102  1.6381  0.2272  0.5798
11150SOL     OW36342   8.318   2.913   1.852 -0.2529 -0.0298  0.1827
11150SOL    HW136343   8.280   2.932   1.766 -1.4803 -1.4411  0.3620
11150SOL    HW236344   8.242   2.901   1.909  0.5476  1.7791  1.7241
11151SOL     OW36345   3.800   3.638   4.519  1.0533  0.3505  0.3167
11151SOL    HW136346   3.763   3.552   4.500  0.3033  0.4007  1.4154
11151SOL    HW236347   3.770   3.693   4.447 -2.1292  0.6594  1.6889
11152SOL     OW36348   0.831   6.907   8.529  0.3040  0.2733  0.8331
11152SOL    HW136349   0.889   6.838   8.498 -0.5850 -0.2333  0.2738
11152SOL    HW236350   0.792   6.944   8.450 -0.7185  0.0822  1.2296
11153SOL     OW36351   8.833   5.754   3.561 -0.4864 -0.3414  0.3946
11153SOL    HW136352   8.801   5.716   3.643  0.5781  1.0082  1.5064
11153SOL    HW236353   8.846   5.847   3.582 -1.0346  0.2302 -1.5881
11154SOL     OW36354   9.726   1.677   7.477 -0.5534  0.6527  0.4868
11154SOL    HW136355   9.644   1.633   7.500 -1.1664 -0.4766 -3.1379
11154SOL    HW236356   9.707   1.721   7.394  1.9946  2.0879  0.5524
11155SOL     OW36357   2.547   6.230  10.456 -0.4269  0.0585 -0.2038
11155SOL    HW136358   2.492   6.254  10.381 -0.5131  0.7765  0.0894
11155SOL    HW236359   2.574   6.313  10.494  2.9866 -0.1255 -1.8395
11156SOL     OW36360   6.680   1.568   9.310 -0.8715  0.7915  0.2629
11156SOL    HW136361   6.637   1.606   9.233 -0.3574 -0.2355 -0.5582
11156SOL    HW236362   6.608   1.533   9.363 -1.1127 -2.1961 -1.7848
11157SOL     OW36363   2.907   7.161   4.439  0.1601  0.1084 -0.1488
11157SOL    HW136364   2.938   7.214   4.513  0.9200 -1.2176  0.5222
11157SOL    HW236365   2.987   7.128   4.397 -0.2803  0.2216 -1.1068
11158SOL     OW36366   5.606   6.293  10.592 -0.0523 -0.2255  0.1024
11158SOL    HW136367   5.599   6.267  10.501  1.0495  0.3394 -0.1620
11158SOL    HW236368   5.643   6.381  10.590  2.1997 -1.0451  1.1079
11159SOL     OW36369   4.059   6.956   7.308 -0.2413  0.3545 -0.0030
11159SOL    HW136370   3.965   6.945   7.297 -0.3044  0.5262  0.3350
11159SOL    HW236371   4.083   7.026   7.247 -0.3702  0.4558  0.0628
11160SOL     OW36372  10.574  10.450   0.938  0.5312 -0.3277 -0.2240
11160SOL    HW136373  10.526  10.368   0.937  1.6153 -1.0162  1.1420
11160SOL    HW236374  10.536  10.499   1.011  0.7602 -0.1504 -0.2227
11161SOL     OW36375   3.865   5.426   5.034 -0.1116  0.1548  0.3805
11161SOL    HW136376   3.898   5.507   4.995 -1.2149  0.9511  1.0490
11161SOL    HW236377   3.876   5.439   5.129  0.7629 -0.9632  0.4562
11162SOL     OW36378  10.054   7.243   0.891  0.0202 -0.1154 -0.0684
11162SOL    HW136379  10.057   7.213   0.800 -0.5362  4.1468 -1.7097
11162SOL    HW236380  10.146   7.264   0.911 -0.1416  1.2238 -0.6081
11163SOL     OW36381   8.725   6.854   0.723 -0.2882 -0.1388  0.3544
11163SOL    HW136382   8.666   6.788   0.760  0.6622 -0.6864  0.9433
11163SOL    HW236383   8.799   6.855   0.783 -2.1869  4.8492  3.2320
11164SOL     OW36384   2.164   9.848   6.114 -0.1624 -0.4563  0.2300
11164SOL    HW136385   2.181   9.924   6.058 -0.1945 -0.3971  0.3002
11164SOL    HW236386   2.194   9.773   6.063  0.5353 -0.3309  0.4476
11165SOL     OW36387   3.543   7.951   3.569 -0.7897  0.1378 -0.1344
11165SOL    HW136388   3.522   8.023   3.510  2.0258  0.4047 -0.9788
11165SOL    HW236389   3.474   7.886   3.554 -1.6523  1.3523 -1.6812
11166SOL     OW36390   2.182   3.018   9.050  0.1640 -0.1297  0.4786
11166SOL    HW136391   2.208   3.030   9.141  1.0360 -1.1158  0.3823
11166SOL    HW236392   2.146   3.103   9.023  2.0372  0.8880  1.0590
11167SOL     OW36393   5.260   8.965   8.221  0.0658  0.0059  0.6260
11167SOL    HW136394   5.259   9.056   8.249 -1.6565 -0.2243  1.4865
11167SOL    HW236395   5.273   8.915   8.302  2.5959 -0.5368 -0.0162
11168SOL     OW36396   0.442   5.843   5.427  0.6787  0.3799  0.2669
11168SOL    HW136397   0.503   5.810   5.361 -0.3226 -0.3141 -0.3484
11168SOL    HW236398   0.406   5.923   5.390  0.7662  0.4577  0.3512
11169SOL     OW36399   0.183   6.026   6.884  0.2558  0.0566  0.0564
11169SOL    HW136400   0.203   5.963   6.954 -0.5467  1.0289  1.1892
11169SOL    HW236401   0.182   6.111   6.928 -0.6288  0.6453 -1.0755
11170SOL     OW36402   0.183   5.645   0.059  0.2764  0.2600 -0.5258
11170SOL    HW136403   0.221   5.721   0.102 -1.1580  1.2897 -1.0122
11170SOL    HW236404   0.217   5.570   0.108  0.3882  1.2836  1.0406
11171SOL     OW36405   6.571   8.729   4.148 -0.2201 -0.1048 -0.1893
11171SOL    HW136406   6.571   8.815   4.105  1.2418  0.5260  0.9752
11171SOL    HW236407   6.631   8.676   4.096 -2.3332 -0.9988 -1.8612
11172SOL     OW36408   3.025   0.189   3.264 -0.1733  0.6799  0.0667
11172SOL    HW136409   3.073   0.266   3.234 -0.3822  0.4466 -0.8803
11172SOL    HW236410   3.042   0.186   3.358  1.2971  0.8575 -0.1696
11173SOL     OW36411   2.599   4.079   9.814  0.6640  0.0595 -0.0203
11173SOL    HW136412   2.672   4.017   9.809  0.0110 -0.6616 -1.1911
11173SOL    HW236413   2.522   4.024   9.832 -0.0287  0.4120 -1.7263
11174SOL     OW36414   9.646   8.668   7.132  0.4319  0.1010 -0.5341
11174SOL    HW136415   9.584   8.733   7.098 -1.3917 -1.7381 -0.9160
11174SOL    HW236416   9.644   8.681   7.227 -0.6081  0.0385 -0.5344
11175SOL     OW36417   2.636   9.564   6.665 -0.2757  0.5030  0.6882
11175SOL    HW136418   2.663   9.472   6.670  0.7641  0.6707 -0.8025
11175SOL    HW236419   2.568   9.565   6.598 -1.3333  0.6346  1.7431
11176SOL     OW36420   8.513   5.013   8.421  0.7892  0.5813  0.0441
11176SOL    HW136421   8.484   4.956   8.350  2.3376  0.0337 -0.1822
11176SOL    HW236422   8.496   5.102   8.389  1.9759  0.3591 -1.2685
11177SOL     OW36423   1.298   2.777   1.382  0.0744  0.4546 -0.6712
11177SOL    HW136424   1.377   2.788   1.434 -1.0142  3.6376  0.5221
11177SOL    HW236425   1.241   2.722   1.436  0.7944 -0.4562 -0.8051
11178SOL     OW36426   2.273   8.349   3.769  0.0354  0.3174  0.3035
11178SOL    HW136427   2.318   8.425   3.731  1.7876  0.4012  2.3537
11178SOL    HW236428   2.241   8.381   3.853  0.2116 -1.0360  0.8965
11179SOL     OW36429   8.822   5.584   6.496  0.1874 -0.1311 -0.3318
11179SOL    HW136430   8.867   5.557   6.577 -0.7960  0.9723  0.6292
11179SOL    HW236431   8.782   5.504   6.463 -0.3394 -0.4105  0.9187
11180SOL     OW36432   9.699  10.045   3.985 -0.5538  0.5465 -0.8003
11180SOL    HW136433   9.635  10.112   3.964  0.3108  1.8517  0.5991
11180SOL    HW236434   9.784  10.090   3.982  0.4759 -1.2852 -3.3868
11181SOL     OW36435   6.884   4.224   3.631 -0.4593 -1.0391  0.6929
11181SOL    HW136436   6.902   4.142   3.584 -1.4762 -1.4379  0.9855
11181SOL    HW236437   6.796   4.213   3.665 -0.2223 -0.2215  1.5986
11182SOL     OW36438   0.317   5.949   4.397 -0.2835  0.2445 -0.1088
11182SOL    HW136439   0.283   5.864   4.425  0.8292 -0.1275  0.1453
11182SOL    HW236440   0.238   5.999   4.375 -0.9834 -0.6916  0.1613
11183SOL     OW36441   2.319   6.090   0.051 -0.2202 -0.6628  0.0670
11183SOL    HW136442   2.266   6.125   0.122 -0.3236 -0.8765  0.0983
11183SOL    HW236443   2.269   6.015   0.019 -0.1659 -0.5802 -0.2174
11184SOL     OW36444   1.999   4.392   7.322  0.0204 -0.1739 -0.1226
11184SOL    HW136445   2.052   4.372   7.399 -0.1838  1.8245  0.5942
11184SOL    HW236446   2.007   4.486   7.311 -1.8400 -0.0795 -1.1414
11185SOL     OW36447   8.243   5.689   2.933  0.5322  0.6060  0.1975
11185SOL    HW136448   8.259   5.628   3.005 -0.3876  1.8767  1.5339
11185SOL    HW236449   8.313   5.754   2.940  0.4838  0.6913 -0.0908
11186SOL     OW36450   3.333   1.714  10.353 -0.2534 -0.3078  0.4403
11186SOL    HW136451   3.245   1.740  10.379 -0.4014 -0.2444 -0.1045
11186SOL    HW236452   3.334   1.619  10.362 -0.2031 -0.2543  0.9749
11187SOL     OW36453  10.096   0.965   6.199  0.3954  0.1825  0.1436
11187SOL    HW136454  10.112   1.017   6.278  1.6081 -0.1995  0.1782
11187SOL    HW236455  10.064   1.029   6.135  3.2443  1.3515 -0.2649
11188SOL     OW36456  10.277   3.535   8.017 -0.0914 -0.7040  0.1894
11188SOL    HW136457  10.305   3.599   7.951  1.1044  0.9766  2.2145
11188SOL    HW236458  10.181   3.538   8.014 -0.0487  0.0632 -0.7979
11189SOL     OW36459   4.657   3.481   2.433 -0.3820 -0.1935  0.2138
11189SOL    HW136460   4.662   3.505   2.341  0.8532 -2.1821 -0.3096
11189SOL    HW236461   4.566   3.454   2.447 -0.5360 -0.0230 -0.4612
11190SOL     OW36462   3.647   0.231   1.276 -0.7206 -0.2946  0.0100
11190SOL    HW136463   3.729   0.235   1.324 -0.2132  1.7231 -0.9074
11190SOL    HW236464   3.654   0.153   1.221  0.6031 -0.1117 -0.0958
11191SOL     OW36465   5.058   5.918  10.547  0.0783  0.7248 -0.0985
11191SOL    HW136466   5.013   5.999  10.571 -0.1470  0.0266  2.0007
11191SOL    HW236467   5.148   5.931  10.577  0.4602  0.7913 -1.2228
11192SOL     OW36468   7.144   9.469   6.824 -0.2366 -0.1941  0.3139
11192SOL    HW136469   7.135   9.564   6.822 -0.9542 -0.2102  1.6617
11192SOL    HW236470   7.056   9.436   6.843  0.3682 -0.9829  2.0133
11193SOL     OW36471   4.622   2.186   6.942  0.2067 -0.3827 -0.3577
11193SOL    HW136472   4.540   2.163   6.899  0.0307 -1.4610  0.4859
11193SOL    HW236473   4.633   2.279   6.927 -2.1757  0.2251  1.1354
11194SOL     OW36474   3.230   5.334   4.440 -0.3472  0.2639 -0.5053
11194SOL    HW136475   3.199   5.310   4.352 -0.4816 -1.7945  0.0585
11194SOL    HW236476   3.165   5.397   4.471 -0.7635  0.3855 -1.5673
11195SOL     OW36477   1.319   6.958   8.855 -0.3822  0.1579  0.1592
11195SOL    HW136478   1.344   7.029   8.796  0.7112 -1.6623 -1.7093
11195SOL    HW236479   1.402   6.922   8.886 -0.9114 -0.3118  1.0637
11196SOL     OW36480   8.850   0.077   5.171 -0.3654  0.1023 -0.1676
11196SOL    HW136481   8.816  -0.008   5.200  0.8126 -0.6033 -0.7524
11196SOL    HW236482   8.781   0.139   5.192  0.2743 -0.2969  3.9517
11197SOL     OW36483   2.325   8.791   3.871  0.3599 -0.4795  0.1128
11197SOL    HW136484   2.418   8.815   3.870  0.4996 -0.9615  0.5059
11197SOL    HW236485   2.298   8.804   3.962 -0.4764  1.4933 -0.3816
11198SOL     OW36486   8.279  10.186   2.235 -0.6631  0.1516  0.5796
11198SOL    HW136487   8.273  10.175   2.140  1.6319  0.4799  0.3498
11198SOL    HW236488   8.257  10.100   2.270  0.2823 -0.5011 -0.3655
11199SOL     OW36489   5.710   4.211   1.705  0.4002  0.1056 -0.0057
11199SOL    HW136490   5.646   4.160   1.755 -1.0595  0.6617 -1.2345
11199SOL    HW236491   5.730   4.156   1.629  2.2093 -0.5065  0.8367
11200SOL     OW36492   5.744   2.938   9.816 -0.3682  0.3180 -0.0805
11200SOL    HW136493   5.793   2.887   9.880 -0.8829  0.3310  0.3208
11200SOL    HW236494   5.811   2.992   9.773  0.1447 -0.5124 -0.3503
11201SOL     OW36495   9.459   9.034   4.377 -0.3530 -0.4492  0.2027
11201SOL    HW136496   9.499   8.961   4.423 -0.0759  0.3306  1.2356
11201SOL    HW236497   9.366   9.012   4.373 -0.3406 -0.6655  0.9092
11202SOL     OW36498   2.167   4.553   9.214 -0.1621 -0.6252  0.1006
11202SOL    HW136499   2.146   4.644   9.196 -0.1830 -0.6905 -0.2094
11202SOL    HW236500   2.222   4.525   9.141 -0.6999 -1.0474 -0.1569
11203SOL     OW36501   9.196   1.628   4.273  0.2470  0.3261  0.5165
11203SOL    HW136502   9.210   1.534   4.261  0.5764  0.5727 -1.1378
11203SOL    HW236503   9.104   1.635   4.298  0.1138 -0.3991  0.2492
11204SOL     OW36504   0.307   0.906   1.675 -0.1325  0.3662 -0.4411
11204SOL    HW136505   0.262   0.975   1.625 -0.0649 -2.1838 -4.4245
11204SOL    HW236506   0.237   0.845   1.699  0.2436  0.1710  0.1646
11205SOL     OW36507   2.839   0.637   3.740 -0.0802  0.1384  0.1884
11205SOL    HW136508   2.857   0.572   3.672 -0.1551  1.5915 -1.2680
11205SOL    HW236509   2.849   0.721   3.696 -2.2962  1.1263  1.4171
11206SOL     OW36510  10.042   9.742   9.865 -0.7159 -0.1700  0.2351
11206SOL    HW136511  10.076   9.719   9.779 -0.3585 -1.1815  0.6277
11206SOL    HW236512  10.109   9.799   9.903 -1.3766  1.1808 -0.5562
11207SOL     OW36513   9.354   8.411   0.969 -0.6844 -0.0108 -0.0490
11207SOL    HW136514   9.298   8.376   1.038 -0.7660 -0.1522 -0.1860
11207SOL    HW236515   9.391   8.334   0.927 -2.2219 -0.0210 -1.4831
11208SOL     OW36516   3.901   3.654   4.871  0.0576  0.2157  0.9518
11208SOL    HW136517   3.824   3.651   4.928 -0.8832 -0.2138 -0.2997
11208SOL    HW236518   3.931   3.563   4.867  0.5340  0.3584  1.3137
11209SOL     OW36519   6.415   5.732   2.895  0.0742  0.3579 -0.1032
11209SOL    HW136520   6.381   5.815   2.927  0.5726  0.4638  0.1605
11209SOL    HW236521   6.440   5.684   2.974  0.6437  0.3298 -0.2950
11210SOL     OW36522   0.533   7.362   9.937 -0.6550 -0.1363 -0.5041
11210SOL    HW136523   0.503   7.388   9.850 -0.1505  0.7504 -0.4248
11210SOL    HW236524   0.593   7.290   9.921 -1.4841 -0.7749 -0.7955
11211SOL     OW36525   0.602   8.879   5.287 -0.4626  0.2850 -0.2781
11211SOL    HW136526   0.578   8.905   5.376  0.7226 -1.5436  0.6573
11211SOL    HW236527   0.578   8.786   5.282  1.1405 -0.1215 -1.2182
11212SOL     OW36528   7.401   9.037   8.567 -0.5316 -0.0912 -0.2983
11212SOL    HW136529   7.382   8.966   8.506  0.5394 -1.0074  0.4044
11212SOL    HW236530   7.332   9.032   8.632 -0.7717 -0.1163 -0.5509
11213SOL     OW36531   1.513   7.778   2.643  0.3108  0.5454  0.0219
11213SOL    HW136532   1.543   7.753   2.730 -0.0364 -2.2855 -0.5650
11213SOL    HW236533   1.417   7.782   2.650  0.1309 -1.5658 -0.5795
11214SOL     OW36534   5.134   9.514   4.320 -0.4563  0.6545 -0.2798
11214SOL    HW136535   5.108   9.599   4.286 -1.0813  0.7465  0.4020
11214SOL    HW236536   5.080   9.501   4.398 -0.1849 -0.2495 -0.2235
11215SOL     OW36537   8.936   9.760   2.814 -0.3865 -0.1345  0.4885
11215SOL    HW136538   8.895   9.823   2.872 -0.9064  0.3134 -0.3582
11215SOL    HW236539   9.012   9.806   2.777 -1.1743  0.2632 -0.6814
11216SOL     OW36540   2.857   8.399   8.351  0.1490 -0.0064 -0.1925
11216SOL    HW136541   2.815   8.454   8.417  0.6628  1.1511 -0.7998
11216SOL    HW236542   2.802   8.321   8.345 -2.1203  1.5744 -1.1792
11217SOL     OW36543   3.744   9.546   6.695 -0.4136  0.3355 -0.5204
11217SOL    HW136544   3.730   9.470   6.638 -0.3423 -0.4631  0.4776
11217SOL    HW236545   3.705   9.619   6.648  2.2297  0.3306 -2.9599
11218SOL     OW36546   2.320   5.344   5.839 -0.1343  0.4857 -0.5819
11218SOL    HW136547   2.263   5.320   5.766 -0.1799  1.5859 -0.9203
11218SOL    HW236548   2.342   5.436   5.824  1.6391  0.1276 -0.3932
11219SOL     OW36549   8.116   5.445   0.158 -0.4993 -0.2190  0.0087
11219SOL    HW136550   8.117   5.540   0.156  1.2073 -0.1169  1.8746
11219SOL    HW236551   8.025   5.421   0.140 -1.2283  1.7972  0.7427
11220SOL     OW36552   3.455   8.816  10.428  0.4756 -0.4489 -0.6188
11220SOL    HW136553   3.448   8.858  10.513 -0.0153 -1.9017  0.0855
11220SOL    HW236554   3.422   8.881  10.366  1.2077  0.7697  0.2277
11221SOL     OW36555   5.870   0.679   2.664 -0.0456 -0.0746  0.5173
11221SOL    HW136556   5.824   0.703   2.744  0.1406 -0.9599  0.9038
11221SOL    HW236557   5.958   0.654   2.693  0.0002 -0.4722  0.0537
11222SOL     OW36558   3.463   9.081   0.851  0.0066 -0.2115 -0.0271
11222SOL    HW136559   3.424   9.166   0.872 -0.8131 -0.5390 -0.1557
11222SOL    HW236560   3.525   9.065   0.922  0.6649  0.7849 -0.3556
11223SOL     OW36561   8.224   6.417   4.012  0.5868 -0.0712 -0.0041
11223SOL    HW136562   8.237   6.329   3.976  0.0031  0.0142 -0.4462
11223SOL    HW236563   8.131   6.436   3.996  0.7194  0.6468  0.0356
11224SOL     OW36564   9.362   4.960   9.683 -0.0748 -0.3115  0.2465
11224SOL    HW136565   9.293   4.979   9.620 -1.3742 -1.7253  1.1815
11224SOL    HW236566   9.319   4.964   9.768  0.9881 -1.2476  0.8585
11225SOL     OW36567   2.674   0.548   0.319  0.2290  0.4303 -0.5667
11225SOL    HW136568   2.579   0.544   0.331  0.3708 -0.2008  0.5246
11225SOL    HW236569   2.698   0.636   0.350 -0.0162  0.6448 -0.9846
11226SOL     OW36570   5.476   7.512   0.976  0.2574  0.3657  0.0380
11226SOL    HW136571   5.419   7.534   0.902  0.8371 -1.5467 -1.0483
11226SOL    HW236572   5.526   7.592   0.992 -0.0474  0.9070 -1.5117
11227SOL     OW36573   3.220   7.467   9.234 -0.9168  0.1381  0.2624
11227SOL    HW136574   3.298   7.520   9.252 -0.1509 -0.8902  0.0624
11227SOL    HW236575   3.163   7.525   9.184  0.1718  0.5810 -0.5072
11228SOL     OW36576   4.133   6.437   8.068 -0.3760 -0.0936  0.0235
11228SOL    HW136577   4.079   6.505   8.108  0.5894  1.5582 -1.3289
11228SOL    HW236578   4.200   6.417   8.133  0.0826  1.2038 -0.0211
11229SOL     OW36579   6.553   9.557   5.770 -0.3089  0.1772 -0.0963
11229SOL    HW136580   6.479   9.597   5.725  0.0239  1.5047  0.4981
11229SOL    HW236581   6.566   9.611   5.848  1.0332 -0.2767  0.0213
11230SOL     OW36582   8.429   0.222   8.742 -0.2147 -0.1072 -0.3924
11230SOL    HW136583   8.518   0.237   8.774 -0.3942 -0.8620  0.4734
11230SOL    HW236584   8.440   0.161   8.668 -0.1223 -1.4257  0.6694
11231SOL     OW36585   8.574  10.504   4.260  0.4212  0.4126 -0.1551
11231SOL    HW136586   8.665  10.534   4.267  0.3470  0.2760  2.3940
11231SOL    HW236587   8.555  10.465   4.345 -1.8094 -0.2610 -0.8902
11232SOL     OW36588   2.409   7.071   4.505 -0.6876  0.1111 -0.0978
11232SOL    HW136589   2.427   7.131   4.577 -0.4316  0.5326 -0.5074
11232SOL    HW236590   2.486   7.076   4.449 -0.9132 -0.1544 -0.4398
11233SOL     OW36591   5.557  10.069   3.933  0.0443  0.5379  0.7894
11233SOL    HW136592   5.472  10.032   3.908  0.0118  0.7275  0.6176
11233SOL    HW236593   5.611   9.992   3.952  0.0335  0.3866  0.2493
11234SOL     OW36594   8.682   4.196   0.912 -1.0590 -0.5691 -0.2312
11234SOL    HW136595   8.702   4.141   0.989 -1.4953  0.3149  0.5293
11234SOL    HW236596   8.666   4.133   0.842 -0.0168 -1.3921  0.2274
11235SOL     OW36597   6.846   1.125   7.540 -0.3747 -0.1840 -0.1457
11235SOL    HW136598   6.937   1.095   7.538  0.1869  1.3785  0.4586
11235SOL    HW236599   6.822   1.135   7.447  0.5273  0.6658 -0.2975
11236SOL     OW36600   5.918   8.701   2.055  0.2678 -0.1499 -0.4281
11236SOL    HW136601   5.988   8.718   1.991 -1.5349  1.6022 -2.0535
11236SOL    HW236602   5.963   8.655   2.127  3.2681  1.6018 -0.9869
11237SOL     OW36603   9.338  10.782   2.328  0.4158 -0.3079  0.3431
11237SOL    HW136604   9.296  10.811   2.409  1.3157  3.3248 -0.3060
11237SOL    HW236605   9.279  10.810   2.258  2.1691  1.8214 -0.4110
11238SOL     OW36606   1.740   6.772   3.057  0.3458  0.3731  0.7385
11238SOL    HW136607   1.778   6.828   2.989  0.7666 -2.5205 -1.6345
11238SOL    HW236608   1.806   6.770   3.127  1.0446  1.4688  0.1355
11239SOL     OW36609   8.777   8.814   3.055  0.1652 -0.3749 -0.0076
11239SOL    HW136610   8.695   8.858   3.079  0.1899  0.4421 -1.3458
11239SOL    HW236611   8.763   8.723   3.081 -0.4582  0.0995  1.4595
11240SOL     OW36612   4.513   1.469  10.277 -0.0070  0.3852 -0.3801
11240SOL    HW136613   4.472   1.493  10.360  0.3841 -0.3656  0.0423
11240SOL    HW236614   4.597   1.431  10.302 -0.6436 -1.5366 -0.9784
11241SOL     OW36615   8.946   7.799  10.160  0.1632 -0.1729  0.0489
11241SOL    HW136616   9.036   7.789  10.129  0.2051  1.1510 -0.3016
11241SOL    HW236617   8.922   7.712  10.191  1.7070 -0.4605  0.5222
11242SOL     OW36618   0.190   6.840   8.721 -0.6863  0.5528 -0.1262
11242SOL    HW136619   0.255   6.903   8.690  0.4716  0.0544  1.1927
11242SOL    HW236620   0.155   6.801   8.641  2.1216 -0.6498 -0.8966
11243SOL     OW36621   7.058   6.475   4.320 -0.8945 -0.0591 -0.2779
11243SOL    HW136622   7.049   6.495   4.413 -0.5144 -0.3225 -0.1832
11243SOL    HW236623   7.050   6.380   4.316 -1.3934 -0.0067 -0.5718
11244SOL     OW36624   8.044   5.422   0.629 -0.1967  0.3177 -0.2311
11244SOL    HW136625   8.043   5.332   0.661 -0.8550  0.3790 -0.0602
11244SOL    HW236626   8.056   5.414   0.534  1.6874  0.1322 -0.0068
11245SOL     OW36627   6.572   9.937   7.790 -0.4933 -0.0846  0.3517
11245SOL    HW136628   6.633  10.000   7.828 -1.3749  0.6248  0.6327
11245SOL    HW236629   6.622   9.856   7.784  0.7739  0.7184 -0.3377
11246SOL     OW36630   7.009  10.619   1.237 -0.5675  1.1090  0.0597
11246SOL    HW136631   6.988  10.537   1.194  2.9343 -0.0375  0.1881
11246SOL    HW236632   6.964  10.614   1.321  0.0868 -1.0510  0.3465
11247SOL     OW36633   9.704   4.270   1.563 -0.4640  0.7105 -0.8873
11247SOL    HW136634   9.730   4.346   1.616 -1.0591 -0.0110  0.4641
11247SOL    HW236635   9.616   4.292   1.531 -1.7944 -0.4787  1.7178
11248SOL     OW36636  10.269   3.259   2.811  1.2323 -0.5123  0.2307
11248SOL    HW136637  10.287   3.195   2.743 -0.2164  0.7923 -1.4875
11248SOL    HW236638  10.190   3.227   2.854  0.0546  0.4301 -1.1413
11249SOL     OW36639   1.172   9.918  10.702 -0.2815 -0.6243  0.4662
11249SOL    HW136640   1.238   9.981  10.729 -1.1552  0.9193 -0.8560
11249SOL    HW236641   1.096   9.939  10.756 -0.4279 -0.8708  0.3573
11250SOL     OW36642   9.981   1.211   9.196  0.0800  0.0148 -0.3407
11250SOL    HW136643  10.071   1.238   9.213  0.5525 -1.5206 -0.2356
11250SOL    HW236644   9.950   1.270   9.128  1.2704  0.3815 -0.5790
11251SOL     OW36645  10.466   8.801   7.525  0.2075  0.2652  0.0695
11251SOL    HW136646  10.447   8.894   7.534  1.1498  0.3241  2.0178
11251SOL    HW236647  10.416   8.759   7.595  0.9120 -0.5135  0.1339
11252SOL     OW36648   4.087   1.617   6.388  1.0124 -0.4615  0.4861
11252SOL    HW136649   4.063   1.702   6.427  0.0917 -0.2956 -0.3815
11252SOL    HW236650   4.090   1.635   6.294  1.0284 -1.3475  0.3164
11253SOL     OW36651   6.928   9.028   8.778  0.3289  0.1146  0.0446
11253SOL    HW136652   6.868   9.008   8.707 -0.9447 -0.0216  1.1301
11253SOL    HW236653   6.925   8.952   8.835  0.7107  0.5511  0.6620
11254SOL     OW36654   8.440   4.657   4.567  0.2469  0.0152  0.2044
11254SOL    HW136655   8.409   4.587   4.509  0.5914  0.3959 -0.4548
11254SOL    HW236656   8.437   4.619   4.654  1.4222 -1.1868 -0.2501
11255SOL     OW36657   5.904   7.488  10.043 -0.2425  0.9174 -0.0310
11255SOL    HW136658   5.833   7.426  10.062 -0.4964  1.0410 -0.5703
11255SOL    HW236659   5.961   7.441   9.983 -0.0016  0.9125  0.2014
11256SOL     OW36660  10.630   2.230   2.190 -0.6149 -0.5197  0.3307
11256SOL    HW136661  10.632   2.208   2.283 -1.2651  0.4360  0.5848
11256SOL    HW236662  10.711   2.279   2.175 -0.9821  0.2083  0.6438
11257SOL     OW36663   2.459   7.604   7.504 -0.1292 -0.1990  0.5682
11257SOL    HW136664   2.371   7.631   7.478 -0.3096 -2.1162 -1.0042
11257SOL    HW236665   2.462   7.510   7.489  2.4890 -0.0691 -0.3585
11258SOL     OW36666   6.084   7.992   9.901  0.2750 -0.2591 -0.5916
11258SOL    HW136667   6.030   7.963   9.828  1.3319 -0.4426 -1.3235
11258SOL    HW236668   6.117   7.910   9.939  0.4483 -0.1303 -0.4662
11259SOL     OW36669   6.489   3.527   6.422 -0.0830 -0.1882 -0.1533
11259SOL    HW136670   6.540   3.468   6.478 -2.6909  1.0578  3.9696
11259SOL    HW236671   6.549   3.599   6.401  1.0146 -0.7270  1.0681
11260SOL     OW36672   3.300   8.004   1.391  0.4953  0.0906 -0.0450
11260SOL    HW136673   3.234   7.955   1.441  1.6324 -1.2945  0.1784
11260SOL    HW236674   3.334   8.069   1.452 -0.9109  1.1081 -0.2864
11261SOL     OW36675   2.760   1.007   3.033 -0.1147 -0.4857  0.1055
11261SOL    HW136676   2.749   0.994   3.127  1.2818 -0.0316  0.3561
11261SOL    HW236677   2.794   1.096   3.025  2.4108 -1.4436 -0.6043
11262SOL     OW36678   8.794   9.354  10.119 -0.7455  0.3398  0.6396
11262SOL    HW136679   8.777   9.292  10.048 -0.7206  0.7372  0.2858
11262SOL    HW236680   8.883   9.385  10.104 -0.2961 -0.4533  1.5216
11263SOL     OW36681   7.624   8.631   9.522 -0.1217 -0.1843  0.0279
11263SOL    HW136682   7.577   8.562   9.475 -2.8858  2.1973 -1.0243
11263SOL    HW236683   7.560   8.665   9.584  0.5197  2.5148 -0.6700
11264SOL     OW36684   9.302   9.868   9.161  0.3843 -0.3385  0.6682
11264SOL    HW136685   9.397   9.856   9.166  0.4668 -0.5973 -1.0124
11264SOL    HW236686   9.291   9.958   9.129  0.1838 -1.0832 -1.5706
11265SOL     OW36687   7.538   8.677   0.356  0.1463  0.1599 -0.0255
11265SOL    HW136688   7.533   8.581   0.360  0.8225 -0.0727 -2.5957
11265SOL    HW236689   7.612   8.694   0.299  1.6742  2.3443  2.4017
11266SOL     OW36690   4.453   0.442   1.862  0.2525 -0.1783  0.1851
11266SOL    HW136691   4.464   0.530   1.899 -0.2272 -0.0517  0.0246
11266SOL    HW236692   4.431   0.387   1.938  1.6268 -0.3814  0.4694
11267SOL     OW36693   1.978   1.125   6.200 -0.0394  0.0853  0.0111
11267SOL    HW136694   2.023   1.206   6.224  0.5133 -0.6740  1.6913
11267SOL    HW236695   1.995   1.114   6.107 -1.1344  2.4965 -0.5493
11268SOL     OW36696   2.676  10.677   1.215  0.4457 -0.2670  0.1482
11268SOL    HW136697   2.644  10.767   1.211  0.3167 -0.2870  0.7082
11268SOL    HW236698   2.598  10.623   1.205  0.3440 -0.3147  1.0973
11269SOL     OW36699   0.399   0.655  10.094  0.1417  0.7547  0.5687
11269SOL    HW136700   0.329   0.700  10.048 -1.8240 -1.3688  1.2542
11269SOL    HW236701   0.410   0.573  10.046  2.2083  1.0360  0.4827
11270SOL     OW36702   3.906   1.999   7.783  0.1502  0.1438  0.3676
11270SOL    HW136703   3.821   2.005   7.825 -1.9220 -1.4697 -3.1716
11270SOL    HW236704   3.938   1.912   7.807 -1.0406 -0.7875 -1.2639
11271SOL     OW36705   6.045   4.576   0.832  0.0804  0.9964  0.7337
11271SOL    HW136706   6.090   4.636   0.892 -0.3415  0.5965  1.4531
11271SOL    HW236707   5.953   4.581   0.857 -0.1289  0.9323  0.0200
11272SOL     OW36708  10.279   7.108   4.249 -0.2754  0.0154  0.2775
11272SOL    HW136709  10.356   7.053   4.235 -0.8425 -0.6535 -0.3188
11272SOL    HW236710  10.207   7.046   4.261 -0.6962  0.6286  0.9901
11273SOL     OW36711   8.242   1.292   4.642  0.3217 -0.1952  0.2804
11273SOL    HW136712   8.243   1.245   4.726 -0.0974  0.7748  0.8384
11273SOL    HW236713   8.175   1.359   4.652  0.3749  0.0437 -0.7853
11274SOL     OW36714   3.608   6.618   0.120  0.0560 -0.3297  0.0064
11274SOL    HW136715   3.544   6.547   0.110 -0.8403  0.4671  0.0521
11274SOL    HW236716   3.566   6.681   0.179  1.0693 -0.0086  0.4094
11275SOL     OW36717   8.877   6.947   0.488  0.6394  0.5623 -0.3889
11275SOL    HW136718   8.911   6.991   0.566 -0.9766  2.1613 -0.5401
11275SOL    HW236719   8.797   6.903   0.518 -0.7301  2.2870 -1.3668
11276SOL     OW36720   5.243   9.525   1.834 -0.2593 -0.4518 -0.1590
11276SOL    HW136721   5.217   9.496   1.921 -0.7042  1.7534  0.5116
11276SOL    HW236722   5.333   9.493   1.823  0.4703  0.7433  1.8781
11277SOL     OW36723   8.460   1.758   9.408  0.4403  0.2585  0.4068
11277SOL    HW136724   8.413   1.675   9.402  0.0628  0.2059  2.9445
11277SOL    HW236725   8.421   1.801   9.484  1.8082  2.0029  0.1615
11278SOL     OW36726   7.810   4.631  10.561  0.2773 -0.0914  0.7829
11278SOL    HW136727   7.784   4.598  10.647 -0.8527 -1.2745  0.0263
11278SOL    HW236728   7.751   4.587  10.499  0.8180  1.0006 -0.5708
11279SOL     OW36729   7.682   0.182   4.071 -0.5233  0.2447 -0.0190
11279SOL    HW136730   7.667   0.275   4.089 -1.5769 -0.0747  0.8575
11279SOL    HW236731   7.707   0.179   3.979 -2.1954  1.2429 -0.5520
11280SOL     OW36732   0.014   0.681   6.122 -0.1621  0.0045  0.7010
11280SOL    HW136733  -0.061   0.633   6.087 -0.6999  0.7004  0.8670
11280SOL    HW236734  -0.015   0.710   6.209 -0.4696  1.9634  0.0093
11281SOL     OW36735   0.961   9.163   8.873  0.2125 -0.1370  0.4021
11281SOL    HW136736   0.870   9.171   8.903  0.1566  0.5694  0.0824
11281SOL    HW236737   0.954   9.141   8.780  0.3781 -1.0987  0.6135
11282SOL     OW36738   7.169   0.878   0.078  0.1886  0.2821  0.2509
11282SOL    HW136739   7.100   0.936   0.109  0.9731  2.3614 -1.6180
11282SOL    HW236740   7.235   0.880   0.147 -0.8661 -0.3980  1.3059
11283SOL     OW36741   3.838   9.673  10.500  0.2062  0.7583 -0.0937
11283SOL    HW136742   3.795   9.758  10.503  1.0356  1.1843 -0.1942
11283SOL    HW236743   3.896   9.677  10.424  1.2999  0.6264  0.7077
11284SOL     OW36744   3.141   0.095   1.258 -0.2645  0.1213  0.6385
11284SOL    HW136745   3.187   0.098   1.342  0.1528  0.5131  0.4021
11284SOL    HW236746   3.059   0.050   1.277 -0.6818  1.2202  1.5006
11285SOL     OW36747   8.528  10.620   6.773 -0.1282  0.0318  0.1266
11285SOL    HW136748   8.501  10.604   6.864 -0.0540 -2.0037 -0.1719
11285SOL    HW236749   8.487  10.704   6.752 -0.5693  0.3127  1.8707
11286SOL     OW36750   2.589   2.010   9.726  0.2367 -1.0327 -0.1464
11286SOL    HW136751   2.666   1.960   9.751 -0.9116 -2.1596  1.3797
11286SOL    HW236752   2.564   2.057   9.805 -1.8600 -2.4036  0.0784
11287SOL     OW36753   0.015   6.888  10.455 -0.2751  0.4877  0.6576
11287SOL    HW136754   0.077   6.956  10.480 -0.4205  0.9122 -0.1108
11287SOL    HW236755  -0.020   6.916  10.371  1.7362 -1.8853 -1.1296
11288SOL     OW36756   3.544   0.664   7.201 -0.0028 -0.2271 -0.0937
11288SOL    HW136757   3.620   0.607   7.195  2.6107  2.9775 -0.2565
11288SOL    HW236758   3.495   0.647   7.121  1.6609 -0.9714 -1.0144
11289SOL     OW36759   6.748   5.497   4.969  0.1105  0.5124 -0.3266
11289SOL    HW136760   6.673   5.438   4.964 -0.2728  0.8231  1.2889
11289SOL    HW236761   6.821   5.440   4.992 -0.3028  0.6651  1.4586
11290SOL     OW36762  10.390   2.276   2.591  0.4408 -0.4417 -0.2595
11290SOL    HW136763  10.455   2.345   2.572  1.7063 -1.7397 -0.8235
11290SOL    HW236764  10.306   2.315   2.566  1.2816  0.4326 -1.8751
11291SOL     OW36765   9.293  10.282   1.037 -0.0137 -0.2900  0.1658
11291SOL    HW136766   9.202  10.251   1.035 -0.1350  0.0514 -1.6372
11291SOL    HW236767   9.290  10.369   0.996  1.2380 -0.6287 -0.7014
11292SOL     OW36768   7.191   0.304   4.320 -0.5005 -0.4177  0.4026
11292SOL    HW136769   7.102   0.284   4.348 -0.2904  0.1187  1.4992
11292SOL    HW236770   7.214   0.232   4.260 -2.5165  0.7044 -1.8768
11293SOL     OW36771   9.121   4.446   1.911 -0.4438  0.1503  0.6049
11293SOL    HW136772   9.073   4.450   1.829 -0.2408 -0.1713  0.4675
11293SOL    HW236773   9.192   4.384   1.895  0.7460  1.5038  0.4437
11294SOL     OW36774  10.722   4.561   7.542  0.3595 -0.0005 -0.5591
11294SOL    HW136775  10.637   4.579   7.504 -0.2170  2.3827  1.6233
11294SOL    HW236776  10.703   4.523   7.628  1.4566  0.6599  0.0016
11295SOL     OW36777   8.934   2.837   3.288 -0.1846  0.3150 -0.3402
11295SOL    HW136778   8.906   2.889   3.213 -1.0591  0.9647  0.4171
11295SOL    HW236779   8.858   2.835   3.346  1.3868  2.5012  2.0003
11296SOL     OW36780   0.479   0.981   8.624 -0.4039  0.0194  0.2238
11296SOL    HW136781   0.493   0.907   8.684 -1.7509  1.0089  1.8688
11296SOL    HW236782   0.567   1.013   8.604  0.1289 -1.0599  0.7677
11297SOL     OW36783   1.007  10.430   7.959  0.1872  0.2728  0.1799
11297SOL    HW136784   0.991  10.521   7.936  0.4792  0.5427  1.0168
11297SOL    HW236785   1.079  10.433   8.022  0.2492 -0.5426  0.1637
11298SOL     OW36786   7.866   2.930   1.130 -0.8638 -0.2409  0.1852
11298SOL    HW136787   7.823   2.944   1.214 -2.8712 -0.7709 -0.6822
11298SOL    HW236788   7.883   3.018   1.096 -0.0224 -0.0263  1.1182
11299SOL     OW36789   1.815   8.848   4.637 -0.0235 -0.4794  0.0700
11299SOL    HW136790   1.748   8.905   4.674 -0.0744  0.1912 -1.0180
11299SOL    HW236791   1.771   8.765   4.622 -1.4543  0.7245 -3.1806
11300SOL     OW36792   1.021   6.255   2.054 -0.2200 -0.1367  0.6637
11300SOL    HW136793   1.053   6.340   2.024 -0.4094 -0.2874  0.0008
11300SOL    HW236794   0.987   6.271   2.141 -0.8856  0.6245  0.2752
11301SOL     OW36795   7.066   2.695   5.593 -0.1005 -0.1740  0.7067
11301SOL    HW136796   7.134   2.648   5.546 -1.0780 -2.2083  1.1998
11301SOL    HW236797   6.996   2.708   5.529 -0.6390 -1.2016  1.0724
11302SOL     OW36798   7.683   9.182   4.545 -0.0879  0.1984  0.5222
11302SOL    HW136799   7.659   9.274   4.539  1.2289  0.8192  3.2681
11302SOL    HW236800   7.767   9.177   4.499 -0.6691  0.1237 -0.5465
11303SOL     OW36801   4.469   2.170   1.034 -0.2851  0.2993  0.1603
11303SOL    HW136802   4.515   2.128   1.107 -1.0170  1.4280  1.3255
11303SOL    HW236803   4.392   2.114   1.020 -0.4698  0.4096  0.6902
11304SOL     OW36804  10.546   3.515   7.352 -0.6659  0.3775  0.5236
11304SOL    HW136805  10.528   3.422   7.337  0.0356  0.4975 -1.3006
11304SOL    HW236806  10.603   3.517   7.429 -0.1467 -0.7490  0.1812
11305SOL     OW36807   6.493   5.937  10.345  0.0550  0.1431 -0.3143
11305SOL    HW136808   6.504   5.913  10.438  0.6505 -2.2164 -0.9191
11305SOL    HW236809   6.450   6.022  10.347  0.0250  0.1420  2.1405
11306SOL     OW36810  10.530   6.819   1.092 -0.6167 -0.4563  0.3371
11306SOL    HW136811  10.605   6.878   1.101 -0.2917 -1.1254  2.4932
11306SOL    HW236812  10.557   6.758   1.023  0.5455 -0.2604  0.5927
11307SOL     OW36813   4.549   8.237   5.846 -0.1040 -0.4421 -0.0463
11307SOL    HW136814   4.476   8.259   5.787 -0.2648 -1.4009 -0.2219
11307SOL    HW236815   4.622   8.217   5.787 -0.0024 -0.5275  0.1088
11308SOL     OW36816   3.701   1.297   9.836  0.1780 -0.0866 -0.3925
11308SOL    HW136817   3.686   1.392   9.836 -0.9652 -0.2621 -0.3019
11308SOL    HW236818   3.789   1.288   9.799 -0.0366  0.9539 -1.2286
11309SOL     OW36819   3.989   2.389   4.192  0.7947 -0.4712 -0.0219
11309SOL    HW136820   4.052   2.420   4.257  0.0680  1.2406 -0.0825
11309SOL    HW236821   3.906   2.428   4.218  0.6633  1.1387 -2.4954
11310SOL     OW36822   3.845   6.816   2.024 -0.2852 -0.2970  0.1619
11310SOL    HW136823   3.770   6.821   2.083 -1.1072 -0.3550 -0.8528
11310SOL    HW236824   3.835   6.890   1.965  0.4960 -0.2719  0.0507
11311SOL     OW36825   9.535   2.800   8.394  0.4087 -0.8292 -0.0070
11311SOL    HW136826   9.610   2.815   8.452 -0.5647 -0.3125  1.1663
11311SOL    HW236827   9.506   2.711   8.416  1.3081 -1.4592 -1.2412
11312SOL     OW36828   7.956   2.307   1.589 -0.1869  0.0675  0.3534
11312SOL    HW136829   7.892   2.336   1.525 -0.3507 -0.2868  0.3564
11312SOL    HW236830   8.037   2.353   1.564 -0.3930  0.3757  0.2453
11313SOL     OW36831   8.595   8.727   4.463 -0.2315 -0.0956  0.1659
11313SOL    HW136832   8.659   8.657   4.451 -0.8364 -0.8671  1.2972
11313SOL    HW236833   8.511   8.687   4.440 -0.8357 -0.3305  2.5428
11314SOL     OW36834   5.575   2.412   4.211  1.1823  0.8620 -0.2774
11314SOL    HW136835   5.625   2.481   4.166  0.8087  1.3698  0.0688
11314SOL    HW236836   5.484   2.442   4.206  0.9164 -0.0015 -0.8134
11315SOL     OW36837   8.815  10.532   3.125  0.1963  0.4662 -0.4493
11315SOL    HW136838   8.772  10.616   3.141 -0.5450  0.4287 -2.0721
11315SOL    HW236839   8.822  10.526   3.030 -1.1073 -1.9540 -0.4652
11316SOL     OW36840   3.187   3.290   9.811  0.2773  0.1388  0.4703
11316SOL    HW136841   3.170   3.383   9.823  0.6851  0.2271  0.3901
11316SOL    HW236842   3.254   3.286   9.743  0.5339 -0.1923  0.7329
11317SOL     OW36843   7.874   2.980   7.954 -0.0917  0.0344  0.1129
11317SOL    HW136844   7.852   3.070   7.930  1.2860  0.0675 -1.1424
11317SOL    HW236845   7.789   2.940   7.974 -1.6285 -0.0009 -4.9116
11318SOL     OW36846   2.388   5.156   1.445 -0.5457 -0.3174 -0.2816
11318SOL    HW136847   2.409   5.065   1.465 -1.0466 -0.9142 -2.2357
11318SOL    HW236848   2.362   5.155   1.353 -2.4314  1.4898  0.1558
11319SOL     OW36849   7.473   6.655   6.141  0.0327  0.3376  0.1925
11319SOL    HW136850   7.449   6.650   6.234  1.7445 -0.1155  0.6337
11319SOL    HW236851   7.436   6.739   6.112  0.8459  1.2655  1.7081
11320SOL     OW36852   5.988   7.902   4.241 -0.7323  0.1082  0.0725
11320SOL    HW136853   5.968   7.817   4.281  2.6500 -1.2073 -0.7619
11320SOL    HW236854   6.024   7.954   4.313 -1.0737  0.2228  0.1671
11321SOL     OW36855   2.315   1.299  10.572  0.5258 -0.5492  0.0423
11321SOL    HW136856   2.310   1.225  10.512 -1.1991 -0.3248 -0.1458
11321SOL    HW236857   2.225   1.310  10.603  1.2217 -0.1507  2.0584
11322SOL     OW36858   6.829   0.577   6.150 -0.5918  0.1252 -0.1911
11322SOL    HW136859   6.758   0.553   6.210 -0.7888  0.1295 -0.4230
11322SOL    HW236860   6.875   0.495   6.132 -0.9533  0.0054 -0.5792
11323SOL     OW36861   5.736   6.674   0.760  0.1245 -0.0376  0.0673
11323SOL    HW136862   5.664   6.706   0.815  0.1519  0.7847 -0.3664
11323SOL    HW236863   5.705   6.687   0.670  1.1144  1.0492 -0.1347
11324SOL     OW36864   6.880   7.713   6.418  0.2624  0.8255 -0.3527
11324SOL    HW136865   6.954   7.725   6.477  0.9622 -0.8660 -0.8331
11324SOL    HW236866   6.920   7.703   6.332 -0.6452  1.5944 -0.8789
11325SOL     OW36867   6.053   3.282   9.923  0.0596 -0.1611 -0.3920
11325SOL    HW136868   6.011   3.229   9.856 -1.4421  1.3159 -0.6783
11325SOL    HW236869   6.044   3.372   9.892 -0.4308  0.5513  1.6422
11326SOL     OW36870   9.786   5.574   3.124  0.2398  0.0916  0.4068
11326SOL    HW136871   9.757   5.665   3.117  0.8471  0.3126  0.6510
11326SOL    HW236872   9.722   5.533   3.183 -1.6857 -0.3858 -1.8687
11327SOL     OW36873   3.957   0.491   8.251  0.1052  0.0126 -0.0746
11327SOL    HW136874   3.886   0.547   8.221 -0.3087 -0.4231  0.0802
11327SOL    HW236875   3.930   0.402   8.226  1.7422  0.0401 -2.3235
11328SOL     OW36876   2.975   4.136   0.356  0.1334 -0.0736  0.0140
11328SOL    HW136877   3.008   4.090   0.279 -0.4734 -0.4800 -0.0096
11328SOL    HW236878   3.053   4.161   0.404  0.4934 -0.7071 -0.2248
11329SOL     OW36879   9.998   5.694   8.983  0.0206 -0.8844  0.0972
11329SOL    HW136880  10.088   5.697   8.953  0.3557 -1.9295  0.9070
11329SOL    HW236881  10.001   5.638   9.061 -1.0614  0.3472  1.0787
11330SOL     OW36882  10.146   6.597   9.853 -0.5436  0.4037  0.4689
11330SOL    HW136883  10.149   6.676   9.799 -1.7275  1.2891  1.6338
11330SOL    HW236884  10.076   6.544   9.814 -0.4345  0.3898  0.2911
11331SOL     OW36885   8.089   4.165   9.938  0.5705 -0.5788  0.0685
11331SOL    HW136886   8.030   4.202  10.004 -0.3277 -2.8460  0.6147
11331SOL    HW236887   8.148   4.237   9.916  1.0458  0.2682  3.4981
11332SOL     OW36888   3.129   0.269   5.061  0.2667 -0.0818 -0.5299
11332SOL    HW136889   3.162   0.318   5.136 -2.8639  1.2064  0.1716
11332SOL    HW236890   3.117   0.180   5.094  0.6057  0.0457 -0.0605
11333SOL     OW36891   7.088   3.966   0.516  0.5371 -0.6730 -0.3859
11333SOL    HW136892   7.096   3.936   0.606  2.0872 -1.9449 -0.8927
11333SOL    HW236893   7.076   3.886   0.465  0.3637 -0.0336 -1.3799
11334SOL     OW36894   7.032   9.017   6.645  0.4198 -0.0265  0.0205
11334SOL    HW136895   6.990   9.102   6.627 -0.3428 -0.3230  0.3852
11334SOL    HW236896   7.003   8.994   6.733 -0.0140 -1.0390 -0.3798
11335SOL     OW36897   0.008   4.964   7.187 -0.2585 -0.0027  0.2318
11335SOL    HW136898   0.017   4.883   7.237  1.3849  0.1308  0.2022
11335SOL    HW236899   0.043   5.032   7.244 -0.1988  0.4483 -0.3317
11336SOL     OW36900   9.247   7.633   7.662 -0.4801 -0.1937  0.3310
11336SOL    HW136901   9.231   7.689   7.585  2.1478 -0.6730 -0.6723
11336SOL    HW236902   9.201   7.677   7.733 -0.2932  2.1161 -0.8651
11337SOL     OW36903   5.811   4.013   8.474 -0.1204  0.3830 -0.6131
11337SOL    HW136904   5.764   4.029   8.391 -0.0740 -2.0027 -1.1617
11337SOL    HW236905   5.841   3.923   8.468  2.4868  1.0537  0.7878
11338SOL     OW36906   8.015   5.008   4.267  0.1711  0.3883 -0.1598
11338SOL    HW136907   8.012   5.028   4.361  0.0588  1.9018 -0.4567
11338SOL    HW236908   7.968   5.080   4.225  0.8804  0.1442 -1.4396
11339SOL     OW36909   4.564   5.563   1.586 -0.2219 -0.5164  0.9727
11339SOL    HW136910   4.628   5.598   1.523 -0.4532 -0.1484  0.9376
11339SOL    HW236911   4.510   5.503   1.534 -2.0759  1.7002  0.1403
11340SOL     OW36912   8.780   2.049   7.562  0.0815  0.0235  0.1541
11340SOL    HW136913   8.852   2.048   7.625 -0.4877  0.2568  0.8147
11340SOL    HW236914   8.823   2.059   7.477  0.8959 -0.8552  0.4375
11341SOL     OW36915   0.012   3.036   6.780 -0.0720  0.3671  0.4354
11341SOL    HW136916   0.044   2.964   6.726  2.0481  0.1680  1.8326
11341SOL    HW236917  -0.013   3.104   6.718  0.9720 -0.3713 -0.8259
11342SOL     OW36918   2.093   1.134   2.265  0.0479 -0.1746 -0.0101
11342SOL    HW136919   2.100   1.039   2.254  0.7352 -0.0339 -0.9106
11342SOL    HW236920   2.071   1.166   2.177 -1.9668  0.3596  0.6334
11343SOL     OW36921   9.482   2.894   4.933  0.3392 -0.4222 -0.2315
11343SOL    HW136922   9.462   2.988   4.939  2.3132 -0.0120  0.7290
11343SOL    HW236923   9.450   2.869   4.846  2.5390  1.8986 -1.8662
11344SOL     OW36924   9.125   5.174   2.396 -0.5813  0.0630  0.1460
11344SOL    HW136925   9.171   5.135   2.470  2.3093  1.0515 -0.9879
11344SOL    HW236926   9.063   5.235   2.435 -0.6194 -0.9770  1.7691
11345SOL     OW36927   3.414   3.801   6.288  0.4167  0.2950 -0.0950
11345SOL    HW136928   3.403   3.845   6.372  1.6372 -0.0420  0.2645
11345SOL    HW236929   3.443   3.712   6.311  0.4596  0.1036 -0.8620
11346SOL     OW36930   9.058   4.476   9.900 -0.0447 -0.1544  0.1299
11346SOL    HW136931   9.110   4.448   9.824  0.2089  1.4345 -0.3034
11346SOL    HW236932   9.116   4.535   9.948 -1.4247  1.6823 -0.3790
11347SOL     OW36933   9.720  10.101   5.074  0.1782  0.4929 -0.1433
11347SOL    HW136934   9.773  10.033   5.032 -0.1850 -0.0628  0.2802
11347SOL    HW236935   9.647  10.115   5.015 -0.0751  0.0631  0.0641
11348SOL     OW36936   6.625   6.564   3.647  0.2766 -0.0377  0.0916
11348SOL    HW136937   6.532   6.580   3.630  0.4423  0.0600 -0.7725
11348SOL    HW236938   6.626   6.489   3.707 -0.3718  0.3467  0.5950
11349SOL     OW36939   7.606   5.885   5.760  0.4257 -0.4076  0.1156
11349SOL    HW136940   7.556   5.918   5.686  1.5698  1.2147  0.0154
11349SOL    HW236941   7.621   5.792   5.740  0.0338 -0.1816 -1.2724
11350SOL     OW36942   8.293   5.075   3.133  0.3653 -0.4148 -0.1278
11350SOL    HW136943   8.316   4.995   3.181 -1.4124 -0.3324  0.9655
11350SOL    HW236944   8.357   5.139   3.162  0.2878 -0.8003  0.9421
11351SOL     OW36945   4.917   3.051   1.402  0.7811  0.6394  0.3257
11351SOL    HW136946   4.822   3.050   1.415  0.3547 -1.8693 -2.0509
11351SOL    HW236947   4.932   3.113   1.331  0.8678  0.8146  0.4980
11352SOL     OW36948   4.100   1.606   3.460  0.3730 -0.5789  0.2515
11352SOL    HW136949   4.157   1.629   3.387 -1.8316  0.2684 -1.3005
11352SOL    HW236950   4.119   1.673   3.527 -1.6447  2.3464 -1.8569
11353SOL     OW36951   7.985   9.769   6.370  0.0119 -0.0890  0.5782
11353SOL    HW136952   7.937   9.729   6.442  1.7294  0.6548  2.1967
11353SOL    HW236953   7.938   9.850   6.352 -0.1873 -0.0733  1.1467
11354SOL     OW36954   7.689   4.243   0.341 -1.0666 -0.1861  0.8445
11354SOL    HW136955   7.695   4.210   0.430 -1.5625  0.6714  1.2059
11354SOL    HW236956   7.609   4.296   0.340 -1.0931 -0.2266 -0.1173
11355SOL     OW36957   4.810   2.753   1.781 -0.0943  0.1601 -0.8798
11355SOL    HW136958   4.834   2.775   1.691  1.0248 -0.1262 -0.6741
11355SOL    HW236959   4.890   2.766   1.831 -0.1942 -1.3850 -0.2355
11356SOL     OW36960   4.820   1.217   0.937  0.4235 -0.3593  0.2320
11356SOL    HW136961   4.789   1.139   0.983  1.9925 -0.3023  1.4554
11356SOL    HW236962   4.856   1.184   0.855  2.0940 -1.0983  1.2242
11357SOL     OW36963   0.460   9.551   8.914 -0.1234  0.6142 -0.0451
11357SOL    HW136964   0.451   9.539   9.009  1.2497 -2.6133 -0.1952
11357SOL    HW236965   0.547   9.588   8.902 -0.5700  1.6999 -0.0615
11358SOL     OW36966   7.569   2.477   9.388  0.0259  0.0241 -0.3833
11358SOL    HW136967   7.494   2.438   9.344 -2.3879  0.3532  3.0372
11358SOL    HW236968   7.594   2.413   9.455  1.1430  1.0130  0.1838
11359SOL     OW36969   0.124   8.115   3.132 -0.0243 -0.2587 -0.4849
11359SOL    HW136970   0.210   8.095   3.096  1.0037  0.4614  1.4045
11359SOL    HW236971   0.119   8.062   3.212 -0.3451  1.3569  0.6251
11360SOL     OW36972   8.877   7.346   1.737 -0.1876 -0.1461 -0.0337
11360SOL    HW136973   8.966   7.318   1.758  0.8358  1.5916 -1.8352
11360SOL    HW236974   8.823   7.268   1.754  1.6595 -1.2817  0.9248
11361SOL     OW36975   4.713   9.767   1.623  0.0621 -0.6261 -0.1702
11361SOL    HW136976   4.740   9.851   1.586 -0.6802 -1.0386 -1.7274
11361SOL    HW236977   4.676   9.789   1.709  1.9318  0.3475  0.4611
11362SOL     OW36978   0.438   5.456   0.556 -0.1338  0.3133  0.5785
11362SOL    HW136979   0.520   5.423   0.593  2.2107  2.3979 -2.3006
11362SOL    HW236980   0.445   5.551   0.563 -2.2025  0.5570 -0.0171
11363SOL     OW36981   6.395   9.024   1.571 -0.1016  0.1948 -0.4117
11363SOL    HW136982   6.464   9.087   1.591 -1.8126  1.8417  0.6353
11363SOL    HW236983   6.441   8.943   1.550  2.1072  0.9858  1.0822
11364SOL     OW36984   1.224   9.723   4.036  0.1866 -0.7323 -0.4164
11364SOL    HW136985   1.311   9.683   4.035  1.3553  1.5938 -0.3124
11364SOL    HW236986   1.207   9.746   3.945 -0.4112 -1.3059 -0.4584
11365SOL     OW36987   4.594   5.639   9.322 -0.6995 -0.5331 -0.0001
11365SOL    HW136988   4.584   5.544   9.331 -2.1049 -0.5013 -0.8172
11365SOL    HW236989   4.523   5.675   9.375  0.1798  0.0972  0.7733
11366SOL     OW36990   9.751   4.391   2.922  0.0875  0.2994  0.0271
11366SOL    HW136991   9.808   4.332   2.970  0.1212  0.0918 -0.2658
11366SOL    HW236992   9.666   4.346   2.919 -0.0849  0.5919  0.4347
11367SOL     OW36993   8.740   6.267   8.968 -0.3175 -0.0497  0.0034
11367SOL    HW136994   8.750   6.307   8.882 -0.2857 -0.2848 -0.1024
11367SOL    HW236995   8.769   6.177   8.956  0.7947  0.2109  0.5250
11368SOL     OW36996   4.240  10.153  10.607 -0.0558  0.2566 -0.0114
11368SOL    HW136997   4.168  10.205  10.643 -1.3477 -0.4636 -1.4207
11368SOL    HW236998   4.289  10.124  10.684 -2.1164 -0.3951  1.1575
11369SOL     OW36999   7.294   9.299   1.541 -0.9318  0.7730 -0.8459
11369SOL    HW137000   7.370   9.284   1.485 -0.1152  1.7522 -0.0456
11369SOL    HW237001   7.313   9.382   1.584 -1.4869  0.0059  0.9477
11370SOL     OW37002   5.453   5.847   9.699  0.4139 -0.5164 -0.3952
11370SOL    HW137003   5.430   5.868   9.609  0.4602 -1.1693 -0.5642
11370SOL    HW237004   5.501   5.924   9.730 -0.3147  0.0565 -0.6545
11371SOL     OW37005   9.869   9.592  10.512  0.2376  0.0587  0.1432
11371SOL    HW137006   9.952   9.572  10.469  0.2076 -1.3658  0.6977
11371SOL    HW237007   9.832   9.507  10.534 -0.4316  0.7153  1.7009
11372SOL     OW37008   2.445   5.130   4.775 -0.1837  0.7012 -0.4257
11372SOL    HW137009   2.466   5.084   4.694 -0.3401  0.1658 -0.1648
11372SOL    HW237010   2.501   5.208   4.773  1.8927 -0.6847  0.2609
11373SOL     OW37011   8.793   0.286   3.572 -0.3104  0.0717 -0.4422
11373SOL    HW137012   8.852   0.258   3.642 -1.6961  1.7904  1.5344
11373SOL    HW237013   8.715   0.231   3.584 -0.0474 -0.5691 -1.5485
11374SOL     OW37014   4.378   5.491   5.727 -0.2208 -0.8401 -0.2283
11374SOL    HW137015   4.441   5.433   5.684  0.0136 -0.2949 -0.6469
11374SOL    HW237016   4.325   5.434   5.782  2.3545 -1.0248  2.2506
11375SOL     OW37017   8.821   7.861   0.794 -0.0578 -0.1336 -0.4450
11375SOL    HW137018   8.826   7.926   0.724  3.1236 -0.8715 -1.0337
11375SOL    HW237019   8.826   7.776   0.749  4.3926 -0.6327  0.5688
11376SOL     OW37020  10.159   8.862   9.287  0.4231  0.3516  0.5925
11376SOL    HW137021  10.099   8.932   9.261  0.3478  0.7076  1.6666
11376SOL    HW237022  10.106   8.803   9.341  0.4754 -0.5822 -0.3408
11377SOL     OW37023   5.975   6.833   5.380  0.0509  0.6659  0.0843
11377SOL    HW137024   6.006   6.760   5.433  0.5902  0.4852 -0.4685
11377SOL    HW237025   5.925   6.792   5.309  1.7757  0.6802 -1.2107
11378SOL     OW37026   1.984   7.873   2.551 -0.1304  0.3457  0.1685
11378SOL    HW137027   2.003   7.966   2.565 -1.1885  0.5734  0.1578
11378SOL    HW237028   2.062   7.840   2.506 -1.0713  2.0092 -3.0655
11379SOL     OW37029   1.812   7.611   3.999 -0.1050  0.1565  0.5436
11379SOL    HW137030   1.722   7.632   4.026  0.1541  0.1827  1.4015
11379SOL    HW237031   1.816   7.516   4.001 -0.7835  0.0269 -1.7377
11380SOL     OW37032   7.386   4.478   4.710  0.5131  0.5965 -0.3486
11380SOL    HW137033   7.311   4.456   4.654  0.0091  0.9864  0.1591
11380SOL    HW237034   7.420   4.393   4.739 -0.6784  0.4252  0.6338
11381SOL     OW37035   8.702   4.654  10.480  0.1276 -0.2786 -0.5999
11381SOL    HW137036   8.787   4.645  10.523 -0.2156  1.3166  0.4931
11381SOL    HW237037   8.720   4.638  10.388  1.8086  0.8962 -0.5215
11382SOL     OW37038   9.874  10.242   8.800 -0.8354  0.3990 -0.5958
11382SOL    HW137039   9.794  10.240   8.851 -0.1520 -1.7738  0.5144
11382SOL    HW237040   9.845  10.249   8.709 -2.2641 -0.0615 -0.1936
11383SOL     OW37041   9.046   9.750   5.738  0.6778  0.3209  0.4250
11383SOL    HW137042   9.052   9.843   5.717  0.0014 -0.0848 -1.8113
11383SOL    HW237043   8.995   9.712   5.667 -0.8311 -1.4573  2.3346
11384SOL     OW37044   6.724  10.276   0.931 -0.4133 -0.7297  0.0566
11384SOL    HW137045   6.756  10.219   1.001 -3.5029  0.9905  3.1692
11384SOL    HW237046   6.639  10.240   0.908 -1.2594  1.0787  0.2134
11385SOL     OW37047   8.264   0.136   6.977 -0.2140 -0.4483  0.1469
11385SOL    HW137048   8.205   0.199   7.019  0.9920  0.7495  0.0904
11385SOL    HW237049   8.351   0.173   6.988  0.4344 -1.6340 -0.7516
11386SOL     OW37050   5.141   4.117   1.966 -0.2261 -0.3220  0.4730
11386SOL    HW137051   5.208   4.049   1.968 -0.4188 -0.5170  0.3012
11386SOL    HW237052   5.063   4.075   2.002 -0.5283 -0.3913 -0.2622
11387SOL     OW37053   8.882   4.412  10.445  0.2161 -0.3652 -0.0421
11387SOL    HW137054   8.811   4.349  10.458  0.7756 -1.7351 -2.9787
11387SOL    HW237055   8.872   4.442  10.355  2.2200  0.9158  0.1058
11388SOL     OW37056   1.727   0.388   6.041 -0.3043 -0.2680 -0.1032
11388SOL    HW137057   1.654   0.333   6.010 -0.4983  0.2667 -0.6060
11388SOL    HW237058   1.697   0.477   6.027 -0.3216 -0.0033  1.4636
11389SOL     OW37059   7.058   3.745   0.384  0.0680  0.4213  0.6918
11389SOL    HW137060   7.106   3.728   0.304  1.2743 -0.3327  1.5442
11389SOL    HW237061   6.966   3.741   0.358  0.4243 -0.5100 -0.5134
11390SOL     OW37062   5.449   4.562   9.934 -0.0063 -0.2385 -0.4940
11390SOL    HW137063   5.434   4.638   9.879  0.9745  1.8106  1.8901
11390SOL    HW237064   5.361   4.530   9.955 -0.4532  0.5654 -1.1024
11391SOL     OW37065   2.245   0.429   5.620 -0.5251 -0.2021 -0.4911
11391SOL    HW137066   2.159   0.410   5.657  0.1747 -4.1354 -0.4467
11391SOL    HW237067   2.288   0.484   5.686 -1.3106 -2.3276  1.9388
11392SOL     OW37068   3.333   5.045   6.419 -0.7700  0.0458 -0.2157
11392SOL    HW137069   3.334   4.980   6.349  0.1059 -1.5982  1.2484
11392SOL    HW237070   3.404   5.018   6.477 -0.9565  1.8298  0.9097
11393SOL     OW37071   3.197   0.324   9.573  0.3415  0.1855  0.1653
11393SOL    HW137072   3.292   0.335   9.568  0.5301  0.0177  2.3557
11393SOL    HW237073   3.185   0.236   9.608 -0.5883  0.4335  0.5048
11394SOL     OW37074   3.187   4.062   1.863 -0.0490  0.3371 -0.2857
11394SOL    HW137075   3.140   4.145   1.867 -1.6666 -0.5864  0.8342
11394SOL    HW237076   3.156   4.020   1.783 -0.9043 -0.0975  0.2507
11395SOL     OW37077   0.648   7.337   6.539 -0.4478 -0.5485 -0.2276
11395SOL    HW137078   0.719   7.288   6.500 -0.2446 -1.0471  0.7419
11395SOL    HW237079   0.568   7.291   6.512 -0.6121  1.1181 -2.9468
11396SOL     OW37080   6.000   8.097   5.118 -0.0261 -0.4201  0.8351
11396SOL    HW137081   6.083   8.127   5.153  0.7965 -0.3693 -1.0214
11396SOL    HW237082   5.974   8.164   5.055 -0.5314 -1.3048  0.0647
11397SOL     OW37083   0.286   7.675   7.015  0.2064  0.3800  0.0468
11397SOL    HW137084   0.362   7.709   6.968 -1.3405  1.9234 -1.4834
11397SOL    HW237085   0.285   7.581   6.995  1.9661  0.2122  0.5524
11398SOL     OW37086   9.198   5.380   9.210  0.1986  0.0976  0.0185
11398SOL    HW137087   9.168   5.391   9.300  0.7851  2.7575 -0.0253
11398SOL    HW237088   9.118   5.362   9.160 -0.6771  2.0494  0.6225
11399SOL     OW37089   5.322   9.014   0.753  0.4494  0.9755  0.1174
11399SOL    HW137090   5.238   8.967   0.750  1.6003 -1.1842 -0.3262
11399SOL    HW237091   5.384   8.949   0.786  2.4931  1.6525 -2.1562
11400SOL     OW37092   6.540   5.555   0.861 -0.4535 -0.4012 -0.4959
11400SOL    HW137093   6.471   5.501   0.900 -0.4427  0.1488  0.2970
11400SOL    HW237094   6.620   5.504   0.871 -0.1050  0.5185  1.9572
11401SOL     OW37095   2.362   0.787   5.741 -0.6234 -0.4570  0.2893
11401SOL    HW137096   2.381   0.880   5.756 -1.2217 -0.2494 -0.1873
11401SOL    HW237097   2.272   0.776   5.773 -1.8226 -0.0742 -2.6751
11402SOL     OW37098   5.243   1.792   2.549 -0.3934  0.1645 -0.2065
11402SOL    HW137099   5.311   1.749   2.498 -1.3942 -1.1914 -0.4548
11402SOL    HW237100   5.180   1.822   2.483  0.5091  2.5108 -0.0826
11403SOL     OW37101   2.826   7.127   9.382  0.2698 -0.1932  0.1439
11403SOL    HW137102   2.830   7.091   9.294 -0.4643  1.3506 -0.5542
11403SOL    HW237103   2.838   7.222   9.371 -0.3154  0.0946  1.6378
11404SOL     OW37104   4.586   7.839   0.908 -0.5847 -0.1712  0.5459
11404SOL    HW137105   4.498   7.824   0.941 -1.9446 -0.1693 -2.7575
11404SOL    HW237106   4.607   7.928   0.938 -1.1134 -0.6312  2.4314
11405SOL     OW37107   7.536   1.186   3.345  0.3324  0.6021  0.5831
11405SOL    HW137108   7.630   1.184   3.330  0.3371 -1.0187  0.6084
11405SOL    HW237109   7.520   1.113   3.405 -1.1177 -0.1068 -0.5941
11406SOL     OW37110   5.264   5.080   4.794 -0.0220 -0.3221 -0.2803
11406SOL    HW137111   5.330   5.013   4.815 -0.6757 -0.6382  0.8094
11406SOL    HW237112   5.315   5.160   4.781  0.7133 -0.8894 -0.9995
11407SOL     OW37113   0.307   7.647   4.991 -0.2919  0.0468  0.1563
11407SOL    HW137114   0.329   7.737   4.964  0.9526  0.2456  1.6984
11407SOL    HW237115   0.219   7.633   4.956  0.2150  1.1707 -1.7364
11408SOL     OW37116   9.466   4.500   3.941 -0.0775 -0.1017  0.1336
11408SOL    HW137117   9.549   4.548   3.939  0.0708 -0.3735 -0.8102
11408SOL    HW237118   9.399   4.568   3.934 -0.0323  0.2692  2.4564
11409SOL     OW37119   3.358   4.047   3.120 -0.0879 -0.2061 -0.7245
11409SOL    HW137120   3.355   4.072   3.027 -0.9699 -1.1614 -0.9646
11409SOL    HW237121   3.376   3.953   3.119  1.2452  0.0096  0.1276
11410SOL     OW37122   5.443   0.781   3.246 -0.0862  0.4845  0.2688
11410SOL    HW137123   5.422   0.746   3.333  0.4855  0.4765  0.4077
11410SOL    HW237124   5.382   0.853   3.233 -2.1052 -1.2404 -0.5025
11411SOL     OW37125  10.040   4.112   6.897  0.3506 -0.3246  0.1397
11411SOL    HW137126  10.000   4.105   6.811 -0.3847  0.0760  0.4367
11411SOL    HW237127   9.975   4.075   6.957  0.8885 -0.6772  0.5161
11412SOL     OW37128   9.903   5.488  10.128  0.1878 -0.4745 -0.3850
11412SOL    HW137129   9.974   5.450  10.178 -0.5812  0.2098  1.3191
11412SOL    HW237130   9.850   5.535  10.193 -1.2684 -0.1405 -1.7375
11413SOL     OW37131   6.101  10.543   8.060 -0.4854 -0.1796 -0.2480
11413SOL    HW137132   6.153  10.587   7.993  0.6492  1.0572  1.3733
11413SOL    HW237133   6.081  10.611   8.124 -0.0514 -1.6569  1.5418
11414SOL     OW37134  10.317   1.991   2.553 -0.1559  0.0727 -0.0960
11414SOL    HW137135  10.230   1.952   2.553 -0.7219  1.1617  2.4495
11414SOL    HW237136  10.307   2.071   2.502 -0.6617  0.2127  0.2177
11415SOL     OW37137   6.791  10.197  10.408  0.4853 -0.6305 -0.4553
11415SOL    HW137138   6.702  10.173  10.382  0.6810 -2.0085  0.1126
11415SOL    HW237139   6.795  10.177  10.501  1.0880  0.3755 -0.2527
11416SOL     OW37140   5.381   2.882   4.592  0.2021  0.0215  0.3364
11416SOL    HW137141   5.305   2.874   4.535 -0.7855  1.1239  1.4468
11416SOL    HW237142   5.346   2.876   4.681  1.5441 -0.3984  0.8718
11417SOL     OW37143   9.982   4.181   9.739  0.1556  0.2274  0.0247
11417SOL    HW137144  10.033   4.257   9.766 -0.4537 -0.0446  2.1277
11417SOL    HW237145   9.895   4.216   9.719  0.5866  0.4183 -1.6718
11418SOL     OW37146   9.217   2.987   6.924  0.1274 -0.3011 -0.5914
11418SOL    HW137147   9.203   3.050   6.995 -0.7903  0.6875 -1.5980
11418SOL    HW237148   9.129   2.959   6.898  0.4530 -0.8125 -1.1784
11419SOL     OW37149  10.359   9.344   0.486 -0.0999  0.2323  0.7476
11419SOL    HW137150  10.432   9.313   0.540 -0.7027 -1.0974  0.8397
11419SOL    HW237151  10.400   9.378   0.407  0.7442  1.3979  1.6350
11420SOL     OW37152   8.235   7.504   0.316  0.3547 -0.0458 -0.5817
11420SOL    HW137153   8.147   7.490   0.280 -0.5252  3.0187  0.0532
11420SOL    HW237154   8.289   7.526   0.241 -0.2632  1.3439 -0.6424
11421SOL     OW37155   9.508   0.890   8.822  0.6055  0.5152 -0.2053
11421SOL    HW137156   9.600   0.917   8.827  0.2467  1.6027  1.5759
11421SOL    HW237157   9.470   0.919   8.905 -1.3801  0.1739 -0.9306
11422SOL     OW37158   7.370   8.599   3.403  0.1232  0.2145  0.2684
11422SOL    HW137159   7.401   8.607   3.313  0.4298 -0.8772  0.2675
11422SOL    HW237160   7.310   8.673   3.414  0.4598  0.6465 -0.6660
11423SOL     OW37161   2.772   0.773   2.876  0.1790  0.2939 -0.0510
11423SOL    HW137162   2.851   0.720   2.870 -0.2471 -0.4625  0.7835
11423SOL    HW237163   2.794   0.843   2.937  0.2013  0.0663  0.2038
11424SOL     OW37164   7.102   3.420   4.184  0.1008  0.4221  0.1306
11424SOL    HW137165   7.194   3.449   4.185  0.7608 -1.4757  2.5806
11424SOL    HW237166   7.063   3.460   4.261 -0.0778 -1.7255  1.2198
11425SOL     OW37167   7.914   8.385   1.974  0.6844  0.3281  0.1453
11425SOL    HW137168   7.964   8.389   1.893  1.1840 -0.2788  0.4132
11425SOL    HW237169   7.919   8.293   2.001  0.8541  0.5977  1.0657
11426SOL     OW37170   5.253   3.629   1.903  0.3518 -0.3710  0.5777
11426SOL    HW137171   5.197   3.553   1.918  0.0155 -0.0221  1.1077
11426SOL    HW237172   5.260   3.635   1.808 -0.4157 -0.4891  0.5084
11427SOL     OW37173   4.086   4.020   7.751  0.1233 -0.3442 -0.1378
11427SOL    HW137174   4.057   3.934   7.780  1.8550 -1.4112 -1.3914
11427SOL    HW237175   4.181   4.020   7.763  0.0444  1.9225  1.0908
11428SOL     OW37176   8.534  10.624   6.229  0.1119 -0.3188  0.0770
11428SOL    HW137177   8.595  10.556   6.260 -0.6378 -1.1824 -0.2909
11428SOL    HW237178   8.487  10.582   6.157 -0.3047  0.6343 -0.2116
11429SOL     OW37179   1.296   0.675   8.126  0.2558  0.0725  0.2166
11429SOL    HW137180   1.361   0.604   8.123  0.1563 -0.0040 -0.1587
11429SOL    HW237181   1.340   0.744   8.175  1.0160  0.4045 -0.8971
11430SOL     OW37182   2.540   7.699   0.331  0.3661  0.1447 -0.4623
11430SOL    HW137183   2.540   7.643   0.254  2.3642  1.0000 -1.1544
11430SOL    HW237184   2.614   7.667   0.383 -1.0920 -0.5818  1.2819
11431SOL     OW37185   2.564   0.418   7.090  0.3083 -0.1771 -0.4090
11431SOL    HW137186   2.541   0.343   7.035  1.7272 -0.3716 -0.7966
11431SOL    HW237187   2.491   0.428   7.150 -1.1648 -0.1469 -2.1376
11432SOL     OW37188   1.179   5.033   1.755 -0.1904  0.2786 -0.5021
11432SOL    HW137189   1.091   5.050   1.789 -0.5211 -1.0379 -0.6304
11432SOL    HW237190   1.200   4.945   1.787  2.2558  1.5941  1.9188
11433SOL     OW37191   3.783   3.198   8.723 -0.1586 -0.4925 -0.3782
11433SOL    HW137192   3.723   3.184   8.650  0.5674 -1.3389 -0.8383
11433SOL    HW237193   3.794   3.293   8.727 -2.2785 -0.2264  0.3615
11434SOL     OW37194   6.680   7.439   2.462 -0.0666  0.2448 -0.4777
11434SOL    HW137195   6.592   7.469   2.482  0.5513  0.7424  1.7567
11434SOL    HW237196   6.697   7.368   2.524  1.2685  0.4914 -0.5161
11435SOL     OW37197   4.283   9.847   8.970  0.0665  0.1804  0.2238
11435SOL    HW137198   4.290   9.858   8.875 -0.4217  1.6147  0.3292
11435SOL    HW237199   4.330   9.765   8.988  2.1387  1.0403 -0.9704
11436SOL     OW37200   5.122   3.124  10.087  0.3228  0.5695  0.1219
11436SOL    HW137201   5.154   3.062  10.152 -0.8227  0.1903  0.3559
11436SOL    HW237202   5.190   3.127  10.020 -0.6618 -3.0327 -1.2994
11437SOL     OW37203   5.195  10.442   7.790  0.6376 -0.3788  0.0480
11437SOL    HW137204   5.180  10.348   7.795 -2.2871  0.0666  2.3743
11437SOL    HW237205   5.127  10.474   7.729  0.7747  0.3537  0.2673
11438SOL     OW37206   3.116  10.090   8.486 -0.0418  0.1960 -0.3309
11438SOL    HW137207   3.122  10.045   8.402 -1.7880 -0.1788 -0.2927
11438SOL    HW237208   3.152  10.027   8.550  0.0694 -0.0395 -0.6245
11439SOL     OW37209   0.097   7.719   4.315 -0.3711  0.4266  0.6856
11439SOL    HW137210   0.100   7.624   4.328  1.6085 -0.0264 -1.9405
11439SOL    HW237211   0.019   7.733   4.261 -0.2595  0.1502  0.4440
11440SOL     OW37212   4.888   1.791   7.267  1.3277  0.1409 -0.1732
11440SOL    HW137213   4.951   1.753   7.328  0.9512  2.3289  1.7116
11440SOL    HW237214   4.941   1.830   7.198  1.9292  0.0925  0.2545
11441SOL     OW37215   4.828   5.302   1.843 -0.3384  0.2397  0.0567
11441SOL    HW137216   4.809   5.284   1.935 -0.2769 -0.5664 -0.0800
11441SOL    HW237217   4.764   5.250   1.795 -0.4734  0.7818 -0.3602
11442SOL     OW37218   7.930   5.750   2.485  0.0729 -0.0469 -0.1158
11442SOL    HW137219   7.866   5.803   2.533 -1.3191 -1.5312 -0.2719
11442SOL    HW237220   7.879   5.703   2.420  1.6171  0.1734 -1.5702
11443SOL     OW37221  10.504   7.192  10.007  0.3231 -0.0166 -0.1025
11443SOL    HW137222  10.490   7.267  10.066 -0.6105 -0.6178  0.4674
11443SOL    HW237223  10.558   7.132  10.058 -1.0346 -0.8334  0.4493
11444SOL     OW37224   8.812   3.765   5.343 -0.0794 -0.3046 -0.6420
11444SOL    HW137225   8.844   3.781   5.254  1.8662  0.2205  0.0875
11444SOL    HW237226   8.891   3.756   5.396 -1.0610  2.1679  1.5163
11445SOL     OW37227   5.926   8.472  10.344 -0.2774  0.1103 -0.6029
11445SOL    HW137228   5.839   8.508  10.327 -0.6214 -0.5803 -0.3128
11445SOL    HW237229   5.963   8.531  10.410 -0.4546  0.5038 -0.8493
11446SOL     OW37230  10.066   8.902   1.953  0.0968 -0.4181  0.4477
11446SOL    HW137231  10.076   8.994   1.927 -0.8257  0.6421  3.4979
11446SOL    HW237232   9.972   8.889   1.960  0.2602 -1.1000  1.5671
11447SOL     OW37233   1.843   3.598   4.269 -0.0942  0.2482  0.2448
11447SOL    HW137234   1.833   3.507   4.298 -0.1684 -0.1771 -1.0532
11447SOL    HW237235   1.754   3.630   4.259 -0.0865  0.0718 -0.4431
11448SOL     OW37236   8.016   4.069   6.173 -0.4884 -0.5171 -0.3268
11448SOL    HW137237   7.972   4.097   6.253 -0.2770 -4.2424  1.2584
11448SOL    HW237238   8.107   4.098   6.184 -0.6503 -0.2587  0.3679
11449SOL     OW37239   7.139   5.739   5.429 -0.2539  0.5198 -0.0924
11449SOL    HW137240   7.210   5.790   5.391  1.2754 -1.4907 -0.0886
11449SOL    HW237241   7.096   5.697   5.353 -0.1095  0.1028  0.0540
11450SOL     OW37242   0.736   2.939   6.310 -0.3778  0.4422 -0.0537
11450SOL    HW137243   0.653   2.979   6.335  0.0097  1.1241  0.1729
11450SOL    HW237244   0.720   2.901   6.224 -0.1838  2.9988 -1.3040
11451SOL     OW37245   9.089   5.376   8.182 -0.4556  0.0169  0.3622
11451SOL    HW137246   9.067   5.286   8.157  1.1976 -0.3076 -0.0210
11451SOL    HW237247   9.067   5.381   8.275 -3.6992  0.2787 -0.3034
11452SOL     OW37248   5.801   1.897   6.597  0.4665 -0.3019 -0.1563
11452SOL    HW137249   5.737   1.911   6.667  0.6475 -0.3975  0.0296
11452SOL    HW237250   5.786   1.808   6.567 -1.4034  0.5541 -2.0724
11453SOL     OW37251  10.163   3.320   7.848  0.2008  0.4220 -0.7126
11453SOL    HW137252  10.111   3.268   7.787 -0.6763  0.5792 -0.1098
11453SOL    HW237253  10.115   3.317   7.930  0.2842  1.9399 -0.5828
11454SOL     OW37254   8.073   4.178   4.618  0.3115 -0.6950 -0.6613
11454SOL    HW137255   8.046   4.087   4.605  0.9017 -1.0807  0.6097
11454SOL    HW237256   8.015   4.228   4.561 -0.9423 -1.7564 -0.3796
11455SOL     OW37257   9.226  10.011   3.684  0.5319  0.0027 -0.1936
11455SOL    HW137258   9.171   9.976   3.614  1.3481 -1.2302 -0.2527
11455SOL    HW237259   9.254  10.097   3.652 -0.1453  0.0060 -0.8074
11456SOL     OW37260   6.938   2.052   9.861  0.1039 -0.4574  0.3035
11456SOL    HW137261   6.992   2.114   9.911  0.2280 -0.3082 -0.0130
11456SOL    HW237262   6.886   2.107   9.802 -0.6887 -0.5725  0.8762
11457SOL     OW37263   2.344   4.551   1.274  0.3570 -0.0860 -0.2287
11457SOL    HW137264   2.304   4.613   1.334 -2.2148  0.6772 -2.5495
11457SOL    HW237265   2.273   4.491   1.250  2.1561 -2.4732  0.0375
11458SOL     OW37266   0.770   1.823   9.313 -0.1775  0.2997  0.5323
11458SOL    HW137267   0.756   1.742   9.264 -0.8151  0.8296 -0.1621
11458SOL    HW237268   0.851   1.860   9.276 -0.5252  0.5746  0.0365
11459SOL     OW37269   9.581   8.109   6.599  0.1342  0.2211 -0.0900
11459SOL    HW137270   9.553   8.143   6.684  0.5931 -1.8096  0.9285
11459SOL    HW237271   9.658   8.055   6.619 -1.0321 -2.0753 -1.4554
11460SOL     OW37272   3.857   2.922  10.119  0.1884  0.3503 -0.2406
11460SOL    HW137273   3.763   2.935  10.106  0.3842  0.2517 -2.0032
11460SOL    HW237274   3.878   2.844  10.068  1.2646  0.4974 -0.0578
11461SOL     OW37275   0.849  10.425   4.370  0.0789 -0.1902  0.5471
11461SOL    HW137276   0.930  10.383   4.400  1.2072  1.5545  0.0526
11461SOL    HW237277   0.860  10.517   4.390 -0.9149  0.4085 -1.3811
11462SOL     OW37278   6.054   0.980   8.941 -0.2010 -0.0459 -0.2486
11462SOL    HW137279   6.021   1.069   8.928  0.2079 -0.1034 -1.9167
11462SOL    HW237280   6.106   0.986   9.021 -2.1273  0.6210  1.0541
11463SOL     OW37281   3.246   1.908   3.675 -0.5599 -0.4116  0.5631
11463SOL    HW137282   3.295   1.957   3.609  1.6772 -1.6071  1.2178
11463SOL    HW237283   3.205   1.837   3.626 -0.9144  0.0929  0.1240
11464SOL     OW37284   7.499   5.693   0.068 -0.0586  0.5777 -0.4783
11464SOL    HW137285   7.463   5.736   0.146  0.0011 -2.5863  1.4426
11464SOL    HW237286   7.422   5.674   0.014 -0.6812 -1.0311  0.8988
11465SOL     OW37287   2.705   1.013   6.266 -0.1534  0.7430 -0.3491
11465SOL    HW137288   2.795   0.981   6.256 -0.3767 -0.7390  1.9196
11465SOL    HW237289   2.650   0.939   6.240 -0.6915  0.5538  1.2566
11466SOL     OW37290   6.655   9.091   0.243  0.1017 -0.2403 -0.1954
11466SOL    HW137291   6.610   9.087   0.328 -0.4421 -0.3585 -0.4818
11466SOL    HW237292   6.720   9.160   0.254  0.0058 -0.2223  0.3049
11467SOL     OW37293   2.777   4.258   7.111  0.6025  0.2444  0.0566
11467SOL    HW137294   2.786   4.184   7.171  0.6842 -0.4415 -0.7783
11467SOL    HW237295   2.852   4.251   7.052 -0.1229  0.1786 -0.8847
11468SOL     OW37296  10.282   3.571   0.261 -0.5891  0.1258 -0.3386
11468SOL    HW137297  10.298   3.629   0.186  0.3581 -0.2640 -0.4518
11468SOL    HW237298  10.226   3.622   0.319 -1.6565  0.2957 -1.4859
11469SOL     OW37299   7.220   5.907   3.816 -0.0598 -0.1910  0.4665
11469SOL    HW137300   7.294   5.846   3.811 -0.0040 -0.1558  0.8466
11469SOL    HW237301   7.230   5.950   3.901  1.0768  1.8188 -0.5906
11470SOL     OW37302   4.746   7.678   5.561 -0.1447  0.8171 -0.2587
11470SOL    HW137303   4.828   7.671   5.512 -0.8137  1.0678 -1.4410
11470SOL    HW237304   4.684   7.625   5.512  0.1286 -2.6510  2.6449
11471SOL     OW37305   9.918   3.734   4.787 -0.0598  0.4736  0.5071
11471SOL    HW137306   9.851   3.794   4.822 -2.2700 -1.7690  0.4347
11471SOL    HW237307   9.924   3.665   4.853  1.7309  0.2803  0.1747
11472SOL     OW37308   6.533  10.132   1.698 -0.1180  0.0423 -0.3121
11472SOL    HW137309   6.537  10.068   1.769 -0.0784 -1.2206 -1.4142
11472SOL    HW237310   6.533  10.217   1.742  0.3299 -0.6950  1.1713
11473SOL     OW37311   4.303   1.034   0.601  0.3956 -0.3536  0.9703
11473SOL    HW137312   4.264   0.979   0.533  0.3286 -1.1216  1.6171
11473SOL    HW237313   4.239   1.104   0.614  0.4139 -0.1962  0.2420
11474SOL     OW37314   4.966   9.983   5.285 -0.2896 -0.2462 -0.2846
11474SOL    HW137315   4.970   9.906   5.228  0.0019  0.3631 -1.1112
11474SOL    HW237316   5.056  10.014   5.289 -0.5474  0.5795 -0.7144
11475SOL     OW37317   5.537   3.270   6.062  0.0380 -0.2646 -0.1750
11475SOL    HW137318   5.513   3.339   6.123 -2.0629 -1.4000  0.3741
11475SOL    HW237319   5.483   3.287   5.985  0.9311 -0.2171 -0.8088
11476SOL     OW37320   0.373   8.035   0.313 -0.0141  0.3837 -0.6574
11476SOL    HW137321   0.313   7.994   0.374 -0.0827 -0.1989 -1.1052
11476SOL    HW237322   0.460   8.005   0.340  0.0974  1.3023  0.0493
11477SOL     OW37323   6.693   2.099   6.028  0.2538 -0.0929  0.0445
11477SOL    HW137324   6.660   2.112   6.118 -0.7676 -1.6079 -0.0728
11477SOL    HW237325   6.625   2.138   5.973 -0.0402 -0.7926 -0.1061
11478SOL     OW37326   1.553   9.010   1.854  0.2636 -0.1679 -0.1463
11478SOL    HW137327   1.557   8.918   1.825  2.9677 -0.8336  1.9205
11478SOL    HW237328   1.460   9.033   1.848 -0.2408 -2.3156 -2.6832
11479SOL     OW37329   9.749   0.115   4.659  0.0564  0.6385  0.1330
11479SOL    HW137330   9.712   0.202   4.668 -0.2394  0.5066  0.2079
11479SOL    HW237331   9.723   0.070   4.740  0.4116  0.5577  0.2036
11480SOL     OW37332   6.841   2.850   3.771 -0.7966  0.2019 -0.4244
11480SOL    HW137333   6.819   2.930   3.725  1.0403  0.8649 -0.2381
11480SOL    HW237334   6.832   2.872   3.864 -1.1130 -0.0695 -0.3893
11481SOL     OW37335   8.753   8.655   0.661  0.2508 -0.3846 -0.1043
11481SOL    HW137336   8.739   8.739   0.706 -0.8089 -0.3632 -0.4473
11481SOL    HW237337   8.822   8.673   0.598  1.4094 -0.2831  1.1347
11482SOL     OW37338   2.570   5.045   2.990 -0.0788 -0.2831  0.2988
11482SOL    HW137339   2.502   5.105   2.962  0.3968 -0.5330 -1.4909
11482SOL    HW237340   2.630   5.040   2.916  1.4422 -0.7191  1.5133
11483SOL     OW37341   8.062   1.806   9.982  0.3953  0.0851 -0.4682
11483SOL    HW137342   8.052   1.749  10.059 -2.8158  0.6863 -0.3283
11483SOL    HW237343   8.150   1.844   9.993  0.5608 -0.8130  2.2267
11484SOL     OW37344   4.163   9.460   4.704 -0.2723  0.4359  0.0148
11484SOL    HW137345   4.165   9.490   4.613 -0.7440  1.4447  0.3217
11484SOL    HW237346   4.193   9.536   4.754  0.8939 -0.4146  0.6370
11485SOL     OW37347   0.207   7.079   4.201  0.2040 -0.5253  0.5937
11485SOL    HW137348   0.258   7.122   4.132 -0.5716  0.3192  0.5372
11485SOL    HW237349   0.144   7.024   4.154  0.4628 -0.8874  0.6581
11486SOL     OW37350   5.613   4.052   9.497 -0.2434  0.0968 -0.5997
11486SOL    HW137351   5.576   4.139   9.514  0.4167  0.2471  0.1107
11486SOL    HW237352   5.700   4.071   9.462  0.5478 -0.2777  1.0733
11487SOL     OW37353   9.081   2.768   1.274 -0.3295  0.3652 -0.3907
11487SOL    HW137354   9.174   2.781   1.292 -0.7126  1.3639  1.0216
11487SOL    HW237355   9.064   2.676   1.297 -0.0474  0.6617  1.1241
11488SOL     OW37356   5.570   8.546   2.325 -0.1955  0.7797  0.1060
11488SOL    HW137357   5.585   8.623   2.270  0.7609  1.6398  1.4759
11488SOL    HW237358   5.592   8.472   2.269 -2.5808  1.3431 -1.7362
11489SOL     OW37359   9.336   1.500   9.524 -0.1504 -0.1076 -0.7188
11489SOL    HW137360   9.314   1.492   9.431 -1.2772 -0.2574 -0.4498
11489SOL    HW237361   9.305   1.588   9.548  1.0193  0.3208 -0.7014
11490SOL     OW37362  10.178   4.619   7.446 -0.2899  0.0765  0.1495
11490SOL    HW137363  10.217   4.686   7.389 -0.1770 -0.7798 -0.7999
11490SOL    HW237364  10.113   4.667   7.498  1.3205  1.3425  1.0663
11491SOL     OW37365   3.623   8.197   1.243  0.1077  0.5371 -0.0824
11491SOL    HW137366   3.703   8.227   1.287  0.9868 -0.2093 -1.1209
11491SOL    HW237367   3.655   8.146   1.168 -1.3493  0.3391 -0.5901
11492SOL     OW37368   6.307   0.341   4.877 -0.6766 -0.0364 -0.0311
11492SOL    HW137369   6.219   0.331   4.911 -0.3579  1.1183  1.2331
11492SOL    HW237370   6.353   0.392   4.944  0.6027  0.4420 -1.2220
11493SOL     OW37371   2.336   1.867   7.330  0.3278 -0.6104  0.1842
11493SOL    HW137372   2.295   1.925   7.394 -1.3963 -1.8559  0.2709
11493SOL    HW237373   2.402   1.922   7.287 -0.9213  1.2838  0.5663
11494SOL     OW37374   0.173   6.880   6.862 -0.2642  0.6800  0.2760
11494SOL    HW137375   0.106   6.833   6.911  0.6840 -2.7286 -1.3859
11494SOL    HW237376   0.130   6.905   6.780 -0.3253  1.3493  0.5039
11495SOL     OW37377   3.601   2.193   7.630  0.2144  0.2160 -0.1843
11495SOL    HW137378   3.574   2.102   7.623  2.5921 -0.7562  1.7865
11495SOL    HW237379   3.562   2.236   7.554 -1.4945 -2.2719 -0.8269
11496SOL     OW37380   0.887  10.596  10.668 -0.2988 -0.4191 -0.2986
11496SOL    HW137381   0.971  10.603  10.623  0.4880  0.3574  1.2372
11496SOL    HW237382   0.862  10.686  10.687  0.0069 -0.7451  1.8792
11497SOL     OW37383   2.239   4.526   0.967 -0.5951 -0.2072  0.8981
11497SOL    HW137384   2.328   4.555   0.988 -0.9799  1.6554  0.1400
11497SOL    HW237385   2.214   4.579   0.891 -2.1456 -1.1120  0.7475
11498SOL     OW37386   9.579   6.811   8.860  0.1436  0.7280  0.5799
11498SOL    HW137387   9.548   6.891   8.817  0.1560  0.4361  0.0133
11498SOL    HW237388   9.511   6.746   8.842  0.1040  0.6277  1.0890
11499SOL     OW37389   4.053   2.928   4.844  0.2804 -0.9481 -0.2668
11499SOL    HW137390   4.002   2.852   4.817  0.9953 -1.4014 -0.3904
11499SOL    HW237391   4.092   2.961   4.763  0.1431 -0.5745 -0.1826
11500SOL     OW37392  10.733   8.641   1.718 -0.0884  0.3939  0.1754
11500SOL    HW137393  10.662   8.586   1.684 -0.1844  0.0422  0.9300
11500SOL    HW237394  10.809   8.583   1.721 -0.5864 -0.2593  2.6159
11501SOL     OW37395   8.778   1.175   7.116 -0.3304  0.3351  0.2678
11501SOL    HW137396   8.804   1.103   7.174 -1.6672 -0.4968 -0.1229
11501SOL    HW237397   8.720   1.229   7.170 -1.9423 -0.6853 -0.3650
11502SOL     OW37398   2.681   3.361   4.976 -0.1771  0.7900  0.2322
11502SOL    HW137399   2.638   3.444   4.994 -2.2146 -0.6304  2.6749
11502SOL    HW237400   2.632   3.297   5.029  2.9392 -1.5562  0.5640
11503SOL     OW37401   0.142   7.233   3.655 -0.7891  0.1418  0.2424
11503SOL    HW137402   0.184   7.312   3.619 -0.7129 -0.4968 -1.1327
11503SOL    HW237403   0.213   7.185   3.697 -0.5300  0.0386 -0.3103
11504SOL     OW37404   1.365   4.403   3.966  0.5302 -0.3457  0.2651
11504SOL    HW137405   1.387   4.494   3.986 -0.8950 -0.2395  1.5564
11504SOL    HW237406   1.446   4.366   3.931  2.1268  0.5567  2.7436
11505SOL     OW37407   6.668   2.973   5.550  0.5257  0.2542 -0.1306
11505SOL    HW137408   6.662   2.965   5.455  0.1618  0.8972 -0.1698
11505SOL    HW237409   6.730   2.906   5.576  0.5105 -0.0305 -0.8090
11506SOL     OW37410  10.620   0.651   4.577 -0.0643 -0.0718  0.2279
11506SOL    HW137411  10.678   0.711   4.625 -0.2984  1.9805 -1.8822
11506SOL    HW237412  10.661   0.642   4.491 -1.2025 -1.2115 -0.2196
11507SOL     OW37413   1.861   3.427   3.583 -0.4459 -0.6628  0.4836
11507SOL    HW137414   1.947   3.399   3.615  0.2158  0.2988 -0.4224
11507SOL    HW237415   1.826   3.350   3.538  0.9613 -0.3644 -1.1825
11508SOL     OW37416   0.722   4.321  10.236 -0.7333 -0.0343  0.1188
11508SOL    HW137417   0.808   4.281  10.249 -0.7581 -0.2149 -0.2711
11508SOL    HW237418   0.694   4.291  10.150 -0.1329  1.9434 -0.8187
11509SOL     OW37419  10.375   1.514   2.553  0.5161  0.4188  0.6209
11509SOL    HW137420  10.354   1.504   2.646 -1.5299  1.4598  0.3279
11509SOL    HW237421  10.352   1.429   2.514  4.1156 -1.0955  1.3942
11510SOL     OW37422   0.868   5.041   7.474 -0.0619  0.6525  0.4343
11510SOL    HW137423   0.780   5.072   7.452 -0.2328 -0.2825 -0.2317
11510SOL    HW237424   0.923   5.118   7.461 -0.3533  0.5292 -2.0811
11511SOL     OW37425   6.050   4.394   9.184 -0.5348  0.7728  0.3554
11511SOL    HW137426   6.071   4.380   9.092  4.5764 -0.0378  1.3395
11511SOL    HW237427   6.060   4.489   9.197 -0.1946  0.7503  0.2618
11512SOL     OW37428   3.107   2.374   5.191 -0.7864 -0.1587 -0.5726
11512SOL    HW137429   3.113   2.397   5.284 -0.8947  2.7560 -1.2145
11512SOL    HW237430   3.186   2.323   5.174 -1.1075 -1.3717  1.2341
11513SOL     OW37431   9.981   6.924   3.086  0.2193 -0.3377 -0.0344
11513SOL    HW137432   9.889   6.916   3.060 -0.5545  2.8961  1.2183
11513SOL    HW237433  10.031   6.903   3.007 -1.6325 -0.9503 -1.0951
11514SOL     OW37434   3.246   1.155   2.457  0.1149  0.0759  0.1489
11514SOL    HW137435   3.330   1.108   2.459 -0.5036 -1.0879  0.0374
11514SOL    HW237436   3.269   1.246   2.438  1.4425  0.0262  1.3686
11515SOL     OW37437   8.794   0.948   4.157 -0.1391 -0.0999  0.4646
11515SOL    HW137438   8.835   0.950   4.244  0.5215 -1.3293  0.2115
11515SOL    HW237439   8.702   0.927   4.175 -0.3474  1.1173  0.9378
11516SOL     OW37440   4.654  10.479   8.283 -0.2383 -0.0433 -0.1289
11516SOL    HW137441   4.639  10.572   8.267 -0.3352 -0.1593 -0.7692
11516SOL    HW237442   4.576  10.448   8.329 -0.5980  0.0112 -0.6928
11517SOL     OW37443   3.608   3.258   4.603 -0.4728  0.0493 -0.7684
11517SOL    HW137444   3.619   3.306   4.520 -0.0088  1.3148 -0.0018
11517SOL    HW237445   3.680   3.196   4.604 -0.6451 -0.1769 -1.4371
11518SOL     OW37446   3.197   9.472   5.188  0.6691  0.6145 -0.1870
11518SOL    HW137447   3.264   9.404   5.175  1.8938  1.8328 -0.5600
11518SOL    HW237448   3.206   9.529   5.111 -1.5129  0.2681 -0.7442
11519SOL     OW37449   2.617   9.638   6.916  0.1989 -0.0283 -0.2102
11519SOL    HW137450   2.647   9.590   6.839  1.4857 -0.8851  0.7873
11519SOL    HW237451   2.538   9.591   6.944  0.2400 -0.2556 -0.4662
11520SOL     OW37452   3.463   4.127   7.941 -0.4376  0.7929 -0.0267
11520SOL    HW137453   3.534   4.178   7.977  0.7638 -0.3394 -0.7074
11520SOL    HW237454   3.499   4.088   7.861 -2.3380  1.5137 -1.3026
11521SOL     OW37455  10.615   4.745   8.553 -0.1615 -0.0187  0.0527
11521SOL    HW137456  10.541   4.684   8.554 -0.7447  0.6701  1.0365
11521SOL    HW237457  10.689   4.694   8.583 -0.1048 -0.8601 -1.4480
11522SOL     OW37458   3.539   9.573   7.386 -0.2117 -0.1702  0.9533
11522SOL    HW137459   3.541   9.667   7.364 -1.5323 -0.1975  0.6077
11522SOL    HW237460   3.620   9.558   7.435  0.6472  0.8657 -0.0818
11523SOL     OW37461  10.153   0.741   4.278  0.4417 -0.1623 -0.3775
11523SOL    HW137462  10.077   0.725   4.222  1.2914 -2.0253 -1.0998
11523SOL    HW237463  10.221   0.771   4.217  0.1577  2.1277  0.3528
11524SOL     OW37464   4.421  10.709   0.860 -0.4690 -0.2192  0.2426
11524SOL    HW137465   4.495  10.650   0.877 -1.2228 -1.2031  0.2089
11524SOL    HW237466   4.456  10.775   0.801  0.6782 -0.0279  1.0958
11525SOL     OW37467   5.775   3.195   4.316  0.2035  0.3756 -0.6202
11525SOL    HW137468   5.712   3.204   4.244 -0.4165  0.5206 -0.0757
11525SOL    HW237469   5.755   3.111   4.356  0.9298  0.0325 -0.9681
11526SOL     OW37470   2.960   5.653   8.990 -0.6607 -0.0464  0.6060
11526SOL    HW137471   2.963   5.626   9.082 -1.2383  0.1669  0.6885
11526SOL    HW237472   2.881   5.612   8.955 -0.6075  0.1228  0.2850
11527SOL     OW37473   7.545   7.245   1.381 -0.6836 -0.2473 -0.3148
11527SOL    HW137474   7.626   7.232   1.331 -0.7872 -0.9816 -0.3009
11527SOL    HW237475   7.536   7.340   1.386  0.1800 -0.1505 -0.3117
11528SOL     OW37476  10.763   9.240   2.220  0.1972 -0.2565  0.5695
11528SOL    HW137477  10.734   9.179   2.288  1.7075 -1.0050  0.5876
11528SOL    HW237478  10.726   9.206   2.139 -1.0527  0.2591  0.9018
11529SOL     OW37479   9.650   8.843   1.183 -0.6368  0.1131 -0.3131
11529SOL    HW137480   9.728   8.867   1.233  0.9452 -1.5617 -1.8497
11529SOL    HW237481   9.617   8.765   1.228 -0.3666 -0.2309 -0.7076
11530SOL     OW37482   1.407  10.037   3.167  0.3276 -0.6153  0.2757
11530SOL    HW137483   1.474  10.065   3.104 -1.0793  0.0050 -1.0014
11530SOL    HW237484   1.373  10.119   3.203  0.4804 -0.9403  1.1718
11531SOL     OW37485   3.905   0.199   5.690 -0.1399 -0.0053 -0.0236
11531SOL    HW137486   3.886   0.106   5.701  1.0111 -0.0739  1.8317
11531SOL    HW237487   4.001   0.204   5.685 -0.1172  1.1430  0.9876
11532SOL     OW37488   4.394   8.537   7.354 -0.0314  0.1581  0.4867
11532SOL    HW137489   4.445   8.458   7.369 -2.6606 -1.5039  1.3580
11532SOL    HW237490   4.388   8.578   7.440 -0.0027  0.4455  0.3523
11533SOL     OW37491   5.760   2.609   5.107 -0.4036 -0.0775  0.6352
11533SOL    HW137492   5.847   2.643   5.089 -0.9196  0.9054 -0.1088
11533SOL    HW237493   5.749   2.535   5.047 -1.2861  1.8283 -1.6949
11534SOL     OW37494   0.479  10.135   3.425 -0.4196 -0.8668 -0.0879
11534SOL    HW137495   0.411  10.202   3.435 -0.7516 -1.0445 -0.9712
11534SOL    HW237496   0.503  10.111   3.514  0.1571  0.8665  0.2571
11535SOL     OW37497   8.621   9.327   5.630 -0.2401 -0.0726  0.1723
11535SOL    HW137498   8.536   9.368   5.612 -1.6699 -2.5627  0.7260
11535SOL    HW237499   8.675   9.348   5.554 -1.6297  0.8649 -0.5960
11536SOL     OW37500   2.197   7.673   7.490  0.3873  0.7603 -0.1918
11536SOL    HW137501   2.124   7.734   7.499  0.1317  0.2900  1.0855
11536SOL    HW237502   2.195   7.620   7.570  1.3523 -0.1071 -0.7116
11537SOL     OW37503  10.613   9.573   2.940 -0.3235 -0.0908  0.9346
11537SOL    HW137504  10.561   9.585   2.861  0.4890  1.6608  0.6142
11537SOL    HW237505  10.626   9.478   2.947  0.9279 -0.2268 -1.9278
11538SOL     OW37506   3.124   4.720   0.267 -0.2813  0.4522 -0.5794
11538SOL    HW137507   3.054   4.777   0.299 -2.1596 -1.5570 -0.9522
11538SOL    HW237508   3.099   4.632   0.293  0.4192 -0.7498 -3.5019
11539SOL     OW37509   7.952   1.131   3.559  0.1029 -0.1922 -1.0183
11539SOL    HW137510   7.907   1.176   3.488 -1.6412  1.7646  1.1432
11539SOL    HW237511   8.032   1.181   3.574 -0.3600  0.4348 -0.5666
11540SOL     OW37512   0.425   5.962   1.408 -0.1902 -0.1755 -0.6741
11540SOL    HW137513   0.431   5.872   1.442 -0.9233 -0.1622 -0.4812
11540SOL    HW237514   0.387   5.951   1.321  0.6390 -0.1204 -1.0522
11541SOL     OW37515   0.381   9.200   7.911  0.3312 -0.3112 -0.0345
11541SOL    HW137516   0.427   9.271   7.867  2.3455 -1.5218 -0.0514
11541SOL    HW237517   0.338   9.152   7.841  1.3727 -0.7350 -0.4071
11542SOL     OW37518   6.926   5.848   5.106 -0.3883 -0.0043 -0.1046
11542SOL    HW137519   6.948   5.839   5.013  1.5014  0.2977  0.2761
11542SOL    HW237520   6.950   5.763   5.145  0.7491  0.5362  0.4253
11543SOL     OW37521   6.739  10.107   6.466  0.3878  0.0592 -0.7631
11543SOL    HW137522   6.807  10.094   6.532 -0.0981 -0.1036 -0.2788
11543SOL    HW237523   6.728  10.202   6.461 -1.0179  0.0348  0.9420
11544SOL     OW37524   9.984   7.502   8.542  0.1851 -0.0634  0.5217
11544SOL    HW137525   9.976   7.571   8.608  0.3582  1.4208 -0.9289
11544SOL    HW237526  10.062   7.453   8.568  1.8012  2.1170  0.0564
11545SOL     OW37527   8.246   4.913  10.001 -0.4039  0.3306 -0.3608
11545SOL    HW137528   8.152   4.900   9.994 -0.3917  0.3262 -0.5174
11545SOL    HW237529   8.281   4.885   9.916 -0.3925  1.5231 -0.7812
11546SOL     OW37530   2.305   9.176   7.530 -0.7258 -0.3704 -0.1321
11546SOL    HW137531   2.346   9.262   7.530 -1.1003 -0.1731 -1.3450
11546SOL    HW237532   2.341   9.132   7.607  0.2912  0.4804 -0.0987
11547SOL     OW37533   5.802  10.064   8.136  0.0739  0.7885 -0.5046
11547SOL    HW137534   5.830  10.011   8.061 -0.6363  1.2666 -1.1265
11547SOL    HW237535   5.879  10.068   8.192  0.0676 -1.1453 -0.2771
11548SOL     OW37536   2.657   2.017   0.809 -0.1544 -0.8859 -0.4594
11548SOL    HW137537   2.685   2.066   0.733 -1.2564  1.3342  0.4581
11548SOL    HW237538   2.610   1.941   0.774  3.1072 -2.3739 -1.9298
11549SOL     OW37539   3.879   9.549   2.599 -0.2251  0.6358  0.0632
11549SOL    HW137540   3.921   9.571   2.515 -0.0701  2.0308  0.4867
11549SOL    HW237541   3.950   9.515   2.653 -0.6492 -2.1570 -0.9423
11550SOL     OW37542   7.613   5.113   6.652  0.3534  0.3215  0.3119
11550SOL    HW137543   7.576   5.200   6.666  2.1445  1.8380 -3.0499
11550SOL    HW237544   7.698   5.115   6.698  0.2126  0.1735  0.5815
11551SOL     OW37545   0.540   2.311  10.309  0.4957 -0.0271  0.2879
11551SOL    HW137546   0.479   2.296  10.381 -0.4602 -1.1393 -0.7122
11551SOL    HW237547   0.486   2.354  10.241  1.1598  0.2053 -0.1036
11552SOL     OW37548   7.979   0.466   8.836  0.7059 -0.1713  0.8242
11552SOL    HW137549   8.046   0.415   8.882  0.3280  0.3119  1.9409
11552SOL    HW237550   7.927   0.506   8.906 -0.5589 -0.2808 -0.0213
11553SOL     OW37551   1.830   2.382   9.555  0.2465  0.0242 -0.3222
11553SOL    HW137552   1.845   2.371   9.649  2.3122 -1.5947 -0.7635
11553SOL    HW237553   1.739   2.411   9.548 -0.1432 -0.4295  2.1249
11554SOL     OW37554   2.033   8.744   4.194  0.0528  0.2849  0.3280
11554SOL    HW137555   2.128   8.745   4.183  0.0411 -0.1879  0.1831
11554SOL    HW237556   2.020   8.738   4.288  0.1797 -0.8339  0.2902
11555SOL     OW37557   5.270   4.386   4.269  0.3689 -0.3350 -0.0495
11555SOL    HW137558   5.311   4.416   4.188  0.4033  0.2750  0.1827
11555SOL    HW237559   5.343   4.378   4.331  0.2956 -0.4384  0.0242
11556SOL     OW37560  10.405   1.500   5.849 -0.0481 -0.4018  0.0122
11556SOL    HW137561  10.333   1.437   5.848  0.3065 -0.8249  0.7113
11556SOL    HW237562  10.481   1.450   5.879  0.6254 -0.0395 -1.0483
11557SOL     OW37563   9.094   8.946   5.363 -0.0812 -0.4233  0.1493
11557SOL    HW137564   9.074   9.027   5.410 -1.3993  0.4220 -1.7347
11557SOL    HW237565   9.116   8.975   5.274  1.2694 -2.0195 -0.0796
11558SOL     OW37566   0.173   6.310   7.365  0.2039  0.0285 -0.2461
11558SOL    HW137567   0.144   6.356   7.443 -1.7543  0.4586 -1.1677
11558SOL    HW237568   0.235   6.371   7.323 -0.9670  1.0753 -0.5050
11559SOL     OW37569   3.370   4.697   8.139 -0.2052  0.3780 -0.4467
11559SOL    HW137570   3.330   4.768   8.188 -0.3505 -0.2898  0.4203
11559SOL    HW237571   3.463   4.701   8.161 -0.6225 -1.6091  2.1583
11560SOL     OW37572   3.315  10.225   0.876  0.1145  0.2012  0.2836
11560SOL    HW137573   3.278  10.215   0.788 -0.0118 -1.6528  0.4913
11560SOL    HW237574   3.240  10.211   0.934  0.3719  0.5309  0.6934
11561SOL     OW37575   3.230   3.184  10.068 -0.6286  0.0634 -0.3336
11561SOL    HW137576   3.137   3.161  10.063 -0.6444  0.1250 -0.3243
11561SOL    HW237577   3.254   3.207   9.978 -0.4793 -0.5059 -0.4411
11562SOL     OW37578   9.561   3.225   7.011  0.2534 -0.0429 -0.0199
11562SOL    HW137579   9.470   3.208   7.037  0.6305 -0.9979  0.7187
11562SOL    HW237580   9.586   3.303   7.060  0.3700 -0.7788  1.1253
11563SOL     OW37581   1.449   7.668   7.996 -0.0863 -0.2454 -0.4708
11563SOL    HW137582   1.390   7.738   7.966 -2.0066 -1.2701  0.7296
11563SOL    HW237583   1.417   7.646   8.084 -0.2659 -3.3798 -1.2071
11564SOL     OW37584   9.345   1.304   7.271  0.2218 -0.1099  0.1987
11564SOL    HW137585   9.386   1.391   7.265 -1.6737  0.7467 -1.3737
11564SOL    HW237586   9.350   1.269   7.182 -0.5207 -0.9108  0.4568
11565SOL     OW37587   0.994   1.826   6.792  1.0110  0.2605 -0.4571
11565SOL    HW137588   1.043   1.877   6.728  1.1659 -0.8526 -1.2669
11565SOL    HW237589   1.039   1.742   6.796 -0.0616 -0.3341 -0.2606
11566SOL     OW37590   3.244   1.802  10.707  0.6452  0.1346  0.4288
11566SOL    HW137591   3.176   1.793  10.640  0.2104  0.6490  0.7909
11566SOL    HW237592   3.325   1.774  10.664  0.1454 -0.8558  0.1052
11567SOL     OW37593   5.129   6.852   7.796  0.0195 -0.1174 -0.5657
11567SOL    HW137594   5.107   6.944   7.806  1.6858  0.2565  0.0678
11567SOL    HW237595   5.224   6.851   7.783 -0.2249 -1.6121 -2.7617
11568SOL     OW37596   2.475   5.472   8.803 -0.0028  0.2293  0.0556
11568SOL    HW137597   2.488   5.541   8.738 -0.9892  0.2800 -0.1130
11568SOL    HW237598   2.516   5.395   8.765  0.7127  0.6129  0.0390
11569SOL     OW37599   4.032   2.744   4.064 -0.1736 -0.3181  0.2035
11569SOL    HW137600   4.053   2.653   4.041  0.2104 -0.0474 -0.5495
11569SOL    HW237601   4.103   2.795   4.026  0.8538  0.1216  2.5679
11570SOL     OW37602  10.232   2.043   4.848 -0.2305  0.0667  0.5107
11570SOL    HW137603  10.150   2.082   4.817 -0.2924  1.7748  2.6126
11570SOL    HW237604  10.243   2.076   4.937  1.3734 -2.3031  1.3132
11571SOL     OW37605   0.905   8.116   9.567 -0.1837 -0.5243  0.4815
11571SOL    HW137606   0.935   8.026   9.560 -3.9012 -2.1268  2.1790
11571SOL    HW237607   0.887   8.129   9.660 -3.1129  0.6069 -0.1095
11572SOL     OW37608   4.522   9.480   0.444  0.1307  0.2116  0.1245
11572SOL    HW137609   4.475   9.456   0.524 -0.2355 -1.1539 -0.4735
11572SOL    HW237610   4.510   9.405   0.386  1.7837  0.4813 -0.6118
11573SOL     OW37611   0.842   0.071   4.103  0.4485  0.3060 -0.6072
11573SOL    HW137612   0.806   0.149   4.146  0.9514  0.8384 -1.1335
11573SOL    HW237613   0.820   0.083   4.010 -1.2284 -1.1498 -0.4656
11574SOL     OW37614   5.131   1.872   1.854  0.0217 -0.1080  0.1587
11574SOL    HW137615   5.167   1.924   1.781  1.3729  2.6087  2.5413
11574SOL    HW237616   5.126   1.934   1.926 -0.1074 -2.9304  2.7417
11575SOL     OW37617   1.145   8.673   9.991 -1.0710  0.2389  0.6399
11575SOL    HW137618   1.065   8.725  10.004 -0.5486  0.6404  2.5305
11575SOL    HW237619   1.210   8.737   9.960 -0.9009  0.3640  1.2479
11576SOL     OW37620   0.625  10.525   1.049  0.5742 -0.4109 -0.7487
11576SOL    HW137621   0.572  10.586   0.998  0.4824 -0.5729 -0.8495
11576SOL    HW237622   0.570  10.447   1.058 -0.0248  0.1537  0.9010
11577SOL     OW37623   2.580   2.470   8.510 -0.5575  0.0191  0.3220
11577SOL    HW137624   2.508   2.407   8.517  0.3601 -1.1489 -0.3948
11577SOL    HW237625   2.547   2.538   8.452 -1.1170 -0.4621  0.0696
11578SOL     OW37626  10.517   5.041   4.613 -0.4827  0.9755 -0.3667
11578SOL    HW137627  10.427   5.059   4.640 -0.0365  1.7329  0.6704
11578SOL    HW237628  10.565   5.120   4.634  0.8229 -0.1176  0.9778
11579SOL     OW37629   4.001   6.211   7.868  0.3408  0.1429 -0.1998
11579SOL    HW137630   3.978   6.300   7.895 -1.0154  0.1193 -1.1426
11579SOL    HW237631   4.096   6.208   7.871  0.3518  0.8024  2.3497
11580SOL     OW37632   7.039   9.521   5.217 -0.2351 -0.1968 -0.3452
11580SOL    HW137633   6.997   9.604   5.243 -0.8099 -0.7149  0.3983
11580SOL    HW237634   7.024   9.462   5.290 -1.5742 -1.5740 -1.6488
11581SOL     OW37635   8.167  10.189   5.263 -0.0872 -0.3994 -0.0345
11581SOL    HW137636   8.212  10.195   5.178  0.0228 -0.3544  0.0273
11581SOL    HW237637   8.115  10.269   5.268 -1.2373 -1.0731 -0.7077
11582SOL     OW37638   7.009   2.538   0.300 -0.7196  0.5130  0.5001
11582SOL    HW137639   6.955   2.571   0.228 -1.2009  2.2932  1.6145
11582SOL    HW237640   6.995   2.444   0.299 -0.5439  0.4512 -1.8441
11583SOL     OW37641  10.180   0.480   2.531 -0.5775 -0.1370 -0.0207
11583SOL    HW137642  10.275   0.470   2.528 -0.4921  0.6788 -0.3296
11583SOL    HW237643  10.164   0.524   2.615 -0.5578  0.8329 -0.5086
11584SOL     OW37644   3.609   9.195   9.777  0.3028  0.0118 -0.2481
11584SOL    HW137645   3.520   9.167   9.757 -0.0345  0.8184  0.0829
11584SOL    HW237646   3.651   9.203   9.691  0.0972 -0.4836 -0.4001
11585SOL     OW37647   5.729   6.663   4.629 -0.2513 -0.7347 -0.7131
11585SOL    HW137648   5.651   6.615   4.603 -0.9315  0.9758 -2.0960
11585SOL    HW237649   5.716   6.751   4.592  1.2825  0.2755  0.9797
11586SOL     OW37650   8.301   9.371   1.243  0.8245  0.0153  0.0572
11586SOL    HW137651   8.316   9.290   1.194 -1.9338 -0.6197  0.0701
11586SOL    HW237652   8.306   9.345   1.335 -0.3771 -0.2558  0.0624
11587SOL     OW37653   5.162   2.943   4.442  0.6112  0.2962  0.7272
11587SOL    HW137654   5.144   3.000   4.367  1.9087 -0.2542 -0.0305
11587SOL    HW237655   5.075   2.912   4.470 -0.0732  2.1163  0.7723
11588SOL     OW37656   4.031   9.473   7.543  0.3577  0.0665 -0.0743
11588SOL    HW137657   3.968   9.405   7.517 -0.2419  1.2592 -1.9868
11588SOL    HW237658   4.065   9.506   7.459  2.6513  0.3015  0.8748
11589SOL     OW37659   8.454   3.813   0.669 -0.6364  0.2896 -0.1955
11589SOL    HW137660   8.546   3.837   0.657 -0.6904 -0.1095 -1.6821
11589SOL    HW237661   8.442   3.737   0.611 -1.1665 -1.5708  2.1815
11590SOL     OW37662   7.556   9.551   0.638  0.3712 -0.1864 -0.7524
11590SOL    HW137663   7.506   9.624   0.674  0.2000  0.6775 -2.6345
11590SOL    HW237664   7.619   9.592   0.579  2.1396 -1.3844  0.1934
11591SOL     OW37665   0.035   9.369  10.465 -0.2791  0.2920 -0.2664
11591SOL    HW137666   0.023   9.402  10.554  0.7981 -0.9388  0.3830
11591SOL    HW237667  -0.036   9.306  10.453  0.1974 -0.3543  0.1726
11592SOL     OW37668   3.975   7.124   9.500  0.1600  0.7034 -0.3210
11592SOL    HW137669   3.899   7.182   9.489 -0.0950  0.7386  1.3480
11592SOL    HW237670   3.942   7.050   9.551  0.8102 -0.2606 -1.2505
11593SOL     OW37671   5.296   3.694   5.357  0.2211 -0.5138  0.3208
11593SOL    HW137672   5.340   3.709   5.441  0.6871  0.1016 -0.0204
11593SOL    HW237673   5.278   3.600   5.355  2.1144 -0.9148  0.2108
11594SOL     OW37674   3.331   7.153   6.480  0.1912  0.6668  0.0098
11594SOL    HW137675   3.410   7.102   6.497 -0.0711  0.7671  1.6937
11594SOL    HW237676   3.259   7.092   6.494 -0.0667  0.4835 -1.8578
11595SOL     OW37677   6.469   2.856  10.529 -0.3179  0.3842 -0.4231
11595SOL    HW137678   6.425   2.814  10.454  1.1459 -2.5432  0.2152
11595SOL    HW237679   6.539   2.908  10.490  0.7256 -1.4751 -1.1765
11596SOL     OW37680   9.107   6.676   3.944  0.2522  0.1899 -0.0259
11596SOL    HW137681   9.079   6.689   4.034 -0.2488 -3.8493  0.5473
11596SOL    HW237682   9.027   6.684   3.892  0.7185  3.8399 -0.4964
11597SOL     OW37683   4.109   7.319   5.592 -0.1094  0.0271 -0.6469
11597SOL    HW137684   4.019   7.339   5.567 -0.4442  0.3386  0.7532
11597SOL    HW237685   4.162   7.387   5.550 -0.4741 -0.3494 -1.7495
11598SOL     OW37686   3.451   3.968   6.531 -0.0073  0.0641 -0.4772
11598SOL    HW137687   3.370   3.973   6.583 -0.7297 -3.1280 -1.0966
11598SOL    HW237688   3.502   3.898   6.573  2.5882  2.0663 -0.0409
11599SOL     OW37689   0.856   7.739   5.326  0.1031 -0.3799 -0.0865
11599SOL    HW137690   0.939   7.690   5.323 -0.7265 -2.1659  2.3324
11599SOL    HW237691   0.795   7.686   5.275 -0.4038 -1.0895  1.2050
11600SOL     OW37692   0.007   3.064   3.519  0.1963 -0.3500  0.5165
11600SOL    HW137693   0.072   3.006   3.479 -1.4440 -0.1360 -2.7959
11600SOL    HW237694  -0.004   3.134   3.456 -2.7308 -0.0071  1.2754
11601SOL     OW37695   9.038   4.601   4.299  0.2787 -0.3061  0.3022
11601SOL    HW137696   9.054   4.593   4.205  3.2053 -1.8513  0.8096
11601SOL    HW237697   8.986   4.524   4.321 -0.6924  0.2290 -0.0587
11602SOL     OW37698   2.166   3.066   0.995 -0.0217 -0.1357  0.2925
11602SOL    HW137699   2.110   3.013   0.937 -0.8548  0.0348  0.9252
11602SOL    HW237700   2.138   3.156   0.980 -0.5902 -0.1276  1.3101
11603SOL     OW37701   1.939   3.520   1.878 -0.4865 -0.0838  0.6135
11603SOL    HW137702   1.910   3.510   1.788 -0.7073  0.6160  0.5999
11603SOL    HW237703   2.034   3.512   1.874 -0.5142 -0.2757  0.3514
11604SOL     OW37704   0.677   9.952  10.706  0.0123  0.2367 -0.3779
11604SOL    HW137705   0.636  10.000  10.778 -0.0223 -1.3212  0.6889
11604SOL    HW237706   0.639   9.991  10.627 -1.2809  0.8133  0.4918
11605SOL     OW37707   9.079   7.483   0.549  0.8460  0.2384  0.4983
11605SOL    HW137708   9.153   7.492   0.609  3.3307  1.1573 -2.4323
11605SOL    HW237709   9.076   7.389   0.529 -0.4718 -0.1944  2.4717
11606SOL     OW37710   8.345   7.316   8.733 -0.2477 -0.2607 -0.3209
11606SOL    HW137711   8.282   7.368   8.783  0.1569  0.5430 -0.6188
11606SOL    HW237712   8.407   7.381   8.699  1.0860 -1.0912  0.4656
11607SOL     OW37713   5.410   6.699   6.792  0.2065  0.4913 -0.3650
11607SOL    HW137714   5.484   6.751   6.824 -0.4581  1.5994 -0.6044
11607SOL    HW237715   5.338   6.719   6.851 -0.0362 -0.2472 -0.3969
11608SOL     OW37716   7.886   7.921  10.503 -0.3685  0.3008 -0.2104
11608SOL    HW137717   7.849   7.925  10.591 -1.3489 -1.8453 -0.4557
11608SOL    HW237718   7.815   7.886  10.449  0.3691  1.1261 -1.7838
11609SOL     OW37719   8.089   0.618   0.481 -0.3423  0.1807  0.2903
11609SOL    HW137720   8.143   0.695   0.463  0.7621 -0.8677 -1.1338
11609SOL    HW237721   8.142   0.565   0.540  0.3386 -0.9773 -1.3197
11610SOL     OW37722   7.002   5.433   3.296  0.0880  0.1080  0.1269
11610SOL    HW137723   7.059   5.402   3.226 -0.2020  0.1656 -0.1372
11610SOL    HW237724   6.939   5.362   3.308 -0.4210  0.4764 -0.3026
11611SOL     OW37725   0.135   9.389   1.260  0.5371 -1.1690  0.1899
11611SOL    HW137726   0.073   9.430   1.200 -0.1010 -1.2161  0.8125
11611SOL    HW237727   0.201   9.456   1.277  0.4953 -1.0188 -0.2263
11612SOL     OW37728   8.265   4.524  10.239  0.1946  0.4474  0.6088
11612SOL    HW137729   8.295   4.615  10.241 -2.2654  1.3199  0.3180
11612SOL    HW237730   8.176   4.527  10.274 -0.6437 -1.5706 -1.1633
11613SOL     OW37731   5.193   9.346   5.266  0.5564 -0.0242  0.0626
11613SOL    HW137732   5.229   9.319   5.182 -1.5279  0.8979 -1.2305
11613SOL    HW237733   5.178   9.440   5.257  1.4242  0.3438  1.9512
11614SOL     OW37734   7.150   6.797   0.713 -0.0755  0.0504  0.4676
11614SOL    HW137735   7.190   6.873   0.755  0.0686  0.0732  0.2908
11614SOL    HW237736   7.134   6.736   0.784 -0.5607  0.4082  0.6726
11615SOL     OW37737   4.618   2.017   1.206  0.3018 -0.1426 -0.0535
11615SOL    HW137738   4.706   2.031   1.171  0.1969 -1.8217 -1.0527
11615SOL    HW237739   4.631   2.008   1.300  1.1757 -0.1896 -0.1684
11616SOL     OW37740   0.754  10.694   1.682 -0.6510 -0.4952  0.2133
11616SOL    HW137741   0.755  10.628   1.613  0.3825 -0.0423 -0.2138
11616SOL    HW237742   0.809  10.657   1.751 -0.0407 -0.0819 -0.0415
11617SOL     OW37743   2.112   3.925   4.540  0.5639 -0.4336 -0.3016
11617SOL    HW137744   2.204   3.953   4.537  0.0808  1.1973 -1.0893
11617SOL    HW237745   2.078   3.962   4.621 -0.0709  1.3442 -1.3318
11618SOL     OW37746   9.042   7.500   9.867  0.1188  0.0306  0.1531
11618SOL    HW137747   9.103   7.443   9.821 -0.9322  0.2410 -1.5934
11618SOL    HW237748   9.077   7.588   9.856  0.3752 -0.0113  0.6093
11619SOL     OW37749   9.647   3.792   8.791 -0.0290  0.0901 -0.0621
11619SOL    HW137750   9.599   3.737   8.853  0.4596 -0.2495  0.0153
11619SOL    HW237751   9.735   3.799   8.827  0.4603 -0.6672 -1.0456
11620SOL     OW37752   7.846   0.114   3.438  0.3073 -0.3735  0.3131
11620SOL    HW137753   7.798   0.192   3.465  1.5146  0.2739  0.6798
11620SOL    HW237754   7.778   0.049   3.418 -0.6953  0.4631  0.9122
11621SOL     OW37755   8.431   8.083   3.129 -0.1998 -0.1851  0.4339
11621SOL    HW137756   8.429   8.100   3.035 -1.0939  2.9315  0.9145
11621SOL    HW237757   8.345   8.046   3.149 -0.5985  0.6501  0.2613
11622SOL     OW37758  10.743   8.741   4.612 -0.2680  0.3326 -0.4636
11622SOL    HW137759  10.766   8.833   4.596 -1.7430  1.1063  1.4377
11622SOL    HW237760  10.656   8.731   4.573  0.1451 -0.4586 -1.2039
11623SOL     OW37761   5.400   0.894   7.212 -0.2978 -0.3610  0.3510
11623SOL    HW137762   5.376   0.954   7.141  0.3729  0.1722  0.5683
11623SOL    HW237763   5.332   0.906   7.277  1.3566  2.4564  1.7572
11624SOL     OW37764   2.044   5.420   4.535 -0.0893  0.3898  0.1525
11624SOL    HW137765   2.088   5.466   4.606 -0.4565  2.1985 -0.7463
11624SOL    HW237766   1.951   5.434   4.551 -0.2069 -0.0420 -0.1467
11625SOL     OW37767   3.228   3.953   4.184 -0.1303 -0.1105 -0.0618
11625SOL    HW137768   3.159   3.889   4.166  0.0145 -0.4501  0.5583
11625SOL    HW237769   3.266   3.924   4.267 -0.0204  0.7493  0.1908
11626SOL     OW37770   5.013   9.318   0.414  0.0843  0.1538 -0.0118
11626SOL    HW137771   5.016   9.222   0.425 -0.9371  0.1924  0.6981
11626SOL    HW237772   4.984   9.351   0.499 -1.5319  0.9558 -0.8396
11627SOL     OW37773   7.638   7.773   5.460 -0.3610  0.3634  0.1510
11627SOL    HW137774   7.734   7.763   5.461 -0.1961  1.6434 -0.5217
11627SOL    HW237775   7.621   7.849   5.515 -1.0837 -0.3449  0.9361
11628SOL     OW37776   4.199   1.479   5.797  0.5674 -0.3549  0.0335
11628SOL    HW137777   4.231   1.429   5.873  0.1245 -1.0341 -0.2165
11628SOL    HW237778   4.273   1.534   5.772  0.9544 -0.6321  0.5348
11629SOL     OW37779   2.400   5.214   5.109  0.2369 -0.4007 -0.2501
11629SOL    HW137780   2.478   5.163   5.090  0.3774 -0.1179 -0.4412
11629SOL    HW237781   2.329   5.166   5.067  0.4332 -0.1964 -0.8311
11630SOL     OW37782   0.910   6.410   8.158  0.3581  0.4004  0.3088
11630SOL    HW137783   0.820   6.421   8.188 -0.2968  0.1339 -1.4400
11630SOL    HW237784   0.903   6.358   8.078  1.8605  1.9722 -0.9533
11631SOL     OW37785   1.491   7.310   0.671 -1.0013 -0.5064 -0.2656
11631SOL    HW137786   1.490   7.215   0.672 -2.2418 -0.5177  0.9474
11631SOL    HW237787   1.431   7.335   0.601 -0.9178 -0.6242 -0.3780
11632SOL     OW37788   0.300   6.285   5.737  0.1775 -0.3392 -0.2728
11632SOL    HW137789   0.318   6.353   5.802 -3.6829  0.3727  0.2868
11632SOL    HW237790   0.296   6.204   5.788 -1.4506  0.0179  0.2376
11633SOL     OW37791   9.180   4.366   9.649  0.1489 -0.6478  0.0540
11633SOL    HW137792   9.210   4.332   9.565 -1.1680  0.1848 -0.7805
11633SOL    HW237793   9.255   4.353   9.708  0.3925 -3.1747 -0.6812
11634SOL     OW37794   7.654   8.456   9.986 -0.1143 -0.0423 -0.4373
11634SOL    HW137795   7.616   8.543  10.000  0.7430  0.1763  0.6203
11634SOL    HW237796   7.634   8.436   9.894  2.0796  2.4866 -1.5943
11635SOL     OW37797   8.457   4.208   9.676  0.1695 -0.1815  0.0370
11635SOL    HW137798   8.511   4.278   9.712  0.5077  0.5678 -1.7994
11635SOL    HW237799   8.515   4.163   9.614  0.0762 -2.3510  1.4041
11636SOL     OW37800   5.613   8.333   0.604  0.0728 -0.1972  0.3676
11636SOL    HW137801   5.540   8.395   0.606  0.0326 -0.2491  1.3709
11636SOL    HW237802   5.615   8.296   0.693  0.1624 -1.5532 -0.1732
11637SOL     OW37803   1.140   6.567   0.515  0.0705  0.4755 -0.3328
11637SOL    HW137804   1.204   6.590   0.582  0.2031  0.8648 -0.5857
11637SOL    HW237805   1.055   6.576   0.557  0.2005 -0.7195  0.2091
11638SOL     OW37806   7.730   2.531   0.228 -0.1752  0.0632 -0.0757
11638SOL    HW137807   7.763   2.449   0.191  0.2041 -0.2404  0.8869
11638SOL    HW237808   7.637   2.532   0.207  0.1357  0.2083 -1.5484
11639SOL     OW37809   8.295   0.158   4.642 -0.4337  0.1526  0.4322
11639SOL    HW137810   8.353   0.089   4.611  1.6833  1.5957  0.9304
11639SOL    HW237811   8.247   0.187   4.565  1.8708  1.0280 -0.7743
11640SOL     OW37812   7.513   5.409   0.079 -0.5591 -0.5217  0.2895
11640SOL    HW137813   7.570   5.382   0.007  1.0701 -0.9903  1.6994
11640SOL    HW237814   7.510   5.504   0.072 -0.4418 -0.5583 -0.4006
11641SOL     OW37815   5.188   6.849   4.612  0.3614  0.4868 -0.0759
11641SOL    HW137816   5.241   6.872   4.688  1.1041 -3.1805  0.7046
11641SOL    HW237817   5.098   6.848   4.645  0.3960  1.2988  0.0683
11642SOL     OW37818   3.337   7.387   4.532 -0.4479 -0.5579  0.0184
11642SOL    HW137819   3.293   7.445   4.594 -0.8935 -0.7790 -0.0904
11642SOL    HW237820   3.270   7.365   4.467  0.1061 -0.0239 -0.7577
11643SOL     OW37821   7.388   1.412   2.776 -0.2905  0.0208 -0.4986
11643SOL    HW137822   7.357   1.480   2.716  0.8502  0.6104 -0.4448
11643SOL    HW237823   7.319   1.404   2.841 -1.1949 -0.0641 -1.4405
11644SOL     OW37824   3.680   1.152   8.047 -0.0292 -0.3653  0.9981
11644SOL    HW137825   3.688   1.065   8.008 -2.1651 -0.6137  1.0221
11644SOL    HW237826   3.760   1.197   8.019  0.3279 -1.7637 -0.4300
11645SOL     OW37827   9.339   9.258   9.562  0.3978 -0.2012  0.5844
11645SOL    HW137828   9.273   9.304   9.614  0.8613  0.4242  0.6365
11645SOL    HW237829   9.379   9.327   9.508 -0.2310 -0.8809 -0.7787
11646SOL     OW37830   6.052   4.587   4.534 -0.6740  0.3700  0.3918
11646SOL    HW137831   5.984   4.550   4.477  0.6096 -0.2354 -0.8227
11646SOL    HW237832   6.132   4.583   4.481  0.8345 -1.2528  2.6351
11647SOL     OW37833   7.478   5.149   7.830  0.6071  0.3403  0.4563
11647SOL    HW137834   7.390   5.138   7.795  1.3893 -0.6074 -1.3321
11647SOL    HW237835   7.504   5.237   7.800  0.1641  0.7572  1.2709
11648SOL     OW37836   4.971   2.771   2.949  0.2839  0.2046 -0.1711
11648SOL    HW137837   5.064   2.764   2.929  0.2068 -0.2144 -0.3839
11648SOL    HW237838   4.958   2.713   3.024  0.2690  0.5700  0.1137
11649SOL     OW37839   9.376   1.783   8.635  0.6077  0.6503 -0.4647
11649SOL    HW137840   9.356   1.807   8.545  2.2234  2.6119 -0.3635
11649SOL    HW237841   9.375   1.688   8.635 -0.5015  0.6136 -2.2856
11650SOL     OW37842   4.211   0.500   9.001 -0.7838 -0.2028  0.2358
11650SOL    HW137843   4.180   0.520   8.913 -2.3950 -0.2820  0.7499
11650SOL    HW237844   4.229   0.406   9.000  0.0974 -0.0336 -0.2570
11651SOL     OW37845   4.756   8.512   2.173 -0.2684 -0.2844  0.5970
11651SOL    HW137846   4.791   8.432   2.136 -0.2966 -0.4246  0.8731
11651SOL    HW237847   4.685   8.537   2.114  1.1868  0.7911 -0.7952
11652SOL     OW37848   4.314   3.782   9.536 -0.3504 -0.1025 -0.3291
11652SOL    HW137849   4.261   3.861   9.519  1.0120  1.2378  1.2925
11652SOL    HW237850   4.290   3.757   9.626  0.3689 -0.6020 -0.2726
11653SOL     OW37851  10.610   6.267   7.349 -0.5551  0.4693 -0.4257
11653SOL    HW137852  10.695   6.227   7.332 -1.3186 -1.8684  0.8553
11653SOL    HW237853  10.555   6.237   7.276 -0.5942  0.9600 -0.5990
11654SOL     OW37854   0.572  10.241   4.006  0.3215 -0.0343  0.4982
11654SOL    HW137855   0.540  10.323   3.968  0.4483  0.5343  1.5797
11654SOL    HW237856   0.606  10.266   4.092  0.7229 -1.1620  0.6841
11655SOL     OW37857   4.325   7.547  10.342 -0.0460  0.4276  0.3921
11655SOL    HW137858   4.401   7.570  10.395 -0.8225  2.5726  0.6826
11655SOL    HW237859   4.279   7.630  10.329 -0.8714 -0.3369 -2.1022
11656SOL     OW37860   3.297   7.801   3.530  0.1046  0.0423 -0.4538
11656SOL    HW137861   3.215   7.845   3.552  0.6476  1.1919 -0.6425
11656SOL    HW237862   3.289   7.715   3.570  0.0783  1.1958  2.2845
11657SOL     OW37863   4.617   0.671  10.266 -1.0330 -0.2774  0.0431
11657SOL    HW137864   4.608   0.716  10.350 -0.8464  2.8412 -1.4669
11657SOL    HW237865   4.700   0.624  10.274 -1.2764 -0.4965  1.7778
11658SOL     OW37866   8.288   0.189   3.091 -0.1808  0.6682  0.0765
11658SOL    HW137867   8.373   0.195   3.134  0.7432 -0.9540 -1.4079
11658SOL    HW237868   8.228   0.165   3.162  0.8495  0.3903  0.8839
11659SOL     OW37869  10.740   1.962   0.132  0.1406 -0.2727 -0.3631
11659SOL    HW137870  10.676   1.890   0.134  1.3761 -1.4230 -1.0110
11659SOL    HW237871  10.817   1.927   0.175  1.0663  0.3492 -1.4708
11660SOL     OW37872   2.282   2.727  10.754  0.0899 -0.2357  0.1715
11660SOL    HW137873   2.315   2.766  10.834  1.8172  0.7333 -0.9493
11660SOL    HW237874   2.260   2.637  10.778  0.9605 -0.0900  1.6277
11661SOL     OW37875   0.371   1.147   7.653  0.7032 -0.1172  0.0827
11661SOL    HW137876   0.415   1.076   7.701  0.6205 -0.8229 -0.8654
11661SOL    HW237877   0.295   1.168   7.707  1.1928 -0.1420  0.8099
11662SOL     OW37878   2.913   2.503   4.622  0.5110  0.1655 -0.2183
11662SOL    HW137879   2.852   2.557   4.571 -2.0068 -0.8186  1.5791
11662SOL    HW237880   2.877   2.415   4.616  2.0917 -0.5548  0.4984
11663SOL     OW37881   7.367   2.962   0.754  0.5828 -0.1744 -0.1727
11663SOL    HW137882   7.287   2.916   0.778 -0.5974  2.2218  0.8025
11663SOL    HW237883   7.376   2.948   0.660 -0.7795 -0.7928 -0.2265
11664SOL     OW37884  10.384   4.210   3.987  0.4844  0.4511 -0.1174
11664SOL    HW137885  10.457   4.152   4.008  1.3389  1.7638  0.7192
11664SOL    HW237886  10.310   4.152   3.971  2.0548 -1.0070 -2.6329
11665SOL     OW37887  10.231   2.422   0.803 -0.3025  0.2983 -0.2839
11665SOL    HW137888  10.305   2.436   0.744  1.9085 -1.1492  1.9291
11665SOL    HW237889  10.182   2.350   0.763  0.5085  0.0951 -0.9414
11666SOL     OW37890   7.079   0.355   6.676  0.2808 -0.4447  0.0092
11666SOL    HW137891   7.169   0.371   6.648 -0.0853 -0.9116 -1.5806
11666SOL    HW237892   7.026   0.413   6.620 -0.4505 -0.7790  0.3417
11667SOL     OW37893   9.442   1.400   3.303  0.3871 -0.7126  0.4410
11667SOL    HW137894   9.351   1.393   3.276  0.5308  0.5164 -0.4828
11667SOL    HW237895   9.475   1.476   3.255  1.9985 -1.3484  0.4888
11668SOL     OW37896   5.430   7.777   9.604  0.3099  0.2856 -0.0694
11668SOL    HW137897   5.523   7.759   9.589 -0.1433 -1.9771 -0.5661
11668SOL    HW237898   5.430   7.854   9.660  2.4979  0.1776  0.1965
11669SOL     OW37899   2.121   3.821   1.977  0.0979 -0.1681  0.0206
11669SOL    HW137900   2.101   3.834   1.884  0.4153  0.8486  0.0733
11669SOL    HW237901   2.036   3.809   2.019 -0.4746  3.3478  0.1485
11670SOL     OW37902   8.807   7.713   8.388  0.3768 -0.1431 -0.2241
11670SOL    HW137903   8.872   7.718   8.459  0.7325  0.4391 -0.5821
11670SOL    HW237904   8.841   7.647   8.329 -0.0816 -0.8610  0.3035
11671SOL     OW37905   8.098   5.336   6.747  0.1788  0.2316 -0.4502
11671SOL    HW137906   8.126   5.288   6.670 -1.3148 -0.6653 -0.4910
11671SOL    HW237907   8.176   5.342   6.802  0.4834 -2.1290 -0.5192
11672SOL     OW37908   6.744   6.797   8.774 -0.1342 -0.0380 -0.0082
11672SOL    HW137909   6.708   6.749   8.700 -1.5618 -1.8848  1.7487
11672SOL    HW237910   6.818   6.743   8.804  2.2095  2.0513 -1.5874
11673SOL     OW37911   5.719   0.859   7.827 -0.0446 -0.0844  0.4754
11673SOL    HW137912   5.758   0.930   7.878  0.9501 -1.3606  1.5591
11673SOL    HW237913   5.749   0.779   7.871  0.7169 -1.2447 -2.0182
11674SOL     OW37914   3.800   9.945  10.344  0.5690 -0.2163 -0.4542
11674SOL    HW137915   3.874   9.979  10.394  1.4877 -1.4061 -0.9649
11674SOL    HW237916   3.839   9.894  10.274 -0.6576  1.7698 -2.7533
11675SOL     OW37917   7.897   1.301   4.669  0.0591 -0.0955  0.6860
11675SOL    HW137918   7.934   1.372   4.720 -0.5684  2.5974 -2.2692
11675SOL    HW237919   7.807   1.328   4.652  0.2545 -0.7245 -1.8222
11676SOL     OW37920   1.382   9.680   9.119 -0.1646 -0.3913 -0.0721
11676SOL    HW137921   1.451   9.633   9.071 -0.4003 -1.2271  0.3819
11676SOL    HW237922   1.327   9.718   9.051 -0.9535 -2.2210 -0.5126
11677SOL     OW37923   1.437   3.767   3.626 -0.3545  0.0222 -0.0464
11677SOL    HW137924   1.378   3.712   3.678  1.0962  0.1695  1.8460
11677SOL    HW237925   1.495   3.705   3.582 -0.1057 -0.0412  0.3661
11678SOL     OW37926   4.217   2.323   6.850 -0.4927  0.1424  0.1757
11678SOL    HW137927   4.242   2.345   6.760  0.8595  0.8462  0.6880
11678SOL    HW237928   4.285   2.262   6.879 -0.2669  0.8119  1.0825
11679SOL     OW37929   0.420   5.252   3.643  0.5028  0.4387 -0.3049
11679SOL    HW137930   0.383   5.268   3.556 -1.3534  0.9042  0.5114
11679SOL    HW237931   0.460   5.336   3.668  1.0305  0.3067 -0.6934
11680SOL     OW37932   4.388   4.380   5.970  0.0752 -0.5953 -0.5672
11680SOL    HW137933   4.454   4.325   5.928  0.3546  1.0548 -2.4421
11680SOL    HW237934   4.428   4.408   6.052  1.2992 -0.4524 -1.1922
11681SOL     OW37935   0.818   1.095   1.400  0.6893 -0.0334  0.1799
11681SOL    HW137936   0.846   1.021   1.454 -0.1623 -0.2317  0.3697
11681SOL    HW237937   0.839   1.068   1.310  1.3584 -0.0504  0.3365
11682SOL     OW37938   7.836   9.588  10.123  0.2167 -0.6550  0.3606
11682SOL    HW137939   7.867   9.679  10.133 -0.1309 -0.1169 -2.4878
11682SOL    HW237940   7.769   9.578  10.190  0.4949  1.0790  0.9615
11683SOL     OW37941  10.788   3.924   2.769  0.3875 -0.3620  0.0630
11683SOL    HW137942  10.834   3.947   2.688 -1.7112  0.6848 -0.9090
11683SOL    HW237943  10.747   4.005   2.797 -1.9036 -1.4819  0.1425
11684SOL     OW37944   4.497   5.071   5.562  0.3701 -0.2639  0.1343
11684SOL    HW137945   4.486   5.004   5.495 -0.6576 -0.2798  0.3032
11684SOL    HW237946   4.491   5.023   5.645  0.6575 -0.1077  0.2472
11685SOL     OW37947   2.352  10.172  10.669 -0.7094 -0.2790 -1.0381
11685SOL    HW137948   2.393  10.104  10.616  0.4788 -1.2555  1.0144
11685SOL    HW237949   2.353  10.137  10.758 -1.1394  1.9454 -0.0889
11686SOL     OW37950   9.197   4.156   1.581 -0.3801 -0.1597 -0.4384
11686SOL    HW137951   9.195   4.190   1.492  0.8494  0.3984 -0.2826
11686SOL    HW237952   9.143   4.077   1.578 -2.8001  1.4197 -0.9498
11687SOL     OW37953   7.054   6.792   8.975 -0.6886  0.0194 -0.4061
11687SOL    HW137954   7.122   6.777   8.909 -0.6947 -0.1960 -0.3659
11687SOL    HW237955   7.076   6.732   9.046 -1.0009 -0.1595 -0.4539
11688SOL     OW37956   2.793   6.265  10.619 -0.2038  0.1226 -0.2241
11688SOL    HW137957   2.753   6.179  10.630  0.4111 -0.6270 -3.0824
11688SOL    HW237958   2.725   6.318  10.577 -0.7129  1.2517  1.8401
11689SOL     OW37959   1.215   5.288   5.232 -0.1528  0.9360 -0.5530
11689SOL    HW137960   1.230   5.229   5.306  0.3321  0.1263 -1.2844
11689SOL    HW237961   1.139   5.340   5.258  0.1800  0.8621  0.6327
11690SOL     OW37962   2.097   3.722   6.657  0.5208  0.3839  0.4889
11690SOL    HW137963   2.059   3.790   6.600 -3.7888 -1.3060  0.9866
11690SOL    HW237964   2.076   3.752   6.746 -2.1194 -1.7000  0.7045
11691SOL     OW37965   5.464   3.227   2.092 -0.1434 -0.1037 -0.2981
11691SOL    HW137966   5.521   3.214   2.168  0.3033 -0.6152 -0.7082
11691SOL    HW237967   5.378   3.199   2.122  0.3657 -2.0255 -0.4823
11692SOL     OW37968   9.507   6.441   6.136 -0.5432  0.2800  0.6418
11692SOL    HW137969   9.444   6.440   6.208 -0.5512  0.7064  0.6431
11692SOL    HW237970   9.526   6.349   6.119 -1.1908  0.1495  0.6204
11693SOL     OW37971   2.510   5.716   9.838 -0.6675  0.3917  0.2584
11693SOL    HW137972   2.503   5.807   9.866 -0.4446 -0.0028  1.6473
11693SOL    HW237973   2.580   5.679   9.892 -1.3084 -0.8163  0.3025
11694SOL     OW37974  10.064   8.299  10.617 -0.6897  0.2932 -0.2045
11694SOL    HW137975  10.072   8.358  10.541 -0.6876  1.2859  0.5424
11694SOL    HW237976   9.977   8.261  10.609 -0.9946  0.9977 -0.2898
11695SOL     OW37977   3.898   0.498   9.085 -0.1710 -0.6824 -0.3679
11695SOL    HW137978   3.993   0.504   9.078 -0.3047  2.0177 -1.1924
11695SOL    HW237979   3.869   0.469   8.998 -0.1579  0.7701 -0.8939
11696SOL     OW37980   8.024   2.507   8.365 -0.1759 -0.2873 -0.4375
11696SOL    HW137981   7.961   2.569   8.327 -1.1979 -1.1787 -0.2510
11696SOL    HW237982   8.109   2.537   8.334 -0.5043  1.8706  0.5047
11697SOL     OW37983   6.152   2.311   9.003  0.1517  0.1263 -0.0486
11697SOL    HW137984   6.157   2.394   8.956  1.0759  0.0852 -0.0370
11697SOL    HW237985   6.212   2.253   8.957  0.5315 -0.1306  0.7484
11698SOL     OW37986   1.554   8.797   2.956 -0.9737  0.2335 -0.3666
11698SOL    HW137987   1.471   8.815   2.999 -0.8826  0.9326 -0.4661
11698SOL    HW237988   1.616   8.786   3.029 -1.2771 -0.9594 -0.2804
11699SOL     OW37989   7.402   6.992   7.756 -0.1054  0.0409 -0.1534
11699SOL    HW137990   7.356   7.070   7.788  0.4301  1.1165 -1.8537
11699SOL    HW237991   7.494   7.007   7.780 -0.0209 -0.1209 -0.3695
11700SOL     OW37992   0.863   9.230   8.003  0.1333 -0.4067  0.2299
11700SOL    HW137993   0.824   9.285   8.071 -0.4994 -0.8862  0.2599
11700SOL    HW237994   0.799   9.161   7.988 -0.8453  0.9795 -2.5172
11701SOL     OW37995   3.403   7.873   7.455  0.1695 -0.4303 -0.2953
11701SOL    HW137996   3.321   7.829   7.479 -0.1269  0.2998  0.0420
11701SOL    HW237997   3.450   7.883   7.537 -0.2223  0.8016 -0.2065
11702SOL     OW37998   9.249   2.626  10.435 -0.0658 -0.4642 -0.1941
11702SOL    HW137999   9.235   2.583  10.520 -2.6672  0.9161  0.1469
11702SOL    HW238000   9.244   2.719  10.454  0.1586 -0.1115 -1.7526
11703SOL     OW38001   3.384   2.247   0.101  0.3913  0.1641  0.2682
11703SOL    HW138002   3.306   2.301   0.086  0.7982  1.3806  2.2931
11703SOL    HW238003   3.390   2.238   0.196  1.6746 -1.5092  0.0744
11704SOL     OW38004   1.841   3.593   2.839  0.0441  0.0715 -0.4238
11704SOL    HW138005   1.806   3.505   2.824  0.7729 -0.1199 -1.0283
11704SOL    HW238006   1.797   3.622   2.919 -0.9444 -0.4502 -0.7492
11705SOL     OW38007   2.224   2.747   4.637 -0.4264  0.3947 -0.0298
11705SOL    HW138008   2.271   2.664   4.628 -0.1527  0.6404 -0.9469
11705SOL    HW238009   2.132   2.723   4.628 -0.4597  0.0176  1.0489
11706SOL     OW38010   5.370   7.185   8.989  0.1580  0.1581 -0.2154
11706SOL    HW138011   5.457   7.170   8.953 -0.6447  0.4077 -2.3975
11706SOL    HW238012   5.384   7.242   9.064  1.8166  0.8249 -0.9855
11707SOL     OW38013   0.900   7.181   1.684 -0.0681  0.1607 -0.6639
11707SOL    HW138014   0.843   7.130   1.741 -2.3422  2.2879 -0.8668
11707SOL    HW238015   0.909   7.266   1.728 -0.9240  1.4621 -2.8038
11708SOL     OW38016   0.005   3.196   8.932 -0.0659 -0.2929 -0.2915
11708SOL    HW138017  -0.074   3.239   8.964 -0.3234 -0.0298 -1.2501
11708SOL    HW238018   0.004   3.211   8.837  1.0707 -0.3849 -0.3327
11709SOL     OW38019   4.882   1.977   4.354 -0.0315 -0.6129  0.3216
11709SOL    HW138020   4.973   1.949   4.363 -0.1977 -1.2606  0.0259
11709SOL    HW238021   4.871   1.991   4.260  0.1650  0.8693  0.4971
11710SOL     OW38022   3.909   0.196   2.668 -0.2769 -0.0405  0.4093
11710SOL    HW138023   3.818   0.170   2.683  0.4739 -1.4162  3.3788
11710SOL    HW238024   3.936   0.143   2.593 -1.6721 -0.2066 -0.0223
11711SOL     OW38025   2.465   0.437   1.915 -0.6196  0.0174  0.1493
11711SOL    HW138026   2.542   0.383   1.932  0.0417  0.9233  0.1257
11711SOL    HW238027   2.436   0.412   1.827 -0.4732 -0.4651  0.2369
11712SOL     OW38028   8.785   5.938   3.066 -0.6263  0.0389  0.0844
11712SOL    HW138029   8.718   5.870   3.067 -0.9927  0.3630  1.8554
11712SOL    HW238030   8.749   6.007   3.122  0.2753  1.1618 -0.6766
11713SOL     OW38031   1.601   2.166   6.774 -0.0993  0.1320 -0.5831
11713SOL    HW138032   1.663   2.093   6.776  0.5691  0.7013  0.0702
11713SOL    HW238033   1.546   2.153   6.851 -0.2370  0.1030 -0.6853
11714SOL     OW38034   8.891   5.385   8.697  0.1618  0.8004 -0.4878
11714SOL    HW138035   8.880   5.386   8.792  0.6875 -0.3404 -0.3858
11714SOL    HW238036   8.809   5.351   8.663  0.5515 -0.4244 -0.2881
11715SOL     OW38037   0.456   1.478   3.570  0.1926  0.2361 -0.3891
11715SOL    HW138038   0.428   1.419   3.501 -2.7873  0.3841  0.5717
11715SOL    HW238039   0.439   1.430   3.651  0.8338  1.1879  0.3340
11716SOL     OW38040   8.811   7.328   5.098 -0.1600 -0.0638 -0.0186
11716SOL    HW138041   8.727   7.286   5.082 -0.2249  0.0989 -0.1012
11716SOL    HW238042   8.806   7.411   5.052  0.7784 -0.8732 -1.6795
11717SOL     OW38043   1.591   3.900   1.070 -0.0580 -0.1305  0.5858
11717SOL    HW138044   1.647   3.849   1.012 -0.1083 -0.5165  0.8786
11717SOL    HW238045   1.647   3.971   1.101  0.1610 -0.3073  0.5945
11718SOL     OW38046   5.056   8.993   1.796 -0.0948  0.3648 -0.1075
11718SOL    HW138047   5.065   9.005   1.890  1.1366 -2.8000  0.3154
11718SOL    HW238048   4.990   8.924   1.786  1.5577 -1.1213 -1.3664
11719SOL     OW38049   9.461   0.717  10.345  0.6905 -0.2918  0.3324
11719SOL    HW138050   9.392   0.774  10.310 -0.8992 -0.8069  2.4253
11719SOL    HW238051   9.468   0.742  10.437  1.2679 -2.2260  0.8581
11720SOL     OW38052   8.446   5.795   7.324  0.0380  0.2819 -0.3345
11720SOL    HW138053   8.368   5.745   7.303 -0.1085 -0.5503  1.8304
11720SOL    HW238054   8.423   5.886   7.306 -2.1861  0.2958  2.0280
11721SOL     OW38055  10.649   8.472   9.038 -0.2819  0.4060  0.0230
11721SOL    HW138056  10.736   8.511   9.053 -0.0534 -0.5622  1.4907
11721SOL    HW238057  10.667   8.378   9.032 -1.3002  0.1168  1.1610
11722SOL     OW38058   3.855  10.271   8.244 -0.1073 -0.9252 -0.3800
11722SOL    HW138059   3.864  10.190   8.194  0.1673 -0.1888 -1.5521
11722SOL    HW238060   3.941  10.284   8.284  0.5691 -0.0736 -2.0101
11723SOL     OW38061   5.292   3.887   1.654  0.0507 -0.2952  0.1262
11723SOL    HW138062   5.320   3.930   1.573  1.3711 -1.0344  0.1687
11723SOL    HW238063   5.342   3.806   1.657 -1.6271 -1.3740  0.5835
11724SOL     OW38064   9.234   8.058   0.691  0.8889  0.5143  0.2085
11724SOL    HW138065   9.230   7.963   0.700  0.6106  0.5420  0.4474
11724SOL    HW238066   9.143   8.086   0.705  0.7905  0.7394 -0.8363
11725SOL     OW38067   3.439   1.910   0.321  0.1702 -0.2982 -0.4290
11725SOL    HW138068   3.419   2.002   0.340  0.6699  0.2352 -2.3472
11725SOL    HW238069   3.354   1.871   0.301  0.1547  0.1808 -1.3307
11726SOL     OW38070   6.657   0.131   8.523  0.3497 -0.0588 -0.2828
11726SOL    HW138071   6.741   0.102   8.487  0.4331  1.9149 -1.8635
11726SOL    HW238072   6.593   0.071   8.486  0.9011 -0.6727 -0.2684
11727SOL     OW38073   6.662   4.996   6.416  0.4181 -0.9019  0.3471
11727SOL    HW138074   6.687   5.075   6.464 -0.2504  0.2280 -1.0653
11727SOL    HW238075   6.594   5.026   6.355  1.0045 -2.3304 -1.0685
11728SOL     OW38076   1.791   2.553   2.189  0.0678  0.5883  0.1017
11728SOL    HW138077   1.745   2.532   2.108 -0.2960  1.5522  0.0566
11728SOL    HW238078   1.857   2.484   2.197 -2.6158 -2.0703  1.1929
11729SOL     OW38079   6.563   3.481   8.855  0.4886  0.4092 -0.1359
11729SOL    HW138080   6.472   3.457   8.842 -0.0020  1.5568  0.9213
11729SOL    HW238081   6.561   3.575   8.875  1.6719  0.0504  1.9855
11730SOL     OW38082   9.927   3.710   7.495 -0.3349 -0.0279 -0.0795
11730SOL    HW138083   9.837   3.689   7.470 -0.2261 -0.6146 -0.0021
11730SOL    HW238084   9.980   3.678   7.422 -0.0369 -1.5169  0.7482
11731SOL     OW38085   1.082   7.480   1.235 -0.0697  0.4136 -0.5141
11731SOL    HW138086   1.066   7.398   1.189 -0.5198  1.2426 -1.8797
11731SOL    HW238087   1.028   7.473   1.314  0.1659 -0.7334 -0.4353
11732SOL     OW38088   7.998   6.674   9.054 -0.2876  0.0311  0.3421
11732SOL    HW138089   8.061   6.604   9.073 -0.7105 -0.5657 -0.4156
11732SOL    HW238090   7.960   6.696   9.139 -0.9362 -1.4237  0.4609
11733SOL     OW38091   6.509   3.998   3.360  0.0617  0.2091 -0.4382
11733SOL    HW138092   6.561   4.069   3.321 -0.3766  0.6341 -0.2644
11733SOL    HW238093   6.465   4.039   3.435  1.0813 -0.6541  0.6644
11734SOL     OW38094   1.081   2.802   3.188 -0.4213  0.4252 -0.5366
11734SOL    HW138095   1.158   2.778   3.239  0.1330 -0.0883 -1.5763
11734SOL    HW238096   1.116   2.840   3.107 -1.2710  1.0958 -0.6073
11735SOL     OW38097   4.503   7.837  10.654  0.3815  0.3974 -0.0727
11735SOL    HW138098   4.558   7.768  10.690  1.4659 -0.1991 -2.7079
11735SOL    HW238099   4.484   7.894  10.729 -0.7597 -2.7692  2.2605
11736SOL     OW38100   3.113   6.502   8.893  0.3324  0.2113 -0.1166
11736SOL    HW138101   3.148   6.480   8.979  1.0217 -0.4578 -0.5562
11736SOL    HW238102   3.019   6.494   8.902  0.4991 -2.0382 -0.0090
11737SOL     OW38103   1.252   8.930   9.203 -0.0940  1.1631 -0.4204
11737SOL    HW138104   1.262   8.961   9.293  0.3435  0.9624 -0.3968
11737SOL    HW238105   1.215   8.843   9.211  2.5514 -0.0492 -0.2747
11738SOL     OW38106   2.048   7.447   7.173 -0.5267 -0.0379 -0.2455
11738SOL    HW138107   1.982   7.413   7.113 -0.5197  0.9038 -0.8010
11738SOL    HW238108   2.005   7.446   7.259 -0.6263 -1.1410 -0.3014
11739SOL     OW38109   4.921   2.104   0.538 -0.0893 -0.2466  0.9555
11739SOL    HW138110   4.892   2.195   0.531  1.7184  0.2491 -1.6242
11739SOL    HW238111   5.014   2.110   0.559  0.5879 -1.3282 -1.3447
11740SOL     OW38112  10.739   7.251  10.286 -0.2771  0.6254  0.2732
11740SOL    HW138113  10.665   7.310  10.276 -0.7459  0.2387  1.3065
11740SOL    HW238114  10.710   7.169  10.245  0.6647  1.2860 -1.8726
11741SOL     OW38115   7.082   8.119   8.839 -0.3685 -0.1710  0.1355
11741SOL    HW138116   7.050   8.186   8.900  1.5177  0.4861  0.4796
11741SOL    HW238117   7.031   8.132   8.759 -0.3332  1.4119  0.3417
11742SOL     OW38118   7.232   4.308  10.421  0.6419  0.0228 -0.2560
11742SOL    HW138119   7.176   4.378  10.455  0.8832  0.6948 -1.1849
11742SOL    HW238120   7.301   4.299  10.486 -0.4522 -0.7486  0.8612
11743SOL     OW38121   0.061   5.665   7.997  0.4974  0.1403  0.9026
11743SOL    HW138122  -0.021   5.713   7.988  0.6353  0.2876  0.3793
11743SOL    HW238123   0.129   5.733   7.998  0.5825  0.0510  1.8528
11744SOL     OW38124  10.627   8.101   0.200  0.1385  0.8150 -0.1303
11744SOL    HW138125  10.709   8.125   0.158  1.4341  1.4305  2.5418
11744SOL    HW238126  10.641   8.120   0.293 -2.3960 -0.7696  0.6786
11745SOL     OW38127   8.532   9.752   2.472  0.5541  0.3922  0.3696
11745SOL    HW138128   8.552   9.724   2.383 -0.2161  0.4939  0.1535
11745SOL    HW238129   8.553   9.676   2.527 -1.1745 -0.5350 -0.1697
11746SOL     OW38130   5.436   3.075   3.751  0.2064 -0.1103  0.3654
11746SOL    HW138131   5.360   3.084   3.694  0.9285 -1.4294 -0.8580
11746SOL    HW238132   5.431   2.984   3.783  1.3520 -0.2684  0.1246
11747SOL     OW38133   0.097   8.576   7.522  0.1496  0.2512  0.0128
11747SOL    HW138134   0.192   8.586   7.518  0.0712  0.4675 -2.3760
11747SOL    HW238135   0.084   8.496   7.573  1.5809  0.3536  0.6042
11748SOL     OW38136   8.588   7.555  10.097 -0.7475  0.1220  0.2608
11748SOL    HW138137   8.536   7.475  10.094  0.9537 -1.0347 -0.0744
11748SOL    HW238138   8.650   7.545  10.025 -1.5685  2.5514 -0.8903
11749SOL     OW38139   0.863   4.915   7.707  0.6511  0.2402  0.0921
11749SOL    HW138140   0.771   4.942   7.717 -0.1561 -1.8849 -0.8375
11749SOL    HW238141   0.884   4.939   7.617  0.2088 -1.2925 -0.4533
11750SOL     OW38142  10.530   8.261   8.506 -0.0132  0.4326 -0.0562
11750SOL    HW138143  10.584   8.188   8.535  0.5420  1.0293  0.4280
11750SOL    HW238144  10.449   8.253   8.558 -0.1798 -0.1505 -0.4015
11751SOL     OW38145   4.507   8.628   9.476 -0.1739 -0.0080  0.1106
11751SOL    HW138146   4.483   8.584   9.558 -2.6834  3.0402  1.1776
11751SOL    HW238147   4.425   8.663   9.442  1.2833  1.6658 -1.9799
11752SOL     OW38148   2.093   5.182   9.109 -0.0140 -0.1971 -0.0201
11752SOL    HW138149   2.105   5.276   9.118  1.0431 -0.0466 -2.2698
11752SOL    HW238150   2.079   5.169   9.015  0.3599 -2.3367  0.1699
11753SOL     OW38151   6.921   9.718   4.488 -0.2784 -0.0840 -0.1529
11753SOL    HW138152   6.826   9.709   4.498 -0.2702 -1.6256 -1.0950
11753SOL    HW238153   6.937   9.812   4.492 -1.7294  0.1599  0.8854
11754SOL     OW38154   7.797   7.931  10.788  0.5443  0.0340 -0.2529
11754SOL    HW138155   7.843   7.897  10.865 -0.8653  0.8801  1.0033
11754SOL    HW238156   7.710   7.955  10.820 -0.4533 -0.5447 -2.3273
11755SOL     OW38157   5.461   4.131   8.446 -0.1061 -0.4396 -0.1845
11755SOL    HW138158   5.445   4.168   8.359  0.1233  1.0306  0.3737
11755SOL    HW238159   5.461   4.206   8.505 -3.4821 -1.6456  1.6132
11756SOL     OW38160   6.228   3.175   1.545  0.3599  0.2113 -0.2339
11756SOL    HW138161   6.212   3.241   1.478 -1.5116  2.5582  2.3039
11756SOL    HW238162   6.307   3.205   1.591  0.9069 -0.6991 -0.5392
11757SOL     OW38163   6.614   7.250   3.040 -0.1517  0.6030 -0.2835
11757SOL    HW138164   6.658   7.319   3.089 -1.4835  0.9192  0.4900
11757SOL    HW238165   6.656   7.169   3.070 -0.8315  0.7986  1.2933
11758SOL     OW38166   9.086   9.754   5.053  0.3724 -0.0831  0.5131
11758SOL    HW138167   9.024   9.827   5.046 -1.2065 -1.4960 -0.9614
11758SOL    HW238168   9.089   9.735   5.147 -0.4879  0.7776  0.7365
11759SOL     OW38169   5.221   8.128   6.547  0.0233  0.1161  0.1973
11759SOL    HW138170   5.260   8.055   6.498  1.0848 -0.0717  1.2495
11759SOL    HW238171   5.264   8.206   6.512  0.4650  0.0237  0.5259
11760SOL     OW38172   7.340   8.629   0.169 -0.1504  0.0173  0.6021
11760SOL    HW138173   7.384   8.639   0.253  0.1924  0.7070  0.3468
11760SOL    HW238174   7.251   8.603   0.191  0.2144 -0.7905  1.1418
11761SOL     OW38175   8.499   9.190   8.257 -0.4246  0.0744  0.2991
11761SOL    HW138176   8.466   9.260   8.201 -0.9742 -0.6604 -0.3228
11761SOL    HW238177   8.594   9.199   8.254 -0.5141  1.7842  1.5358
11762SOL     OW38178   3.134   3.664   7.239  0.7433  0.0745  0.2857
11762SOL    HW138179   3.110   3.696   7.326 -0.6267 -0.3505  0.0871
11762SOL    HW238180   3.089   3.580   7.231  0.7141  0.1833 -0.8891
11763SOL     OW38181   9.269   2.633   7.223  0.3752  0.1285  0.0895
11763SOL    HW138182   9.229   2.568   7.166  0.2332 -0.0528  0.3975
11763SOL    HW238183   9.212   2.709   7.217  0.4043  0.1372 -0.0731
11764SOL     OW38184   2.498  10.158   2.080 -0.4925  0.0827  0.7639
11764SOL    HW138185   2.527  10.247   2.059 -0.1930  0.1174  1.2979
11764SOL    HW238186   2.465  10.165   2.170 -0.1412 -0.4196  0.9347
11765SOL     OW38187   9.152   1.119   6.071 -0.2278  0.2673 -0.3599
11765SOL    HW138188   9.162   1.145   6.162  0.2426 -0.2886 -0.2484
11765SOL    HW238189   9.082   1.054   6.072  0.5721 -0.6023 -0.2240
11766SOL     OW38190   3.074   2.666   9.207  0.6247  0.1736 -0.2048
11766SOL    HW138191   3.106   2.671   9.118  1.9398  2.7924  0.3271
11766SOL    HW238192   3.023   2.747   9.220 -1.9176 -1.4261  0.6136
11767SOL     OW38193   7.701   2.627   3.923 -0.2800  0.2087 -0.3452
11767SOL    HW138194   7.766   2.615   3.992  0.2741  1.1638 -0.6832
11767SOL    HW238195   7.672   2.539   3.901  0.1431 -0.1539  0.5371
11768SOL     OW38196   0.356   9.847   5.513 -0.8465 -0.1688 -0.2292
11768SOL    HW138197   0.439   9.803   5.495 -1.5248 -1.3237 -0.6437
11768SOL    HW238198   0.339   9.828   5.606  0.0193  1.2717  0.2619
11769SOL     OW38199   0.566   5.307   4.654  0.1112 -0.5619  0.4403
11769SOL    HW138200   0.605   5.304   4.741  1.3213 -0.8907 -0.0888
11769SOL    HW238201   0.601   5.230   4.610 -0.9190 -0.6996 -0.1675
11770SOL     OW38202   1.744   5.161   7.917  0.5500  0.1651 -0.4019
11770SOL    HW138203   1.720   5.075   7.881  0.1855  0.2716 -0.4183
11770SOL    HW238204   1.710   5.160   8.006  2.5584 -0.5837  0.4160
11771SOL     OW38205   7.581   0.254   2.698  0.5100  0.3277  0.1863
11771SOL    HW138206   7.591   0.334   2.646  1.7069  0.1705  0.1330
11771SOL    HW238207   7.553   0.284   2.784 -0.4326  0.6826 -0.2306
11772SOL     OW38208   5.281   6.159   6.371 -0.3851  0.5587 -0.1314
11772SOL    HW138209   5.220   6.199   6.433  0.3697  0.0390  0.9718
11772SOL    HW238210   5.363   6.151   6.419 -0.6597 -2.9115 -0.0330
11773SOL     OW38211   0.481   9.669   5.020  0.0859 -1.1300 -0.1788
11773SOL    HW138212   0.482   9.579   5.052  1.2661 -1.4593 -1.0749
11773SOL    HW238213   0.397   9.677   4.975  0.4133 -2.1447 -1.0146
11774SOL     OW38214   7.988  10.460   1.425  0.4465  0.1468 -0.8733
11774SOL    HW138215   7.921  10.477   1.359 -0.4449 -2.1534 -0.6594
11774SOL    HW238216   8.067  10.440   1.375  0.0832 -0.4379 -1.2185
11775SOL     OW38217   3.111   1.544  10.589 -0.1382 -0.1041 -0.3130
11775SOL    HW138218   3.077   1.628  10.559  0.7439 -0.0347 -1.1733
11775SOL    HW238219   3.072   1.532  10.675  0.7609  1.8237  0.4281
11776SOL     OW38220   7.166   7.989   0.014 -0.1156  0.2763  0.3636
11776SOL    HW138221   7.131   8.077   0.030 -0.1081  0.3351  0.0738
11776SOL    HW238222   7.150   7.974  -0.079 -0.1358 -0.0403  0.4180
11777SOL     OW38223   2.710   1.000   6.555  0.3826  0.0880  0.1471
11777SOL    HW138224   2.745   0.914   6.580 -0.5361  0.1567  1.7965
11777SOL    HW238225   2.719   1.002   6.459  1.0520 -1.5570  0.1369
11778SOL     OW38226   8.881   8.482   2.072 -0.0059  0.5525  0.0337
11778SOL    HW138227   8.800   8.503   2.025 -0.1092  0.2784  0.0927
11778SOL    HW238228   8.929   8.424   2.012  0.3017  0.9872 -0.1462
11779SOL     OW38229   0.028   7.234   6.503  1.0913 -0.5288  0.4968
11779SOL    HW138230  -0.041   7.225   6.438  1.3528 -1.0352  0.2846
11779SOL    HW238231   0.106   7.199   6.461  1.3105 -0.6718  1.0043
11780SOL     OW38232   1.102   1.429   7.387  0.1094 -0.1198  0.3225
11780SOL    HW138233   1.191   1.398   7.405  0.2461 -0.5080 -0.9746
11780SOL    HW238234   1.098   1.514   7.431  0.8422 -0.4504  1.0805
11781SOL     OW38235   3.900   4.812   3.914  0.3505 -0.0127 -0.5071
11781SOL    HW138236   3.805   4.822   3.907  0.3906 -0.6312 -3.1723
11781SOL    HW238237   3.914   4.717   3.909  1.1200  0.1000 -0.5771
11782SOL     OW38238   4.997   0.445   1.556  0.0245 -0.1927 -0.1776
11782SOL    HW138239   5.027   0.423   1.644  0.9988  0.1344 -0.4229
11782SOL    HW238240   4.902   0.454   1.565 -0.2479 -2.7723  0.2881
11783SOL     OW38241   4.009   2.109   9.557 -0.2477 -0.4200  0.3454
11783SOL    HW138242   4.038   2.095   9.467 -1.4621  0.1796 -0.1583
11783SOL    HW238243   4.055   2.041   9.607  1.5694  0.1385 -0.4628
11784SOL     OW38244   0.138   8.763   6.254  0.2091 -0.3390 -0.0208
11784SOL    HW138245   0.060   8.724   6.216  0.5346 -0.5698 -0.4728
11784SOL    HW238246   0.105   8.826   6.318 -0.4381  1.2673 -1.8232
11785SOL     OW38247   4.379   9.944   9.455  0.0298  0.2061  0.4581
11785SOL    HW138248   4.300   9.892   9.466 -0.3837  0.4688 -0.9745
11785SOL    HW238249   4.435   9.920   9.529  0.2235 -2.9159 -0.5357
11786SOL     OW38250   8.997   9.603   3.477 -0.0573 -0.1550  0.1034
11786SOL    HW138251   8.913   9.600   3.430  0.1713  2.9242 -0.7297
11786SOL    HW238252   8.977   9.566   3.563 -3.7211  4.5611  1.6972
11787SOL     OW38253   0.753   8.136   0.472 -0.1151  0.4042  0.1079
11787SOL    HW138254   0.791   8.081   0.541  2.1329 -0.8686 -1.9931
11787SOL    HW238255   0.804   8.217   0.476 -0.9591  0.9144  0.8307
11788SOL     OW38256   9.417  10.786   6.175  0.3866  0.4339 -0.0947
11788SOL    HW138257   9.486  10.851   6.190  1.2720 -0.1763 -1.3100
11788SOL    HW238258   9.398  10.794   6.081 -0.4443 -0.1383  0.0179
11789SOL     OW38259   1.626   1.285   5.229 -0.0113  0.0806 -0.0114
11789SOL    HW138260   1.640   1.207   5.283 -0.9647  0.1658  0.3907
11789SOL    HW238261   1.693   1.347   5.257 -0.2060 -0.0472  0.7525
11790SOL     OW38262   7.583   1.797   8.261  0.8033 -0.4427  0.4009
11790SOL    HW138263   7.522   1.829   8.327  0.4709  0.8568 -0.5005
11790SOL    HW238264   7.605   1.875   8.209  1.8827 -1.2281 -0.3587
11791SOL     OW38265   3.750  10.286   4.368  0.1025  0.0313  0.3271
11791SOL    HW138266   3.705  10.202   4.365 -2.3696  1.2793 -0.1839
11791SOL    HW238267   3.702  10.337   4.434  1.4477  1.1045  0.5305
11792SOL     OW38268   2.191   8.469  10.445  0.0403 -0.0699  0.8157
11792SOL    HW138269   2.217   8.379  10.468 -0.9861 -0.7488 -0.5309
11792SOL    HW238270   2.103   8.478  10.481 -0.1425  0.1273  0.3263
11793SOL     OW38271   5.388   2.510   3.924 -0.2839 -0.1639  0.6067
11793SOL    HW138272   5.467   2.560   3.904  0.0194 -1.0926 -0.6566
11793SOL    HW238273   5.355   2.548   4.005 -0.1571  2.1651 -0.3544
11794SOL     OW38274   9.194   1.933   3.190  0.1164  0.0293 -0.3120
11794SOL    HW138275   9.240   1.939   3.106 -0.9377 -2.0352 -1.1227
11794SOL    HW238276   9.231   1.856   3.233 -1.8968 -1.1874 -0.6173
11795SOL     OW38277   4.051   8.054  10.521  0.1052 -0.4012  0.5578
11795SOL    HW138278   4.110   8.030  10.592  0.0307 -0.5287  0.5787
11795SOL    HW238279   3.970   8.081  10.565  0.4729  0.7316  0.5725
11796SOL     OW38280   0.592  10.623   9.326  0.4332 -0.1291 -0.2622
11796SOL    HW138281   0.589  10.561   9.399 -0.1774 -0.0665 -0.2313
11796SOL    HW238282   0.635  10.574   9.255  0.7781 -0.2806  0.0467
11797SOL     OW38283   8.844   2.507   2.377  0.0734  0.6005 -0.2074
11797SOL    HW138284   8.911   2.444   2.352 -1.3536 -0.7551 -0.8065
11797SOL    HW238285   8.828   2.558   2.297  1.6309  2.1587  0.4333
11798SOL     OW38286  10.006   5.887   0.886  0.1935 -0.0198 -0.1580
11798SOL    HW138287  10.095   5.882   0.923  0.0120 -0.4568  0.2283
11798SOL    HW238288   9.955   5.934   0.952  0.3002  0.9038 -0.7140
11799SOL     OW38289   8.294   2.716   0.406 -0.3799  0.6331 -0.0150
11799SOL    HW138290   8.315   2.755   0.492 -0.2206  0.3134  0.0909
11799SOL    HW238291   8.378   2.709   0.362 -0.6600  2.4632 -0.9123
11800SOL     OW38292   9.306   8.755   5.065  0.3853 -0.1706  0.2632
11800SOL    HW138293   9.288   8.789   5.152 -0.2484  2.4146 -0.7933
11800SOL    HW238294   9.276   8.664   5.068 -0.9993  0.2941  2.3121
11801SOL     OW38295   5.403   6.994   0.812 -0.7460  0.1422  0.3326
11801SOL    HW138296   5.336   6.939   0.771  0.2388  0.7444 -2.2723
11801SOL    HW238297   5.395   7.078   0.767  0.9989  0.5860  0.8039
11802SOL     OW38298   6.237   4.011   6.013  0.6481  0.6643  0.1943
11802SOL    HW138299   6.173   4.080   6.033  0.9712  1.2596 -0.7930
11802SOL    HW238300   6.188   3.929   6.024 -0.1251  1.0987  0.0416
11803SOL     OW38301   5.152   7.538   7.152  0.1319 -1.3307 -0.1358
11803SOL    HW138302   5.085   7.605   7.137  1.3288  0.2776  1.2128
11803SOL    HW238303   5.229   7.571   7.105  1.2639 -0.7566  1.9537
11804SOL     OW38304   8.709  10.329   5.094 -0.2245 -0.4096  0.2441
11804SOL    HW138305   8.770  10.315   5.166 -1.3856  3.1460  2.1697
11804SOL    HW238306   8.625  10.295   5.126 -0.0902 -1.9768 -0.9346
11805SOL     OW38307   1.343   4.930   6.325  0.5733 -0.0992 -0.1573
11805SOL    HW138308   1.278   4.932   6.395 -1.2154 -2.2477 -1.6204
11805SOL    HW238309   1.298   4.889   6.251  3.2912 -0.7772 -1.5884
11806SOL     OW38310   4.139   0.003   0.503 -0.1127 -0.2385 -0.1383
11806SOL    HW138311   4.226  -0.036   0.495 -0.1897 -0.1776 -1.7185
11806SOL    HW238312   4.080  -0.065   0.469 -0.5992  0.0271  0.1678
11807SOL     OW38313   9.501   2.491   9.248 -0.4340  0.3108  0.1964
11807SOL    HW138314   9.410   2.467   9.265  0.3723 -2.3687  1.1415
11807SOL    HW238315   9.553   2.419   9.283  2.0678  1.4808 -0.8106
11808SOL     OW38316   0.675   9.740   0.710 -0.6011 -0.2807  0.7198
11808SOL    HW138317   0.634   9.665   0.667  0.0184  0.1499 -0.6627
11808SOL    HW238318   0.723   9.785   0.641  1.3255 -0.1575  2.0581
11809SOL     OW38319   1.266   4.545  10.289 -0.3667 -0.0760  1.0090
11809SOL    HW138320   1.237   4.629  10.253 -2.0744 -0.2119  1.9582
11809SOL    HW238321   1.361   4.556  10.301  0.0495  0.5175 -1.9454
11810SOL     OW38322   6.830   8.054   4.553  0.0609  0.1420  0.4459
11810SOL    HW138323   6.873   8.004   4.622 -0.5095 -1.5000 -0.3518
11810SOL    HW238324   6.872   8.027   4.472 -1.4622 -0.4629 -0.1952
11811SOL     OW38325   8.398   4.571   9.976 -0.2944  0.1027 -0.3082
11811SOL    HW138326   8.330   4.509  10.002 -0.0510 -0.0607 -0.0572
11811SOL    HW238327   8.350   4.653   9.959 -0.6152 -0.1529 -0.6609
11812SOL     OW38328   7.142   3.346   2.035 -0.4299 -0.3089  0.5260
11812SOL    HW138329   7.147   3.257   2.002 -0.2342 -0.0869 -0.0448
11812SOL    HW238330   7.048   3.363   2.043 -0.4702 -0.8258  1.3767
11813SOL     OW38331   5.650   7.378   1.680  0.2810 -0.7011  0.3526
11813SOL    HW138332   5.687   7.321   1.747 -0.3315 -0.9717  0.4744
11813SOL    HW238333   5.695   7.462   1.692  1.4483 -1.2564 -0.0703
11814SOL     OW38334   3.617   4.838   4.018  0.0213 -0.5413  0.5356
11814SOL    HW138335   3.646   4.752   4.048 -1.7953 -0.0808  4.0963
11814SOL    HW238336   3.523   4.827   4.000 -0.3881  0.7653  1.6625
11815SOL     OW38337   6.430   3.870   8.777 -0.6135  0.2052  0.5586
11815SOL    HW138338   6.413   3.808   8.848  0.6814  0.1930  0.8851
11815SOL    HW238339   6.367   3.847   8.709 -0.5799 -1.0664  0.9329
11816SOL     OW38340   3.596   3.911   6.908 -0.1742 -0.2656  0.4478
11816SOL    HW138341   3.655   3.980   6.938 -0.8036 -0.0991  1.3070
11816SOL    HW238342   3.655   3.844   6.872  0.4531  0.5457 -0.0564
11817SOL     OW38343   9.659   3.205   6.388 -0.1174  0.1821 -0.5484
11817SOL    HW138344   9.618   3.236   6.469 -0.6427  0.0586 -0.7631
11817SOL    HW238345   9.587   3.166   6.338  0.3577 -0.4886 -0.7175
11818SOL     OW38346   2.311   9.398   9.684 -0.4879 -0.5399 -0.5489
11818SOL    HW138347   2.329   9.474   9.739 -1.8399 -0.7246  0.1847
11818SOL    HW238348   2.386   9.340   9.699 -0.3800 -0.1764  0.3722
11819SOL     OW38349   9.844   7.112   3.256  0.1947 -0.2904  0.0484
11819SOL    HW138350   9.906   7.045   3.227 -1.2820 -1.6330 -0.1557
11819SOL    HW238351   9.811   7.078   3.339 -1.6251 -0.5615 -0.7446
11820SOL     OW38352   8.853   3.229   8.044 -0.1139  0.3648  0.0593
11820SOL    HW138353   8.760   3.217   8.024  0.0852  0.8437 -1.2684
11820SOL    HW238354   8.892   3.256   7.961  1.3846 -0.7437  0.3517
11821SOL     OW38355   5.441   4.589   9.185  0.4805  0.5059  0.2313
11821SOL    HW138356   5.495   4.645   9.129  3.8062 -1.7445  0.9269
11821SOL    HW238357   5.394   4.532   9.124 -0.4371  1.8457 -0.3612
11822SOL     OW38358   7.810   6.013   8.269  1.2196 -0.2421 -0.0078
11822SOL    HW138359   7.762   6.049   8.195  1.0090  0.5000  0.4770
11822SOL    HW238360   7.796   5.918   8.263  0.8918 -0.1590 -0.6897
11823SOL     OW38361  10.680   5.866   4.019 -0.8738 -0.4542 -0.0210
11823SOL    HW138362  10.607   5.911   3.975 -1.7480  1.6125  3.1622
11823SOL    HW238363  10.657   5.870   4.112  1.5731 -3.1344  0.8384
11824SOL     OW38364   5.582   3.518   6.480  0.3600  0.6406  0.3207
11824SOL    HW138365   5.558   3.431   6.511  0.3015  0.8008  0.7345
11824SOL    HW238366   5.567   3.575   6.555  1.3936  0.8533  0.3797
11825SOL     OW38367   5.154   7.888   6.299 -0.1335  0.1813  0.1536
11825SOL    HW138368   5.231   7.917   6.348  0.5198  0.4336 -0.9986
11825SOL    HW238369   5.092   7.862   6.367  0.7221  0.5720  1.1221
11826SOL     OW38370   3.787   0.107   7.596 -0.0021 -0.4200 -0.3183
11826SOL    HW138371   3.779   0.178   7.533  2.5043  1.7049  1.4999
11826SOL    HW238372   3.866   0.060   7.569  2.4045  1.8130  2.1056
11827SOL     OW38373  10.774   8.639   0.324  0.0986 -0.5153  0.2872
11827SOL    HW138374  10.762   8.714   0.266 -0.8989 -0.8883 -0.0079
11827SOL    HW238375  10.866   8.614   0.311  0.3095  0.3515  0.0342
11828SOL     OW38376   8.590   2.804   0.534 -1.0582  0.0779  0.9733
11828SOL    HW138377   8.673   2.770   0.566  0.2046  1.4727 -0.6216
11828SOL    HW238378   8.572   2.753   0.455 -1.6741 -0.1380  1.2460
11829SOL     OW38379   9.123   9.577  10.712  0.1437 -0.4033  0.0777
11829SOL    HW138380   9.117   9.613  10.800 -0.4194 -0.3191  0.0066
11829SOL    HW238381   9.099   9.484  10.721 -0.1454 -0.3400 -0.0218
11830SOL     OW38382   3.453   6.745   9.032 -0.0447  0.2776 -0.0257
11830SOL    HW138383   3.362   6.728   9.009 -0.4029  2.3685 -0.2776
11830SOL    HW238384   3.452   6.759   9.127 -0.3712  2.3948 -0.3084
11831SOL     OW38385   9.858   0.627   9.580  0.1878  0.6156  0.0376
11831SOL    HW138386   9.834   0.716   9.607  0.5933  0.7224  0.0505
11831SOL    HW238387   9.811   0.613   9.497 -0.4802  0.5585  0.4121
11832SOL     OW38388   7.873   9.520   4.863  0.4357 -0.2288 -0.1749
11832SOL    HW138389   7.868   9.560   4.950  0.8376 -1.1606  0.2945
11832SOL    HW238390   7.785   9.489   4.846  0.2992  0.1710 -0.2097
11833SOL     OW38391   3.719   0.900   4.161  0.5134 -0.3716  0.2207
11833SOL    HW138392   3.712   0.975   4.101 -1.5613 -0.1149  0.7251
11833SOL    HW238393   3.794   0.851   4.128  1.8516  1.8235 -0.2251
11834SOL     OW38394   3.721  10.080   9.581 -0.0855  0.5814 -0.6048
11834SOL    HW138395   3.676   9.996   9.590  0.9536 -0.0726 -1.2929
11834SOL    HW238396   3.657  10.137   9.537 -1.3217  0.6248  1.1729
11835SOL     OW38397   6.954   0.761   0.672 -0.1529 -0.3785 -0.1721
11835SOL    HW138398   7.036   0.759   0.622  0.8046 -0.8327  1.3565
11835SOL    HW238399   6.896   0.817   0.620  0.7879 -0.8207 -1.7701
11836SOL     OW38400   3.556   7.686   5.970  0.0450 -0.2297  0.3120
11836SOL    HW138401   3.632   7.637   6.001  1.9341  2.9224  1.1906
11836SOL    HW238402   3.513   7.717   6.050 -0.0906  0.8622 -0.1600
11837SOL     OW38403   1.877   5.895   0.740  0.0867  0.3096 -0.6291
11837SOL    HW138404   1.794   5.931   0.771 -0.9579  0.2270 -3.1378
11837SOL    HW238405   1.933   5.971   0.725 -0.2245  0.5039 -0.8015
11838SOL     OW38406  10.167   4.171   8.040 -0.3497 -0.0678  0.2021
11838SOL    HW138407  10.120   4.158   8.122  0.4588  1.1198  0.8811
11838SOL    HW238408  10.207   4.086   8.022 -0.6958 -0.3925  0.9317
11839SOL     OW38409   3.630   6.273   0.730 -0.1019 -0.0008  0.3824
11839SOL    HW138410   3.560   6.314   0.678 -0.5319  0.4550  1.3079
11839SOL    HW238411   3.639   6.185   0.693 -1.2447 -0.1091  0.3241
11840SOL     OW38412  10.753   0.827   9.338  0.3562 -0.2959 -0.2051
11840SOL    HW138413  10.781   0.776   9.414 -1.2819 -0.4707  0.3151
11840SOL    HW238414  10.771   0.918   9.363 -1.5641 -0.2198  1.0606
11841SOL     OW38415   1.075   9.966  10.446  0.0377  0.7785  0.2213
11841SOL    HW138416   1.033   9.884  10.421 -1.6946  1.5980  0.2930
11841SOL    HW238417   1.141   9.941  10.511 -0.0094 -0.6074 -0.2400
11842SOL     OW38418   0.668   5.258   9.712  0.5516 -0.0898  0.2359
11842SOL    HW138419   0.762   5.252   9.693  0.4947  0.6513 -0.3126
11842SOL    HW238420   0.650   5.352   9.714 -0.5399 -0.2163 -1.5110
11843SOL     OW38421   4.761   9.878   5.496 -0.6359  0.0683 -0.0957
11843SOL    HW138422   4.830   9.916   5.441 -0.5470 -0.4748 -0.3754
11843SOL    HW238423   4.767   9.784   5.478 -1.6200  0.0408 -0.3210
11844SOL     OW38424   8.909   8.602  10.661 -0.8105 -0.4450 -0.7052
11844SOL    HW138425   8.928   8.575  10.751 -1.6818  1.4907  0.1071
11844SOL    HW238426   8.852   8.534  10.627 -0.1047 -1.4356  0.0285
11845SOL     OW38427   5.722   6.299   2.181 -0.1163  0.0084  0.2131
11845SOL    HW138428   5.698   6.216   2.223 -0.6761 -0.7623 -1.5640
11845SOL    HW238429   5.817   6.298   2.180 -0.0983 -0.0882  1.2028
11846SOL     OW38430   7.812   6.805  10.407 -0.4035 -0.1493 -0.5382
11846SOL    HW138431   7.718   6.812  10.386 -0.7859 -1.1286  0.6830
11846SOL    HW238432   7.828   6.877  10.467  0.0795  1.1010 -2.1139
11847SOL     OW38433   8.057   1.675  10.623 -0.2216 -0.0048 -0.1285
11847SOL    HW138434   8.049   1.764  10.590  4.7687  0.2509 -1.4163
11847SOL    HW238435   8.089   1.685  10.712  0.5246 -0.4561 -0.3342
11848SOL     OW38436   5.524   6.251   4.690 -0.6307  0.5225  0.3745
11848SOL    HW138437   5.525   6.158   4.715 -3.8626  0.1988 -0.3135
11848SOL    HW238438   5.596   6.290   4.740  1.4222 -2.4695 -0.0019
11849SOL     OW38439   1.396   4.484   8.921  0.3561 -0.4032  0.1582
11849SOL    HW138440   1.471   4.507   8.976  0.0423  0.0351  0.4159
11849SOL    HW238441   1.400   4.545   8.847  0.7336 -0.9408 -0.2750
11850SOL     OW38442   6.548   5.073   8.193  1.0769 -0.5447  0.4631
11850SOL    HW138443   6.605   5.046   8.265  0.9038  0.2945  0.9295
11850SOL    HW238444   6.493   4.996   8.176  1.3659 -0.8726  0.9860
11851SOL     OW38445   1.220   5.983   0.352 -0.5376  0.7147  0.6035
11851SOL    HW138446   1.166   5.913   0.315  0.9272 -0.2639  0.2442
11851SOL    HW238447   1.295   5.989   0.293  0.2014  1.4260  1.5899
11852SOL     OW38448   0.372   7.466   1.639  0.1375 -0.1860  0.4366
11852SOL    HW138449   0.287   7.479   1.598 -0.5446 -0.7264  1.6336
11852SOL    HW238450   0.408   7.554   1.648  0.2275 -0.0436 -1.1137
11853SOL     OW38451   8.164   1.648   8.254  1.0459  0.1939  0.1769
11853SOL    HW138452   8.211   1.653   8.338  0.4053 -0.1239  0.5672
11853SOL    HW238453   8.104   1.723   8.256  1.5978  0.6584 -0.3653
11854SOL     OW38454   9.692   1.822   0.511  0.0124  0.2015  0.1025
11854SOL    HW138455   9.749   1.753   0.547  0.1666  0.7234  0.8942
11854SOL    HW238456   9.752   1.894   0.492 -0.0888 -0.0144 -1.1125
11855SOL     OW38457   7.311   5.645   8.997 -0.2426  0.3564 -0.2522
11855SOL    HW138458   7.260   5.590   8.937  0.8368  0.5409 -1.3705
11855SOL    HW238459   7.402   5.630   8.973  0.2069  0.7257  1.1139
11856SOL     OW38460   8.932   5.674   3.839 -0.3460 -0.2337  0.1432
11856SOL    HW138461   8.964   5.598   3.789  0.8264  0.2664  0.0967
11856SOL    HW238462   8.996   5.685   3.909 -0.6873  0.5108  0.3490
11857SOL     OW38463   6.260   3.985   3.849  0.0436 -0.0882  0.2574
11857SOL    HW138464   6.245   3.986   3.944  0.6167  0.7584  0.3579
11857SOL    HW238465   6.250   3.893   3.824  3.3880 -1.0376  1.7507
11858SOL     OW38466   3.698   6.652   2.411  0.0322  0.0665  0.0812
11858SOL    HW138467   3.611   6.636   2.447 -0.4586  1.5912 -0.3548
11858SOL    HW238468   3.740   6.566   2.411 -1.8336 -0.8981 -0.6866
11859SOL     OW38469   7.628   4.825   0.389 -0.7580  0.5941  0.5865
11859SOL    HW138470   7.694   4.812   0.457 -1.1517 -1.6267  0.6187
11859SOL    HW238471   7.630   4.744   0.339 -1.8789  1.4058 -0.8413
11860SOL     OW38472  10.246   3.279   6.851  0.1870 -0.6271 -0.0781
11860SOL    HW138473  10.172   3.295   6.793  2.1530 -1.1804 -2.9469
11860SOL    HW238474  10.241   3.185   6.871 -0.7442 -0.3479  1.0807
11861SOL     OW38475   6.608   3.806   2.594 -0.1695  0.2584 -0.8761
11861SOL    HW138476   6.687   3.757   2.573 -0.0082  0.3828 -0.5698
11861SOL    HW238477   6.550   3.743   2.636  0.1597  0.3920 -0.1986
11862SOL     OW38478   7.553   2.197   6.391  0.1336 -1.1558 -0.3032
11862SOL    HW138479   7.637   2.183   6.434  0.1855 -0.3752 -0.1430
11862SOL    HW238480   7.501   2.246   6.454  0.1922 -0.0458 -1.0940
11863SOL     OW38481   9.095   6.701   4.721  0.0198  0.1969  0.1289
11863SOL    HW138482   9.070   6.609   4.733 -0.7768  0.2438 -0.9836
11863SOL    HW238483   9.181   6.708   4.763  0.4450 -1.2538 -0.4073
11864SOL     OW38484   3.798   5.069   5.000  0.2212  0.8507  0.2849
11864SOL    HW138485   3.709   5.037   5.020  0.0880  1.5366  0.8366
11864SOL    HW238486   3.828   5.107   5.083  0.4723  1.9157 -0.2844
11865SOL     OW38487   0.950   1.160   7.787  0.1133  0.6258  0.0134
11865SOL    HW138488   0.989   1.240   7.752 -0.6378  1.2064  0.4576
11865SOL    HW238489   0.911   1.188   7.870 -4.1423  0.9133 -1.8157
11866SOL     OW38490   1.408  10.567   3.286 -0.1032 -0.1560  0.4969
11866SOL    HW138491   1.326  10.616   3.281  0.0417 -0.0376 -1.8794
11866SOL    HW238492   1.454  10.605   3.361 -1.0517  1.6890  0.2051
11867SOL     OW38493   7.448   1.142   6.678 -0.4157 -0.2943  0.0856
11867SOL    HW138494   7.522   1.083   6.689 -0.4751 -0.6015 -1.0749
11867SOL    HW238495   7.376   1.099   6.725  0.3024  0.4053  1.9337
11868SOL     OW38496   2.315   9.724   0.995  0.4982  0.2488  0.5584
11868SOL    HW138497   2.286   9.814   1.014 -1.0361 -0.1343  0.2163
11868SOL    HW238498   2.240   9.685   0.951  1.8130 -0.6551 -0.9618
11869SOL     OW38499   5.134   8.473   0.530 -0.4067  0.0312  0.3178
11869SOL    HW138500   5.053   8.436   0.497 -1.0023  2.3177 -1.0545
11869SOL    HW238501   5.107   8.553   0.575  1.0137  0.5210  0.3595
11870SOL     OW38502   7.863   2.794   2.052  0.1315  0.0119  0.8446
11870SOL    HW138503   7.793   2.805   2.116 -0.1148 -0.5304  0.6763
11870SOL    HW238504   7.824   2.738   1.984  1.0382 -1.1674  1.2526
11871SOL     OW38505   0.146   5.766   4.601 -0.1794  0.3493  0.2604
11871SOL    HW138506   0.147   5.679   4.560 -0.0333  1.0289 -1.2567
11871SOL    HW238507   0.150   5.748   4.695  2.1544 -1.2573 -0.0487
11872SOL     OW38508  10.635   3.716   6.910 -0.4175 -0.4933  0.3460
11872SOL    HW138509  10.626   3.628   6.948  1.7430 -0.2900  1.5124
11872SOL    HW238510  10.569   3.769   6.954 -1.4318 -1.4111 -0.0299
11873SOL     OW38511   8.202   7.134   6.235 -0.0441  0.9131  0.4151
11873SOL    HW138512   8.232   7.197   6.300  0.2621  0.5667  0.6124
11873SOL    HW238513   8.125   7.175   6.196 -0.7323  0.7701  1.5780
11874SOL     OW38514   9.517   7.270   7.874  0.2648 -0.2748 -0.7614
11874SOL    HW138515   9.561   7.295   7.793  2.4576 -1.8659 -0.1679
11874SOL    HW238516   9.510   7.175   7.869 -3.1383 -0.1410 -0.7402
11875SOL     OW38517   0.822  10.172   5.218 -0.3173  0.1732 -0.7600
11875SOL    HW138518   0.796  10.181   5.310 -0.3212 -0.2935 -0.7109
11875SOL    HW238519   0.810  10.259   5.181 -0.3923  0.3478 -0.3363
11876SOL     OW38520   2.566   1.985   3.713  0.1703  0.4083  0.0512
11876SOL    HW138521   2.583   2.056   3.651  0.2775 -0.6180 -1.1251
11876SOL    HW238522   2.608   1.908   3.674  1.6654  0.0427  2.1908
11877SOL     OW38523   0.983   5.496   8.071  0.3721 -0.4393  0.2661
11877SOL    HW138524   0.937   5.439   8.011 -0.2553  0.7747 -0.4408
11877SOL    HW238525   1.050   5.538   8.018  1.3018 -1.0156  0.9375
11878SOL     OW38526   2.968  10.751  10.551 -0.4455  0.0874  0.2474
11878SOL    HW138527   2.996  10.829  10.503 -1.3877 -0.1468 -0.7067
11878SOL    HW238528   3.043  10.692  10.548  0.4430  1.1093  1.3651
11879SOL     OW38529   7.548   6.000   9.205 -0.5301 -0.6081 -0.4548
11879SOL    HW138530   7.469   5.946   9.207 -0.7357 -0.3397 -1.0378
11879SOL    HW238531   7.604   5.958   9.140 -0.3561 -0.5701 -0.3316
11880SOL     OW38532   2.439  10.090   6.328  0.3585 -0.6537  0.2068
11880SOL    HW138533   2.389  10.168   6.305 -0.2496 -1.0101  0.2911
11880SOL    HW238534   2.527  10.108   6.296  0.1730 -0.0236  0.0333
11881SOL     OW38535   5.234   7.723   9.832 -0.3613 -0.0350 -0.6824
11881SOL    HW138536   5.278   7.807   9.819  1.9191 -1.2934 -1.6933
11881SOL    HW238537   5.302   7.666   9.867 -2.0197 -1.3368  0.5902
11882SOL     OW38538   1.707   1.864   6.704  0.0723  0.0474  0.4126
11882SOL    HW138539   1.657   1.784   6.713  1.0410 -0.7473 -0.9424
11882SOL    HW238540   1.688   1.895   6.616  0.3820  0.8536  0.6134
11883SOL     OW38541   9.634   1.350   7.980 -0.4429  0.2199  0.3075
11883SOL    HW138542   9.726   1.326   7.981 -0.4754  0.0252 -0.8392
11883SOL    HW238543   9.589   1.272   7.946 -1.0228  0.3393  0.7814
11884SOL     OW38544   7.640   1.962   1.700 -0.5031  0.0114 -0.0495
11884SOL    HW138545   7.564   1.946   1.756 -1.0405  0.5108 -0.6251
11884SOL    HW238546   7.672   1.875   1.677 -1.2560 -0.2059 -0.2837
11885SOL     OW38547   2.048   8.917   5.683  0.0878 -0.2753  0.0643
11885SOL    HW138548   2.114   8.923   5.614  0.2454  0.6142  0.2803
11885SOL    HW238549   2.094   8.940   5.763 -0.3316 -0.2840  0.3136
11886SOL     OW38550   3.743  10.128   6.080  0.1200  0.7553  0.1653
11886SOL    HW138551   3.733  10.223   6.079  1.2699  0.9035  0.7382
11886SOL    HW238552   3.835  10.114   6.104  0.1839 -0.4860 -0.6936
11887SOL     OW38553  10.743   8.133   8.664  0.2303 -0.1551 -0.4896
11887SOL    HW138554  10.702   8.144   8.749 -0.6780 -0.5490 -0.8650
11887SOL    HW238555  10.809   8.203   8.659 -1.5488  1.6026 -0.5605
11888SOL     OW38556   6.961   4.124   7.447  0.1499  0.1761 -0.0098
11888SOL    HW138557   6.927   4.094   7.532  0.5658  2.7225  1.1543
11888SOL    HW238558   6.884   4.150   7.398 -0.0936 -1.2881 -0.4519
11889SOL     OW38559   4.655   9.486   7.509 -0.0665 -0.2004 -0.2729
11889SOL    HW138560   4.647   9.578   7.484  0.6965 -0.1275 -0.2706
11889SOL    HW238561   4.565   9.452   7.505 -0.1364  0.1011 -1.9312
11890SOL     OW38562   9.936   8.270   3.956  0.6640  0.3610  0.4429
11890SOL    HW138563   9.842   8.254   3.964  0.8824 -0.0214  3.0985
11890SOL    HW238564   9.943   8.365   3.944 -0.0456  0.6158  1.7867
11891SOL     OW38565   9.795  10.358   5.087  0.4384 -0.0679 -0.0061
11891SOL    HW138566   9.832  10.353   5.175 -1.0727 -1.3923  0.6020
11891SOL    HW238567   9.770  10.268   5.067 -2.1054  0.6706 -0.4774
11892SOL     OW38568   1.511   4.038   5.976 -0.1205 -0.7683 -0.0169
11892SOL    HW138569   1.468   4.022   5.892  2.1234 -0.1542 -1.3756
11892SOL    HW238570   1.524   4.133   5.978 -2.3589 -0.3984  2.2602
11893SOL     OW38571  10.448   7.919   1.279 -0.1191  0.4473  0.0806
11893SOL    HW138572  10.475   7.862   1.351 -0.0237 -0.5197 -0.7107
11893SOL    HW238573  10.456   7.865   1.201 -1.7595  0.9726 -0.4928
11894SOL     OW38574  10.315   7.029   3.266  0.1057  0.4405 -0.1932
11894SOL    HW138575  10.407   7.021   3.291 -0.3596 -3.9432  0.8259
11894SOL    HW238576  10.308   6.981   3.183 -1.5996 -1.6409  1.0514
11895SOL     OW38577   3.778   1.288   1.796  0.1502 -0.4102  0.6750
11895SOL    HW138578   3.812   1.348   1.730  1.2427  0.4750  1.9798
11895SOL    HW238579   3.837   1.212   1.792  1.1624  0.2953  1.6231
11896SOL     OW38580   0.040   4.341   3.557  0.3691  0.0585 -0.6067
11896SOL    HW138581   0.104   4.409   3.580  0.7174 -0.4365 -0.0815
11896SOL    HW238582   0.093   4.264   3.537 -0.0419 -0.2087 -0.6743
11897SOL     OW38583   3.065   8.856   5.579 -0.0062  0.0658 -0.3381
11897SOL    HW138584   3.039   8.782   5.523  2.2818 -0.2768 -1.0565
11897SOL    HW238585   3.151   8.882   5.546 -0.4553  2.6710  0.3295
11898SOL     OW38586   0.558   0.790   0.327  0.7721 -0.1708 -0.0246
11898SOL    HW138587   0.554   0.781   0.422  4.2434  0.3576  0.2962
11898SOL    HW238588   0.650   0.811   0.308  0.0512  0.6030 -3.4393
11899SOL     OW38589   5.843   0.958   0.640 -0.4346  0.3069 -0.0864
11899SOL    HW138590   5.817   1.011   0.715 -0.8120 -0.0221  0.0154
11899SOL    HW238591   5.891   1.019   0.583 -1.7661  1.0288 -0.4685
11900SOL     OW38592   1.701   7.353   9.132 -0.4110 -0.1637 -0.0799
11900SOL    HW138593   1.624   7.318   9.087 -1.1981  0.4496  0.7503
11900SOL    HW238594   1.667   7.389   9.214  0.8491 -0.3965  0.5759
11901SOL     OW38595   5.340   5.355   4.785 -0.9351 -0.1585  0.4017
11901SOL    HW138596   5.327   5.379   4.876  0.9987 -1.4228  1.0824
11901SOL    HW238597   5.424   5.393   4.761 -1.7291  0.7746 -1.1389
11902SOL     OW38598   4.457   7.509   9.165  0.0597  0.2192  0.1454
11902SOL    HW138599   4.437   7.528   9.074  0.5899  3.3691  0.5737
11902SOL    HW238600   4.409   7.575   9.215 -0.1411 -1.3410  2.1760
11903SOL     OW38601   2.869   6.004   5.340  0.2342  0.2313  0.2158
11903SOL    HW138602   2.857   6.087   5.386 -2.7570 -0.1552  0.3650
11903SOL    HW238603   2.843   5.937   5.404  0.1915 -0.6394 -0.6849
11904SOL     OW38604   1.437   5.530   7.333  0.3895  0.2253 -0.0913
11904SOL    HW138605   1.400   5.617   7.316 -0.4784 -0.0243  0.4390
11904SOL    HW238606   1.390   5.500   7.411 -0.5831 -1.4567 -1.2718
11905SOL     OW38607   3.139   8.434   4.982  0.6861 -0.1568 -0.0578
11905SOL    HW138608   3.146   8.470   5.070 -0.0553  0.9868 -0.4477
11905SOL    HW238609   3.047   8.411   4.973  0.8229 -0.5757 -0.4318
11906SOL     OW38610   9.028   4.796   8.641 -0.5089  0.1653 -0.5155
11906SOL    HW138611   8.989   4.754   8.718  0.9431  0.4857  0.4314
11906SOL    HW238612   8.954   4.818   8.585 -1.5675 -0.3524  0.6523
11907SOL     OW38613   3.973   5.934   1.330 -0.2453  0.2333 -0.5902
11907SOL    HW138614   4.011   5.933   1.418 -0.3894  2.1747 -0.4662
11907SOL    HW238615   3.951   6.026   1.314  0.1408  0.0030 -2.8067
11908SOL     OW38616   1.956   5.387   5.717 -0.6761 -0.0864  0.6856
11908SOL    HW138617   1.965   5.456   5.783 -1.0581 -1.2695  2.0183
11908SOL    HW238618   1.875   5.409   5.670  0.1852  1.3895 -0.2180
11909SOL     OW38619   6.764   1.471   4.798  0.0265  0.5662 -0.2478
11909SOL    HW138620   6.857   1.461   4.817  0.1310  2.1106  0.2017
11909SOL    HW238621   6.762   1.489   4.704  0.1774  0.5046 -0.2645
11910SOL     OW38622   3.687   5.907   8.912 -0.4033  0.2589  0.1321
11910SOL    HW138623   3.641   5.833   8.871 -0.8039 -0.8745  2.4781
11910SOL    HW238624   3.775   5.903   8.875 -1.1937  0.3803 -1.8835
11911SOL     OW38625   7.370   5.250   8.434  0.7239  0.0225  0.4133
11911SOL    HW138626   7.416   5.168   8.418 -1.2182 -0.7356 -1.8585
11911SOL    HW238627   7.360   5.255   8.529  2.0341 -1.6761  0.6798
11912SOL     OW38628   2.765   2.270   8.344  0.3137  0.4439  0.1679
11912SOL    HW138629   2.840   2.279   8.285 -1.0494 -0.5977 -1.8707
11912SOL    HW238630   2.731   2.359   8.354 -0.5796  0.4466 -2.3117
11913SOL     OW38631   9.194   2.558   8.654  0.0491  0.0481  0.3435
11913SOL    HW138632   9.240   2.641   8.638  0.2837 -0.1177  0.1308
11913SOL    HW238633   9.101   2.581   8.649  0.0741  0.5925  1.8385
11914SOL     OW38634   2.904   9.087   8.672  0.3862  0.2184 -0.0977
11914SOL    HW138635   2.902   9.161   8.733 -1.4297 -0.0929  0.2970
11914SOL    HW238636   2.928   9.012   8.726 -1.8824 -0.1826  0.4834
11915SOL     OW38637   4.139   3.005   2.102 -0.2534 -0.2636 -0.7175
11915SOL    HW138638   4.215   3.015   2.160  0.0907 -2.0797 -0.8208
11915SOL    HW238639   4.162   2.932   2.045 -1.1621  0.6235 -2.2703
11916SOL     OW38640   9.455   2.537   7.956 -0.3434  0.2838 -0.2814
11916SOL    HW138641   9.493   2.580   7.879  0.4324 -1.3341 -0.8578
11916SOL    HW238642   9.507   2.569   8.030  0.4777  0.0518 -0.7471
11917SOL     OW38643   8.104   8.159   3.136  0.3502  0.1734  0.4810
11917SOL    HW138644   8.093   8.223   3.066 -0.4302  0.4647  0.8580
11917SOL    HW238645   8.074   8.076   3.098 -0.3543  0.3881  0.5484
11918SOL     OW38646   6.615   7.978   3.412 -0.1051  0.2118  0.2049
11918SOL    HW138647   6.660   8.062   3.411  1.6663 -0.6414  2.3188
11918SOL    HW238648   6.534   7.995   3.460 -0.0583  0.8274  0.0749
11919SOL     OW38649   6.927   4.272   2.284 -0.3455 -0.4652  0.0239
11919SOL    HW138650   6.908   4.211   2.213 -2.4043  1.1013 -0.9021
11919SOL    HW238651   7.022   4.276   2.288 -0.1785 -1.9429 -1.4395
11920SOL     OW38652   5.326   3.193   8.524  0.4259 -0.5033  0.1463
11920SOL    HW138653   5.231   3.179   8.517  0.5276 -0.5145 -1.9812
11920SOL    HW238654   5.354   3.211   8.434  2.4633 -0.5641  0.7177
11921SOL     OW38655   0.352  10.563   7.492  0.2619  0.2462 -0.1335
11921SOL    HW138656   0.441  10.549   7.525  0.1950 -0.4415 -0.2258
11921SOL    HW238657   0.353  10.526   7.403  0.1667  1.1841 -0.5449
11922SOL     OW38658   5.320  10.464   6.725  0.4871  0.0794  0.1701
11922SOL    HW138659   5.268  10.492   6.800  0.9913  0.9378  0.2065
11922SOL    HW238660   5.314  10.536   6.662 -0.0565 -0.6940 -0.6874
11923SOL     OW38661   2.777   3.758   2.825 -0.2991 -0.0879  0.4626
11923SOL    HW138662   2.767   3.847   2.859 -0.5849 -0.0626  0.3071
11923SOL    HW238663   2.699   3.711   2.855  0.6155 -0.7371  1.9602
11924SOL     OW38664   3.927   1.784   0.865  0.0376 -0.0798 -0.2359
11924SOL    HW138665   3.871   1.774   0.942 -0.2109  0.6772 -0.3135
11924SOL    HW238666   3.886   1.854   0.815 -0.1318 -0.9627 -1.3608
11925SOL     OW38667   7.751   8.422   4.570  0.4069  0.0448  0.1181
11925SOL    HW138668   7.685   8.428   4.640 -0.7980 -0.3057 -0.9406
11925SOL    HW238669   7.820   8.366   4.606  0.0301  0.2416  1.1830
11926SOL     OW38670   4.225   5.294   5.860 -0.1487  0.2331  0.2786
11926SOL    HW138671   4.190   5.291   5.949  0.8215 -2.2796  0.6379
11926SOL    HW238672   4.164   5.241   5.808 -0.7731  1.7670 -0.6405
11927SOL     OW38673   9.591  10.178   6.711 -0.2068  0.1516  0.3401
11927SOL    HW138674   9.555  10.231   6.782 -0.5216 -0.6998  0.8248
11927SOL    HW238675   9.682  10.206   6.705 -0.2209  0.3494  0.9691
11928SOL     OW38676   6.402   5.579   5.977 -0.5938 -0.0374  0.2739
11928SOL    HW138677   6.371   5.513   5.915  0.7429 -0.0179 -0.4378
11928SOL    HW238678   6.435   5.529   6.051 -0.3692 -0.1481  0.1018
11929SOL     OW38679   9.849   9.487   0.543  0.2349 -0.0325  0.1613
11929SOL    HW138680   9.926   9.512   0.493  0.7847  1.0290  1.4892
11929SOL    HW238681   9.804   9.570   0.563  0.0710 -0.3989  1.4537
11930SOL     OW38682   1.404   1.585   7.708  0.1346 -0.1727  0.0552
11930SOL    HW138683   1.358   1.501   7.712  0.2226 -0.1724  1.2080
11930SOL    HW238684   1.479   1.575   7.766  0.3799  0.5727 -0.1147
11931SOL     OW38685   1.509   2.206   4.567  0.7435 -0.1204  0.0865
11931SOL    HW138686   1.568   2.164   4.629  0.5037  1.2489  1.2925
11931SOL    HW238687   1.422   2.194   4.605  0.8479  3.8481  2.0887
11932SOL     OW38688   5.621   6.704   1.467  0.3938  0.2837  0.2227
11932SOL    HW138689   5.663   6.786   1.494  0.0753  1.3024 -2.1734
11932SOL    HW238690   5.532   6.710   1.501  0.7374  0.3352  1.1341
11933SOL     OW38691   6.957   4.932   3.082  0.3084 -0.2818  0.3917
11933SOL    HW138692   7.046   4.920   3.114  0.5716  1.3575  0.3530
11933SOL    HW238693   6.966   4.986   3.004 -0.7327  0.1913  0.5780
11934SOL     OW38694   6.266   8.821   9.551 -0.0662 -0.2057  0.3535
11934SOL    HW138695   6.293   8.912   9.567  0.8631 -0.1486 -1.3044
11934SOL    HW238696   6.199   8.828   9.484 -1.5912 -0.6262  1.7875
11935SOL     OW38697   3.102   3.446   6.382  0.4499  0.1925 -0.0146
11935SOL    HW138698   3.051   3.451   6.302  2.0855  0.2289 -1.0951
11935SOL    HW238699   3.114   3.537   6.409 -1.3132  0.1374  1.1248
11936SOL     OW38700   5.161   2.944   3.313 -0.3221  0.0632  0.0435
11936SOL    HW138701   5.251   2.933   3.281  0.0418 -1.7965  1.4865
11936SOL    HW238702   5.141   2.861   3.357 -2.3319  0.8702  0.7889
11937SOL     OW38703   3.467   9.425   1.840 -0.5602 -0.7531  0.3554
11937SOL    HW138704   3.545   9.455   1.794 -0.8833  0.5697  0.6454
11937SOL    HW238705   3.444   9.343   1.795  1.1181 -1.3210  0.4350
11938SOL     OW38706   4.313   4.723   4.375 -0.3715  0.6406  0.1690
11938SOL    HW138707   4.292   4.789   4.441  0.8526 -0.3962  1.6640
11938SOL    HW238708   4.331   4.774   4.296 -1.4346  1.9487  0.7280
11939SOL     OW38709   7.736   6.861   8.860 -0.4972  0.0498 -0.1495
11939SOL    HW138710   7.714   6.772   8.888 -0.3345 -0.1531 -0.6496
11939SOL    HW238711   7.801   6.891   8.923 -0.7173 -0.0992  0.1545
11940SOL     OW38712   9.647   9.179   4.539 -0.0635 -0.5222 -0.0605
11940SOL    HW138713   9.570   9.158   4.486 -0.5775  0.1089  0.4304
11940SOL    HW238714   9.625   9.262   4.582  0.7441 -0.5226  0.3670
11941SOL     OW38715   3.746   8.013   9.930 -0.2103 -0.4585  0.0180
11941SOL    HW138716   3.692   7.972   9.998  1.3888 -2.1483  0.3471
11941SOL    HW238717   3.696   8.002   9.850 -0.6956 -1.3293  0.4281
11942SOL     OW38718   3.838   1.805   9.668 -0.4052 -0.3238  0.2147
11942SOL    HW138719   3.904   1.768   9.610  0.5277  2.1816 -0.4651
11942SOL    HW238720   3.779   1.854   9.610 -0.1530  1.2351  1.1992
11943SOL     OW38721   4.732   9.422   1.102 -0.0868 -0.2939  0.6196
11943SOL    HW138722   4.680   9.478   1.159  0.1101 -0.9830  1.5003
11943SOL    HW238723   4.739   9.339   1.149 -1.2301 -1.4327 -1.0871
11944SOL     OW38724   7.491   2.165   7.964  0.5672  0.3606  0.1724
11944SOL    HW138725   7.446   2.202   8.040  0.4805 -1.4069  1.0483
11944SOL    HW238726   7.435   2.092   7.938  0.4819  1.0744 -1.7694
11945SOL     OW38727  10.450   6.016   4.005 -0.8791  0.0657  0.1091
11945SOL    HW138728  10.387   6.079   3.973 -1.4565 -0.6638 -0.2109
11945SOL    HW238729  10.398   5.951   4.052 -0.4379 -0.8301 -0.6044
11946SOL     OW38730   6.328   5.565   8.191 -0.3028  0.7714 -0.5337
11946SOL    HW138731   6.304   5.477   8.162  2.0486  0.1623 -0.8020
11946SOL    HW238732   6.294   5.570   8.281  0.3046 -0.7722 -0.1865
11947SOL     OW38733   8.673   7.463   8.088 -0.2759  0.0388 -0.0842
11947SOL    HW138734   8.625   7.396   8.136 -0.5055  0.2923  0.0483
11947SOL    HW238735   8.743   7.489   8.147 -0.6402  0.4468  0.1801
11948SOL     OW38736   8.136   8.919   2.491 -0.2309 -0.3179 -0.2720
11948SOL    HW138737   8.211   8.961   2.448 -0.4283 -0.7181 -1.0341
11948SOL    HW238738   8.099   8.987   2.546  1.0889 -0.3008  0.6531
11949SOL     OW38739   0.421   2.005   8.478  0.3850  0.2454 -0.6110
11949SOL    HW138740   0.399   2.098   8.470  0.6497  0.3572 -0.1405
11949SOL    HW238741   0.478   1.987   8.403  0.9425  0.6592 -0.3032
11950SOL     OW38742   3.278   4.898   6.716  0.0640  0.4329  0.0762
11950SOL    HW138743   3.275   4.968   6.781 -0.7292  1.2631 -0.8326
11950SOL    HW238744   3.198   4.909   6.665  0.7651 -0.0761 -1.1669
11951SOL     OW38745   9.493   7.796  10.579 -0.4449 -0.4488 -0.5059
11951SOL    HW138746   9.546   7.865  10.618 -0.0162  0.1396 -2.0658
11951SOL    HW238747   9.411   7.797  10.629  0.8214 -1.1463  1.7200
11952SOL     OW38748   5.317   9.653  10.608  0.3000  0.3613  0.1781
11952SOL    HW138749   5.308   9.629  10.516 -1.5205 -0.0766  0.4430
11952SOL    HW238750   5.236   9.699  10.629  0.7806  0.6293  1.5120
11953SOL     OW38751   9.913   5.624   9.671  0.2837  0.4694  0.3428
11953SOL    HW138752   9.826   5.602   9.638  0.6588  0.4941 -0.6869
11953SOL    HW238753   9.945   5.543   9.711 -0.4010  0.5971  1.1902
11954SOL     OW38754   1.065   4.894   2.480 -0.1195  0.5075  0.1001
11954SOL    HW138755   1.157   4.914   2.466 -0.3794  1.9620  0.3709
11954SOL    HW238756   1.050   4.913   2.573 -0.4141 -0.9029  0.3643
11955SOL     OW38757  10.511   0.876   9.526 -0.4576  0.2456  0.3160
11955SOL    HW138758  10.508   0.842   9.437  0.4768 -0.9294  0.7081
11955SOL    HW238759  10.604   0.877   9.549 -0.7607 -0.8795  1.7731
11956SOL     OW38760   6.527   7.296   7.394 -0.4071 -0.2150 -0.3948
11956SOL    HW138761   6.534   7.213   7.441 -1.5132 -0.6583 -0.9706
11956SOL    HW238762   6.527   7.363   7.463  0.3990 -0.6892  0.0751
11957SOL     OW38763   7.546   1.285   5.044  0.3774 -0.4084 -0.0611
11957SOL    HW138764   7.498   1.282   5.127 -1.1863  1.7106 -0.8137
11957SOL    HW238765   7.593   1.368   5.046 -1.6769  0.9036 -2.2823
11958SOL     OW38766   7.129  10.344   3.978 -0.1651 -0.4976  0.5084
11958SOL    HW138767   7.223  10.356   3.967 -0.1598 -1.1785 -0.2474
11958SOL    HW238768   7.103  10.412   4.040  0.7662 -0.0893  0.4566
11959SOL     OW38769   9.947   6.398   9.429  0.1042 -0.2850 -0.2136
11959SOL    HW138770   9.883   6.463   9.458  0.2472 -0.1137 -0.2838
11959SOL    HW238771   9.988   6.436   9.352  1.0423  0.0790  0.4496
11960SOL     OW38772   6.770   4.128   6.119  0.4378 -0.4310  0.1671
11960SOL    HW138773   6.818   4.183   6.057  2.8551  0.7540  2.8417
11960SOL    HW238774   6.681   4.165   6.120  1.0991  1.3167 -0.5558
11961SOL     OW38775   3.314   2.692   9.340 -0.2728 -0.3048  0.1570
11961SOL    HW138776   3.303   2.687   9.435 -0.0272 -1.6122  0.1407
11961SOL    HW238777   3.234   2.653   9.304  0.2375 -1.1276 -0.1265
11962SOL     OW38778   7.733   5.398   4.292 -0.3586 -0.6609  0.1902
11962SOL    HW138779   7.765   5.395   4.202  1.1851 -1.4982  0.7280
11962SOL    HW238780   7.700   5.488   4.303  0.1116 -0.3284 -0.9778
11963SOL     OW38781   4.689   0.597  10.718 -0.2924 -0.4851 -0.2672
11963SOL    HW138782   4.775   0.624  10.751 -0.3018  0.5055 -0.9718
11963SOL    HW238783   4.669   0.516  10.764 -0.7852  1.3075  2.9557
11964SOL     OW38784   1.712  10.471   5.221  0.3181 -0.4747  0.3098
11964SOL    HW138785   1.761  10.550   5.243  0.9963 -0.5592 -0.8429
11964SOL    HW238786   1.742  10.406   5.285  0.2988 -0.0158  0.7953
11965SOL     OW38787   9.319   5.961   0.866  0.4696 -0.6600 -0.0053
11965SOL    HW138788   9.376   6.031   0.836  0.7163 -1.6992 -2.1948
11965SOL    HW238789   9.346   5.944   0.956  1.5432  0.8869 -0.0019
11966SOL     OW38790   4.853   8.331   2.664 -0.5332  0.1309  0.3308
11966SOL    HW138791   4.825   8.391   2.595 -0.3270 -0.1812 -0.0278
11966SOL    HW238792   4.893   8.387   2.730  2.7244  0.1666 -1.4559
11967SOL     OW38793   6.415   6.089   6.937 -0.4581 -0.4583  0.5083
11967SOL    HW138794   6.420   6.010   6.883  0.0258 -1.0372  1.3753
11967SOL    HW238795   6.323   6.115   6.931 -0.1309  0.4175 -1.8404
11968SOL     OW38796   6.555   6.010   1.439  0.6867 -0.4212 -0.3101
11968SOL    HW138797   6.547   6.079   1.373 -1.0325 -0.5146 -0.2369
11968SOL    HW238798   6.597   5.937   1.393  0.3791 -0.1455 -1.0391
11969SOL     OW38799   6.483   9.901   5.331  0.4353  0.0766  0.1258
11969SOL    HW138800   6.540   9.976   5.314 -0.4087  0.3064 -1.8868
11969SOL    HW238801   6.398   9.939   5.352  0.3329 -0.3147  0.4457
11970SOL     OW38802   4.599   9.889   2.179 -0.4061 -0.2083 -0.2923
11970SOL    HW138803   4.545   9.961   2.146 -0.2316 -0.6764 -1.6596
11970SOL    HW238804   4.593   9.821   2.112  1.3786 -0.5052 -0.2102
11971SOL     OW38805   9.164   0.108   0.472 -0.0557 -0.4845  0.1318
11971SOL    HW138806   9.096   0.047   0.442  0.8035 -0.7683 -1.3291
11971SOL    HW238807   9.211   0.060   0.541 -2.2869  0.3097  2.3723
11972SOL     OW38808   8.183   5.050   7.803  0.0538  0.5863  0.3098
11972SOL    HW138809   8.174   5.097   7.886 -0.4527  1.0072  0.0231
11972SOL    HW238810   8.257   5.093   7.760  0.9104 -0.2297  0.9255
11973SOL     OW38811   5.250   9.110   5.708 -0.5155 -0.2606  0.0025
11973SOL    HW138812   5.253   9.177   5.639  0.0877  1.0027  1.2144
11973SOL    HW238813   5.317   9.047   5.683 -0.4046  0.1033 -0.6480
11974SOL     OW38814   3.184   3.486   3.923  0.1309  0.2629 -0.4048
11974SOL    HW138815   3.208   3.501   3.831  0.4280 -1.1880 -0.5918
11974SOL    HW238816   3.107   3.540   3.936 -0.9753 -0.7874 -2.0553
11975SOL     OW38817   4.561   7.330   5.576  0.2908  0.5710 -0.0534
11975SOL    HW138818   4.532   7.418   5.555  2.3090  1.3137  0.1112
11975SOL    HW238819   4.649   7.341   5.612 -0.2774 -1.2924  2.1858
11976SOL     OW38820   8.252   3.061   0.839  0.1858 -0.2479 -0.4596
11976SOL    HW138821   8.215   3.114   0.909 -0.0259 -0.7789 -0.1672
11976SOL    HW238822   8.200   3.084   0.762  0.9337  0.9298 -0.6368
11977SOL     OW38823   6.883   4.812   7.613  0.1842 -0.8792 -0.4341
11977SOL    HW138824   6.794   4.823   7.580 -0.5467  0.4593  1.7749
11977SOL    HW238825   6.883   4.727   7.657 -0.7639  0.1089  1.5929
11978SOL     OW38826   6.114   3.350   7.258  0.1128 -0.4484  0.6159
11978SOL    HW138827   6.174   3.300   7.203 -0.8912 -0.0667 -0.8939
11978SOL    HW238828   6.152   3.345   7.346  0.6638 -2.8497  0.3049
11979SOL     OW38829   3.081   2.285   1.164  0.2628 -0.7095 -0.0472
11979SOL    HW138830   3.029   2.218   1.209 -0.6187 -0.3278 -0.4749
11979SOL    HW238831   3.069   2.364   1.217 -2.7705  0.4096 -2.1067
11980SOL     OW38832   5.381   5.386   1.874  0.1228 -0.3579 -0.0977
11980SOL    HW138833   5.412   5.393   1.784  0.0496  0.7222 -0.0539
11980SOL    HW238834   5.386   5.475   1.908  0.4724 -0.8130  1.0819
11981SOL     OW38835   3.858   8.932   6.068 -0.0487 -0.0351  0.5121
11981SOL    HW138836   3.797   9.005   6.053  1.7137  1.2565 -0.9536
11981SOL    HW238837   3.808   8.854   6.046 -2.1593  0.6302  2.5977
11982SOL     OW38838  10.072   9.115   9.529  0.1004 -0.0383  0.7331
11982SOL    HW138839  10.139   9.115   9.598 -0.4936  0.5120  1.3201
11982SOL    HW238840  10.109   9.171   9.460 -0.6647  2.1384  1.9938
11983SOL     OW38841  10.688   6.844   4.671  0.0976  0.1258  0.4523
11983SOL    HW138842  10.755   6.913   4.668  0.0234  0.2766  1.7302
11983SOL    HW238843  10.738   6.764   4.690 -0.0394  0.1699  0.9983
11984SOL     OW38844   7.449   1.258   0.665  0.0658  0.2032 -0.1976
11984SOL    HW138845   7.469   1.287   0.753  1.3254 -0.2621 -0.3105
11984SOL    HW238846   7.525   1.205   0.639 -0.8975 -0.8276 -1.0376
11985SOL     OW38847   2.749   0.429   4.379 -0.7954 -0.3751 -0.3724
11985SOL    HW138848   2.678   0.457   4.321 -1.1318 -0.5445 -0.0485
11985SOL    HW238849   2.751   0.334   4.369 -0.8089 -0.3976 -0.1631
11986SOL     OW38850   9.306   5.730   5.466  0.1580 -0.2383  0.3469
11986SOL    HW138851   9.340   5.819   5.455  1.3390 -0.6524  0.4088
11986SOL    HW238852   9.213   5.737   5.447 -0.0221  1.2478  1.5710
11987SOL     OW38853   4.601   9.610   1.247  0.0894 -0.2638  0.4359
11987SOL    HW138854   4.587   9.701   1.221  0.0315 -0.3172  0.2798
11987SOL    HW238855   4.560   9.603   1.333  2.1142  0.4898  1.5429
11988SOL     OW38856   8.253   9.754   9.556 -0.3706  0.3550  0.2197
11988SOL    HW138857   8.171   9.778   9.600 -1.2106 -0.2497 -0.9428
11988SOL    HW238858   8.227   9.739   9.465  0.8890 -0.6638 -0.0014
11989SOL     OW38859   2.873  10.362   0.318 -0.2224  0.2078  0.6656
11989SOL    HW138860   2.901  10.321   0.400  1.5644  1.2829  0.6569
11989SOL    HW238861   2.939  10.429   0.301  0.4839 -1.0909 -2.5277
11990SOL     OW38862   2.863   3.972  10.402 -1.0305  0.1097 -0.1299
11990SOL    HW138863   2.813   4.002  10.326 -0.6897 -0.5633 -0.6278
11990SOL    HW238864   2.954   3.972  10.373 -0.9881 -1.0724 -0.0476
11991SOL     OW38865   1.392   7.868   3.198 -0.0233 -0.7943 -0.3841
11991SOL    HW138866   1.435   7.887   3.282  0.4306 -0.3308 -0.7108
11991SOL    HW238867   1.460   7.886   3.132 -1.0427  1.1649 -0.9922
11992SOL     OW38868   2.581   1.683  10.721 -0.1027 -0.1221 -0.1293
11992SOL    HW138869   2.515   1.649  10.661 -1.4677  2.6257 -0.3489
11992SOL    HW238870   2.532   1.739  10.782  2.0024  2.8096 -0.8613
11993SOL     OW38871  10.750  10.517   8.926 -0.0951  0.0876 -0.9608
11993SOL    HW138872  10.782  10.607   8.921  1.0583 -0.1735  0.6990
11993SOL    HW238873  10.655  10.525   8.922 -0.1158  1.6078  1.0683
11994SOL     OW38874   8.496   6.396   6.777  0.3053  0.0377 -0.3914
11994SOL    HW138875   8.425   6.334   6.760  0.0730 -0.4840  2.1351
11994SOL    HW238876   8.571   6.360   6.730 -0.2777 -1.2205 -0.3945
11995SOL     OW38877  10.132   4.244   1.205  0.2171  0.2783  0.2776
11995SOL    HW138878  10.130   4.162   1.254  0.3996  0.2357  0.2150
11995SOL    HW238879  10.090   4.308   1.263 -3.6541 -0.6551 -1.2198
11996SOL     OW38880   9.034   2.127   0.405  0.2317  0.2657  0.0096
11996SOL    HW138881   8.995   2.140   0.318 -0.3803  2.1794  0.5377
11996SOL    HW238882   9.128   2.144   0.391  0.1472  0.5081 -0.2801
11997SOL     OW38883   1.964   8.310   8.479 -0.3073  0.4204  0.0883
11997SOL    HW138884   1.917   8.392   8.493 -0.0931  0.3353  1.3918
11997SOL    HW238885   1.895   8.244   8.470 -0.4601  0.5856  0.0369
11998SOL     OW38886   6.235   8.712   9.794 -0.0164 -0.4587 -0.2127
11998SOL    HW138887   6.249   8.622   9.765  2.7283  0.1639 -1.1486
11998SOL    HW238888   6.229   8.763   9.714 -1.7452  0.2308  0.3006
11999SOL     OW38889   7.493   4.730   1.419  0.2439 -0.2443 -0.0161
11999SOL    HW138890   7.424   4.768   1.364  0.8378 -2.4140 -2.4316
11999SOL    HW238891   7.569   4.785   1.403 -0.1349  0.4284  0.4061
12000SOL     OW38892   3.645   0.603   6.847 -0.7099 -0.2862  0.0393
12000SOL    HW138893   3.561   0.579   6.887 -0.7891 -1.7528 -0.9273
12000SOL    HW238894   3.705   0.534   6.874 -0.8283 -1.5065 -2.5078
12001SOL     OW38895   5.021   8.658   1.616  0.0269 -0.0030  0.4213
12001SOL    HW138896   4.949   8.707   1.576 -0.1395 -0.4519  0.1762
12001SOL    HW238897   5.097   8.680   1.562  0.4849  1.9295  1.7411
12002SOL     OW38898   2.616   4.814   1.907  0.3624 -0.2083 -0.1174
12002SOL    HW138899   2.540   4.815   1.850 -0.1419 -1.0585  0.5332
12002SOL    HW238900   2.584   4.845   1.992  1.0868  0.9671 -0.2426
12003SOL     OW38901   1.900  10.338   8.372 -0.7970 -0.2151 -0.2721
12003SOL    HW138902   1.829  10.317   8.311 -0.5257  0.0889 -0.6945
12003SOL    HW238903   1.890  10.432   8.390  0.1784  0.0861 -1.2258
12004SOL     OW38904   6.643   7.939   9.192  0.4149  0.0316 -0.0977
12004SOL    HW138905   6.653   7.998   9.268 -3.5676 -2.1145  2.4335
12004SOL    HW238906   6.699   7.865   9.213  0.2190 -0.0434  0.1696
12005SOL     OW38907   1.507   7.930  10.633  0.1437  0.1957 -0.6294
12005SOL    HW138908   1.465   7.998  10.686  0.6068 -0.6681  0.9149
12005SOL    HW238909   1.437   7.898  10.575 -0.1584  1.7409 -1.1577
12006SOL     OW38910   2.234   0.738   2.432  0.3129 -0.6783  0.3475
12006SOL    HW138911   2.180   0.725   2.510 -1.5047 -0.1872 -0.7731
12006SOL    HW238912   2.302   0.800   2.459  0.2140 -1.1357  1.7293
12007SOL     OW38913   8.744   2.865   1.710 -0.2897 -0.4066 -0.0942
12007SOL    HW138914   8.818   2.870   1.770  0.9233  1.0330 -1.5795
12007SOL    HW238915   8.749   2.778   1.671  1.3395  0.0324 -0.9572
12008SOL     OW38916   1.956   1.752   9.308 -0.0180 -0.1987  0.4262
12008SOL    HW138917   2.051   1.760   9.322  0.1305  0.1699 -0.6828
12008SOL    HW238918   1.925   1.698   9.381  1.0378 -0.2820  0.8280
12009SOL     OW38919   5.298   6.626   7.737 -0.0309  0.1626 -0.7364
12009SOL    HW138920   5.226   6.650   7.795 -0.3383 -0.2202 -0.9452
12009SOL    HW238921   5.265   6.550   7.689  0.6305 -0.2030 -0.6220
12010SOL     OW38922   3.722   1.274   2.254 -0.3286 -0.2571 -0.2625
12010SOL    HW138923   3.800   1.220   2.246  0.3910  0.6454  0.4856
12010SOL    HW238924   3.651   1.220   2.219  0.0992 -2.2691  1.7356
12011SOL     OW38925   5.551   9.900   7.878 -0.0015 -0.2498  0.0144
12011SOL    HW138926   5.463   9.888   7.914  0.1769  0.0989  0.5919
12011SOL    HW238927   5.593   9.814   7.886  0.1255 -0.1169  0.9225
12012SOL     OW38928   7.399  10.460   4.609 -0.3195  0.1727  0.4722
12012SOL    HW138929   7.316  10.413   4.617 -0.0177 -0.5266 -0.3755
12012SOL    HW238930   7.375  10.552   4.610 -1.3105 -0.0138 -1.5147
12013SOL     OW38931   1.839   3.965   0.614 -0.3498  0.4531  0.1180
12013SOL    HW138932   1.750   3.988   0.588 -0.0595  0.5105 -0.8582
12013SOL    HW238933   1.855   3.880   0.573  0.1512  0.5862  0.0238
12014SOL     OW38934  10.778   8.002   6.033 -0.0467  0.0901  0.7935
12014SOL    HW138935  10.731   8.081   6.006 -0.0532 -0.4846 -0.9979
12014SOL    HW238936  10.715   7.954   6.087 -0.3001  0.9367  1.2709
12015SOL     OW38937   2.693   5.301   7.704  0.9055 -0.0545  0.0253
12015SOL    HW138938   2.719   5.223   7.655 -0.4690 -0.3365 -0.3161
12015SOL    HW238939   2.721   5.283   7.793  0.6332 -0.9528 -0.0530
12016SOL     OW38940   0.122  10.545   1.538 -0.5310 -0.4085 -0.3413
12016SOL    HW138941   0.039  10.586   1.562 -0.6176 -0.2870 -0.8340
12016SOL    HW238942   0.131  10.473   1.599 -1.4304 -0.9539 -0.8173
12017SOL     OW38943   1.106   1.294   5.178 -0.8716  0.2786 -0.2558
12017SOL    HW138944   1.180   1.239   5.204 -0.0395  1.6571  0.3607
12017SOL    HW238945   1.120   1.309   5.084  1.5662  3.2519  0.4519
12018SOL     OW38946   2.912   4.916  10.385  0.7823 -0.7438 -0.0019
12018SOL    HW138947   2.986   4.868  10.349  0.7109  1.6027 -3.7854
12018SOL    HW238948   2.948   4.967  10.457  2.6627 -0.4793 -1.0773
12019SOL     OW38949   0.319   1.189   1.195 -0.1266  0.0154  0.0058
12019SOL    HW138950   0.272   1.252   1.250 -0.1039 -0.0933  0.1502
12019SOL    HW238951   0.378   1.243   1.142 -2.1511  0.4457 -2.0152
12020SOL     OW38952   6.663   0.296   4.967  0.1099  0.7996  0.0992
12020SOL    HW138953   6.634   0.217   4.921  0.5501  0.9760 -0.5032
12020SOL    HW238954   6.705   0.263   5.046 -1.7086  0.5526  0.9841
12021SOL     OW38955   3.524   4.057   0.914  0.0912 -0.8731 -0.7515
12021SOL    HW138956   3.619   4.073   0.910  0.2197 -0.2469  2.0784
12021SOL    HW238957   3.514   3.967   0.883  1.4718 -0.6395 -1.9984
12022SOL     OW38958   3.119   7.204   1.856 -0.3399  0.3595 -0.0961
12022SOL    HW138959   3.137   7.113   1.833 -0.5441 -0.0734  1.3378
12022SOL    HW238960   3.110   7.249   1.772  2.1953 -0.4376 -0.8941
12023SOL     OW38961   9.886   6.186   6.726  0.1572  0.0940  0.1359
12023SOL    HW138962   9.937   6.184   6.807 -0.4237 -0.8384  0.4998
12023SOL    HW238963   9.798   6.160   6.753  0.2364 -1.4782 -0.9655
12024SOL     OW38964   5.794   0.645   1.002  0.2591 -0.2879 -0.1426
12024SOL    HW138965   5.849   0.602   0.937  0.2619 -0.8085  0.1968
12024SOL    HW238966   5.756   0.720   0.956  0.2574 -0.6513 -0.7392
12025SOL     OW38967   8.978   3.440   3.454 -0.8898  0.0893  0.5631
12025SOL    HW138968   8.895   3.410   3.491 -1.0869 -0.2450 -0.1310
12025SOL    HW238969   9.033   3.361   3.451 -0.1090  0.5277  2.1122
12026SOL     OW38970   2.348   4.059   8.695 -0.0349  0.4131 -0.2826
12026SOL    HW138971   2.324   4.020   8.779  0.0613  1.5698  0.3055
12026SOL    HW238972   2.392   4.141   8.718  1.9079 -0.2401 -1.4186
12027SOL     OW38973   4.927   6.050   5.862  0.4492  0.1648 -0.0564
12027SOL    HW138974   4.992   5.981   5.874  2.2380  1.8527  0.5355
12027SOL    HW238975   4.937   6.077   5.770  1.2825  1.0450  0.2765
12028SOL     OW38976  10.255   9.219   0.774 -0.8676  0.3891 -0.4496
12028SOL    HW138977  10.298   9.235   0.858 -0.7425 -0.5661 -0.3205
12028SOL    HW238978  10.315   9.162   0.726 -1.0354  0.7498 -1.1089
12029SOL     OW38979   2.997  10.055   4.920  0.2632  0.2406 -0.2385
12029SOL    HW138980   3.001  10.149   4.906  1.0644  0.1963 -0.3797
12029SOL    HW238981   2.924  10.042   4.981 -0.6111  0.8387 -1.1224
12030SOL     OW38982   4.318   8.558  10.536  0.1605  0.1081  0.0481
12030SOL    HW138983   4.353   8.469  10.531  1.0449  0.4385  0.2657
12030SOL    HW238984   4.238   8.554  10.484  1.0454 -0.4102 -1.3412
12031SOL     OW38985   8.754   6.277   6.970 -0.0731 -0.0820  0.2416
12031SOL    HW138986   8.661   6.267   6.948 -0.3572  2.3039  0.0639
12031SOL    HW238987   8.771   6.208   7.035 -2.3648  0.2963  1.3584
12032SOL     OW38988   9.253   2.676   2.327  0.5057  0.6958 -0.5392
12032SOL    HW138989   9.246   2.769   2.309  0.1932  0.8546  0.3460
12032SOL    HW238990   9.201   2.663   2.406  2.9075  0.2993  1.0853
12033SOL     OW38991   6.883   8.043   8.654 -0.2222  0.1382  0.1633
12033SOL    HW138992   6.903   7.951   8.674 -2.5598 -0.2112  1.1710
12033SOL    HW238993   6.808   8.039   8.595 -1.1255  1.3743  1.1605
12034SOL     OW38994   1.517   0.691   0.805 -0.3359  0.0572 -0.0736
12034SOL    HW138995   1.525   0.783   0.829 -0.5564  0.2773 -0.8406
12034SOL    HW238996   1.427   0.681   0.777  0.2262  0.1104 -2.0370
12035SOL     OW38997   2.413   0.729   9.509 -0.0669 -0.1851  0.2998
12035SOL    HW138998   2.333   0.713   9.460  0.9465  0.9176 -1.8523
12035SOL    HW238999   2.403   0.818   9.543  0.0436 -0.2182  0.4202
12036SOL     OW39000   6.117   8.664   8.985 -0.4073 -0.5275 -0.5198
12036SOL    HW139001   6.141   8.648   8.894 -2.0639  0.8845 -1.2664
12036SOL    HW239002   6.173   8.737   9.013 -2.6746  1.9014 -1.8465
12037SOL     OW39003   2.778   7.011   6.203 -0.3068 -0.2554  0.6862
12037SOL    HW139004   2.745   6.969   6.283  0.9242 -1.1020  0.7815
12037SOL    HW239005   2.847   7.070   6.233 -0.8291  0.5138  0.3802
12038SOL     OW39006   1.869   4.160   0.013  0.0904  0.4751 -0.1947
12038SOL    HW139007   1.807   4.089  -0.002 -0.3441  0.8199 -0.0534
12038SOL    HW239008   1.814   4.238   0.021  0.3536  0.4826  2.0791
12039SOL     OW39009   0.765   1.780   2.907 -0.0251  0.3361  0.5066
12039SOL    HW139010   0.820   1.761   2.983  1.0855  1.0558 -0.0862
12039SOL    HW239011   0.799   1.863   2.873 -0.9513  0.3767 -0.3720
12040SOL     OW39012   1.245  10.345   6.304 -0.2380  0.2597  0.0497
12040SOL    HW139013   1.272  10.360   6.213  0.2058  0.1481  0.1608
12040SOL    HW239014   1.151  10.331   6.299  0.0592 -1.9052 -0.6737
12041SOL     OW39015   8.943   7.118   7.446 -0.1309 -0.5097  0.2571
12041SOL    HW139016   8.884   7.167   7.389  1.6057  0.8038 -0.5233
12041SOL    HW239017   8.886   7.075   7.510 -1.9199  0.3412 -0.7046
12042SOL     OW39018   9.932   7.594  10.190 -0.2790  0.0615 -0.4130
12042SOL    HW139019   9.969   7.656  10.253  1.7186 -0.0095 -1.4322
12042SOL    HW239020   9.931   7.641  10.107 -0.3654 -0.7123 -0.8617
12043SOL     OW39021   3.415   6.879   0.800  0.8214 -0.7707  0.4488
12043SOL    HW139022   3.388   6.803   0.749  0.8537  0.1928 -1.0828
12043SOL    HW239023   3.509   6.888   0.781  0.6330  0.1573 -0.1191
12044SOL     OW39024   9.162   3.658   3.949 -0.0055  0.3736 -0.0396
12044SOL    HW139025   9.233   3.707   3.909  1.6890 -1.3940  0.6452
12044SOL    HW239026   9.096   3.650   3.880  1.1455  0.7303 -1.2183
12045SOL     OW39027   8.665   6.572   4.738 -0.1581  0.0502 -0.5381
12045SOL    HW139028   8.583   6.526   4.718 -0.1617 -0.0304 -0.3334
12045SOL    HW239029   8.657   6.597   4.830 -0.1692  0.4888 -0.6566
12046SOL     OW39030  10.565   1.000   3.593 -0.1737 -0.4782  0.0731
12046SOL    HW139031  10.505   0.950   3.537 -1.2670 -0.9559  1.6138
12046SOL    HW239032  10.609   1.060   3.533 -0.8911 -1.3498 -1.3837
12047SOL     OW39033   3.883   1.082   9.606 -0.1318 -0.1833 -0.2045
12047SOL    HW139034   3.923   1.158   9.647 -0.1205 -0.5382  0.4643
12047SOL    HW239035   3.855   1.112   9.520  0.2073  0.4711 -0.0875
12048SOL     OW39036   8.610   2.524   3.583  0.2898  0.0788 -0.5618
12048SOL    HW139037   8.687   2.476   3.611 -0.0407 -0.5060 -0.6362
12048SOL    HW239038   8.583   2.573   3.661 -0.4046 -1.2447  0.0762
12049SOL     OW39039   1.168   6.052   0.604  0.0705  0.2984 -0.1638
12049SOL    HW139040   1.173   6.035   0.510  0.9351  0.8469 -0.2277
12049SOL    HW239041   1.174   5.966   0.644 -2.4510 -0.1766 -0.6389
12050SOL     OW39042   5.541   9.396  10.230  0.0802 -0.1459  0.2538
12050SOL    HW139043   5.514   9.380  10.321  1.2808  1.7908  1.0095
12050SOL    HW239044   5.462   9.426  10.187 -0.2058  0.2852  1.0461
12051SOL     OW39045   7.969   9.330   3.480 -0.0893 -0.3070 -1.0979
12051SOL    HW139046   7.953   9.391   3.552  1.2903  0.4444 -1.3913
12051SOL    HW239047   8.063   9.314   3.484 -0.0306 -0.4175 -2.6073
12052SOL     OW39048   8.146   4.351   8.314 -0.0586 -0.1408 -0.5385
12052SOL    HW139049   8.120   4.261   8.332  0.0439 -0.1585 -0.4782
12052SOL    HW239050   8.069   4.403   8.337 -1.2136 -0.4410 -3.3241
12053SOL     OW39051   4.001   3.798   9.783 -0.1671  0.1420 -0.1518
12053SOL    HW139052   4.087   3.775   9.818 -1.0158 -0.9279  1.3520
12053SOL    HW239053   3.985   3.887   9.815  0.3582  0.3379 -0.4167
12054SOL     OW39054   8.724   1.649   1.362  0.1575 -0.5121  0.1289
12054SOL    HW139055   8.764   1.569   1.329  0.3477  0.6689 -2.7719
12054SOL    HW239056   8.677   1.686   1.287 -0.4051  1.8071  1.5081
12055SOL     OW39057   8.236  10.100   6.581 -0.6744  0.1898  0.1927
12055SOL    HW139058   8.288  10.157   6.639 -0.0228 -1.9092  1.8016
12055SOL    HW239059   8.293  10.086   6.505  0.1341 -0.1237  0.8345
12056SOL     OW39060   6.015   7.193   1.885 -0.0849 -0.4254  0.2889
12056SOL    HW139061   6.030   7.221   1.795  1.8081  0.5075  0.8347
12056SOL    HW239062   5.928   7.227   1.907  0.0261  0.5814 -0.7414
12057SOL     OW39063   0.565   7.139   1.933  0.4352 -0.3551  0.0231
12057SOL    HW139064   0.614   7.221   1.937 -1.0755  0.5599  0.4741
12057SOL    HW239065   0.528   7.138   1.844  0.6633 -0.6833 -0.0690
12058SOL     OW39066   4.035   2.412   2.156 -0.3459 -0.4267 -0.1517
12058SOL    HW139067   4.084   2.420   2.074  0.9050  0.4870  0.6361
12058SOL    HW239068   3.966   2.349   2.137 -1.2738  1.1277 -2.4656
12059SOL     OW39069  10.599   9.976   9.023  0.3038 -0.1320  0.3663
12059SOL    HW139070  10.564  10.006   9.107 -1.3747  1.6645 -0.8697
12059SOL    HW239071  10.521   9.958   8.970  1.2871  0.4644 -1.3416
12060SOL     OW39072   6.292   4.488   4.393 -0.2583  0.1571 -0.2047
12060SOL    HW139073   6.362   4.438   4.350 -0.4406 -0.4008  0.1255
12060SOL    HW239074   6.237   4.519   4.321  1.0903  1.8191 -0.5763
12061SOL     OW39075   4.679   8.261  10.516 -0.8283  0.5135 -0.2238
12061SOL    HW139076   4.694   8.356  10.517 -0.6273  0.4833 -0.2728
12061SOL    HW239077   4.610   8.247  10.580 -1.1137  0.7370 -0.4751
12062SOL     OW39078   6.766   3.382   8.660 -0.1405 -0.3472  1.2934
12062SOL    HW139079   6.721   3.415   8.738 -0.9092  1.8973 -0.0129
12062SOL    HW239080   6.698   3.383   8.592  1.4976  2.0472 -0.4599
12063SOL     OW39081   4.048  10.145   1.388 -0.1986  0.0251  0.3933
12063SOL    HW139082   3.975  10.179   1.337 -0.9579 -0.2702  1.2607
12063SOL    HW239083   4.022  10.159   1.479  0.0502 -1.6912  0.7530
12064SOL     OW39084   7.722   9.115   1.154  0.1564 -0.0575 -0.3781
12064SOL    HW139085   7.740   9.188   1.213  1.1446  0.6160 -1.4705
12064SOL    HW239086   7.783   9.047   1.181  0.0515 -0.0457 -0.1104
12065SOL     OW39087   7.144   7.542   2.166  0.4922 -0.1589 -0.2027
12065SOL    HW139088   7.115   7.492   2.089  1.1578 -1.4440  0.3521
12065SOL    HW239089   7.066   7.550   2.220 -0.1335  1.2668 -1.2398
12066SOL     OW39090   9.725   4.217   5.061  0.3646  0.1911 -0.3676
12066SOL    HW139091   9.634   4.243   5.077 -1.1769 -3.2058 -2.5045
12066SOL    HW239092   9.746   4.255   4.976  1.0052  0.9448  0.1091
12067SOL     OW39093   7.813   9.653   4.246 -0.8126  0.0423 -0.2714
12067SOL    HW139094   7.860   9.728   4.280 -0.4219 -0.0214 -0.6670
12067SOL    HW239095   7.846   9.578   4.296 -1.2642  0.1411  0.1817
12068SOL     OW39096   2.656   8.105   5.311  0.3689 -0.8236  0.5396
12068SOL    HW139097   2.714   8.030   5.298  0.6840 -0.3881 -0.7219
12068SOL    HW239098   2.572   8.066   5.338  0.7570 -1.5660  0.7112
12069SOL     OW39099   6.335   8.643   3.714  0.9438 -0.0802 -0.1667
12069SOL    HW139100   6.359   8.562   3.759 -0.2490  0.0386  0.7378
12069SOL    HW239101   6.390   8.710   3.753  1.0263 -0.2425 -0.0024
12070SOL     OW39102  10.390   6.270   6.150 -0.1090  0.3604 -0.1217
12070SOL    HW139103  10.320   6.213   6.183  0.3375 -1.2353 -1.7364
12070SOL    HW239104  10.354   6.358   6.154 -0.9493 -0.0201  2.1957
12071SOL     OW39105   3.885   4.334   3.679 -0.8178  0.0629 -1.0848
12071SOL    HW139106   3.884   4.284   3.598  0.6003  0.3388 -1.2940
12071SOL    HW239107   3.895   4.269   3.748  2.3646  0.0539 -1.4330
12072SOL     OW39108   1.920   9.735   1.815  0.1545  0.3260  0.5010
12072SOL    HW139109   1.910   9.667   1.881  0.7308 -2.0613 -1.7242
12072SOL    HW239110   1.889   9.695   1.734  1.9752  2.1762 -1.2319
12073SOL     OW39111   1.493   3.982   7.478  0.1866  0.1513 -0.2162
12073SOL    HW139112   1.538   4.008   7.559 -1.7204  1.4020  0.5063
12073SOL    HW239113   1.524   4.045   7.413  1.4674 -0.6467 -0.4153
12074SOL     OW39114   8.663   1.182   3.989 -0.1276 -0.5293  0.3721
12074SOL    HW139115   8.668   1.266   4.035 -0.7915 -0.2239 -0.0986
12074SOL    HW239116   8.717   1.123   4.042  0.9851  0.3804  0.2833
12075SOL     OW39117   9.491   6.093   3.594 -0.0514 -0.4784  0.1601
12075SOL    HW139118   9.532   6.040   3.525 -0.1824  0.9760 -1.0866
12075SOL    HW239119   9.400   6.065   3.595 -0.2394  0.0670 -0.8555
12076SOL     OW39120  10.178   3.156   3.180  0.1230 -0.1032  0.1202
12076SOL    HW139121  10.227   3.235   3.204 -2.9520  1.6836  1.1721
12076SOL    HW239122  10.121   3.185   3.108  0.4897 -2.0435 -1.0189
12077SOL     OW39123  10.668   6.680   0.909 -0.6067  0.1639  0.4236
12077SOL    HW139124  10.734   6.728   0.860 -0.0389  0.9423  1.8750
12077SOL    HW239125  10.677   6.589   0.880  0.9556  0.3003  0.4021
12078SOL     OW39126   1.453   7.549   9.050 -0.0423 -0.5561 -1.1294
12078SOL    HW139127   1.453   7.456   9.028 -0.5394 -1.2550  1.5186
12078SOL    HW239128   1.368   7.565   9.091  0.7625  0.5749  0.2168
12079SOL     OW39129   0.863   1.052   9.114  0.4935  0.5272 -0.5205
12079SOL    HW139130   0.807   1.098   9.177 -0.3474 -2.4367  1.0813
12079SOL    HW239131   0.952   1.062   9.149  0.2774  0.5833  0.0219
12080SOL     OW39132   9.186   2.415   7.771  0.0145  0.8483 -0.1737
12080SOL    HW139133   9.250   2.375   7.711 -0.8860  0.1171 -0.6632
12080SOL    HW239134   9.101   2.395   7.732 -0.6549 -0.4769  1.8453
12081SOL     OW39135   2.516   0.789   3.814  0.1846  0.0926  0.1556
12081SOL    HW139136   2.490   0.788   3.722 -1.6046  1.8137  0.5781
12081SOL    HW239137   2.502   0.700   3.844  0.7973 -0.4922 -1.2181
12082SOL     OW39138   9.467   2.154   3.775 -0.4840 -0.2477 -0.2806
12082SOL    HW139139   9.459   2.246   3.750 -1.4521 -0.3996 -0.5798
12082SOL    HW239140   9.514   2.156   3.859 -2.1376  0.6710  0.6860
12083SOL     OW39141   9.888   0.788  10.360  0.3772  0.2049 -0.0913
12083SOL    HW139142   9.874   0.784  10.454  0.8709  1.0291  0.0342
12083SOL    HW239143   9.839   0.865  10.332  1.6392  1.0010 -0.2123
12084SOL     OW39144  10.797   7.529   8.578  0.2100  0.1464 -0.3428
12084SOL    HW139145  10.713   7.575   8.583  0.1744  0.0061  0.4584
12084SOL    HW239146  10.776   7.438   8.596  0.6889  0.3004  1.1423
12085SOL     OW39147  10.153   0.330   7.800  0.3542  0.6690  0.1295
12085SOL    HW139148  10.126   0.246   7.765  1.7506 -0.1741  0.9729
12085SOL    HW239149  10.095   0.345   7.874 -0.3299  0.7850 -0.4223
12086SOL     OW39150   3.322   3.483   8.067 -0.2415 -0.0379 -0.1057
12086SOL    HW139151   3.250   3.467   8.006 -0.4238  0.7404 -0.0995
12086SOL    HW239152   3.297   3.434   8.146 -0.7318  0.1628 -0.1314
12087SOL     OW39153   8.765   0.325   0.507 -0.2937 -0.0015  0.2019
12087SOL    HW139154   8.682   0.369   0.526  0.3088  0.8592  0.8829
12087SOL    HW239155   8.739   0.243   0.466 -1.5637 -0.7350  2.3402
12088SOL     OW39156   8.129   4.028   6.630 -0.3168  0.1155 -0.1876
12088SOL    HW139157   8.039   4.031   6.662 -0.0243  0.9307  0.6076
12088SOL    HW239158   8.163   4.116   6.647  1.1328 -0.6347  1.0224
12089SOL     OW39159   5.477   5.625   4.423  0.5702 -0.5522  0.3321
12089SOL    HW139160   5.486   5.531   4.437 -0.0788 -0.4836  1.3851
12089SOL    HW239161   5.382   5.640   4.431  0.6544  0.1607 -0.0064
12090SOL     OW39162   7.333   6.840   9.967 -0.0760  0.5413 -0.4723
12090SOL    HW139163   7.375   6.755   9.982  0.4902  1.1146  1.4793
12090SOL    HW239164   7.384   6.880   9.897  1.6497  0.5142  0.6931
12091SOL     OW39165   3.624   2.134   1.437 -0.3008 -0.0038  0.0698
12091SOL    HW139166   3.686   2.175   1.497 -0.9847  0.6332  0.3581
12091SOL    HW239167   3.643   2.174   1.352  0.7673 -1.0149 -0.1855
12092SOL     OW39168   5.509   0.506  10.058  0.1686  0.0604 -0.1246
12092SOL    HW139169   5.427   0.457  10.070  0.0935  0.5137  1.4642
12092SOL    HW239170   5.552   0.500  10.143  0.6717  1.8220 -0.2221
12093SOL     OW39171   1.198   5.017  10.336 -0.0296 -0.1471  0.2687
12093SOL    HW139172   1.220   4.990  10.425  0.6944  0.2416  0.2164
12093SOL    HW239173   1.210   5.112  10.336 -0.3699 -0.0994 -0.1547
12094SOL     OW39174   2.270   0.895   0.121  0.6344 -0.3375  0.1461
12094SOL    HW139175   2.365   0.890   0.121  0.6788  0.1293  1.2937
12094SOL    HW239176   2.241   0.806   0.100  1.3175 -0.4971 -0.1300
12095SOL     OW39177   5.138   4.576   4.533  0.3713 -0.4046 -0.3481
12095SOL    HW139178   5.149   4.646   4.598 -1.1111 -1.1898  0.8032
12095SOL    HW239179   5.088   4.509   4.578 -3.0722  0.0905 -3.0145
12096SOL     OW39180   5.112  10.072   8.646  0.0091  0.2779  0.4510
12096SOL    HW139181   5.091   9.981   8.666 -0.5813  0.5070  0.8864
12096SOL    HW239182   5.117  10.114   8.732 -2.6058  1.2929  0.1971
12097SOL     OW39183   1.163   5.666   9.398  0.2167  0.9299  0.1293
12097SOL    HW139184   1.158   5.622   9.483  0.6445  0.6462  0.0108
12097SOL    HW239185   1.073   5.686   9.376 -0.0118 -0.1259  0.0648
12098SOL     OW39186   0.799   8.393   7.701 -0.3658 -0.2586  0.0429
12098SOL    HW139187   0.780   8.342   7.780 -0.2788  0.9441  0.8879
12098SOL    HW239188   0.742   8.470   7.709  0.2275  0.2668 -0.6505
12099SOL     OW39189   4.097   7.810   7.496  0.1865  0.4234 -0.1497
12099SOL    HW139190   4.129   7.881   7.551 -0.4303 -0.8723  1.9992
12099SOL    HW239191   4.140   7.732   7.530 -3.7042 -1.1635  1.7482
12100SOL     OW39192   0.014   4.729   7.312  0.2981  0.2401  0.3678
12100SOL    HW139193  -0.052   4.721   7.381  0.7414  0.7548  0.8628
12100SOL    HW239194   0.013   4.644   7.268 -1.4256  0.5699 -0.3172
12101SOL     OW39195   5.277   5.865   8.562 -0.0161 -0.1178  0.0669
12101SOL    HW139196   5.231   5.823   8.634 -0.6377 -0.2667 -0.4086
12101SOL    HW239197   5.288   5.796   8.497 -0.8573  0.3840 -0.6299
12102SOL     OW39198   6.903   9.823   5.919  0.1498 -0.3384 -0.2257
12102SOL    HW139199   6.809   9.836   5.929  0.3335  0.2829  0.8906
12102SOL    HW239200   6.918   9.732   5.942 -0.0697 -0.1854  0.5706
12103SOL     OW39201   2.801   5.876   9.192  0.1607  0.1470  0.3548
12103SOL    HW139202   2.784   5.874   9.097 -0.6942  1.4283  0.4632
12103SOL    HW239203   2.718   5.849   9.231  0.3019  0.3057  0.7628
12104SOL     OW39204   7.362   5.363   7.154 -0.1844  1.1715 -0.1337
12104SOL    HW139205   7.327   5.442   7.196 -0.5833  0.4325  0.9510
12104SOL    HW239206   7.305   5.293   7.183  0.3197  0.4283 -0.8952
12105SOL     OW39207  10.166   8.129   5.259  0.0853 -0.1608  0.4419
12105SOL    HW139208  10.118   8.197   5.307 -1.7518 -1.9665  1.3138
12105SOL    HW239209  10.153   8.151   5.167  0.4132  1.2391  0.7145
12106SOL     OW39210   3.452   8.473   1.723 -0.6975  0.1147 -0.4511
12106SOL    HW139211   3.477   8.557   1.761 -1.6073 -0.0995  0.6953
12106SOL    HW239212   3.511   8.460   1.650 -0.9028  2.0050 -0.9807
12107SOL     OW39213   7.905   0.001   3.122  0.2595 -0.0504  0.5445
12107SOL    HW139214   7.850   0.011   3.044 -0.8136  0.7264  1.3800
12107SOL    HW239215   7.909  -0.094   3.136 -1.6390 -0.1126  0.9712
12108SOL     OW39216   9.121   2.145   3.322 -0.2259 -0.4917  0.0120
12108SOL    HW139217   9.145   2.189   3.404 -0.1202 -0.8093  0.1530
12108SOL    HW239218   9.201   2.103   3.293 -0.4916 -1.1417  0.2210
12109SOL     OW39219   3.807  10.754   2.134  0.1291  0.3102 -0.2363
12109SOL    HW139220   3.891  10.735   2.175  0.7521 -1.1500 -2.0348
12109SOL    HW239221   3.815  10.845   2.106  0.0798  1.0005  1.8274
12110SOL     OW39222   7.089   1.057   6.509 -0.0944  0.0510  0.2519
12110SOL    HW139223   7.024   1.125   6.491  0.9452  0.9891 -0.1417
12110SOL    HW239224   7.111   1.021   6.423  1.5331  1.3428  0.0654
12111SOL     OW39225   5.116   0.404   1.799  0.7940  0.2628 -0.2398
12111SOL    HW139226   5.085   0.435   1.884  1.9195  0.6601  0.0406
12111SOL    HW239227   5.186   0.342   1.820  0.0586 -0.8144 -0.8530
12112SOL     OW39228   3.870   8.280   7.337 -0.0390 -0.0114  0.4706
12112SOL    HW139229   3.962   8.288   7.362  0.7306  0.1617 -2.1186
12112SOL    HW239230   3.868   8.302   7.244 -2.5713 -0.8597  0.2331
12113SOL     OW39231   8.147   8.339   3.362 -0.8450 -0.3442 -0.5392
12113SOL    HW139232   8.099   8.312   3.284  0.4469 -0.2339 -1.4126
12113SOL    HW239233   8.163   8.258   3.411 -0.1106 -0.6810 -1.3136
12114SOL     OW39234   1.307   9.088   1.528 -0.4565 -0.3603 -0.0684
12114SOL    HW139235   1.307   9.141   1.448  1.4285  0.5377  0.4549
12114SOL    HW239236   1.241   9.129   1.583 -1.6014 -0.8380 -1.0435
12115SOL     OW39237   4.979  10.201   9.737 -0.6162  0.9117 -0.4297
12115SOL    HW139238   5.058  10.166   9.779 -0.5563  0.5680 -0.8193
12115SOL    HW239239   4.993  10.186   9.643 -1.1718  0.7844 -0.4963
12116SOL     OW39240   2.296   2.794   0.498  0.0456  0.1135  0.0443
12116SOL    HW139241   2.365   2.748   0.545 -0.0161  0.8654  0.9084
12116SOL    HW239242   2.215   2.751   0.525  0.0561  0.2004  0.2165
12117SOL     OW39243   8.874   7.937   5.230 -0.2986  0.1500 -0.2131
12117SOL    HW139244   8.923   7.939   5.312  0.4891  0.3778 -0.6811
12117SOL    HW239245   8.804   8.001   5.243  0.3926  0.8864 -0.0725
12118SOL     OW39246   0.754   8.451   0.202 -0.1030  0.2517 -0.2084
12118SOL    HW139247   0.702   8.479   0.127  1.8780 -0.9038 -2.1199
12118SOL    HW239248   0.827   8.512   0.205 -0.7466  1.0059  1.5820
12119SOL     OW39249   4.693   0.388   6.961  0.1586 -0.2364  0.2225
12119SOL    HW139250   4.622   0.447   6.937 -0.9456 -1.4241  0.4571
12119SOL    HW239251   4.664   0.348   7.043 -0.4202 -3.1371 -1.2921
12120SOL     OW39252   4.925   6.782   5.237 -0.5799 -0.2712  0.7110
12120SOL    HW139253   4.858   6.850   5.246 -0.1135  0.2197  0.4756
12120SOL    HW239254   5.005   6.822   5.271 -0.6857 -1.3277  2.3525
12121SOL     OW39255   2.920   1.569   3.332 -0.2424  0.0471  0.6012
12121SOL    HW139256   2.994   1.581   3.272 -0.7053  3.6664  0.5429
12121SOL    HW239257   2.960   1.536   3.412  0.9004 -1.3622 -0.4827
12122SOL     OW39258   6.410   2.385   4.396 -0.3302  0.3608 -0.1074
12122SOL    HW139259   6.340   2.412   4.337 -0.1933  1.3304  0.1557
12122SOL    HW239260   6.365   2.342   4.469 -0.5187 -0.5760 -0.7606
12123SOL     OW39261   9.076   9.838   3.164  0.1304 -0.0557  0.1454
12123SOL    HW139262   9.099   9.763   3.108 -2.0636 -2.6092  2.3480
12123SOL    HW239263   9.043   9.904   3.103  1.2824 -1.2069 -1.8352
12124SOL     OW39264   8.552   6.790  10.490 -0.1641 -0.3307 -0.0302
12124SOL    HW139265   8.485   6.761  10.429  0.1146  0.7612 -0.9055
12124SOL    HW239266   8.587   6.710  10.528 -0.7883 -1.0026 -0.8390
12125SOL     OW39267   7.625   5.957   0.878 -0.2791  0.5749 -0.1590
12125SOL    HW139268   7.682   5.936   0.952  1.4996 -0.2102 -1.6777
12125SOL    HW239269   7.669   6.029   0.833 -1.8273  1.6890  0.0335
12126SOL     OW39270   3.032   4.002   5.934  0.0585  0.3784 -0.0764
12126SOL    HW139271   3.052   3.995   6.027 -1.2269 -1.1652  0.1293
12126SOL    HW239272   3.033   4.096   5.916  0.1213  0.7088  1.5298
12127SOL     OW39273   6.786   8.319   6.248  0.5150 -0.1835 -0.7696
12127SOL    HW139274   6.748   8.391   6.298 -0.4803 -1.8034  0.9300
12127SOL    HW239275   6.780   8.244   6.306 -0.0113 -2.0378 -3.0717
12128SOL     OW39276   9.984   6.343   5.102 -0.0931  0.3325  0.0551
12128SOL    HW139277   9.905   6.397   5.096 -0.0723  0.3538 -0.0292
12128SOL    HW239278  10.056   6.403   5.081 -0.1518  0.0388 -1.0246
12129SOL     OW39279   1.370   6.574   0.715 -0.3556 -0.0362  0.0669
12129SOL    HW139280   1.318   6.639   0.762  0.5554 -0.1762  1.3264
12129SOL    HW239281   1.370   6.497   0.771  1.8538  0.2294  0.5254
12130SOL     OW39282   8.851   9.362   0.038 -0.7781 -0.0934  0.5226
12130SOL    HW139283   8.884   9.317   0.116 -0.0676 -0.3044  0.1080
12130SOL    HW239284   8.904   9.328  -0.034 -0.0122  1.5951  0.2333
12131SOL     OW39285   3.646   2.404   8.483  0.1887 -0.2473  0.1714
12131SOL    HW139286   3.602   2.319   8.478 -0.3007  0.0503 -2.3780
12131SOL    HW239287   3.737   2.385   8.458 -0.3683  0.1422 -2.5319
12132SOL     OW39288   1.101   0.005   8.234  0.0160  0.2467  0.1522
12132SOL    HW139289   1.091   0.061   8.157  1.9606  0.9503  0.3476
12132SOL    HW239290   1.084   0.063   8.308  0.0755  0.0659  0.3081
12133SOL     OW39291   5.996   1.002   5.285  0.0796 -0.0502 -0.6005
12133SOL    HW139292   6.045   0.996   5.367  0.4424  1.5649 -0.6807
12133SOL    HW239293   6.025   0.926   5.235 -2.4194 -2.9801  1.8810
12134SOL     OW39294   6.335  10.029   0.609  0.0224  0.1853 -0.1633
12134SOL    HW139295   6.265  10.061   0.552 -1.1866  2.0317  2.1924
12134SOL    HW239296   6.291   9.970   0.670  0.4761  1.3402  1.3272
12135SOL     OW39297   2.027   3.593   7.952  0.3739 -0.4809 -0.6188
12135SOL    HW139298   2.019   3.618   7.860  0.6561 -0.2031 -0.5704
12135SOL    HW239299   1.992   3.668   8.000  2.4892  0.4536 -0.4259
12136SOL     OW39300   7.379   1.918   8.414  1.0995  0.1927  0.3597
12136SOL    HW139301   7.308   1.925   8.477 -0.2316 -0.1782 -1.0442
12136SOL    HW239302   7.433   1.996   8.429 -1.2702  2.1259 -0.4988
12137SOL     OW39303   3.715   7.911   5.886 -0.5651  0.3567  0.1863
12137SOL    HW139304   3.720   7.887   5.794  0.1842  2.7383 -0.4777
12137SOL    HW239305   3.644   7.857   5.921 -1.1516 -0.3190 -1.8758
12138SOL     OW39306   4.403   5.691   0.556 -0.7458 -0.3705  0.0312
12138SOL    HW139307   4.467   5.684   0.486 -0.2968 -0.6147  0.4541
12138SOL    HW239308   4.453   5.674   0.636 -1.8371 -3.6865  0.1774
12139SOL     OW39309  10.043   5.024  10.413 -0.0953 -0.4555  0.0986
12139SOL    HW139310  10.073   4.933  10.412  1.9231  0.1584  0.7227
12139SOL    HW239311  10.117   5.074  10.448 -1.1041  1.4604 -0.3549
12140SOL     OW39312   2.312   3.182   3.641  0.0835  0.0418 -0.2327
12140SOL    HW139313   2.405   3.200   3.633  0.0620  0.0107 -0.5678
12140SOL    HW239314   2.306   3.117   3.712  0.3312 -0.0935 -0.3362
12141SOL     OW39315  10.214   3.461   9.075 -0.3852  0.5572  0.2803
12141SOL    HW139316  10.223   3.414   8.992  0.6643  0.0094  0.6813
12141SOL    HW239317  10.150   3.409   9.124 -1.3476  1.1261 -0.3257
12142SOL     OW39318   8.728   8.433   2.427 -0.3697 -0.2801  0.1712
12142SOL    HW139319   8.656   8.424   2.490 -0.3749  2.6528  0.7196
12142SOL    HW239320   8.702   8.507   2.372  1.7210  0.0959 -0.3840
12143SOL     OW39321   5.727   5.552   4.908  0.2823 -0.1331  0.0883
12143SOL    HW139322   5.661   5.508   4.962  0.2339  0.6658  0.7004
12143SOL    HW239323   5.683   5.566   4.824 -0.6603  1.1746  0.7686
12144SOL     OW39324   1.495   9.595   2.095  0.3000  0.0175  0.1397
12144SOL    HW139325   1.512   9.617   2.003 -3.1489  1.0211 -0.4068
12144SOL    HW239326   1.471   9.502   2.094  2.7554 -0.6835  0.5125
12145SOL     OW39327   9.302   9.559   1.696 -0.2289 -0.3722 -0.2038
12145SOL    HW139328   9.329   9.629   1.756 -1.3128 -1.3852  1.5622
12145SOL    HW239329   9.346   9.481   1.729  0.2761 -0.7263 -1.6283
12146SOL     OW39330   0.287   1.927   4.140  0.0754  0.4855 -0.0769
12146SOL    HW139331   0.381   1.942   4.148  0.3944 -1.0667 -0.5263
12146SOL    HW239332   0.269   1.944   4.047  0.4090 -1.5210 -0.5516
12147SOL     OW39333  10.379   8.673  10.465 -0.1530  0.0657 -0.3934
12147SOL    HW139334  10.468   8.705  10.448 -0.6717  1.5440 -0.4701
12147SOL    HW239335  10.372   8.669  10.560 -0.8382  2.6310 -0.2463
12148SOL     OW39336   5.867   6.103  10.765  0.2985 -0.4121 -0.7439
12148SOL    HW139337   5.962   6.095  10.762  0.4416  1.0570 -0.8586
12148SOL    HW239338   5.837   6.065  10.683  0.7964 -0.7419 -0.7767
12149SOL     OW39339   1.881   8.472   7.401 -0.0378 -0.0061  0.6890
12149SOL    HW139340   1.835   8.392   7.425  0.5448 -0.3352  0.7179
12149SOL    HW239341   1.824   8.543   7.432 -0.4102 -0.4072  0.9281
12150SOL     OW39342   6.181   8.420   8.508 -0.0142 -0.2351  0.1428
12150SOL    HW139343   6.164   8.453   8.596  0.9151 -0.6873  0.5123
12150SOL    HW239344   6.254   8.474   8.476 -1.9860  1.6927 -1.4004
12151SOL     OW39345   7.388   0.026   9.440 -0.0519 -0.0478 -0.0900
12151SOL    HW139346   7.366  -0.056   9.484 -0.8742  0.5348  0.6078
12151SOL    HW239347   7.373   0.009   9.347  1.6201 -1.2685 -0.1975
12152SOL     OW39348   3.330   7.431  10.353  0.0537 -0.0142 -0.2728
12152SOL    HW139349   3.359   7.381  10.277 -0.7627 -0.2368 -0.4380
12152SOL    HW239350   3.321   7.521  10.321 -2.0960 -0.4191 -0.9438
12153SOL     OW39351   0.568   1.671   7.955 -0.9827  0.2510 -0.1485
12153SOL    HW139352   0.499   1.734   7.939 -0.6027  0.7259  0.0763
12153SOL    HW239353   0.553   1.602   7.890 -4.1112 -1.7637  2.3581
12154SOL     OW39354   2.523   6.693   9.961  0.6516  0.5311 -0.3701
12154SOL    HW139355   2.580   6.734  10.026 -0.4087 -0.0910  0.9961
12154SOL    HW239356   2.436   6.694  10.001  0.2675 -1.3861 -1.0655
12155SOL     OW39357   2.852   1.676   1.462  0.5349  0.3293 -0.1983
12155SOL    HW139358   2.932   1.640   1.422 -0.3045 -1.6798 -0.1760
12155SOL    HW239359   2.826   1.610   1.526 -2.2414 -0.0997 -1.6098
12156SOL     OW39360   6.971   4.581   7.957 -0.2153 -0.4452  0.4515
12156SOL    HW139361   6.936   4.523   8.024 -2.3165  0.1928 -0.0314
12156SOL    HW239362   6.916   4.566   7.880 -0.7762  2.0646  0.2691
12157SOL     OW39363   5.306   2.473   3.627  0.2698 -0.3593  0.2196
12157SOL    HW139364   5.326   2.562   3.597  0.2444 -0.5800 -0.4715
12157SOL    HW239365   5.313   2.478   3.722  0.4315  0.3435  0.1795
12158SOL     OW39366  10.125   6.882   4.225 -0.1414 -0.6228  0.0803
12158SOL    HW139367  10.039   6.872   4.266  1.0885  0.3689  3.2232
12158SOL    HW239368  10.169   6.799   4.242 -0.6792 -1.4945 -2.3590
12159SOL     OW39369   4.876  10.652   1.929 -0.2304  0.5939  0.9591
12159SOL    HW139370   4.904  10.693   2.011  3.5399 -1.2544  0.8246
12159SOL    HW239371   4.890  10.719   1.863  2.8033  0.2684  1.1425
12160SOL     OW39372  10.193   9.578   6.706  0.1332 -0.0569 -0.7691
12160SOL    HW139373  10.144   9.499   6.680 -0.5033 -0.4730  1.4565
12160SOL    HW239374  10.230   9.556   6.792  1.1323  1.5920 -0.7321
12161SOL     OW39375   6.640   8.686   8.944  0.1921  0.1025  0.1249
12161SOL    HW139376   6.727   8.704   8.979  0.1282 -0.2857  0.4839
12161SOL    HW239377   6.596   8.636   9.012  0.2664 -1.1725 -0.7170
12162SOL     OW39378   7.867   9.197   4.330 -0.3210 -0.5556  0.0122
12162SOL    HW139379   7.809   9.178   4.256  0.3013  2.2351 -1.3435
12162SOL    HW239380   7.917   9.116   4.343 -1.2868 -1.5116 -1.8299
12163SOL     OW39381   1.124   7.285   5.708  0.1073  0.0357 -0.2758
12163SOL    HW139382   1.088   7.359   5.757 -0.0137 -0.4485  0.3723
12163SOL    HW239383   1.104   7.305   5.617 -0.2532  0.6229 -0.0740
12164SOL     OW39384   4.518   3.115   9.530  0.3457 -0.0408 -0.1822
12164SOL    HW139385   4.611   3.119   9.554  0.6892 -0.9239 -1.2755
12164SOL    HW239386   4.506   3.187   9.468 -0.8419  3.0880  3.3110
12165SOL     OW39387   6.312   7.230   2.620  0.8219 -0.2210 -0.8358
12165SOL    HW139388   6.350   7.147   2.590 -0.6577 -0.8919 -0.9541
12165SOL    HW239389   6.260   7.260   2.546  1.5696  0.9841 -0.8955
12166SOL     OW39390   2.410   0.985   7.656 -0.2779 -0.3658 -0.3985
12166SOL    HW139391   2.345   1.051   7.633  0.6949  1.4574  1.7064
12166SOL    HW239392   2.359   0.913   7.693 -1.3013 -0.5465 -2.0578
12167SOL     OW39393   6.134   5.641   0.738  1.0119  0.7405 -0.3040
12167SOL    HW139394   6.179   5.640   0.823  1.2393  0.8747 -0.4231
12167SOL    HW239395   6.079   5.719   0.740 -0.7792 -0.4869  0.6530
12168SOL     OW39396   4.305   8.666   7.940 -0.0910  0.2115  0.6067
12168SOL    HW139397   4.399   8.683   7.946 -0.2126  1.0648  0.1647
12168SOL    HW239398   4.299   8.581   7.896  0.4477  0.6586 -0.3535
12169SOL     OW39399   1.580   5.269   2.777  0.1748  0.4245 -0.3086
12169SOL    HW139400   1.616   5.345   2.822 -0.6504  0.6772 -0.0614
12169SOL    HW239401   1.492   5.259   2.813  0.1738 -0.4861 -0.5339
12170SOL     OW39402   7.948   2.144   1.059  0.4309 -0.3820  0.3239
12170SOL    HW139403   7.999   2.150   1.140 -1.3560  0.1593  1.4928
12170SOL    HW239404   7.869   2.097   1.086 -0.2643 -0.0456 -1.0800
12171SOL     OW39405  10.589   2.695   5.256 -0.5938 -1.0487  0.3178
12171SOL    HW139406  10.631   2.657   5.333 -0.5481  0.2266  0.9338
12171SOL    HW239407  10.659   2.745   5.213 -1.1790  0.1402  0.7163
12172SOL     OW39408   8.387  10.258   8.850 -0.2218  0.2462  1.2159
12172SOL    HW139409   8.349  10.345   8.860 -0.3857  0.1610  1.3474
12172SOL    HW239410   8.314  10.198   8.862 -0.0610  0.0820  1.3864
12173SOL     OW39411  10.282   8.471   4.107  0.2870 -0.2552  0.3481
12173SOL    HW139412  10.327   8.488   4.024 -0.4056  0.4800  0.1131
12173SOL    HW239413  10.243   8.384   4.095  1.1371 -0.6405  0.3323
12174SOL     OW39414   3.119   9.409  10.421  0.6594 -0.8625  0.3512
12174SOL    HW139415   3.063   9.479  10.455 -0.9092 -0.3786 -2.9062
12174SOL    HW239416   3.194   9.455  10.384  0.6859 -1.0896  0.1221
12175SOL     OW39417   5.144   5.641   1.364  0.2436 -0.1686  0.2276
12175SOL    HW139418   5.122   5.706   1.297  1.6972 -1.3764 -1.5123
12175SOL    HW239419   5.230   5.667   1.396  0.5531 -0.8571 -0.0211
12176SOL     OW39420   1.078   6.956   5.471  0.8593 -0.1356  0.1518
12176SOL    HW139421   1.071   7.001   5.555 -0.4213  1.7056 -0.8724
12176SOL    HW239422   1.124   7.018   5.414 -0.4677 -0.3005 -1.1500
12177SOL     OW39423   6.234   3.492   4.813 -0.4643  0.2017  0.3986
12177SOL    HW139424   6.313   3.517   4.765 -0.3031 -0.0756  0.5143
12177SOL    HW239425   6.167   3.552   4.782 -0.0949  0.7501  0.6426
12178SOL     OW39426   0.686   2.949   5.773  0.4482  0.1729  0.5324
12178SOL    HW139427   0.765   2.897   5.758 -0.9266 -2.0188  0.5167
12178SOL    HW239428   0.692   3.021   5.709  2.0320 -0.3763  0.0182
12179SOL     OW39429   5.210   6.721   0.005 -0.1187 -0.1307  0.2199
12179SOL    HW139430   5.262   6.706  -0.074 -3.0529  0.4626 -1.9638
12179SOL    HW239431   5.166   6.637   0.021 -1.6885  0.5252 -0.5072
12180SOL     OW39432   1.183   9.873   9.556 -0.5579  0.3098 -0.3802
12180SOL    HW139433   1.232   9.810   9.504 -1.0685  0.5186 -1.1418
12180SOL    HW239434   1.097   9.832   9.569 -0.3266  0.1119  0.6032
12181SOL     OW39435   3.465   5.949   0.864 -0.3506  0.6221 -0.6575
12181SOL    HW139436   3.398   5.883   0.882  0.5437  0.2357  1.6659
12181SOL    HW239437   3.466   6.004   0.943  3.0936 -0.3615  0.1529
12182SOL     OW39438   7.702   1.661   6.284  0.1429  0.3121  0.4225
12182SOL    HW139439   7.657   1.745   6.282 -1.0778 -0.3048  0.8084
12182SOL    HW239440   7.720   1.646   6.377  0.2469  0.1042  0.3687
12183SOL     OW39441   7.964   3.135   7.487 -0.1288  0.0178 -0.3278
12183SOL    HW139442   7.986   3.056   7.537 -0.9230 -0.5775 -0.8793
12183SOL    HW239443   7.895   3.177   7.538 -2.0869 -1.4236 -1.6000
12184SOL     OW39444   0.233   8.440   6.885 -0.1487  0.1178 -0.3923
12184SOL    HW139445   0.315   8.441   6.934 -0.6957 -0.1247  0.5455
12184SOL    HW239446   0.260   8.451   6.794  1.1229 -2.1451 -0.3655
12185SOL     OW39447   0.451   5.224   6.540  0.1890  0.0791 -0.6532
12185SOL    HW139448   0.433   5.234   6.447 -0.0120 -0.6009 -0.6924
12185SOL    HW239449   0.460   5.313   6.572  0.9917  0.2983 -1.4606
12186SOL     OW39450   0.149   0.541   3.153 -0.6992 -0.0906  0.6183
12186SOL    HW139451   0.201   0.526   3.233 -0.8284 -0.3234  0.6618
12186SOL    HW239452   0.060   0.517   3.178 -0.5147 -1.4758  0.0253
12187SOL     OW39453   8.190   9.981   3.516  0.4250 -0.5772  0.6448
12187SOL    HW139454   8.136  10.060   3.519  0.3486 -0.6186  0.3918
12187SOL    HW239455   8.280  10.014   3.511  0.3288 -0.4756 -1.0122
12188SOL     OW39456   0.010   4.548   9.087 -0.4170  0.5309  0.2957
12188SOL    HW139457  -0.056   4.496   9.133 -1.6760  2.4026  0.6976
12188SOL    HW239458   0.056   4.596   9.156  1.7138 -1.0275  0.0684
12189SOL     OW39459   1.740   5.354  10.094  0.4166 -0.6689  0.1264
12189SOL    HW139460   1.700   5.434  10.129  3.1265  0.9033 -0.0605
12189SOL    HW239461   1.716   5.353  10.002 -0.2729 -0.4997  0.3002
12190SOL     OW39462   8.566   4.205   4.167 -0.1678 -0.1745 -0.2055
12190SOL    HW139463   8.477   4.172   4.176 -0.7103  0.8301 -1.6578
12190SOL    HW239464   8.571   4.279   4.228 -1.6348  2.2553 -2.8231
12191SOL     OW39465   8.555   1.165   8.974 -0.1085  0.0238 -0.1578
12191SOL    HW139466   8.510   1.243   9.007 -1.0755 -0.4321 -0.3382
12191SOL    HW239467   8.641   1.168   9.014 -0.1951  1.0894 -0.0222
12192SOL     OW39468   1.892   3.071   9.327  0.2616 -0.4453  0.9129
12192SOL    HW139469   1.900   3.059   9.421  0.8654  0.3012  0.9668
12192SOL    HW239470   1.963   3.131   9.304 -0.7957  0.5891  0.2225
12193SOL     OW39471  10.333   3.549   1.445 -0.4075 -0.1993 -0.1546
12193SOL    HW139472  10.311   3.470   1.394  0.6967 -1.5844  1.3801
12193SOL    HW239473  10.401   3.592   1.392 -1.4993  0.1187 -1.3390
12194SOL     OW39474   2.847   8.935   0.931  0.0666 -0.0380  0.7628
12194SOL    HW139475   2.814   8.853   0.895 -1.8948  0.7708  0.5793
12194SOL    HW239476   2.893   8.976   0.858  2.1210 -1.4434  1.1782
12195SOL     OW39477   2.812   0.576  10.028 -0.2958 -1.0396  0.3098
12195SOL    HW139478   2.820   0.664   9.992 -1.4567 -0.4462  1.4057
12195SOL    HW239479   2.890   0.530   9.997 -1.1382 -0.5862 -2.8132
12196SOL     OW39480   1.235   2.579   1.751 -0.0799 -0.1882  0.3734
12196SOL    HW139481   1.320   2.540   1.732 -0.3660 -0.2674 -0.8306
12196SOL    HW239482   1.211   2.625   1.671 -1.1828 -0.1948  0.6808
12197SOL     OW39483   6.244   9.408   3.634  0.0125 -0.1527 -0.2024
12197SOL    HW139484   6.333   9.443   3.642 -0.5821  1.1944  0.9605
12197SOL    HW239485   6.252   9.316   3.656  0.9673  0.1905  1.0187
12198SOL     OW39486   0.759   9.688   5.922 -0.4365 -0.1925  0.2086
12198SOL    HW139487   0.706   9.723   5.849 -1.0224  0.0134  0.7198
12198SOL    HW239488   0.724   9.600   5.936  0.2021 -0.5271 -0.2627
12199SOL     OW39489   7.309   7.309   6.525  0.1203  0.4304 -0.2692
12199SOL    HW139490   7.346   7.397   6.516 -0.8741  0.7917 -0.8875
12199SOL    HW239491   7.260   7.295   6.444  1.0654 -1.0899 -0.6135
12200SOL     OW39492   1.949   8.323   9.476 -0.0858 -0.5388 -0.3320
12200SOL    HW139493   2.000   8.319   9.557 -1.4045 -2.4239  0.5011
12200SOL    HW239494   1.858   8.331   9.505 -0.4443  0.9173 -1.7133
12201SOL     OW39495   6.081   2.837   7.885 -0.4688  0.1315  0.0272
12201SOL    HW139496   6.013   2.789   7.838 -1.1011  0.6008  0.4585
12201SOL    HW239497   6.050   2.927   7.887  0.4933  0.4825 -0.3626
12202SOL     OW39498   3.141  10.134   1.794  0.4236  0.6241  0.5714
12202SOL    HW139499   3.055  10.149   1.755 -0.7609 -1.4229  2.1626
12202SOL    HW239500   3.203  10.146   1.723 -1.2999  0.7031 -0.9791
12203SOL     OW39501   7.589   7.199  10.677 -0.1273 -0.4798 -0.3190
12203SOL    HW139502   7.672   7.201  10.630  0.0766  0.0674  0.0527
12203SOL    HW239503   7.602   7.257  10.752 -0.9179 -0.2047 -0.3789
12204SOL     OW39504   1.461   0.461   8.104 -0.6518 -0.3802  0.1050
12204SOL    HW139505   1.511   0.454   8.185 -0.7814 -1.7928  0.0914
12204SOL    HW239506   1.461   0.372   8.067 -0.4081  0.2742 -1.5647
12205SOL     OW39507   0.251  10.225   4.136  0.0771 -0.2139  0.6662
12205SOL    HW139508   0.336  10.247   4.097 -0.4403  0.9747  0.1741
12205SOL    HW239509   0.191  10.221   4.062 -0.1356 -2.1155  0.8757
12206SOL     OW39510   2.674   0.930   3.292 -0.1870 -0.1834 -0.2401
12206SOL    HW139511   2.602   0.992   3.302 -0.3909 -0.1354 -1.8113
12206SOL    HW239512   2.697   0.906   3.382 -2.3566 -0.4361  0.3166
12207SOL     OW39513   7.516   7.643   5.037  0.5223 -0.3052 -0.2959
12207SOL    HW139514   7.449   7.594   4.990 -0.8192  0.2490  0.9607
12207SOL    HW239515   7.554   7.579   5.098 -0.3009 -0.1319  0.4134
12208SOL     OW39516   0.415  10.758   4.063  0.0455 -0.3184  0.6226
12208SOL    HW139517   0.489  10.759   4.002 -0.6188 -0.6886 -0.1991
12208SOL    HW239518   0.417  10.844   4.104 -0.5020  0.5727 -1.1395
12209SOL     OW39519   3.930   1.379  10.389 -0.1453 -0.6036  0.3318
12209SOL    HW139520   3.950   1.342  10.474  1.6295 -2.0735 -0.6703
12209SOL    HW239521   4.014   1.405  10.352 -0.8349 -0.2038 -1.0684
12210SOL     OW39522   4.651   0.805  10.531 -0.1276  0.2292  0.2843
12210SOL    HW139523   4.662   0.730  10.588  0.5498  0.7964  0.9258
12210SOL    HW239524   4.736   0.848  10.530  0.0993 -0.1607 -1.7598
12211SOL     OW39525   5.068   8.369   7.707 -0.2093 -0.6291  0.3517
12211SOL    HW139526   5.125   8.353   7.783 -1.8477  0.9140  2.0264
12211SOL    HW239527   5.026   8.285   7.691  1.4015 -1.4071  0.0345
12212SOL     OW39528   5.764   6.815   8.153  0.0933  0.3287 -0.4728
12212SOL    HW139529   5.806   6.804   8.239  0.4780  0.2642 -0.6631
12212SOL    HW239530   5.788   6.903   8.126 -0.2478  0.4426 -0.3960
12213SOL     OW39531   8.283   7.443   6.836 -0.3589  0.0894  0.1047
12213SOL    HW139532   8.359   7.486   6.876 -0.5859  0.6983 -0.1040
12213SOL    HW239533   8.310   7.423   6.747 -0.9264  1.7039 -0.4797
12214SOL     OW39534   9.027   5.678   6.734  0.6425  0.3799 -0.1584
12214SOL    HW139535   9.016   5.763   6.692 -1.8437  0.5944  0.7362
12214SOL    HW239536   9.108   5.686   6.785  0.9016  1.9067 -0.7636
12215SOL     OW39537   5.727   0.157   2.947 -0.4867 -0.4944 -0.0115
12215SOL    HW139538   5.776   0.207   3.012 -1.0364 -1.0373  0.8622
12215SOL    HW239539   5.641   0.200   2.944 -0.7615 -1.0040  0.3039
12216SOL     OW39540   2.049   1.459  10.266 -0.3940 -0.1410 -0.8939
12216SOL    HW139541   2.005   1.391  10.319 -0.1346  0.5429  0.2269
12216SOL    HW239542   2.057   1.419  10.179 -1.6236 -0.9677 -0.6681
12217SOL     OW39543   3.732   2.825   3.761 -0.1679 -0.1314 -0.2001
12217SOL    HW139544   3.753   2.811   3.668 -2.6768 -0.3322 -0.8088
12217SOL    HW239545   3.802   2.779   3.808  0.8525 -0.5240 -1.9778
12218SOL     OW39546   3.799   7.076   5.356 -0.2866  0.1362 -0.5032
12218SOL    HW139547   3.839   7.005   5.408  2.6917  1.7212 -0.3686
12218SOL    HW239548   3.713   7.089   5.396  0.0794 -1.7377  1.0865
12219SOL     OW39549   7.372   5.249   0.579  0.7463 -0.3712  0.0071
12219SOL    HW139550   7.444   5.207   0.532  1.1240  0.6502 -0.3588
12219SOL    HW239551   7.409   5.331   0.612  0.5079 -1.0520  2.1512
12220SOL     OW39552   2.690   0.915   9.587 -0.2620 -0.5022  0.1835
12220SOL    HW139553   2.603   0.937   9.553  0.6823  1.0065 -1.4031
12220SOL    HW239554   2.751   0.947   9.521  1.5498 -0.8962  1.5754
12221SOL     OW39555   8.315   9.721   5.042  0.1949 -0.4447  0.2216
12221SOL    HW139556   8.248   9.767   5.092 -0.4541 -0.6654 -0.4331
12221SOL    HW239557   8.389   9.713   5.102  0.5806  2.0169  0.1774
12222SOL     OW39558   8.089   4.078   8.338 -0.5071 -0.1585  0.3806
12222SOL    HW139559   8.133   4.036   8.264 -1.7070  0.3856 -0.6789
12222SOL    HW239560   8.011   4.026   8.353 -0.2154 -0.3425  1.3852
12223SOL     OW39561   3.770   2.231   4.983  0.5381  0.4210 -0.5485
12223SOL    HW139562   3.811   2.170   5.045 -0.9398  0.0668  0.1140
12223SOL    HW239563   3.746   2.307   5.036  0.5389  0.7242 -0.9794
12224SOL     OW39564   6.127   5.827   1.310 -0.0616  0.0399  0.2131
12224SOL    HW139565   6.075   5.866   1.240 -1.0115 -0.6017  0.5362
12224SOL    HW239566   6.218   5.841   1.283 -0.4041 -0.1014 -1.0905
12225SOL     OW39567   8.881   7.706   6.455 -0.1163  0.1037 -0.0974
12225SOL    HW139568   8.904   7.748   6.538 -2.8771 -0.6553  1.1819
12225SOL    HW239569   8.813   7.643   6.479  0.0514 -1.2046 -2.7544
12226SOL     OW39570   4.785   5.414   2.508  0.4476  0.4754 -0.1326
12226SOL    HW139571   4.755   5.445   2.423 -1.7282 -1.6334 -0.2420
12226SOL    HW239572   4.727   5.456   2.571 -0.3122 -0.6873 -0.0258
12227SOL     OW39573   5.264   7.787   8.386  0.3027 -0.2588  0.0045
12227SOL    HW139574   5.335   7.743   8.340  0.2771 -0.1757 -0.1186
12227SOL    HW239575   5.306   7.861   8.430 -0.1154  1.7890 -2.7035
12228SOL     OW39576   4.424   0.013   6.860  0.6839  0.1111  0.1904
12228SOL    HW139577   4.375   0.047   6.785 -1.0529 -0.7936  0.8535
12228SOL    HW239578   4.398   0.070   6.932 -0.3452 -1.0762  0.7947
12229SOL     OW39579   0.427   3.810  10.576 -0.0886 -0.1151  0.0252
12229SOL    HW139580   0.348   3.771  10.612  0.3928  0.3591  1.7077
12229SOL    HW239581   0.473   3.738  10.533 -1.5446 -0.3336 -1.2239
12230SOL     OW39582   5.305   9.446   7.083 -0.3284 -0.1951  1.0269
12230SOL    HW139583   5.349   9.496   7.152 -3.1122  0.9669  2.1364
12230SOL    HW239584   5.317   9.498   7.004  0.4731 -0.0218  1.2553
12231SOL     OW39585   0.333   4.231   3.227  0.0201 -0.5363 -0.5209
12231SOL    HW139586   0.268   4.209   3.160  1.0769  0.9025 -2.1009
12231SOL    HW239587   0.281   4.246   3.306 -1.4545 -0.6295 -1.4264
12232SOL     OW39588   1.567   8.015   2.170 -0.3105 -0.4521 -0.3954
12232SOL    HW139589   1.584   7.979   2.083  1.5141 -0.8012  0.0668
12232SOL    HW239590   1.580   8.109   2.160  2.2255 -0.7067 -0.0523
12233SOL     OW39591   2.631   8.186   9.896  0.5594 -0.1412 -0.5395
12233SOL    HW139592   2.559   8.183   9.833  1.9415  0.1303 -2.1894
12233SOL    HW239593   2.685   8.260   9.868  0.2212  1.2601  2.1328
12234SOL     OW39594   3.561   2.939   4.701  0.0442  0.4562  0.1138
12234SOL    HW139595   3.531   3.000   4.768 -1.1609 -1.4316  1.4005
12234SOL    HW239596   3.549   2.852   4.740  0.8916 -0.6671 -1.9311
12235SOL     OW39597   2.147   9.913   4.359  0.4443 -0.1111  0.4144
12235SOL    HW139598   2.097   9.965   4.296  1.5578  1.6357  0.9104
12235SOL    HW239599   2.180   9.839   4.308 -2.2369 -1.1259 -0.0204
12236SOL     OW39600   4.227   8.194   8.712 -0.1346 -0.2285  0.3150
12236SOL    HW139601   4.300   8.159   8.764  0.8183 -0.9616 -1.4366
12236SOL    HW239602   4.241   8.288   8.711  0.5919 -0.3334  0.2882
12237SOL     OW39603   8.939   4.239   0.329 -0.1386  0.2075 -0.6477
12237SOL    HW139604   8.871   4.192   0.280  0.0184 -1.0989  0.3423
12237SOL    HW239605   8.900   4.258   0.414  0.6300 -0.3345 -0.1544
12238SOL     OW39606   0.909  10.532   0.930  0.1925  0.2572  0.6512
12238SOL    HW139607   0.832  10.526   0.986  0.1311 -0.9460  0.4561
12238SOL    HW239608   0.930  10.441   0.908  1.4088  0.5989  0.3481
12239SOL     OW39609   3.392   2.704  10.698  0.2009 -0.2398  0.2032
12239SOL    HW139610   3.304   2.673  10.718 -0.4725  0.8732 -0.8866
12239SOL    HW239611   3.402   2.690  10.604  1.3982 -0.8118  0.3926
12240SOL     OW39612   8.581   2.412   0.985  1.0800  0.2487  0.0243
12240SOL    HW139613   8.559   2.415   0.892 -0.5995  2.4672  0.4230
12240SOL    HW239614   8.555   2.497   1.019  1.5483 -0.5344  2.5720
12241SOL     OW39615   7.930   5.351   2.128  0.7880  0.3744 -0.0237
12241SOL    HW139616   7.893   5.321   2.046  1.7242 -0.5518 -0.1350
12241SOL    HW239617   8.024   5.333   2.120  0.9088  0.3511  1.2049
12242SOL     OW39618   2.981   5.742   1.900 -0.5487  0.1405 -0.3106
12242SOL    HW139619   2.914   5.799   1.938  0.7150  1.1919  0.3935
12242SOL    HW239620   2.989   5.772   1.810 -0.1121  0.8826 -0.0302
12243SOL     OW39621   6.521   6.226   8.405 -0.1158 -0.1512  0.1029
12243SOL    HW139622   6.463   6.162   8.447 -2.6569  1.8187 -0.1526
12243SOL    HW239623   6.565   6.177   8.336 -2.7072 -1.4948 -0.7421
12244SOL     OW39624   6.476   8.454   9.579  0.5063 -0.4705  0.3504
12244SOL    HW139625   6.382   8.451   9.594  0.4795 -1.4669  0.1084
12244SOL    HW239626   6.508   8.369   9.611  1.4690  0.2526  1.3617
12245SOL     OW39627   0.111   4.941   5.519 -0.5355  0.2462 -0.3210
12245SOL    HW139628   0.117   5.036   5.511  0.2947  0.2862  0.5353
12245SOL    HW239629   0.019   4.921   5.506 -0.9468  1.3111  0.7819
12246SOL     OW39630  10.138   6.696   6.371  0.7671  0.4389 -0.3065
12246SOL    HW139631  10.107   6.780   6.337 -1.2647  0.4653  1.4004
12246SOL    HW239632  10.094   6.631   6.316 -0.3053  0.5095  0.4280
12247SOL     OW39633   2.904   8.115  10.629 -0.7690 -0.5680 -0.4355
12247SOL    HW139634   2.928   8.022  10.627  1.9572 -0.0011  0.3861
12247SOL    HW239635   2.812   8.118  10.605 -1.6619 -3.7151  2.0220
12248SOL     OW39636   2.459   6.681   9.680 -0.0015  0.1290  0.8731
12248SOL    HW139637   2.455   6.702   9.773 -1.9619 -0.5000  0.9802
12248SOL    HW239638   2.486   6.762   9.637  0.0751  0.6628  1.9157
12249SOL     OW39639   6.485   5.313  10.320 -0.0011  0.6151  0.4037
12249SOL    HW139640   6.405   5.303  10.372 -0.9141  0.2163 -1.0314
12249SOL    HW239641   6.464   5.275  10.235  2.2318 -0.9193  0.4570
12250SOL     OW39642   1.244  10.308   8.995  0.4905  0.2949  0.1177
12250SOL    HW139643   1.240  10.390   8.947  1.4326  0.5729  0.4786
12250SOL    HW239644   1.257  10.334   9.087  0.5710 -0.2466  0.2670
12251SOL     OW39645   0.069   5.952   6.569 -0.4631  0.0501 -0.7636
12251SOL    HW139646   0.146   5.925   6.619 -0.9543  0.2108  0.0931
12251SOL    HW239647   0.105   6.004   6.496  0.2833 -0.5293 -0.8227
12252SOL     OW39648   6.629   1.074   1.310  0.4309  0.3744  0.4154
12252SOL    HW139649   6.618   1.080   1.405  1.9533  1.3148  0.5563
12252SOL    HW239650   6.699   1.009   1.298  0.4248  0.4496 -0.0605
12253SOL     OW39651   3.248   5.772   0.201 -0.2542  0.6896  0.6674
12253SOL    HW139652   3.189   5.711   0.157 -0.1597  0.7514  0.4508
12253SOL    HW239653   3.259   5.736   0.289  2.4237 -1.4752 -0.3964
12254SOL     OW39654   1.687  10.564   6.377 -0.0323  0.0183 -0.0807
12254SOL    HW139655   1.615  10.627   6.379  1.0649  1.3241 -0.2370
12254SOL    HW239656   1.726  10.574   6.291  0.7256 -0.2238  0.2276
12255SOL     OW39657   8.213   1.978   7.960  0.2575  0.5419  0.0169
12255SOL    HW139658   8.285   1.981   8.024  1.7032  0.1989 -1.5199
12255SOL    HW239659   8.143   2.028   8.000  1.5008  1.2250  1.4198
12256SOL     OW39660  10.198   3.012  10.757  0.1347  0.7184  0.1139
12256SOL    HW139661  10.232   2.929  10.721 -0.4774  0.4426  0.1630
12256SOL    HW239662  10.149   3.051  10.685 -1.1020  0.1609  0.6278
12257SOL     OW39663   3.721   2.976   8.883 -0.1581  0.6391 -0.6649
12257SOL    HW139664   3.758   3.044   8.826  2.4856  0.5751  0.7874
12257SOL    HW239665   3.795   2.918   8.902 -1.3881 -0.4204  1.2582
12258SOL     OW39666   6.238   3.804   1.529 -0.0968  0.3309 -0.2542
12258SOL    HW139667   6.204   3.888   1.499 -0.3295  0.5795  0.6921
12258SOL    HW239668   6.320   3.792   1.480 -0.1452  1.0200 -0.5100
12259SOL     OW39669   1.444   9.904   6.585  1.2461  0.3032  0.2078
12259SOL    HW139670   1.502   9.979   6.576 -0.2146  1.4214 -0.4371
12259SOL    HW239671   1.466   9.847   6.511  0.7646  1.2827 -0.7192
12260SOL     OW39672   2.009   8.755   6.225  0.6953 -0.2589 -0.0630
12260SOL    HW139673   2.023   8.661   6.223 -0.6789 -0.5135 -2.6843
12260SOL    HW239674   1.917   8.765   6.249  0.6856  0.3804 -0.3450
12261SOL     OW39675   2.542   1.300   2.038  0.6738  0.0066 -0.3613
12261SOL    HW139676   2.583   1.312   2.123  0.3850 -2.1120  0.1418
12261SOL    HW239677   2.518   1.388   2.009  0.9263  0.7766  1.6630
12262SOL     OW39678  10.122   0.837   7.789  0.0860 -0.3927  0.1890
12262SOL    HW139679  10.196   0.868   7.738  1.5580 -0.7964  1.9807
12262SOL    HW239680  10.069   0.787   7.727 -0.0185  1.8689 -1.7040
12263SOL     OW39681   8.262   9.951  10.626  0.6698  0.2174  0.5145
12263SOL    HW139682   8.307  10.032  10.602  0.1948  0.2034 -0.4631
12263SOL    HW239683   8.171   9.965  10.599  0.5412 -0.5584  0.5210
12264SOL     OW39684  10.253   3.948  10.398  0.3145  0.8751  0.1352
12264SOL    HW139685  10.175   3.973  10.349 -0.3674 -0.0955  0.7077
12264SOL    HW239686  10.221   3.920  10.483  1.1514 -0.6969 -0.0277
12265SOL     OW39687  10.648   0.954   0.025 -0.2337  0.5032  0.2571
12265SOL    HW139688  10.699   0.975   0.103 -0.4598 -0.0915  0.5725
12265SOL    HW239689  10.558   0.949   0.056 -0.4051  0.8747 -0.1675
12266SOL     OW39690   7.627   7.353   3.863  0.4874  0.2191  0.1874
12266SOL    HW139691   7.592   7.271   3.897 -0.8673  0.1703 -1.1938
12266SOL    HW239692   7.719   7.335   3.847  0.2400 -1.0061  0.0215
12267SOL     OW39693   6.903  10.277   3.861 -0.0162 -0.3117 -0.0458
12267SOL    HW139694   6.997  10.284   3.874  0.1216 -0.2039 -1.0015
12267SOL    HW239695   6.887  10.184   3.842 -0.2734 -0.5537  1.2839
12268SOL     OW39696   6.660   4.948   2.409  0.0582 -0.7935  0.1315
12268SOL    HW139697   6.624   4.898   2.483  0.7958 -0.6055  0.6236
12268SOL    HW239698   6.611   5.030   2.410  0.7530 -0.3722  1.0490
12269SOL     OW39699   3.646   6.161   0.297 -0.0065 -0.3627  0.2272
12269SOL    HW139700   3.615   6.148   0.386  0.3458 -0.6126  0.3162
12269SOL    HW239701   3.711   6.091   0.283 -1.7523 -1.8164 -1.0506
12270SOL     OW39702   5.903   2.862   0.864  0.5132 -0.3618 -1.1109
12270SOL    HW139703   5.833   2.820   0.813 -1.3608 -1.0050  1.7595
12270SOL    HW239704   5.969   2.793   0.873 -0.7494 -1.4864  0.1985
12271SOL     OW39705   9.606   2.628   4.082 -0.3017  0.4773  0.4067
12271SOL    HW139706   9.653   2.700   4.124  1.2792 -0.0743 -0.3521
12271SOL    HW239707   9.608   2.650   3.988  1.1817 -1.0805  0.0395
12272SOL     OW39708   5.252   3.387   4.783 -0.5112  0.2119 -0.6342
12272SOL    HW139709   5.237   3.304   4.739  2.4961  0.0298 -1.5199
12272SOL    HW239710   5.241   3.453   4.715 -0.3963  0.3138 -0.5557
12273SOL     OW39711   9.469   1.857   6.798  0.2794 -0.1615 -0.9198
12273SOL    HW139712   9.418   1.811   6.731 -0.0594  0.5989 -1.1919
12273SOL    HW239713   9.414   1.932   6.822 -0.1762 -1.0561  1.0828
12274SOL     OW39714   8.722   6.423   4.478  0.1834 -0.5724  0.2794
12274SOL    HW139715   8.633   6.453   4.458 -0.2125 -2.1531 -0.4932
12274SOL    HW239716   8.748   6.475   4.554 -0.5878  1.3827 -0.7108
12275SOL     OW39717   8.750   5.896  10.757  0.6613 -0.0796 -0.0738
12275SOL    HW139718   8.777   5.843  10.831 -1.4336  0.4138  1.1204
12275SOL    HW239719   8.733   5.983  10.794 -2.4916 -0.3532 -0.6248
12276SOL     OW39720   7.663   6.064   5.108 -0.1560 -0.2742  0.1024
12276SOL    HW139721   7.590   6.026   5.156  0.1650  0.7767  1.4879
12276SOL    HW239722   7.740   6.047   5.163  0.8896 -2.3124 -1.8312
12277SOL     OW39723   6.862   2.630   0.080  0.0117 -0.0149  0.3407
12277SOL    HW139724   6.815   2.559   0.035 -2.4299  1.3413  0.5670
12277SOL    HW239725   6.894   2.685   0.009  4.1571 -2.4459  0.0129
12278SOL     OW39726   2.810   2.113   5.607  0.3464  0.2253 -0.1054
12278SOL    HW139727   2.760   2.194   5.599  1.5614  1.0530  0.3776
12278SOL    HW239728   2.899   2.141   5.626  0.7686 -1.2384  0.2392
12279SOL     OW39729   1.216   3.566   1.119 -0.2976 -0.1660  0.3892
12279SOL    HW139730   1.180   3.493   1.068 -0.8584  0.1074  0.3848
12279SOL    HW239731   1.164   3.568   1.199 -1.1199  0.9763 -0.1335
12280SOL     OW39732   5.971   3.154   4.697  0.1034 -0.2530  0.5335
12280SOL    HW139733   5.922   3.236   4.693 -0.6270 -0.6762  0.7046
12280SOL    HW239734   6.047   3.168   4.640 -1.5777 -0.5269 -1.9147
12281SOL     OW39735   9.818   2.181   8.178  0.2345 -0.5440  0.1115
12281SOL    HW139736   9.887   2.214   8.121  0.4592  0.2807  0.8315
12281SOL    HW239737   9.738   2.223   8.147  0.3118 -0.3057  0.2332
12282SOL     OW39738   7.089   3.652   5.275 -0.2190  0.6640  0.4899
12282SOL    HW139739   7.052   3.728   5.232 -0.9877 -0.2977 -0.6297
12282SOL    HW239740   7.134   3.604   5.205 -0.7685 -0.5072  0.9069
12283SOL     OW39741   1.738   7.597   2.323 -0.0772  0.1235 -0.2907
12283SOL    HW139742   1.765   7.602   2.415 -0.6164 -0.9365 -0.0717
12283SOL    HW239743   1.806   7.646   2.276  0.9690 -0.5151  0.5199
12284SOL     OW39744   5.444   9.610   3.335 -0.1730 -0.3043  0.2624
12284SOL    HW139745   5.489   9.583   3.415 -0.3073 -1.3323  0.0085
12284SOL    HW239746   5.513   9.610   3.268 -0.5781 -2.2622 -0.2097
12285SOL     OW39747   0.705   4.497  10.463 -0.2043  0.4554 -0.0382
12285SOL    HW139748   0.639   4.430  10.479 -0.7732  0.1408 -3.0327
12285SOL    HW239749   0.742   4.474  10.377  1.5449  2.4410  0.0982
12286SOL     OW39750   9.621   9.606   8.261  0.1009  0.3972  0.2519
12286SOL    HW139751   9.560   9.675   8.234 -0.9717  0.2458  2.0912
12286SOL    HW239752   9.696   9.652   8.298  0.7168  0.5703 -1.1422
12287SOL     OW39753   6.730   9.330   4.694  1.0671 -0.0068  0.1380
12287SOL    HW139754   6.733   9.240   4.725  1.3819 -0.2089 -0.4547
12287SOL    HW239755   6.817   9.365   4.710  1.1591 -0.0362 -0.2831
12288SOL     OW39756   9.321   3.790   1.741  0.0224  0.3699  0.4046
12288SOL    HW139757   9.395   3.828   1.695 -1.4070  1.2593 -1.2895
12288SOL    HW239758   9.271   3.744   1.673 -1.2913  0.3041  1.3616
12289SOL     OW39759   7.567   4.379   9.973  0.7263 -0.4594  0.0285
12289SOL    HW139760   7.534   4.353  10.059 -2.2242  2.1864 -0.1070
12289SOL    HW239761   7.532   4.314   9.913  0.5749 -0.8725  0.5578
12290SOL     OW39762   0.373   8.039   7.498 -0.1087  0.0767  0.3082
12290SOL    HW139763   0.373   7.944   7.510  0.6766 -0.3616 -2.5359
12290SOL    HW239764   0.285   8.059   7.465  0.2561  0.0652 -0.7005
12291SOL     OW39765   5.254   1.257   7.633 -0.0365  0.1686  0.1451
12291SOL    HW139766   5.200   1.184   7.663 -0.1921  0.1956 -0.0704
12291SOL    HW239767   5.304   1.284   7.711  0.3645 -0.4647  0.1101
12292SOL     OW39768   7.537   4.967   4.229 -0.3768  0.8067 -0.2112
12292SOL    HW139769   7.605   4.901   4.237  0.4869  1.3555 -2.2878
12292SOL    HW239770   7.556   5.030   4.298  0.6798  0.4847 -0.1933
12293SOL     OW39771   1.718   3.758   3.421 -0.0579  0.4541  0.2545
12293SOL    HW139772   1.706   3.734   3.513 -1.3862  0.2188  0.0530
12293SOL    HW239773   1.743   3.676   3.378 -0.0015  0.4391  0.3158
12294SOL     OW39774   2.081   2.514   2.416 -0.4804 -0.0351 -0.3173
12294SOL    HW139775   2.038   2.468   2.488  1.1559 -2.6329 -0.8663
12294SOL    HW239776   2.064   2.459   2.339 -2.9593  3.0874 -2.2897
12295SOL     OW39777   8.948   8.696   4.533  0.3575 -0.5659 -0.2220
12295SOL    HW139778   8.904   8.781   4.525 -1.9764 -1.7444 -0.6291
12295SOL    HW239779   8.900   8.638   4.475  2.6801 -1.9259 -0.8942
12296SOL     OW39780   2.694   8.894   6.732 -0.5819 -0.4286 -0.3585
12296SOL    HW139781   2.745   8.940   6.665 -0.2646 -2.4005 -1.5529
12296SOL    HW239782   2.761   8.858   6.791 -0.7518 -0.5372 -0.2332
12297SOL     OW39783   0.035   2.440   7.700 -0.0887  0.0155  0.2146
12297SOL    HW139784  -0.038   2.383   7.723 -0.6018  0.4761 -0.2355
12297SOL    HW239785   0.022   2.459   7.607  0.8894 -0.2991 -0.0007
12298SOL     OW39786   8.643   2.086   6.868 -0.0160 -1.2180 -0.5888
12298SOL    HW139787   8.687   2.119   6.946 -0.7106 -2.5307  0.3990
12298SOL    HW239788   8.698   2.015   6.837  0.5455 -0.3583 -1.6599
12299SOL     OW39789   8.526  10.077   5.643  0.2722 -0.1160 -0.4387
12299SOL    HW139790   8.554  10.136   5.573  0.4543 -1.3417 -1.4319
12299SOL    HW239791   8.433  10.062   5.626  0.2330 -0.1382 -0.2079
12300SOL     OW39792   4.030   2.559   9.813  0.3894 -0.4611 -0.1150
12300SOL    HW139793   4.109   2.587   9.768  0.6211 -3.6907 -1.9843
12300SOL    HW239794   4.026   2.464   9.800 -2.8098 -0.7028  1.5122
12301SOL     OW39795   6.919   8.803   6.854  0.0689 -0.3382 -0.1842
12301SOL    HW139796   6.874   8.754   6.923 -0.1318  1.2941  0.8867
12301SOL    HW239797   6.861   8.797   6.779 -0.6688 -0.4633  0.3833
12302SOL     OW39798   9.066   8.710   4.136 -0.5069 -0.5076  0.0234
12302SOL    HW139799   9.063   8.621   4.172 -0.7933 -1.3257 -1.8731
12302SOL    HW239800   9.142   8.708   4.076  0.6536  1.1266  1.3435
12303SOL     OW39801   5.524   6.926   6.929 -0.1692  0.3481 -0.1438
12303SOL    HW139802   5.579   7.000   6.905  1.0492 -0.6360 -0.5337
12303SOL    HW239803   5.460   6.961   6.990  0.6473  1.6243  0.0021
12304SOL     OW39804   1.852   4.165   4.960  0.3746 -0.2924 -0.1725
12304SOL    HW139805   1.841   4.120   5.043 -1.8650  0.3503 -0.0557
12304SOL    HW239806   1.900   4.245   4.981 -0.8630  0.2571  0.6918
12305SOL     OW39807   2.706   4.645  10.449  0.1540  0.0828  0.5096
12305SOL    HW139808   2.797   4.634  10.422  0.2990  0.0861  0.9923
12305SOL    HW239809   2.664   4.562  10.425  1.0631 -1.3842  3.3991
12306SOL     OW39810   0.786   0.707   3.551 -0.9414  0.4216  0.4189
12306SOL    HW139811   0.805   0.621   3.513  2.0039  0.8469  0.6218
12306SOL    HW239812   0.731   0.751   3.487  0.7135 -0.2702 -1.5917
12307SOL     OW39813   4.301   6.217   1.580 -0.1013 -0.4814 -0.2477
12307SOL    HW139814   4.304   6.203   1.486  1.9409  0.9002 -0.4538
12307SOL    HW239815   4.211   6.243   1.598 -0.2831  0.2041 -1.9773
12308SOL     OW39816   0.868   9.115   2.512  0.2391  0.1843  0.4219
12308SOL    HW139817   0.897   9.160   2.433 -1.3832  0.4833 -0.0495
12308SOL    HW239818   0.943   9.121   2.572  1.7667 -0.7007 -1.3152
12309SOL     OW39819   8.558   4.185   9.126 -0.2146  0.0383 -0.3797
12309SOL    HW139820   8.487   4.211   9.066  0.8225 -0.0629 -1.6954
12309SOL    HW239821   8.607   4.119   9.077  0.7898  0.1051  0.5068
12310SOL     OW39822   3.100   3.843   8.167  0.2258  0.7863 -0.2736
12310SOL    HW139823   3.010   3.830   8.137  0.3095  0.8408 -0.5520
12310SOL    HW239824   3.133   3.914   8.111  0.4869  0.6665 -0.2704
12311SOL     OW39825   8.611   2.710   7.628 -0.3325 -0.3610 -0.2509
12311SOL    HW139826   8.523   2.693   7.662 -0.2790  0.0927  0.1293
12311SOL    HW239827   8.670   2.663   7.688 -0.2467  0.3256  0.2150
12312SOL     OW39828   3.367   9.082   3.740 -0.3494  0.3724  0.5949
12312SOL    HW139829   3.371   9.143   3.814  1.1717  0.8165  0.1849
12312SOL    HW239830   3.443   9.105   3.686  0.6597 -2.2603  0.7332
12313SOL     OW39831   6.670  10.179   7.918  0.3653  0.1349  0.2240
12313SOL    HW139832   6.594  10.196   7.863 -0.1321 -3.1688 -0.3639
12313SOL    HW239833   6.635  10.177   8.007 -0.4242 -1.7572 -0.0726
12314SOL     OW39834   2.903   8.511   5.918  0.3816 -0.0095 -0.1769
12314SOL    HW139835   2.825   8.566   5.910  0.4830  0.1778  0.1279
12314SOL    HW239836   2.876   8.440   5.976  0.0163 -0.7078 -1.1748
12315SOL     OW39837  10.789   4.255   8.037  0.0533 -0.1822  0.2962
12315SOL    HW139838  10.878   4.274   8.010 -0.1000  0.9037  0.5062
12315SOL    HW239839  10.791   4.164   8.067  0.5370 -0.9961 -1.9856
12316SOL     OW39840   2.455   7.988   4.324  0.8413 -1.0615 -0.1323
12316SOL    HW139841   2.422   7.905   4.289 -0.7371 -0.5737  0.1516
12316SOL    HW239842   2.393   8.012   4.393  1.1035  0.4952 -0.3953
12317SOL     OW39843   2.059   6.620   9.900 -0.1698  0.0045 -0.0265
12317SOL    HW139844   2.083   6.528   9.902  1.2489  0.3647  0.7029
12317SOL    HW239845   2.088   6.650   9.814  1.3274  0.2306  0.5218
12318SOL     OW39846   8.680   0.502   6.315 -0.1216 -0.5145  0.2206
12318SOL    HW139847   8.697   0.511   6.221  1.1564  0.9137  0.5515
12318SOL    HW239848   8.606   0.561   6.332 -0.6997 -1.1757  0.0332
12319SOL     OW39849   8.340   2.019   7.454  0.1434  0.5107  0.0246
12319SOL    HW139850   8.370   2.101   7.493  0.9392 -0.4032  1.3943
12319SOL    HW239851   8.338   1.957   7.526 -2.4644 -0.1921 -0.5453
12320SOL     OW39852   0.501   6.422   3.163 -0.2513  0.7877 -0.4047
12320SOL    HW139853   0.493   6.512   3.130 -0.2948  1.0195  0.2221
12320SOL    HW239854   0.501   6.432   3.259 -1.3840  0.0215 -0.3114
12321SOL     OW39855   6.493   1.547   8.538 -0.1089 -0.0512 -0.4928
12321SOL    HW139856   6.471   1.455   8.521  0.3652 -0.1340 -0.6746
12321SOL    HW239857   6.408   1.592   8.540 -0.2828 -0.2931 -1.5980
12322SOL     OW39858  10.024   1.714   2.041 -0.4187  0.1089  0.1974
12322SOL    HW139859  10.076   1.758   2.108 -0.5246 -0.3727  0.6001
12322SOL    HW239860  10.017   1.778   1.970  1.7500 -0.2486 -0.3827
12323SOL     OW39861   6.770   3.600   7.573  0.4770  0.0929 -0.2516
12323SOL    HW139862   6.732   3.516   7.599  0.8797 -0.6699 -1.9405
12323SOL    HW239863   6.858   3.600   7.612  1.1458 -1.1089 -1.6473
12324SOL     OW39864   5.920   5.144   7.326 -0.6988  0.2387 -0.5109
12324SOL    HW139865   5.952   5.233   7.342 -1.8930  0.3243  1.6705
12324SOL    HW239866   5.863   5.153   7.249 -0.7080  1.3314 -0.3973
12325SOL     OW39867  10.785   3.321   1.537  0.5569 -0.3308 -0.0563
12325SOL    HW139868  10.759   3.329   1.629  1.1834  1.2913  0.0094
12325SOL    HW239869  10.702   3.311   1.490  0.2003 -0.6789  0.6212
12326SOL     OW39870   5.021   9.050   5.127  0.4010 -0.2138 -0.0842
12326SOL    HW139871   5.039   8.957   5.114 -0.1406 -0.4662  0.8714
12326SOL    HW239872   5.036   9.065   5.220  1.9580  1.0061 -0.4907
12327SOL     OW39873  10.729   1.688   5.603  0.2484 -0.1049 -0.3277
12327SOL    HW139874  10.670   1.711   5.674 -1.0803 -0.8506 -1.1578
12327SOL    HW239875  10.682   1.712   5.524  0.5334 -1.7982 -1.0571
12328SOL     OW39876   9.541   0.184   2.121 -0.4904 -0.2239 -0.5457
12328SOL    HW139877   9.541   0.089   2.106  0.6686 -0.1393 -1.1690
12328SOL    HW239878   9.610   0.198   2.186 -3.6146 -0.2636  3.1414
12329SOL     OW39879   7.325   3.759   8.001  0.5211 -0.4281  0.0152
12329SOL    HW139880   7.352   3.804   8.081  1.0093  0.8135 -0.8040
12329SOL    HW239881   7.250   3.809   7.970  0.6269 -0.6068 -0.5412
12330SOL     OW39882   1.643   9.808   7.781  0.4794 -0.3626  0.0154
12330SOL    HW139883   1.703   9.827   7.853  1.7675 -1.6748 -0.6588
12330SOL    HW239884   1.700   9.783   7.708 -0.8696 -1.3176 -0.7571
12331SOL     OW39885  10.022   2.437   8.363 -0.7980  0.1049 -0.4490
12331SOL    HW139886  10.104   2.448   8.411 -0.1937 -1.5670 -1.0421
12331SOL    HW239887   9.955   2.432   8.431  0.1406 -3.1765  0.4222
12332SOL     OW39888   2.451   7.367   1.909 -0.0256  0.0828 -0.0627
12332SOL    HW139889   2.403   7.303   1.961  0.8030  0.1774  0.8466
12332SOL    HW239890   2.542   7.357   1.936  0.1564  1.4905 -0.0569
12333SOL     OW39891   7.712   1.370  10.218 -0.7175  0.1602  0.1157
12333SOL    HW139892   7.698   1.445  10.161 -2.0331 -1.1114 -1.3343
12333SOL    HW239893   7.624   1.348  10.251 -0.4019 -0.8585  0.3241
12334SOL     OW39894   1.867   0.568   8.814 -0.4806 -0.1797 -0.3101
12334SOL    HW139895   1.959   0.569   8.841 -0.5908 -0.4481  0.0860
12334SOL    HW239896   1.832   0.652   8.844 -0.1182  0.3606 -1.3605
12335SOL     OW39897   2.936   4.642   6.182 -0.0654 -0.4752 -0.5055
12335SOL    HW139898   2.846   4.669   6.167 -0.3844 -0.2698  1.4898
12335SOL    HW239899   2.987   4.723   6.170 -0.6753  0.4647  2.3827
12336SOL     OW39900  10.434   0.342   8.115 -0.2516 -0.1673  0.5147
12336SOL    HW139901  10.466   0.287   8.044 -2.0821 -0.3451 -0.2323
12336SOL    HW239902  10.464   0.430   8.093 -4.3806  0.7127 -3.0878
12337SOL     OW39903   0.453   5.494   8.643  0.5436  0.4089  0.3825
12337SOL    HW139904   0.547   5.482   8.632  0.6811 -0.2591  1.9466
12337SOL    HW239905   0.426   5.421   8.698 -0.5131  1.6440  1.5902
12338SOL     OW39906  10.129   5.424   7.621 -0.1000 -0.4668 -0.0368
12338SOL    HW139907  10.181   5.405   7.699  0.8882 -0.5189 -0.6925
12338SOL    HW239908  10.179   5.491   7.575 -0.1771 -1.1220 -1.1066
12339SOL     OW39909   5.044   0.308   3.022 -0.0012  0.3686  0.6717
12339SOL    HW139910   5.096   0.286   2.945 -0.6390 -0.9568  0.5942
12339SOL    HW239911   5.108   0.345   3.084  0.4139  2.0451 -0.6767
12340SOL     OW39912   7.092   9.887   9.667 -0.4685  0.3128  0.0021
12340SOL    HW139913   7.056   9.805   9.702  0.1943  0.8375  2.0898
12340SOL    HW239914   7.061   9.891   9.577 -4.0670 -0.1790  1.0580
12341SOL     OW39915   7.766  10.087   2.284  0.8779 -0.2023 -0.1170
12341SOL    HW139916   7.793  10.027   2.215  0.9081 -0.9567  0.5353
12341SOL    HW239917   7.793  10.044   2.366 -0.4771 -0.0342  0.4497
12342SOL     OW39918   7.613   9.983   0.372 -0.1774  0.0975  0.3903
12342SOL    HW139919   7.534   9.988   0.425 -0.7268  0.8291 -0.4694
12342SOL    HW239920   7.603  10.054   0.308  1.1319  0.1437  0.2191
12343SOL     OW39921   0.858   7.002   8.268  0.7512 -1.1874 -0.4589
12343SOL    HW139922   0.913   7.014   8.346 -2.0106  1.5790  1.3141
12343SOL    HW239923   0.903   7.052   8.200 -0.1160  2.4403  1.3821
12344SOL     OW39924   8.841   0.977   1.118  0.5508  0.5024 -0.2031
12344SOL    HW139925   8.933   0.962   1.093  0.1428  0.6666 -1.9510
12344SOL    HW239926   8.810   0.891   1.146  0.2925 -0.4518 -3.0505
12345SOL     OW39927   9.576   1.515   9.683 -0.3550  0.5243  0.3370
12345SOL    HW139928   9.537   1.495   9.598  1.2836  0.1113 -0.3670
12345SOL    HW239929   9.539   1.600   9.707 -1.8715  0.0248 -0.1143
12346SOL     OW39930   8.322   2.157   3.105 -0.0867 -0.1963 -0.0405
12346SOL    HW139931   8.415   2.135   3.092  0.0198  1.3460 -2.5076
12346SOL    HW239932   8.276   2.074   3.090  0.8290 -0.9810  1.2059
12347SOL     OW39933   8.507   3.745   7.175 -0.0966  0.4081  0.2818
12347SOL    HW139934   8.492   3.700   7.259  0.4840 -1.1255 -0.4021
12347SOL    HW239935   8.573   3.811   7.195  1.3973 -1.1444  0.6971
12348SOL     OW39936   7.696   0.757   8.610 -0.3819  0.3186 -0.2472
12348SOL    HW139937   7.777   0.706   8.612 -0.2299  0.5699  0.1296
12348SOL    HW239938   7.660   0.749   8.698  0.7414  2.5922  0.4835
12349SOL     OW39939   0.779   9.060   4.203  0.2886  0.4187 -0.2653
12349SOL    HW139940   0.691   9.072   4.168  0.5053 -2.1493 -2.0110
12349SOL    HW239941   0.835   9.055   4.125  1.2722 -2.3376  0.4962
12350SOL     OW39942   2.555   8.576   3.935  0.1803  0.0759  0.4592
12350SOL    HW139943   2.610   8.612   3.865  0.3972  0.0533  0.6186
12350SOL    HW239944   2.593   8.491   3.954 -0.1075 -0.0822  0.3429
12351SOL     OW39945   3.571   0.906   3.518  0.1269 -0.3092  0.1772
12351SOL    HW139946   3.640   0.970   3.533 -1.4349  1.2640  0.9304
12351SOL    HW239947   3.518   0.944   3.447  1.3605 -2.6597 -2.2035
12352SOL     OW39948   8.297   5.374   9.763 -0.1077  0.2906 -0.2499
12352SOL    HW139949   8.292   5.398   9.856  0.5628 -0.3254 -0.0439
12352SOL    HW239950   8.368   5.310   9.759 -0.8094 -0.4544 -1.0277
12353SOL     OW39951   6.377   9.643   2.695  0.0510 -0.4278 -0.5650
12353SOL    HW139952   6.378   9.561   2.744 -0.3535  0.4792  1.0094
12353SOL    HW239953   6.427   9.624   2.615  1.6127 -1.6529  0.6559
12354SOL     OW39954   0.676   1.385   2.812 -0.1593  0.0203 -0.1048
12354SOL    HW139955   0.612   1.340   2.867 -0.4444 -0.8760 -1.1377
12354SOL    HW239956   0.760   1.365   2.853 -0.4512  0.4706  0.7503
12355SOL     OW39957   1.238   3.550   9.817 -0.1539  0.0897  0.3213
12355SOL    HW139958   1.220   3.642   9.836  0.0348 -0.1637  1.8807
12355SOL    HW239959   1.303   3.524   9.882 -0.3861 -1.2140  0.0691
12356SOL     OW39960   0.308   8.194   3.991 -0.7535  0.2392 -0.2609
12356SOL    HW139961   0.350   8.119   3.948 -2.9512 -2.3466  1.8076
12356SOL    HW239962   0.372   8.265   3.982  1.7008 -1.9840 -1.8305
12357SOL     OW39963   1.050   1.836   2.331 -0.4855 -0.2562 -0.0964
12357SOL    HW139964   0.956   1.823   2.320 -0.3330 -0.6941 -1.0445
12357SOL    HW239965   1.065   1.828   2.425 -1.5104  0.6858  0.1601
12358SOL     OW39966   9.936   5.802   6.980  0.0666  0.1159  0.4569
12358SOL    HW139967  10.006   5.828   6.920  0.1117 -1.4694 -0.2074
12358SOL    HW239968   9.982   5.776   7.060  0.0179  2.0252  1.1628
12359SOL     OW39969   8.981   0.420   5.081  0.7000 -0.6229 -0.8885
12359SOL    HW139970   8.994   0.484   5.011 -1.2452 -0.3243 -1.0396
12359SOL    HW239971   8.915   0.360   5.046 -1.4578  0.3824  1.1396
12360SOL     OW39972   9.337   0.110   4.661 -0.7700 -0.0825 -0.2396
12360SOL    HW139973   9.308   0.154   4.581  1.6578  1.5442 -0.3403
12360SOL    HW239974   9.395   0.040   4.630 -1.3136 -0.6742  0.0597
12361SOL     OW39975   5.924  10.789   8.211  0.4163 -0.2362 -0.7225
12361SOL    HW139976   5.941  10.704   8.252 -0.2393 -0.6455 -1.2567
12361SOL    HW239977   5.930  10.852   8.282  3.1470 -0.4110 -0.6944
12362SOL     OW39978   1.060   8.438   6.869 -0.2243  0.1294 -0.2798
12362SOL    HW139979   1.112   8.358   6.866  2.2366  1.6359 -1.3936
12362SOL    HW239980   1.026   8.442   6.958  3.0513 -0.1456  1.0980
12363SOL     OW39981  10.127   7.368   6.697  0.3542  0.0396  0.2172
12363SOL    HW139982  10.192   7.375   6.767  0.4577  0.7322  0.0560
12363SOL    HW239983  10.081   7.452   6.698  1.7364  0.8886 -1.8876
12364SOL     OW39984   3.262   9.558   4.142 -0.1640  0.5856 -0.0295
12364SOL    HW139985   3.340   9.517   4.179 -0.5147  0.4670  0.5919
12364SOL    HW239986   3.206   9.484   4.118 -0.9142  0.6815  1.3432
12365SOL     OW39987   4.257   5.610   1.033 -0.1559 -0.8586  0.6595
12365SOL    HW139988   4.279   5.690   0.987 -0.5874 -1.0078  0.1851
12365SOL    HW239989   4.182   5.633   1.088 -1.3975 -1.3325 -0.7550
12366SOL     OW39990   9.479   1.102   7.373  0.6632 -0.0390 -0.4732
12366SOL    HW139991   9.480   1.020   7.324  1.2832  0.2711 -1.0008
12366SOL    HW239992   9.423   1.160   7.321  0.8044  0.0923 -0.4790
12367SOL     OW39993   3.565   9.991   3.478  0.5300 -0.1145 -0.6075
12367SOL    HW139994   3.584  10.070   3.428  1.7391  0.1729  0.2421
12367SOL    HW239995   3.626   9.995   3.552  0.0259 -1.4176 -0.0959
12368SOL     OW39996   7.755   0.849   7.401  0.8158 -0.1764  0.2022
12368SOL    HW139997   7.778   0.929   7.449  1.1117 -0.0432 -0.1521
12368SOL    HW239998   7.746   0.782   7.468  0.0428  0.2672  0.5585
12369SOL     OW39999   8.859   1.830   1.519 -0.7486  0.0973  0.1669
12369SOL    HW140000   8.837   1.910   1.471  0.0246 -0.8800 -1.9204
12369SOL    HW240001   8.838   1.759   1.458  1.4493 -1.1435  0.7715
12370SOL     OW40002   6.265   0.869   7.858 -0.2769  0.0918  0.1592
12370SOL    HW140003   6.180   0.889   7.820  0.0618 -0.2786 -0.8254
12370SOL    HW240004   6.312   0.952   7.861  0.5211 -0.2005 -2.3771
12371SOL     OW40005   2.404   2.143   9.554 -0.0121 -0.2094 -0.0120
12371SOL    HW140006   2.375   2.199   9.625  0.4590 -0.3825  0.3299
12371SOL    HW240007   2.479   2.095   9.591  2.3826  2.0553 -1.6018
12372SOL     OW40008   7.452   2.382   3.970 -0.6966  0.0153 -0.6066
12372SOL    HW140009   7.376   2.412   4.020  0.5514  0.4972  1.1039
12372SOL    HW240010   7.459   2.289   3.992 -0.4510  0.1102 -0.2690
12373SOL     OW40011   6.391   0.904   2.133  0.0190  0.0483 -0.0603
12373SOL    HW140012   6.308   0.951   2.124 -0.4973 -0.9944 -1.0010
12373SOL    HW240013   6.404   0.897   2.227 -0.7068  0.6653  0.0980
12374SOL     OW40014   0.136   0.238   8.667  0.3394  0.0233 -0.7845
12374SOL    HW140015   0.073   0.267   8.601 -0.6286 -0.2963 -0.0256
12374SOL    HW240016   0.182   0.165   8.625  0.2011  0.2543 -1.3462
12375SOL     OW40017   7.661   8.800  10.773 -0.1694  0.3314 -0.4789
12375SOL    HW140018   7.579   8.836  10.740 -0.7176 -0.9612 -0.6155
12375SOL    HW240019   7.706   8.768  10.695 -1.0839 -1.9621 -0.1690
12376SOL     OW40020   0.614   4.700   1.640  0.4048 -0.5836 -0.1730
12376SOL    HW140021   0.556   4.760   1.594  1.3802  0.5210  0.0034
12376SOL    HW240022   0.558   4.657   1.705 -0.5991 -0.8845 -1.2134
12377SOL     OW40023   8.142   5.024   4.017 -0.6988 -0.2615  0.2219
12377SOL    HW140024   8.089   5.011   4.097 -1.6645 -1.1327 -0.5230
12377SOL    HW240025   8.231   5.004   4.045 -0.8416  0.5477  1.3483
12378SOL     OW40026   9.583   7.222   2.693  0.0344 -0.0625  0.3202
12378SOL    HW140027   9.579   7.268   2.777 -0.1800 -0.1974  0.3825
12378SOL    HW240028   9.654   7.159   2.704 -1.3339 -1.5297  1.1273
12379SOL     OW40029   1.845   7.371   7.820 -0.3145 -0.0635  0.1667
12379SOL    HW140030   1.772   7.430   7.837 -1.0086 -1.0448  0.6890
12379SOL    HW240031   1.914   7.400   7.879 -1.0065 -0.4035  1.1604
12380SOL     OW40032   4.151   6.717   4.413 -0.3295 -0.1774  0.0836
12380SOL    HW140033   4.210   6.688   4.344 -0.3951 -0.9736  0.3591
12380SOL    HW240034   4.082   6.765   4.366  0.4392  0.6207 -0.2511
12381SOL     OW40035   9.603   2.921   5.622  0.1329 -0.1055 -0.2855
12381SOL    HW140036   9.680   2.875   5.654 -0.5108 -1.2541 -0.3220
12381SOL    HW240037   9.637   2.985   5.560  1.0067 -1.1550 -0.9287
12382SOL     OW40038   8.209  10.061   8.912  0.3054 -0.5061  0.1985
12382SOL    HW140039   8.143  10.057   8.981 -0.4269 -1.0060 -0.4954
12382SOL    HW240040   8.255   9.978   8.918  1.5659  0.2388  1.3109
12383SOL     OW40041   5.944   4.565   8.096  0.4762 -0.2759  0.1086
12383SOL    HW140042   6.027   4.523   8.117  0.4479 -0.2986  0.1779
12383SOL    HW240043   5.958   4.658   8.114  0.0877 -0.4442  1.4191
12384SOL     OW40044   2.563   8.643   9.855 -0.0838  0.2987  0.0983
12384SOL    HW140045   2.504   8.717   9.868  0.1896  0.1980  2.2650
12384SOL    HW240046   2.650   8.678   9.878  0.1473 -0.4987  0.4795
12385SOL     OW40047   0.111   0.973   5.654  0.1866 -0.7016  0.0075
12385SOL    HW140048   0.150   1.025   5.725  0.0417 -0.6674  0.0638
12385SOL    HW240049   0.155   1.003   5.575 -1.3435  1.0283 -0.2628
12386SOL     OW40050   7.252   4.669   0.928  0.7707  0.0930 -0.0830
12386SOL    HW140051   7.345   4.692   0.933  0.5282  1.0700  0.0658
12386SOL    HW240052   7.221   4.671   1.018  0.1313  1.8691 -0.3029
12387SOL     OW40053   1.542   0.877   4.669 -0.2089  0.2587  0.7147
12387SOL    HW140054   1.483   0.850   4.739 -1.3011 -1.0494 -0.6466
12387SOL    HW240055   1.602   0.938   4.711 -1.4032  0.2485  2.5638
12388SOL     OW40056   0.996   3.731  10.483  0.1336 -0.0664 -0.4563
12388SOL    HW140057   0.907   3.756  10.460 -0.7140 -1.8299  0.7219
12388SOL    HW240058   0.992   3.709  10.576  2.0506  0.8211 -0.1136
12389SOL     OW40059   9.663   5.122   2.422 -0.3613  0.0418  0.3926
12389SOL    HW140060   9.597   5.059   2.451  0.9765 -0.7942  1.7748
12389SOL    HW240061   9.676   5.102   2.329 -1.0322 -0.7148  0.4481
12390SOL     OW40062   4.640   1.231   2.842  0.2575 -0.7245  0.0367
12390SOL    HW140063   4.707   1.181   2.889  0.0360 -0.7274  0.3557
12390SOL    HW240064   4.583   1.164   2.804 -1.6301 -0.7907  2.7236
12391SOL     OW40065  10.292   3.049   6.532  0.2320 -0.1513 -0.6358
12391SOL    HW140066  10.378   3.019   6.561  1.3592  1.5973 -1.9481
12391SOL    HW240067  10.232   2.979   6.557  1.7617 -0.7158  1.7825
12392SOL     OW40068   8.005   0.949   8.314  0.3169 -0.3579  0.7507
12392SOL    HW140069   7.936   0.894   8.352 -0.6097  0.3841  0.1854
12392SOL    HW240070   8.047   0.893   8.249 -0.5346 -0.4684  0.2692
12393SOL     OW40071   3.876   6.599   1.354  0.0297  0.1136 -0.2128
12393SOL    HW140072   3.835   6.646   1.426 -0.3387  1.0453 -0.9972
12393SOL    HW240073   3.810   6.536   1.325 -0.2803  0.5725 -0.5079
12394SOL     OW40074   2.215   6.229   0.327 -0.1404 -0.6081 -0.1452
12394SOL    HW140075   2.133   6.199   0.366  0.3372 -2.2147 -0.3168
12394SOL    HW240076   2.196   6.318   0.296 -1.1361 -0.0679  1.8539
12395SOL     OW40077   0.754   0.101   8.043 -0.0948  0.7147 -0.6795
12395SOL    HW140078   0.791   0.189   8.046 -1.7557  1.4045  1.4209
12395SOL    HW240079   0.662   0.114   8.020 -0.3985 -0.4512 -0.1968
12396SOL     OW40080   1.974   0.243   2.470 -0.1269 -0.2372  0.1765
12396SOL    HW140081   2.036   0.248   2.397 -1.0310  1.5469 -0.5319
12396SOL    HW240082   2.025   0.268   2.547  0.3268  0.0248 -0.2026
12397SOL     OW40083   3.326   0.274   7.416  0.3783 -0.4068 -0.2326
12397SOL    HW140084   3.343   0.211   7.486  1.0527  0.0855  0.0587
12397SOL    HW240085   3.326   0.221   7.336  0.8165 -0.8006  0.0198
12398SOL     OW40086   2.078  10.056   6.333  0.3817  0.5044 -0.2060
12398SOL    HW140087   2.124  10.035   6.252  1.6668  1.2013  0.3213
12398SOL    HW240088   1.999  10.001   6.330  0.8148 -0.1001 -1.5202
12399SOL     OW40089   8.507   0.383   1.905 -0.5584  0.5532 -0.2662
12399SOL    HW140090   8.523   0.463   1.955  1.5227  0.1153 -0.1230
12399SOL    HW240091   8.491   0.316   1.972 -0.9902  0.5904 -0.3308
12400SOL     OW40092   8.270   0.545   3.495 -0.4305 -0.0178 -0.2028
12400SOL    HW140093   8.257   0.475   3.560 -0.5357  0.1739 -0.0179
12400SOL    HW240094   8.278   0.625   3.546 -0.0968  0.0799 -0.4044
12401SOL     OW40095   5.548   0.064   5.456  0.2092 -0.4136  0.0682
12401SOL    HW140096   5.453   0.076   5.461  0.2004 -0.2295 -0.4855
12401SOL    HW240097   5.570   0.018   5.537  0.0490  2.0095  1.5709
12402SOL     OW40098  10.760   0.187   6.907 -0.0174  0.3161  0.0020
12402SOL    HW140099  10.720   0.202   6.822 -0.4984 -0.0189  0.1668
12402SOL    HW240100  10.800   0.100   6.899 -0.8066 -0.0951  0.3890
12403SOL     OW40101   9.303   0.875   9.776  0.0123  0.7099  0.0700
12403SOL    HW140102   9.369   0.812   9.748  0.8596  1.4893  0.2580
12403SOL    HW240103   9.270   0.913   9.694  0.4402  0.9614  0.0154
12404SOL     OW40104   3.121   1.897   9.741 -0.3944 -0.2694  0.1768
12404SOL    HW140105   3.142   1.806   9.719  0.0342 -0.6603  2.0406
12404SOL    HW240106   3.190   1.924   9.802 -0.3068  1.4537 -0.6164
12405SOL     OW40107   7.257   2.541   5.416  0.5321  0.4213 -0.0683
12405SOL    HW140108   7.333   2.492   5.446  1.3768  1.0130 -1.1440
12405SOL    HW240109   7.193   2.474   5.390  0.6781 -0.0771  0.8371
12406SOL     OW40110   6.480  10.474   5.813 -0.5959  0.3022  0.0266
12406SOL    HW140111   6.386  10.490   5.818 -0.6640 -0.3378  1.4195
12406SOL    HW240112   6.516  10.553   5.773 -2.0562 -0.9632 -4.2796
12407SOL     OW40113   2.372   7.639   9.635 -0.2037 -0.1199  0.3709
12407SOL    HW140114   2.385   7.675   9.722  0.9370 -1.0961  0.6324
12407SOL    HW240115   2.449   7.666   9.586 -1.2186  1.1210 -0.6117
12408SOL     OW40116  10.636   4.469   9.278  0.0681 -0.0478  0.2706
12408SOL    HW140117  10.619   4.551   9.324  1.5427  0.6404 -0.3684
12408SOL    HW240118  10.648   4.405   9.348 -0.0052  0.4958  0.7936
12409SOL     OW40119  10.326   0.781   4.701 -0.4811  0.3797 -0.0220
12409SOL    HW140120  10.367   0.853   4.748  0.3363 -0.7181  0.9849
12409SOL    HW240121  10.265   0.824   4.640  0.8576  1.9604 -0.3101
12410SOL     OW40122   6.653   5.487   3.339  0.5093  0.3201 -0.4959
12410SOL    HW140123   6.693   5.409   3.301  1.7390  1.9005 -2.7145
12410SOL    HW240124   6.719   5.522   3.399  0.6507  0.5220 -0.7647
12411SOL     OW40125   7.842  10.150   8.496 -0.6242  0.9353  0.0154
12411SOL    HW140126   7.827  10.056   8.491 -1.7846  1.1303 -0.4335
12411SOL    HW240127   7.926  10.158   8.541 -1.0050 -0.2757  0.9917
12412SOL     OW40128   2.883   7.639   7.187 -0.0828 -0.4213  0.1541
12412SOL    HW140129   2.865   7.594   7.105 -1.6325  0.4882 -0.0270
12412SOL    HW240130   2.797   7.658   7.224  0.4790  2.2318  0.2993
12413SOL     OW40131   0.212  10.151   8.199 -0.0150  0.5621  0.1156
12413SOL    HW140132   0.147  10.099   8.151  1.5390  0.8945 -2.5531
12413SOL    HW240133   0.175  10.161   8.286 -1.3148 -3.2854  0.1822
12414SOL     OW40134   6.467   8.958  10.233  0.4494  0.3708  0.4739
12414SOL    HW140135   6.445   9.038  10.186  0.8407 -0.5584 -1.4037
12414SOL    HW240136   6.532   8.985  10.298  1.1670  1.4497 -0.6555
12415SOL     OW40137   1.717   5.740   8.965 -0.3545 -0.0088  0.8170
12415SOL    HW140138   1.785   5.779   8.911  0.3261 -0.2145  1.5111
12415SOL    HW240139   1.743   5.759   9.055 -2.1204  1.4329  1.0948
12416SOL     OW40140   1.438   3.295   1.670  0.0745  0.8796 -0.0522
12416SOL    HW140141   1.453   3.266   1.580  0.1412  2.0457 -0.4250
12416SOL    HW240142   1.452   3.389   1.668 -0.9682  1.0801  0.9638
12417SOL     OW40143   4.319   6.387  10.312 -0.1781 -0.2777 -0.8106
12417SOL    HW140144   4.317   6.415  10.403 -0.6988  1.5671 -1.3521
12417SOL    HW240145   4.411   6.367  10.294 -0.1672 -1.2975  0.2795
12418SOL     OW40146   6.396   3.788  10.594  0.3154  0.1173 -0.2507
12418SOL    HW140147   6.304   3.800  10.572  0.3240  1.4948  0.3713
12418SOL    HW240148   6.408   3.835  10.677  1.2408 -1.3177  0.4740
12419SOL     OW40149   7.556   7.337   1.083 -0.0136  0.4293 -0.0812
12419SOL    HW140150   7.506   7.378   1.153 -0.4474  1.3256 -0.8922
12419SOL    HW240151   7.603   7.265   1.126  0.2321  1.3489  1.2460
12420SOL     OW40152   6.126  10.482   3.460 -0.0684  0.2474 -0.5455
12420SOL    HW140153   6.061  10.547   3.488  0.4915  1.9035 -2.8606
12420SOL    HW240154   6.181  10.469   3.538 -2.1977 -0.0725  1.0066
12421SOL     OW40155   7.399   1.025   6.432 -0.5104 -0.1036  0.3474
12421SOL    HW140156   7.424   1.066   6.515  0.2711 -0.8056  0.4790
12421SOL    HW240157   7.472   1.044   6.373 -1.3402  0.9102 -0.3797
12422SOL     OW40158   1.177   1.133   9.990 -0.0396  0.5535 -0.3201
12422SOL    HW140159   1.170   1.116  10.084  1.4071  0.1211 -0.2698
12422SOL    HW240160   1.099   1.185   9.970 -0.5636  0.3477  1.0404
12423SOL     OW40161   2.762   1.359   1.070 -0.2162 -0.2985 -0.4106
12423SOL    HW140162   2.798   1.424   1.010  1.2751 -2.2563 -1.7527
12423SOL    HW240163   2.781   1.274   1.029  1.6151 -1.8378  3.1193
12424SOL     OW40164   2.831   7.696   4.155  0.3488  0.0604 -0.1576
12424SOL    HW140165   2.836   7.617   4.102 -1.8842 -1.1293  1.2226
12424SOL    HW240166   2.787   7.760   4.098  1.7540  0.2089 -1.1235
12425SOL     OW40167   6.639   1.079  10.400 -0.0915  0.1158 -0.2109
12425SOL    HW140168   6.598   1.030  10.471 -0.0256  0.5023  0.0985
12425SOL    HW240169   6.567   1.101  10.341 -0.6217  2.1508  1.1272
12426SOL     OW40170   8.829   5.191   7.128 -0.7008  0.0369 -0.6243
12426SOL    HW140171   8.914   5.232   7.113 -0.9931  1.0113  0.2522
12426SOL    HW240172   8.840   5.101   7.096  0.2541  0.5035 -1.6950
12427SOL     OW40173   2.163   1.927   6.773 -0.1967  0.4245  0.5645
12427SOL    HW140174   2.160   1.986   6.848  0.9041  2.2427 -0.7248
12427SOL    HW240175   2.234   1.962   6.718 -3.1070  1.3851 -3.0201
12428SOL     OW40176   7.323   0.667  10.526  0.2063 -0.0013 -0.1567
12428SOL    HW140177   7.272   0.747  10.538 -0.3017 -0.3646  0.1799
12428SOL    HW240178   7.338   0.662  10.432  1.3437  1.1439 -0.0565
12429SOL     OW40179   8.558   1.460   5.495  0.2998 -0.4365  0.5267
12429SOL    HW140180   8.466   1.438   5.507  0.1241 -0.1485 -0.2610
12429SOL    HW240181   8.561   1.511   5.414  1.1854 -0.6524  0.4109
12430SOL     OW40182   9.950   3.288   8.331  0.0064  0.2880 -0.1158
12430SOL    HW140183   9.981   3.324   8.414  1.0146  1.0559 -0.8031
12430SOL    HW240184  10.024   3.238   8.297  0.7833  2.5672 -2.0275
12431SOL     OW40185   4.379   3.044   4.160 -0.1662 -0.0849 -0.0216
12431SOL    HW140186   4.396   3.095   4.081  0.8005  1.7144  1.2549
12431SOL    HW240187   4.447   2.976   4.160  0.6328  0.6880 -0.1408
12432SOL     OW40188   5.168   0.330   6.655  0.5979  0.3391  0.1440
12432SOL    HW140189   5.229   0.287   6.715  0.4858 -1.9441 -1.2579
12432SOL    HW240190   5.083   0.323   6.698 -0.0164 -3.8704 -1.2830
12433SOL     OW40191   3.537   4.643  10.584  0.1041 -0.0773 -0.0979
12433SOL    HW140192   3.470   4.637  10.516 -0.6806  0.3860  0.6066
12433SOL    HW240193   3.619   4.620  10.540 -0.6303 -1.5306 -0.7834
12434SOL     OW40194   4.124   3.386  10.244  0.4728 -0.4661 -0.1771
12434SOL    HW140195   4.076   3.314  10.205 -0.4340  1.1256 -2.1316
12434SOL    HW240196   4.062   3.428  10.304 -0.4809  1.1844 -2.2052
12435SOL     OW40197   4.399   2.874   6.934  0.2862  0.3202  0.3457
12435SOL    HW140198   4.453   2.951   6.954 -1.1182  0.8747  2.3618
12435SOL    HW240199   4.334   2.906   6.872  0.4659  0.4104  0.2006
12436SOL     OW40200   3.466   2.902   5.514 -0.1976 -0.0833 -0.0948
12436SOL    HW140201   3.427   2.818   5.490  0.8269 -1.5175  2.7787
12436SOL    HW240202   3.505   2.935   5.433 -0.2638 -2.6015 -1.2377
12437SOL     OW40203   9.640   8.046   7.801 -0.1117  0.0591 -0.0106
12437SOL    HW140204   9.653   8.058   7.895 -0.1367  0.1078 -0.0129
12437SOL    HW240205   9.603   7.958   7.793 -1.8406  0.7323  0.1837
12438SOL     OW40206   9.885   1.641   1.648 -0.2764  0.7113  0.3235
12438SOL    HW140207   9.797   1.647   1.610 -0.8150 -0.2842  1.3546
12438SOL    HW240208   9.903   1.547   1.654  1.9520  0.8581 -2.2107
12439SOL     OW40209   4.783   3.166   8.064 -0.2182 -1.0029 -0.1857
12439SOL    HW140210   4.864   3.173   8.014 -0.6925  0.1909 -0.8316
12439SOL    HW240211   4.715   3.157   7.998 -0.9430  1.4332  0.1535
12440SOL     OW40212   5.706   3.236   1.024 -0.4429 -0.0738 -0.1784
12440SOL    HW140213   5.689   3.239   0.929 -0.0719 -2.7948 -0.4099
12440SOL    HW240214   5.781   3.294   1.037 -1.1294  1.1220 -1.3835
12441SOL     OW40215   7.442   7.473   2.008 -0.3854  0.5643  0.1988
12441SOL    HW140216   7.508   7.445   2.072 -0.7980 -3.9307 -1.0335
12441SOL    HW240217   7.363   7.485   2.060  0.4288  2.1824  1.1478
12442SOL     OW40218   7.300   0.272   8.669 -0.1216 -0.1178  0.5379
12442SOL    HW140219   7.228   0.319   8.626  0.6074 -0.2782 -0.9215
12442SOL    HW240220   7.378   0.325   8.651  0.1197  0.1933  2.3285
12443SOL     OW40221   3.297   3.380   5.983 -0.4148  0.3866 -0.0417
12443SOL    HW140222   3.259   3.455   5.937  0.2402  1.5535  1.2392
12443SOL    HW240223   3.294   3.405   6.076  2.0380 -0.1114  0.2383
12444SOL     OW40224   5.334   0.539   4.000  0.5116 -0.3545  0.9287
12444SOL    HW140225   5.274   0.600   4.043  0.8736  1.0305 -0.4632
12444SOL    HW240226   5.412   0.539   4.056  1.5237  2.4903 -0.2950
12445SOL     OW40227   1.959   6.666   4.571 -0.1161 -0.4359  0.4423
12445SOL    HW140228   2.027   6.656   4.638 -0.2258  0.0606  0.6316
12445SOL    HW240229   1.927   6.755   4.583  0.5645  0.0152 -0.9296
12446SOL     OW40230  10.308   7.551   9.663 -0.2298  0.2594  0.0403
12446SOL    HW140231  10.355   7.481   9.708 -0.6014 -0.3769 -0.5429
12446SOL    HW240232  10.219   7.548   9.700  0.0982  1.3215  0.9901
12447SOL     OW40233   8.700   8.573   9.403 -0.7470 -0.0386 -0.0732
12447SOL    HW140234   8.707   8.477   9.404  2.7385  0.0233 -2.2350
12447SOL    HW240235   8.754   8.602   9.476 -0.0919  0.2831 -0.6798
12448SOL     OW40236   1.455   1.408   2.233  0.1077  0.2961 -0.5934
12448SOL    HW140237   1.506   1.338   2.273 -1.7018  0.0904  1.5383
12448SOL    HW240238   1.389   1.362   2.180  0.8761  0.5063 -1.7594
12449SOL     OW40239   1.166   5.659   9.684 -0.7216 -0.3023  0.5730
12449SOL    HW140240   1.237   5.606   9.721 -1.7267 -2.5011 -0.4489
12449SOL    HW240241   1.091   5.643   9.741 -1.3987 -1.1050 -0.5123
12450SOL     OW40242   3.330   2.824   9.069 -0.2550 -0.0497  0.3142
12450SOL    HW140243   3.422   2.846   9.056 -0.4260 -0.1815 -1.2869
12450SOL    HW240244   3.326   2.787   9.157  1.1929  0.0965  0.4534
12451SOL     OW40245   4.935   2.304   7.889  0.2085  0.2292 -0.0318
12451SOL    HW140246   5.019   2.304   7.936 -0.2730  0.2436  0.8370
12451SOL    HW240247   4.869   2.308   7.958 -0.4851  2.6443 -0.7171
12452SOL     OW40248   1.068   4.828   3.465 -0.5190  0.3136  0.2200
12452SOL    HW140249   1.130   4.831   3.392 -1.2900  1.5460 -0.4145
12452SOL    HW240250   1.091   4.748   3.512  0.2738 -0.2897 -1.1270
12453SOL     OW40251   1.279  10.006   9.081 -0.1794  0.0818 -0.4354
12453SOL    HW140252   1.356  10.007   9.138  1.0242  0.2141 -1.9996
12453SOL    HW240253   1.207  10.036   9.137  0.8380 -0.3358  1.1432
12454SOL     OW40254   8.623   1.760   1.107  0.1549 -0.1738  0.1969
12454SOL    HW140255   8.654   1.750   1.017  1.4281 -1.3296  0.7391
12454SOL    HW240256   8.529   1.778   1.097  0.4532  0.7242 -1.3811
12455SOL     OW40257   0.741   7.633   3.434 -0.2171  0.3628  0.3534
12455SOL    HW140258   0.738   7.624   3.529  0.8477  2.8024  0.6984
12455SOL    HW240259   0.736   7.728   3.418 -1.3256 -0.0066 -2.0847
12456SOL     OW40260   8.211   1.504   8.028  0.7754  0.3971 -0.1347
12456SOL    HW140261   8.218   1.545   8.114 -2.8370 -0.0784  0.5566
12456SOL    HW240262   8.138   1.549   7.986  1.0801 -0.8319 -2.0828
12457SOL     OW40263   6.713   0.887   2.446 -0.0847 -0.0752  0.5642
12457SOL    HW140264   6.782   0.851   2.501  1.4989  0.7282 -0.8321
12457SOL    HW240265   6.711   0.830   2.369 -0.8921  0.0009  0.5213
12458SOL     OW40266   4.342   1.845   1.380  0.2307 -0.1075 -0.0819
12458SOL    HW140267   4.362   1.765   1.428  0.2188 -0.9240 -1.3918
12458SOL    HW240268   4.377   1.830   1.292 -3.4955 -0.5074 -1.7012
12459SOL     OW40269   7.862   9.713   3.760  0.5124  0.0644  0.0826
12459SOL    HW140270   7.941   9.758   3.732 -0.9180  2.5572 -0.2252
12459SOL    HW240271   7.821   9.773   3.822 -2.2485 -0.0495 -1.4552
12460SOL     OW40272   5.603   5.047   2.752 -0.2379  0.4770 -0.4442
12460SOL    HW140273   5.574   5.024   2.841 -2.2418  0.8545 -0.9489
12460SOL    HW240274   5.603   4.964   2.705  0.1989  0.3686 -0.2527
12461SOL     OW40275   1.348  10.368   2.513  0.1752 -0.1294  0.8646
12461SOL    HW140276   1.419  10.319   2.472  1.1663  1.9817 -0.0985
12461SOL    HW240277   1.319  10.430   2.446 -1.5980  0.0671  1.7410
12462SOL     OW40278   8.682   0.333   8.762  0.3777 -0.3609  0.0893
12462SOL    HW140279   8.771   0.314   8.791  0.0193 -1.1076  0.7312
12462SOL    HW240280   8.655   0.408   8.815  1.0002  0.5899 -0.8881
12463SOL     OW40281   7.292   6.081   8.653 -0.1071  0.5425  0.1063
12463SOL    HW140282   7.331   6.166   8.672  1.1691  0.6405 -2.5526
12463SOL    HW240283   7.226   6.100   8.586  0.4041 -0.5696 -0.7346
12464SOL     OW40284   8.791   3.720   4.677 -0.4557  0.5237  0.8220
12464SOL    HW140285   8.820   3.697   4.766 -0.9838  1.1286  1.1564
12464SOL    HW240286   8.704   3.757   4.689 -1.4770 -1.4094 -0.1957
12465SOL     OW40287   1.631   5.547   5.410 -0.4156 -0.4553  0.0232
12465SOL    HW140288   1.550   5.498   5.429 -0.5094 -1.3769 -2.3751
12465SOL    HW240289   1.603   5.617   5.352  0.2050  0.6461  1.0164
12466SOL     OW40290   9.164   9.619   9.951 -0.1139 -0.0872  0.0346
12466SOL    HW140291   9.088   9.562   9.947  0.8958 -1.5357  0.7767
12466SOL    HW240292   9.239   9.560   9.948  0.9718  1.1928  0.7392
12467SOL     OW40293   4.755   1.407   7.545 -0.0621 -0.2663 -0.0016
12467SOL    HW140294   4.704   1.483   7.517 -0.0714 -0.3854 -0.3081
12467SOL    HW240295   4.740   1.341   7.477  0.9099 -0.1270 -0.3777
12468SOL     OW40296  10.211   5.393   4.325 -0.7256  0.0568  0.5156
12468SOL    HW140297  10.148   5.377   4.395 -0.4272  0.6526  0.9262
12468SOL    HW240298  10.196   5.322   4.262 -2.4604  0.7132  0.1406
12469SOL     OW40299   5.890   7.006   8.817 -0.4933 -0.4007  0.0762
12469SOL    HW140300   5.980   7.032   8.797 -0.7615  0.1504 -0.4515
12469SOL    HW240301   5.837   7.043   8.746 -1.2488  0.0865  0.8622
12470SOL     OW40302   0.799   3.253   5.146 -0.0776  0.1141 -0.0616
12470SOL    HW140303   0.880   3.300   5.162  0.0007 -0.0637  0.0628
12470SOL    HW240304   0.730   3.318   5.163 -0.1002 -0.5803  3.0841
12471SOL     OW40305   0.532   5.155   1.643  0.0798  0.7101  0.2761
12471SOL    HW140306   0.490   5.219   1.585 -0.7798  0.8614  1.0314
12471SOL    HW240307   0.608   5.124   1.595 -1.3202 -0.1435 -1.4799
12472SOL     OW40308   5.382   1.788   8.108 -0.5351  0.4325  0.5123
12472SOL    HW140309   5.296   1.817   8.136 -1.3420 -1.5276  0.1982
12472SOL    HW240310   5.424   1.755   8.187 -0.7299 -0.1293  0.3879
12473SOL     OW40311   6.728   9.352   0.116 -0.6537  0.0177 -0.2216
12473SOL    HW140312   6.754   9.393   0.034 -1.8198 -0.8385 -1.0468
12473SOL    HW240313   6.809   9.314   0.150 -0.3424 -0.4919 -1.4873
12474SOL     OW40314   5.733   9.923   2.993 -0.6190  0.3677  0.1404
12474SOL    HW140315   5.644   9.946   2.967 -1.2164  1.3672  2.7625
12474SOL    HW240316   5.723   9.840   3.040 -0.0938  0.1890 -0.0617
12475SOL     OW40317   0.935   7.429   9.871  0.3572  0.3110 -0.0565
12475SOL    HW140318   0.906   7.521   9.872  0.7923  0.4506  0.9544
12475SOL    HW240319   0.894   7.390   9.948  1.4194  0.0597  0.3953
12476SOL     OW40320   3.488   4.732   1.437  0.2779  0.2719  0.0978
12476SOL    HW140321   3.398   4.718   1.464  0.6292 -0.3078  0.9858
12476SOL    HW240322   3.513   4.651   1.392  0.0796  0.7778 -0.9788
12477SOL     OW40323   8.551   7.255   5.082 -0.1766  0.3529  0.1141
12477SOL    HW140324   8.521   7.217   5.000  1.2357 -1.5637  0.4293
12477SOL    HW240325   8.541   7.350   5.070  1.0605  0.2076 -2.7168
12478SOL     OW40326  10.173   2.248   8.210 -0.0817  0.0978  0.0297
12478SOL    HW140327  10.096   2.298   8.237 -0.5153 -0.2404 -0.5451
12478SOL    HW240328  10.213   2.219   8.292  1.7871  3.6515  0.5524
12479SOL     OW40329   2.587   1.606   4.700  0.3143  0.1804  0.3723
12479SOL    HW140330   2.632   1.669   4.643 -1.4454  1.4698  0.3377
12479SOL    HW240331   2.597   1.643   4.788 -2.7061  1.8767  0.1199
12480SOL     OW40332   5.357   8.501   6.744 -0.0413 -0.3979 -0.0637
12480SOL    HW140333   5.430   8.465   6.795 -0.5560 -0.7984  0.4139
12480SOL    HW240334   5.394   8.519   6.658  0.8441  0.2480  0.4316
12481SOL     OW40335   6.296   7.262   8.773  0.0443  0.0515  0.5752
12481SOL    HW140336   6.369   7.316   8.804  1.2769 -1.1661 -0.0492
12481SOL    HW240337   6.304   7.262   8.678  0.6482 -1.8936  0.5757
12482SOL     OW40338   7.146   9.120   1.185 -0.1492  0.4290  0.6136
12482SOL    HW140339   7.226   9.069   1.177 -0.7207 -1.1303  3.3840
12482SOL    HW240340   7.076   9.055   1.179 -0.9946  1.1697  1.8772
12483SOL     OW40341   5.664   9.169   4.301 -0.5515  0.8243  0.3367
12483SOL    HW140342   5.597   9.203   4.242 -2.4362  1.3462  2.5778
12483SOL    HW240343   5.694   9.088   4.260 -0.4450  2.0515 -2.1415
12484SOL     OW40344   9.158   4.771  10.412  0.3014 -0.0406 -0.7369
12484SOL    HW140345   9.141   4.777  10.318  0.7502  1.3438 -0.7568
12484SOL    HW240346   9.187   4.859  10.437  4.4648 -1.3825 -0.1455
12485SOL     OW40347   6.503   7.228   9.255  0.0696 -0.4387 -0.5863
12485SOL    HW140348   6.466   7.207   9.169 -0.5924  0.9129 -0.6535
12485SOL    HW240349   6.596   7.206   9.247 -0.1176 -1.0133 -1.4030
12486SOL     OW40350   5.563  10.724   2.412 -0.1201  0.1821 -0.6921
12486SOL    HW140351   5.489  10.785   2.421 -0.4153 -0.3877  1.1963
12486SOL    HW240352   5.524  10.637   2.419  0.7072 -0.1273  0.6480
12487SOL     OW40353   1.015   8.253   0.892 -0.3299  0.6740 -0.6286
12487SOL    HW140354   0.948   8.299   0.944 -1.6058 -1.4750 -0.2756
12487SOL    HW240355   1.071   8.212   0.958 -0.5563 -0.1361 -0.9385
12488SOL     OW40356   3.237   3.088   7.946 -0.0780 -0.7134  0.0247
12488SOL    HW140357   3.239   3.125   7.858 -0.1459 -2.9395 -0.9577
12488SOL    HW240358   3.274   3.001   7.937 -2.6492 -2.0923  1.6547
12489SOL     OW40359  10.704   6.681   7.766  0.4203  0.0096 -0.0083
12489SOL    HW140360  10.745   6.763   7.739  2.1089 -1.1241 -1.1158
12489SOL    HW240361  10.731   6.618   7.699 -0.7375 -1.4803  0.8642
12490SOL     OW40362   2.507   4.161   0.555  0.1296 -0.6051 -0.5181
12490SOL    HW140363   2.476   4.190   0.641  0.3228 -1.1204 -0.2752
12490SOL    HW240364   2.568   4.230   0.527 -0.3017 -0.1922 -0.4650
12491SOL     OW40365   9.829   4.228  10.332  0.1853 -0.3782  0.0327
12491SOL    HW140366   9.781   4.309  10.350  1.3914  0.2651  0.4725
12491SOL    HW240367   9.789   4.193  10.253 -0.4166  0.6053 -0.1114
12492SOL     OW40368   3.756   9.050   9.115 -0.4836  0.0790  0.2391
12492SOL    HW140369   3.741   9.061   9.021 -0.6203  1.1898  0.3814
12492SOL    HW240370   3.851   9.043   9.124 -0.5688 -2.1584 -0.1770
12493SOL     OW40371   6.524   2.931   8.922  0.1575  0.0152  0.1368
12493SOL    HW140372   6.579   3.007   8.939  0.1658  0.0982 -0.2495
12493SOL    HW240373   6.436   2.959   8.948  0.4040 -0.3541  1.4240
12494SOL     OW40374   2.093   8.456   6.934  0.1983  0.3187  0.4404
12494SOL    HW140375   2.121   8.426   7.020 -0.4848 -0.7943  0.2917
12494SOL    HW240376   2.089   8.377   6.881 -0.5568  0.8225 -0.2901
12495SOL     OW40377   4.018   6.563   2.267 -0.2398  0.3831 -0.3322
12495SOL    HW140378   3.980   6.564   2.355 -0.4859  0.0896 -0.4301
12495SOL    HW240379   4.032   6.470   2.248 -0.9004  0.3824 -0.8987
12496SOL     OW40380   0.146   9.893   3.098 -0.4801 -0.0729 -0.2731
12496SOL    HW140381   0.203   9.828   3.056 -0.9356 -0.6499 -0.0092
12496SOL    HW240382   0.198   9.927   3.171 -0.5026 -0.6634  0.0253
12497SOL     OW40383   6.947   3.077   9.403 -0.0498 -0.4857  0.5055
12497SOL    HW140384   6.899   3.066   9.485 -1.6003  1.1437 -0.1371
12497SOL    HW240385   7.018   3.013   9.409 -0.6607 -1.0529  2.7002
12498SOL     OW40386   1.867   4.813   8.281 -0.0026 -0.5395 -0.8780
12498SOL    HW140387   1.907   4.770   8.206  2.6348  0.1884 -0.0130
12498SOL    HW240388   1.939   4.861   8.323 -1.8023  0.8235  0.8996
12499SOL     OW40389   8.290  10.576   0.529  0.3895  0.5078 -0.0337
12499SOL    HW140390   8.353  10.544   0.594 -0.2079 -0.7183 -0.0229
12499SOL    HW240391   8.299  10.515   0.456 -0.5271  0.5186 -0.1632
12500SOL     OW40392   3.406   8.739   6.963 -0.0632  0.5596  0.0548
12500SOL    HW140393   3.477   8.674   6.964  0.1340  0.7695 -0.0817
12500SOL    HW240394   3.421   8.792   7.041  1.4174  2.1658 -1.2444
12501SOL     OW40395   4.110   9.213   7.218 -0.2063 -0.4557  0.0951
12501SOL    HW140396   4.065   9.129   7.211 -1.0312 -0.2557  2.1650
12501SOL    HW240397   4.040   9.277   7.225  0.3797  0.0841  1.3049
12502SOL     OW40398   4.894   1.224   0.183 -0.1514 -0.2341 -0.0828
12502SOL    HW140399   4.807   1.190   0.205 -0.5625  0.8993  0.1111
12502SOL    HW240400   4.919   1.275   0.260  1.3560 -1.7320  0.5054
12503SOL     OW40401   6.083   4.388   6.270  0.1138  0.0540  0.3524
12503SOL    HW140402   6.000   4.437   6.274 -0.7331 -1.3950  1.3089
12503SOL    HW240403   6.116   4.388   6.359  0.9760  0.2976  0.0444
12504SOL     OW40404   1.377   1.911   6.481 -0.2198  0.0220 -0.0719
12504SOL    HW140405   1.471   1.930   6.485 -0.5815  1.8951  1.1766
12504SOL    HW240406   1.366   1.863   6.399  1.8625 -0.5826 -0.0760
12505SOL     OW40407   2.291   1.426   1.008 -0.0279 -0.2767 -0.1689
12505SOL    HW140408   2.301   1.439   0.914  1.2676 -1.3191 -0.2045
12505SOL    HW240409   2.326   1.506   1.048 -0.7112  0.2250 -0.5646
12506SOL     OW40410   5.918   8.293   9.060 -0.2380 -0.4898 -0.6377
12506SOL    HW140411   5.954   8.242   9.132 -1.2155 -0.8722 -0.4018
12506SOL    HW240412   5.828   8.312   9.087 -0.1985  0.5181 -1.1606
12507SOL     OW40413  10.319   4.649   0.803 -0.5350 -0.1958  0.3838
12507SOL    HW140414  10.389   4.706   0.835  0.1215 -0.2225 -0.9229
12507SOL    HW240415  10.290   4.691   0.722 -1.3100 -0.7533  0.3629
12508SOL     OW40416   8.734   3.951   1.852 -0.2329 -0.6233 -0.1732
12508SOL    HW140417   8.749   4.021   1.788  0.3627 -0.2655  0.3461
12508SOL    HW240418   8.656   3.905   1.819 -0.6307  0.2741 -0.5285
12509SOL     OW40419   1.983   4.140  10.303 -0.0191 -0.0829  0.5114
12509SOL    HW140420   1.902   4.167  10.347 -0.3907 -0.2515 -0.0525
12509SOL    HW240421   1.980   4.045  10.304  0.2613 -0.0893  0.6476
12510SOL     OW40422   3.645   7.173   6.277 -0.4516 -0.1070  0.0862
12510SOL    HW140423   3.720   7.131   6.235 -0.2355 -1.8901  2.0668
12510SOL    HW240424   3.584   7.191   6.206  1.5258  0.7731 -1.4845
12511SOL     OW40425   4.141  10.220   0.301 -0.9623 -0.1372 -0.6325
12511SOL    HW140426   4.205  10.160   0.340 -2.0430 -0.1625  1.1980
12511SOL    HW240427   4.084  10.163   0.249  0.0639 -0.1986 -1.7406
12512SOL     OW40428   9.206   5.241   7.796 -0.0020 -0.4296  0.1818
12512SOL    HW140429   9.172   5.162   7.839  1.2366 -0.8778  0.4077
12512SOL    HW240430   9.251   5.289   7.865 -2.4591  1.5697  0.5100
12513SOL     OW40431   9.459   1.246   0.298 -0.0365 -0.0012  0.2219
12513SOL    HW140432   9.494   1.306   0.232 -0.3321 -0.2437 -0.1579
12513SOL    HW240433   9.399   1.299   0.349  0.2564  0.2094  0.3518
12514SOL     OW40434   1.151   9.811   2.535  0.3625  0.4233  0.7068
12514SOL    HW140435   1.132   9.905   2.535  0.3094  0.4163 -0.2010
12514SOL    HW240436   1.221   9.801   2.600  0.2463  1.0617  0.9389
12515SOL     OW40437   8.187   4.806  10.516 -0.6370  0.6114 -0.5361
12515SOL    HW140438   8.226   4.893  10.518 -1.8779  1.1846 -0.3274
12515SOL    HW240439   8.261   4.747  10.504  0.2915  1.6467 -0.1017
12516SOL     OW40440  10.414   7.717   0.617  0.5710  0.1567  0.1997
12516SOL    HW140441  10.462   7.701   0.536  0.2970 -0.3964  0.1457
12516SOL    HW240442  10.479   7.755   0.676  0.9899 -0.2551  0.0119
12517SOL     OW40443   4.329   8.811   0.747  0.8813  0.4646 -0.2871
12517SOL    HW140444   4.302   8.872   0.815  0.4832  0.5268 -0.4966
12517SOL    HW240445   4.248   8.789   0.701  0.7780 -1.3213  0.6749
12518SOL     OW40446   8.136   4.614   5.277 -0.2958 -0.6757  0.0205
12518SOL    HW140447   8.134   4.597   5.183  1.4809  1.9846 -0.6259
12518SOL    HW240448   8.102   4.703   5.286  1.2636 -0.1799  1.6429
12519SOL     OW40449   1.162   5.452   1.612 -0.4293 -0.3151 -0.2717
12519SOL    HW140450   1.220   5.521   1.579  0.4482 -0.4051  1.0001
12519SOL    HW240451   1.166   5.461   1.707  1.2693 -3.3070  0.0622
12520SOL     OW40452   8.391   4.763   2.745  0.4208  0.1672  0.3540
12520SOL    HW140453   8.367   4.776   2.837 -0.4569  0.7130  0.0553
12520SOL    HW240454   8.436   4.678   2.744  0.9443  0.4143  1.3709
12521SOL     OW40455   2.062   6.376   7.257 -0.4206  0.5793  0.4164
12521SOL    HW140456   2.042   6.284   7.234  1.9791 -1.3107  4.8065
12521SOL    HW240457   2.147   6.392   7.216 -0.5338  0.6365  0.1994
12522SOL     OW40458   1.675   5.285   9.674 -0.0088 -0.0486  0.8117
12522SOL    HW140459   1.643   5.279   9.764  3.1618  0.2879  2.1049
12522SOL    HW240460   1.610   5.338   9.628 -1.0273  0.9971  3.2943
12523SOL     OW40461   7.251   4.413   5.991  0.0955 -0.6885  0.2539
12523SOL    HW140462   7.271   4.364   5.911  0.3639 -0.5054  0.2070
12523SOL    HW240463   7.314   4.379   6.055  0.2515 -0.4355  0.2340
12524SOL     OW40464   3.077   7.783   0.923  0.5629  0.1640  0.9038
12524SOL    HW140465   3.110   7.745   1.005  0.1494  0.1540  1.0635
12524SOL    HW240466   2.983   7.793   0.937  0.4070 -0.2998  0.2540
12525SOL     OW40467   5.616   7.433   3.762  0.4780 -0.0618 -0.2802
12525SOL    HW140468   5.548   7.373   3.792  1.1953 -0.3149  0.9043
12525SOL    HW240469   5.588   7.519   3.795 -0.6699  0.3475 -2.1756
12526SOL     OW40470   6.084   3.648   2.437 -0.2657  0.0643  0.2324
12526SOL    HW140471   6.128   3.686   2.361  0.8341  0.1429  0.8894
12526SOL    HW240472   6.128   3.565   2.452 -1.7792 -0.8873 -0.3793
12527SOL     OW40473   9.691   2.353   2.733  0.3465 -0.7457 -0.0579
12527SOL    HW140474   9.610   2.337   2.684 -0.7614  0.1671  1.3784
12527SOL    HW240475   9.682   2.298   2.812  1.1641 -0.6835  0.0812
12528SOL     OW40476  10.661   2.472   8.125  0.4823  0.1547  0.3898
12528SOL    HW140477  10.752   2.455   8.099  0.6612  0.3370  0.8991
12528SOL    HW240478  10.647   2.416   8.201  0.1715  0.1472  0.3296
12529SOL     OW40479   9.740   3.744   4.263  0.3233 -0.0033 -0.0431
12529SOL    HW140480   9.657   3.704   4.288  0.6202  0.0965  1.1582
12529SOL    HW240481   9.719   3.836   4.249 -0.1674 -0.3473 -1.8547
12530SOL     OW40482   6.378   7.587   0.719  0.2454  0.4092  0.1047
12530SOL    HW140483   6.388   7.612   0.627 -1.7242 -1.1130 -0.5997
12530SOL    HW240484   6.304   7.640   0.751  0.6078  0.5798  0.6765
12531SOL     OW40485   7.969   8.879   9.407 -0.2396  0.3535  0.8717
12531SOL    HW140486   8.063   8.866   9.390  0.1967  1.8608  1.9006
12531SOL    HW240487   7.925   8.834   9.334  1.3619  2.4852 -1.5964
12532SOL     OW40488   2.901   5.713   0.237 -0.0433 -0.5522  0.3985
12532SOL    HW140489   2.825   5.697   0.181  0.3695  0.3626 -0.4686
12532SOL    HW240490   2.976   5.694   0.181  0.3795  0.6110  0.5333
12533SOL     OW40491   4.573   3.503   1.579  0.2249 -0.3157  0.0116
12533SOL    HW140492   4.586   3.594   1.553  3.6865  0.4845  3.5960
12533SOL    HW240493   4.647   3.456   1.539 -0.0943 -1.0354  0.2560
12534SOL     OW40494   1.915   5.811   8.801 -0.5544  0.0444 -0.2840
12534SOL    HW140495   1.934   5.893   8.756  0.4285  0.3993  0.7313
12534SOL    HW240496   1.989   5.754   8.780 -0.0190  0.2594  0.9592
12535SOL     OW40497   0.057   3.328   3.452  0.6538 -0.0732 -0.1885
12535SOL    HW140498  -0.019   3.289   3.408  0.0128 -0.0284  0.8393
12535SOL    HW240499   0.040   3.423   3.449  0.4940 -0.0803  0.3256
12536SOL     OW40500   3.455   3.288   5.203 -0.0082  0.2303 -0.4114
12536SOL    HW140501   3.417   3.267   5.289  0.0596 -0.2335 -0.4949
12536SOL    HW240502   3.398   3.357   5.169  1.3564  2.1531  1.0345
12537SOL     OW40503   3.067   0.336   7.512 -0.0608  0.5987 -0.1680
12537SOL    HW140504   3.048   0.245   7.487  1.7255 -0.1280  0.9294
12537SOL    HW240505   3.158   0.350   7.485  0.8134  0.9040  2.6311
12538SOL     OW40506   9.141   7.744   9.791  0.1877 -0.3381 -0.7247
12538SOL    HW140507   9.143   7.815   9.727  0.4760  0.2062 -0.1216
12538SOL    HW240508   9.233   7.733   9.818 -0.0299  0.0032  0.1975
12539SOL     OW40509   4.540   3.446   2.176  0.4425  0.1144  0.4549
12539SOL    HW140510   4.448   3.435   2.198  0.4329  0.2271  0.4713
12539SOL    HW240511   4.583   3.368   2.212  0.1925 -0.4878 -0.5395
12540SOL     OW40512   1.861   7.553   0.068 -1.3165  0.1007  0.0986
12540SOL    HW140513   1.920   7.627   0.064 -1.0699 -0.0657  0.5730
12540SOL    HW240514   1.777   7.587   0.039 -0.8403  0.1748 -1.2620
12541SOL     OW40515   0.614  10.244   8.010 -0.0721 -0.1632  0.6455
12541SOL    HW140516   0.677  10.294   8.061  2.5229  0.0156 -2.4176
12541SOL    HW240517   0.575  10.309   7.951 -0.1270 -0.9558 -0.2114
12542SOL     OW40518  10.207   8.749   3.349 -0.4433  0.2231 -0.3430
12542SOL    HW140519  10.232   8.688   3.279  1.5842  0.2293  0.3131
12542SOL    HW240520  10.132   8.707   3.392  0.5893 -1.5874 -0.2187
12543SOL     OW40521   0.679   0.736   2.644  0.9093 -0.0991 -0.1312
12543SOL    HW140522   0.754   0.779   2.602  1.1083 -0.4241 -0.1177
12543SOL    HW240523   0.661   0.788   2.722  0.7782  0.2911 -0.4173
12544SOL     OW40524   6.013   1.313   6.331 -0.1635  0.8444 -0.1540
12544SOL    HW140525   5.944   1.249   6.349 -0.2722  1.0040 -0.0017
12544SOL    HW240526   5.970   1.398   6.340  0.0818  0.9476  0.0591
12545SOL     OW40527   6.848   9.607   1.477  0.3592  0.3658  0.1314
12545SOL    HW140528   6.927   9.620   1.531  0.1530 -0.9283  0.7897
12545SOL    HW240529   6.860   9.666   1.403  2.6292 -0.7772 -0.5102
12546SOL     OW40530   8.397   9.493   1.545  0.2092  0.1937 -0.5854
12546SOL    HW140531   8.304   9.516   1.539 -0.4937 -2.3200 -0.3489
12546SOL    HW240532   8.431   9.547   1.616 -2.0883 -1.6414  2.1261
12547SOL     OW40533   6.753   2.041  10.761  0.5058 -0.3153 -0.7608
12547SOL    HW140534   6.740   2.136  10.759  1.7495 -0.1412 -1.0187
12547SOL    HW240535   6.704   2.009  10.686 -2.3976 -0.2466  0.9366
12548SOL     OW40536   3.937   0.180   6.185  0.2043 -0.4993 -0.0203
12548SOL    HW140537   3.891   0.127   6.120  1.1831 -0.2782 -0.9335
12548SOL    HW240538   3.906   0.269   6.168 -0.5070 -0.6000  0.6904
12549SOL     OW40539   0.947   1.596   0.660  0.3892 -0.6411 -0.1890
12549SOL    HW140540   1.008   1.620   0.730  0.5849  1.8869 -1.1289
12549SOL    HW240541   1.001   1.546   0.598  0.8593 -0.6032  0.1837
12550SOL     OW40542   4.328   3.509   5.039 -0.5548  0.1740 -0.2115
12550SOL    HW140543   4.382   3.566   4.985 -0.2698  0.2793  0.1783
12550SOL    HW240544   4.255   3.564   5.066  1.9069  1.9205  3.9007
12551SOL     OW40545   4.511   3.787   0.955  0.1634  0.2187  0.1464
12551SOL    HW140546   4.581   3.847   0.982  0.9848  0.1594 -1.6993
12551SOL    HW240547   4.479   3.823   0.872  0.2297 -1.5191 -0.6739
12552SOL     OW40548   9.639   4.701   1.047 -0.8265  0.8967 -0.4050
12552SOL    HW140549   9.722   4.746   1.058  0.2989 -1.4708  1.6302
12552SOL    HW240550   9.654   4.639   0.976  0.2868 -1.6171  1.8276
12553SOL     OW40551   1.293   2.983   2.474  0.3059  0.3516 -0.3039
12553SOL    HW140552   1.352   2.940   2.536 -0.5903  1.1277  1.1260
12553SOL    HW240553   1.347   2.996   2.395  1.2995 -1.1547  0.0740
12554SOL     OW40554   1.523   7.811   4.945  0.6428  0.1246  0.4136
12554SOL    HW140555   1.542   7.738   4.886 -1.8668 -0.5076  0.2616
12554SOL    HW240556   1.447   7.854   4.906  0.3007  1.0668  2.0128
12555SOL     OW40557   3.663   8.249   8.741  0.1889  0.4666 -0.5538
12555SOL    HW140558   3.731   8.251   8.808 -0.4718  1.8972  0.1017
12555SOL    HW240559   3.696   8.187   8.676  1.0330 -0.6553  0.8724
12556SOL     OW40560   3.484   8.218   9.242 -0.1332  0.3759  0.1252
12556SOL    HW140561   3.502   8.312   9.251  0.5285  0.4287 -1.4118
12556SOL    HW240562   3.415   8.200   9.306 -0.1203  1.8595  0.5895
12557SOL     OW40563   5.141   9.583   0.397  0.3900  0.8242  0.0777
12557SOL    HW140564   5.145   9.530   0.476  0.4789 -2.9944 -2.2473
12557SOL    HW240565   5.231   9.585   0.365 -0.0695 -0.2088 -1.3702
12558SOL     OW40566   5.064   9.756   2.629  0.1087 -0.1587 -0.0803
12558SOL    HW140567   5.075   9.794   2.542 -2.3636  0.0086 -0.4037
12558SOL    HW240568   5.058   9.662   2.615 -1.1950 -0.0707 -0.2509
12559SOL     OW40569  10.608   7.785   6.168  0.1924  0.1892 -0.4605
12559SOL    HW140570  10.628   7.826   6.252 -0.3373  0.2504 -0.3587
12559SOL    HW240571  10.512   7.783   6.165  0.2059  0.3013 -1.1185
12560SOL     OW40572   6.601   3.255  10.783 -0.1613  0.0615 -0.3680
12560SOL    HW140573   6.602   3.248  10.687 -0.2212  0.5810 -0.4100
12560SOL    HW240574   6.540   3.187  10.811 -0.6633  0.3446 -0.7435
12561SOL     OW40575   6.785   0.092   8.193 -0.1322  0.0508  0.1247
12561SOL    HW140576   6.800   0.116   8.102  0.2834  0.4713  0.2944
12561SOL    HW240577   6.738   0.167   8.230  1.3975  0.7561  0.7242
12562SOL     OW40578   2.627   2.425  10.088  0.3103 -0.1557  0.4580
12562SOL    HW140579   2.716   2.416  10.122  1.0334  2.3181 -0.5246
12562SOL    HW240580   2.619   2.518  10.067 -1.6024 -0.7531 -1.9493
12563SOL     OW40581   1.324   3.808   9.855 -0.0843 -0.2212 -0.2642
12563SOL    HW140582   1.247   3.852   9.819 -0.9055 -0.5005  1.0771
12563SOL    HW240583   1.390   3.815   9.786 -1.1306  0.5042 -1.2312
12564SOL     OW40584   1.504  10.565   5.646 -0.2602 -0.2701 -0.0155
12564SOL    HW140585   1.505  10.485   5.698 -0.4269  0.8636  1.8354
12564SOL    HW240586   1.554  10.628   5.698 -1.0918  1.1571 -0.8581
12565SOL     OW40587   8.229   7.640   9.464 -0.4470 -0.3583 -0.1776
12565SOL    HW140588   8.321   7.650   9.490 -0.8106 -0.1044  1.0551
12565SOL    HW240589   8.182   7.626   9.546 -1.5154 -0.5193 -0.7986
12566SOL     OW40590   2.306   8.899   5.831  0.9868 -0.6287  0.3224
12566SOL    HW140591   2.313   8.989   5.799  0.4150 -0.2797  1.1518
12566SOL    HW240592   2.333   8.845   5.757 -0.3858  0.1559 -0.8060
12567SOL     OW40593   8.924   8.597   7.957 -0.2731 -0.0029  0.1161
12567SOL    HW140594   8.985   8.526   7.940 -0.0353 -0.1215  1.3166
12567SOL    HW240595   8.912   8.641   7.873  1.1893 -0.2009 -0.2134
12568SOL     OW40596   2.059   6.177   8.249  0.4388  0.4147 -0.2528
12568SOL    HW140597   2.055   6.091   8.207  1.6313  0.7127 -1.0251
12568SOL    HW240598   2.111   6.231   8.190 -1.2712  2.0458 -0.3807
12569SOL     OW40599  10.096   4.000   9.574  0.0695  0.0071 -0.7114
12569SOL    HW140600  10.039   3.975   9.501  0.5433 -1.0527 -0.7359
12569SOL    HW240601  10.043   4.061   9.625  0.2897  2.0875 -2.7858
12570SOL     OW40602   3.426   5.467   7.003 -0.0059 -0.4116 -0.2756
12570SOL    HW140603   3.362   5.476   6.932 -0.1669 -1.5323 -0.3018
12570SOL    HW240604   3.373   5.456   7.082  0.1739  0.4708 -0.0199
12571SOL     OW40605   5.532   4.034   1.807 -0.1706  0.1680 -0.1126
12571SOL    HW140606   5.562   3.978   1.736 -0.3283  2.2945 -1.9826
12571SOL    HW240607   5.473   3.979   1.858  1.4429 -1.9948 -0.4590
12572SOL     OW40608   1.894   5.629   9.460 -0.3268 -0.4998  0.6188
12572SOL    HW140609   1.898   5.573   9.538 -0.0205  0.5363  1.3695
12572SOL    HW240610   1.808   5.670   9.464 -0.0859  0.0074  0.7499
12573SOL     OW40611   1.962   2.957   7.632 -0.9703 -0.0802 -0.2679
12573SOL    HW140612   1.940   3.033   7.686  1.0804  0.1455  0.3184
12573SOL    HW240613   2.032   2.913   7.680 -1.5150 -1.8596 -1.0370
12574SOL     OW40614   4.100   0.778   9.505  0.3079  0.4536  0.0372
12574SOL    HW140615   4.044   0.821   9.570  0.5485 -0.1936  0.6925
12574SOL    HW240616   4.069   0.687   9.504 -0.5530  0.7346 -1.7185
12575SOL     OW40617  10.613   4.305   0.889  0.5250  0.9037  0.1706
12575SOL    HW140618  10.602   4.226   0.835  1.0442  1.8434 -1.3812
12575SOL    HW240619  10.529   4.349   0.883  0.6645  1.1380 -0.1126
12576SOL     OW40620  10.025   1.049   7.869 -0.1471  0.0978 -0.1353
12576SOL    HW140621  10.056   0.961   7.850 -0.7877 -0.1577 -0.0074
12576SOL    HW240622  10.007   1.087   7.783  3.3153  1.3307 -0.4778
12577SOL     OW40623   3.349   3.759   0.025  0.2105 -0.4494 -0.4264
12577SOL    HW140624   3.333   3.745  -0.068  0.2274 -0.6491 -0.3984
12577SOL    HW240625   3.328   3.852   0.039  1.0120 -0.2014 -0.7979
12578SOL     OW40626   2.297  10.015   1.838  0.6649 -0.1028  0.0513
12578SOL    HW140627   2.203  10.005   1.850  0.7928 -0.0432  1.2447
12578SOL    HW240628   2.309  10.109   1.825  0.7113  0.1490  1.6880
12579SOL     OW40629   5.798   3.261   9.514 -0.1305 -0.1885 -0.2200
12579SOL    HW140630   5.847   3.267   9.432 -0.5751 -3.2392 -0.8247
12579SOL    HW240631   5.753   3.345   9.521  0.3689  0.3779 -2.7980
12580SOL     OW40632   2.993   8.734  10.363 -1.0451 -0.0945  0.1668
12580SOL    HW140633   2.957   8.734  10.451  0.7568 -1.5584  0.9615
12580SOL    HW240634   2.960   8.653  10.324 -0.0275 -0.5958  0.3166
12581SOL     OW40635   7.791   9.904   9.704  0.0808 -0.0354  0.2743
12581SOL    HW140636   7.723   9.916   9.770  0.3520 -1.1345  0.7725
12581SOL    HW240637   7.780   9.979   9.645  0.6440  1.6892  2.2334
12582SOL     OW40638   4.968   2.445   9.257 -0.5726  0.2612  0.9229
12582SOL    HW140639   5.048   2.396   9.235 -0.3996  0.8758  0.1067
12582SOL    HW240640   4.925   2.392   9.324 -0.0162 -0.6250  0.6050
12583SOL     OW40641   7.486   0.452   8.028 -0.3000 -0.3273  0.2405
12583SOL    HW140642   7.527   0.435   8.113 -0.4757 -0.1895  0.3530
12583SOL    HW240643   7.406   0.500   8.049 -0.4255 -0.4325  0.0081
12584SOL     OW40644   0.405   7.695   0.711 -0.0135 -0.0447 -0.3172
12584SOL    HW140645   0.477   7.647   0.754  0.2793  0.3256 -0.3955
12584SOL    HW240646   0.409   7.783   0.749  0.4002  0.3624 -1.2818
12585SOL     OW40647   7.347   3.102   9.669 -0.1713 -0.3582  0.6625
12585SOL    HW140648   7.401   3.160   9.724  0.6301 -0.2632 -0.1895
12585SOL    HW240649   7.361   3.015   9.705 -0.5335 -0.1638  1.2907
12586SOL     OW40650   8.095   3.140   1.637 -0.1732  0.6547 -0.5280
12586SOL    HW140651   8.024   3.202   1.620 -1.5057 -0.4870  0.6185
12586SOL    HW240652   8.079   3.069   1.575  0.6885  0.9204 -1.0695
12587SOL     OW40653   3.488   8.630   8.323 -0.0456 -0.5971 -0.2671
12587SOL    HW140654   3.559   8.642   8.259 -0.1816 -2.1438 -0.7601
12587SOL    HW240655   3.522   8.564   8.383 -0.6925 -0.6190  0.0758
12588SOL     OW40656   4.978   8.605   7.969  0.4395 -0.0951  0.1815
12588SOL    HW140657   5.058   8.657   7.970  0.2397  0.2350 -0.4005
12588SOL    HW240658   4.962   8.588   7.876 -0.2886  0.0444  0.2773
12589SOL     OW40659  10.484   1.774   2.541 -0.2062 -0.1461  0.1936
12589SOL    HW140660  10.422   1.845   2.526 -1.1167 -0.5550  1.8504
12589SOL    HW240661  10.432   1.694   2.535  0.5467 -0.6189 -0.2765
12590SOL     OW40662   1.372   6.382   1.542 -0.1752 -0.4169 -0.4868
12590SOL    HW140663   1.344   6.421   1.459  1.5553  0.7049 -0.5942
12590SOL    HW240664   1.380   6.456   1.602 -0.5491 -1.1084  0.4320
12591SOL     OW40665   7.814   8.226  10.007  0.4221  1.2382  0.2522
12591SOL    HW140666   7.729   8.186  10.022  0.0082  2.0162  0.0707
12591SOL    HW240667   7.793   8.314   9.976  1.2950  1.4589  0.2687
12592SOL     OW40668   3.326   2.709   0.548 -0.5784 -0.1645 -0.1172
12592SOL    HW140669   3.286   2.646   0.608 -1.0221  1.2964  1.1805
12592SOL    HW240670   3.255   2.734   0.489 -0.8788  0.4263  0.4871
12593SOL     OW40671   7.941   8.292   5.814  0.3893  0.3157  0.3134
12593SOL    HW140672   7.972   8.346   5.887 -0.1114 -0.3210  1.0091
12593SOL    HW240673   7.983   8.207   5.827 -1.0699 -0.3406  0.8744
12594SOL     OW40674   9.348   0.631   6.347  0.5716 -0.8602  0.0540
12594SOL    HW140675   9.341   0.726   6.335 -0.7045 -0.8384  0.7844
12594SOL    HW240676   9.257   0.600   6.348  0.9563 -2.0464  0.1976
12595SOL     OW40677   0.368   4.353   1.361  0.3311 -0.2798 -0.1514
12595SOL    HW140678   0.421   4.389   1.432 -1.4248 -0.5947  1.3589
12595SOL    HW240679   0.414   4.273   1.336  0.6011 -0.5332  1.0998
12596SOL     OW40680   4.935   5.494   5.264 -0.2280  0.1331  1.0254
12596SOL    HW140681   4.925   5.468   5.172 -0.9048  2.2329  0.4452
12596SOL    HW240682   4.890   5.425   5.313 -0.1590 -0.8492 -0.2273
12597SOL     OW40683   7.080   1.604   2.744 -0.0570  0.5126 -0.1716
12597SOL    HW140684   7.083   1.696   2.716 -1.7115 -0.1167 -2.7884
12597SOL    HW240685   6.993   1.594   2.783  0.2064  0.1000  0.3236
12598SOL     OW40686   1.043   2.189   5.210  0.2100 -0.4591 -0.0602
12598SOL    HW140687   1.018   2.256   5.273 -1.5648  1.3033 -2.4956
12598SOL    HW240688   1.139   2.195   5.206  0.1653  1.2184  0.5202
12599SOL     OW40689   1.822   6.490   6.071  0.0601  0.1371 -0.4851
12599SOL    HW140690   1.843   6.449   5.987  2.5991  0.6233 -0.1764
12599SOL    HW240691   1.813   6.583   6.051 -2.1834 -0.0693 -0.6228
12600SOL     OW40692   3.010   1.783   4.849  0.0333  0.0087 -0.3648
12600SOL    HW140693   2.977   1.865   4.812  0.1580  0.4855  0.5616
12600SOL    HW240694   2.995   1.791   4.943 -1.6663 -1.7999 -0.4172
12601SOL     OW40695   9.835  10.243   3.687 -0.3404  0.0590  0.6571
12601SOL    HW140696   9.761  10.193   3.655 -1.2899  2.1634 -0.6759
12601SOL    HW240697   9.824  10.330   3.648  3.1017  0.3331 -0.0376
12602SOL     OW40698   7.540   4.486   5.443 -0.6336  0.1515  0.0133
12602SOL    HW140699   7.613   4.544   5.464 -0.7159 -0.4784  2.3004
12602SOL    HW240700   7.462   4.541   5.450 -0.5546  0.2523  0.1064
12603SOL     OW40701   1.440   4.053   3.790  0.1764  0.1383  0.0474
12603SOL    HW140702   1.351   4.044   3.755  0.1291  0.0242  0.1957
12603SOL    HW240703   1.428   4.056   3.885  0.2392  1.2540  0.0267
12604SOL     OW40704  10.744   9.790   2.850  0.3306  0.2335 -0.1159
12604SOL    HW140705  10.704   9.703   2.853  0.3739  0.1704 -0.9833
12604SOL    HW240706  10.733   9.825   2.938 -3.3881  0.9713 -0.7055
12605SOL     OW40707   1.237   7.392   7.755 -0.3759  0.6022 -0.7199
12605SOL    HW140708   1.172   7.352   7.697 -0.9289  2.4632 -1.4616
12605SOL    HW240709   1.232   7.486   7.736  1.1680  1.0081  0.6132
12606SOL     OW40710   0.927   8.089  10.618  0.0023  0.8618 -0.5651
12606SOL    HW140711   0.926   8.183  10.635 -0.1788  0.6644  0.6039
12606SOL    HW240712   0.996   8.078  10.552  0.5129  1.7261 -0.1982
12607SOL     OW40713   5.437   2.905   5.953  0.7020 -0.4901 -0.1868
12607SOL    HW140714   5.476   2.855   5.881  2.6010 -0.0773  0.5016
12607SOL    HW240715   5.353   2.935   5.918  0.6133 -2.0561 -1.4748
12608SOL     OW40716   9.809   5.858   6.428 -0.7413  0.5607 -0.6004
12608SOL    HW140717   9.764   5.831   6.348 -2.8181  1.8969  0.0371
12608SOL    HW240718   9.740   5.859   6.495  0.8284  0.0077  1.1050
12609SOL     OW40719   4.307   0.295   5.169  0.3127  0.5912  0.1901
12609SOL    HW140720   4.256   0.228   5.215 -0.3774  1.3657  0.5845
12609SOL    HW240721   4.244   0.336   5.110  0.5926  1.2798  0.3688
12610SOL     OW40722   6.089   0.100   6.841 -0.2767  0.3662  0.3793
12610SOL    HW140723   6.069   0.006   6.848 -0.6502  0.4094 -0.1399
12610SOL    HW240724   6.076   0.133   6.930  1.4491 -0.3792  0.9447
12611SOL     OW40725   9.144   6.986   9.987  0.3554 -0.2206  0.6427
12611SOL    HW140726   9.206   7.059   9.988 -1.9242  1.8323  1.5435
12611SOL    HW240727   9.061   7.024  10.015 -1.0199 -3.1484  0.9642
12612SOL     OW40728   4.861   4.405   7.997  0.2245 -0.0561  1.1067
12612SOL    HW140729   4.796   4.335   8.005 -1.0167  0.6783 -1.5008
12612SOL    HW240730   4.852   4.456   8.078 -0.8646 -1.2324  1.7580
12613SOL     OW40731   4.985   8.237   8.177 -0.1554  0.2253 -0.2959
12613SOL    HW140732   4.896   8.237   8.139 -0.3914  0.7886  0.2450
12613SOL    HW240733   4.999   8.147   8.205 -0.7684  0.2440  0.0889
12614SOL     OW40734   7.157   9.222   3.406 -0.0711 -0.3940 -0.3645
12614SOL    HW140735   7.063   9.227   3.426  0.0893 -2.0302  1.0206
12614SOL    HW240736   7.176   9.128   3.405  1.5005 -0.0929 -0.9921
12615SOL     OW40737   1.748  10.470   4.527 -0.0754  0.4754 -0.0434
12615SOL    HW140738   1.790  10.520   4.456  1.8866 -1.5613 -0.3957
12615SOL    HW240739   1.817  10.415   4.562 -1.8533 -1.0883  1.1655
12616SOL     OW40740   1.640   3.264   2.069  0.1523  0.3399 -0.1795
12616SOL    HW140741   1.725   3.278   2.027  0.6608 -0.9224  0.3805
12616SOL    HW240742   1.658   3.271   2.162 -0.2384 -0.4580 -0.0329
12617SOL     OW40743   0.247   9.849   4.509  0.2256 -0.4860  0.2173
12617SOL    HW140744   0.260   9.886   4.421 -2.5381  0.1040 -0.0353
12617SOL    HW240745   0.318   9.886   4.561  1.7481 -0.5895 -1.6575
12618SOL     OW40746   1.401   3.847   3.128  0.7112  0.1099 -0.1484
12618SOL    HW140747   1.334   3.805   3.183  0.6509  1.0767  0.5464
12618SOL    HW240748   1.375   3.826   3.038 -0.6779  0.6495  0.0918
12619SOL     OW40749   9.087   8.724   3.209  0.0910 -0.1945  0.0925
12619SOL    HW140750   9.071   8.816   3.185 -0.2287  0.2092  1.7022
12619SOL    HW240751   9.069   8.675   3.129 -0.4622  1.0900 -0.6066
12620SOL     OW40752   8.092   0.146   2.600 -0.4251 -0.3294 -0.0763
12620SOL    HW140753   8.077   0.106   2.685  0.2959 -0.7847 -0.1542
12620SOL    HW240754   8.041   0.227   2.602 -2.3697 -1.5035 -0.1323
12621SOL     OW40755   0.714   7.987   7.429 -0.0384  1.4981 -0.7038
12621SOL    HW140756   0.656   7.969   7.355 -0.7643  3.1917 -0.6116
12621SOL    HW240757   0.668   8.055   7.479  1.6789  2.3714 -0.2249
12622SOL     OW40758   7.204   5.801   9.678 -0.0677  0.7882  0.0995
12622SOL    HW140759   7.223   5.823   9.587  1.3926 -0.6146  0.0159
12622SOL    HW240760   7.291   5.791   9.718 -0.4711 -3.6351  0.3435
12623SOL     OW40761   5.201   9.254   9.328 -0.3806 -0.2001 -0.4031
12623SOL    HW140762   5.135   9.247   9.259 -1.2219 -0.6712  0.4374
12623SOL    HW240763   5.255   9.176   9.317  1.0073  0.9179 -2.0395
12624SOL     OW40764   1.805   0.165   9.555 -0.3057 -0.0292 -0.2285
12624SOL    HW140765   1.713   0.138   9.550 -0.7205  0.0215  3.6899
12624SOL    HW240766   1.802   0.259   9.571  0.4289 -0.0080 -0.1812
12625SOL     OW40767   2.086   4.095   0.634  0.1464 -0.2415  0.2658
12625SOL    HW140768   2.092   4.138   0.719 -1.1849  0.8864 -0.1745
12625SOL    HW240769   2.002   4.050   0.636 -0.8892  1.4888 -1.1616
12626SOL     OW40770   2.716   8.538   1.639 -0.2243 -0.7620  0.3457
12626SOL    HW140771   2.803   8.500   1.628  0.9521  2.0329 -0.9886
12626SOL    HW240772   2.661   8.464   1.666  2.0501 -3.1136 -0.9747
12627SOL     OW40773   0.440  10.463   8.167  0.3684 -0.0260  0.4247
12627SOL    HW140774   0.382  10.466   8.091  0.2170 -1.1040  0.4861
12627SOL    HW240775   0.526  10.487   8.133  0.2290 -0.1540 -0.0153
12628SOL     OW40776   2.755   2.993   7.081  0.6454 -0.1626  0.1848
12628SOL    HW140777   2.819   2.938   7.036 -0.9260 -1.3720 -0.6632
12628SOL    HW240778   2.675   2.940   7.083 -1.2366  2.4047 -1.5250
12629SOL     OW40779   1.145   1.929   0.684  0.5705  0.3816 -0.7671
12629SOL    HW140780   1.124   2.001   0.625  2.0508  0.9866 -0.5965
12629SOL    HW240781   1.204   1.967   0.749 -0.3841 -0.4612  0.6626
12630SOL     OW40782   2.944   7.967   5.567  0.3202 -0.2522 -0.0687
12630SOL    HW140783   3.013   7.903   5.586  0.7064  0.5625  1.5042
12630SOL    HW240784   2.990   8.041   5.528  0.0161 -0.5145 -0.9494
12631SOL     OW40785   8.566   2.426   8.062 -0.3162  0.3142  0.1565
12631SOL    HW140786   8.513   2.376   7.999 -0.2934  1.0142 -0.4219
12631SOL    HW240787   8.568   2.515   8.027 -1.0343  0.9313  1.5932
12632SOL     OW40788   5.330   1.816   6.300 -0.1879 -0.7206 -0.2268
12632SOL    HW140789   5.401   1.880   6.296 -1.9831  1.3474 -1.0983
12632SOL    HW240790   5.286   1.823   6.216 -3.1488  0.2249  1.2564
12633SOL     OW40791   5.697   6.450   5.768 -0.2862 -0.6547 -0.2346
12633SOL    HW140792   5.649   6.368   5.779 -0.7711 -0.2214  1.0373
12633SOL    HW240793   5.786   6.430   5.797  0.0031 -1.1175 -1.3800
12634SOL     OW40794   5.459   6.281   2.461  0.1500 -0.7558  0.9072
12634SOL    HW140795   5.544   6.243   2.482  0.6161 -0.2814 -0.0596
12634SOL    HW240796   5.479   6.357   2.406 -0.9824 -1.7885 -1.0307
12635SOL     OW40797   7.238  10.131   9.024 -0.6156  0.6167  0.1335
12635SOL    HW140798   7.187  10.066   9.071  2.3412 -2.0679 -0.0425
12635SOL    HW240799   7.263  10.088   8.942  2.4370  1.4248  0.5278
12636SOL     OW40800   2.589   1.201   0.543  0.3180 -0.2137  0.1044
12636SOL    HW140801   2.635   1.271   0.497  1.8977 -1.5798 -0.4729
12636SOL    HW240802   2.530   1.164   0.478 -0.0096  0.1006  0.2145
12637SOL     OW40803   6.855  10.563  10.168 -0.2145 -0.3509 -0.8105
12637SOL    HW140804   6.856  10.469  10.151 -0.5096 -0.2650 -1.3363
12637SOL    HW240805   6.782  10.596  10.116 -2.3942 -0.3008  2.0717
12638SOL     OW40806   6.676   6.543   4.473  0.2740 -0.1419  0.6790
12638SOL    HW140807   6.642   6.483   4.540 -0.7401  1.1874  1.3811
12638SOL    HW240808   6.770   6.548   4.492  0.3709 -1.4103  0.6591
12639SOL     OW40809   5.404  10.601   2.738  0.4002 -0.2781  0.2516
12639SOL    HW140810   5.417  10.558   2.823 -0.1544 -1.4544 -0.2336
12639SOL    HW240811   5.408  10.694   2.758 -3.3799 -0.3527  2.2954
12640SOL     OW40812   2.898   1.336   3.060 -0.1684  0.4474  0.2765
12640SOL    HW140813   2.945   1.411   3.098 -1.1470  0.0187  2.5383
12640SOL    HW240814   2.833   1.375   3.003 -0.2217  1.3097  0.9011
12641SOL     OW40815   2.505   7.027   1.720 -0.1606 -0.1581 -0.2790
12641SOL    HW140816   2.430   7.079   1.752 -1.5213 -2.5263  0.6765
12641SOL    HW240817   2.483   7.008   1.629 -1.8315 -2.4543  0.5012
12642SOL     OW40818   5.861   4.785   9.102 -0.3464  0.2282 -0.4579
12642SOL    HW140819   5.788   4.724   9.094 -0.3047  0.1916 -0.5688
12642SOL    HW240820   5.926   4.739   9.155  1.2642 -1.3626 -3.5043
12643SOL     OW40821   2.010   9.365   1.566  0.1420  0.1288 -0.7139
12643SOL    HW140822   1.975   9.379   1.654  0.6656 -1.1859 -0.2786
12643SOL    HW240823   2.067   9.289   1.575  0.1499 -0.0629 -2.2085
12644SOL     OW40824   4.285   1.827   1.941  0.5427  0.1098 -0.3019
12644SOL    HW140825   4.289   1.731   1.945 -0.3147 -0.0366 -1.9123
12644SOL    HW240826   4.196   1.845   1.908  0.4755  1.4906  0.5754
12645SOL     OW40827   3.895   4.454   9.704 -0.1279  0.1230  0.1295
12645SOL    HW140828   3.806   4.469   9.734 -0.1005 -0.1283  0.3393
12645SOL    HW240829   3.941   4.418   9.780  0.6369  1.9463  0.5816
12646SOL     OW40830   4.464   3.673  10.070 -0.9978 -0.5906 -0.5865
12646SOL    HW140831   4.519   3.721  10.131 -0.1367 -0.7466 -1.2087
12646SOL    HW240832   4.526   3.620  10.019 -1.8386 -1.7080 -0.4932
12647SOL     OW40833   7.361   1.470   9.604 -0.2541  0.2368  0.7927
12647SOL    HW140834   7.269   1.495   9.613 -0.3480 -0.0726  0.7080
12647SOL    HW240835   7.374   1.401   9.670 -0.2911 -0.2707  0.2793
12648SOL     OW40836   8.637   2.492   2.572  0.7410  0.1214  0.3028
12648SOL    HW140837   8.678   2.500   2.486 -0.6194 -1.0832 -0.5086
12648SOL    HW240838   8.550   2.528   2.561 -0.0233 -1.5112  0.7083
12649SOL     OW40839   8.227   6.686   0.858  0.2198  0.3358 -0.1374
12649SOL    HW140840   8.304   6.742   0.859 -0.0836  0.8457 -2.0607
12649SOL    HW240841   8.258   6.602   0.892  1.6133  0.5261 -0.8801
12650SOL     OW40842   6.351   6.256   7.695  0.1540  0.2507 -0.8735
12650SOL    HW140843   6.278   6.227   7.640 -0.8808 -0.0812  0.6205
12650SOL    HW240844   6.406   6.178   7.705 -0.6484 -0.2177  0.0644
12651SOL     OW40845   7.983  10.435   4.631  0.2649  0.2177  0.2349
12651SOL    HW140846   7.888  10.431   4.622  0.4202  0.4952 -2.3341
12651SOL    HW240847   8.005  10.361   4.688 -1.4001 -0.4825  0.0183
12652SOL     OW40848   2.949   7.957   8.676  0.2549 -0.1865 -0.8130
12652SOL    HW140849   2.944   8.006   8.758  1.4531 -0.5116 -0.5278
12652SOL    HW240850   2.999   8.013   8.617  0.3056 -0.4066 -0.9788
12653SOL     OW40851   2.077   9.491  10.081 -0.2164  0.3375  0.3169
12653SOL    HW140852   2.123   9.551  10.141 -0.2330  0.6809 -0.0096
12653SOL    HW240853   1.984   9.506  10.098 -0.2195 -0.2074  0.8285
12654SOL     OW40854   1.032   4.407   9.799 -0.2084 -0.0761  0.5099
12654SOL    HW140855   0.971   4.480   9.788 -0.8197 -0.8910 -2.3416
12654SOL    HW240856   1.019   4.378   9.889 -0.6115  2.6958  1.4330
12655SOL     OW40857   5.924   3.704   4.775  0.2666  0.2178 -0.3087
12655SOL    HW140858   5.974   3.780   4.804  1.0448 -0.0553 -0.9117
12655SOL    HW240859   5.937   3.639   4.844  0.4174  0.2847 -0.2756
12656SOL     OW40860   3.317   4.172   5.861 -0.3988  0.0716 -0.1033
12656SOL    HW140861   3.299   4.099   5.920 -1.4513 -0.3214 -0.8767
12656SOL    HW240862   3.283   4.143   5.776  0.2795  0.9765 -0.7116
12657SOL     OW40863  10.216   5.537   2.232  0.2223  0.2038 -0.5104
12657SOL    HW140864  10.192   5.629   2.237 -1.5914 -0.2110 -1.0361
12657SOL    HW240865  10.295   5.535   2.179  0.2470  1.4372 -0.5353
12658SOL     OW40866   3.562   1.642   2.621  0.0408  0.7340  0.5132
12658SOL    HW140867   3.644   1.680   2.590 -0.7121  1.6803 -0.4004
12658SOL    HW240868   3.568   1.550   2.596  0.0433  1.1859 -1.2958
12659SOL     OW40869   4.896   2.030   4.081 -0.0554 -0.4082 -0.0920
12659SOL    HW140870   4.830   2.011   4.014  0.1460  0.6969 -0.6308
12659SOL    HW240871   4.970   1.975   4.058 -0.0570 -0.1716 -0.6802
12660SOL     OW40872   7.337   8.794   6.973  0.1023 -0.0720  0.3417
12660SOL    HW140873   7.372   8.722   6.920 -0.1402  0.3191 -0.3547
12660SOL    HW240874   7.392   8.795   7.052  1.2535  0.1278 -0.4467
12661SOL     OW40875   5.693   8.376   1.891  0.0553 -0.2084  0.0640
12661SOL    HW140876   5.640   8.297   1.901  0.6482 -0.7924 -1.1221
12661SOL    HW240877   5.708   8.382   1.796  0.8331  0.7796  0.2407
12662SOL     OW40878   4.943   2.462   2.408  0.3887 -0.1214  0.3842
12662SOL    HW140879   4.885   2.535   2.386  0.6116  0.2187  0.9095
12662SOL    HW240880   5.032   2.499   2.401  0.5803 -0.8184 -1.0771
12663SOL     OW40881   6.615   3.156   6.587 -0.0685 -0.0035  0.1857
12663SOL    HW140882   6.629   3.143   6.680  1.9882  0.6228  0.0135
12663SOL    HW240883   6.632   3.249   6.572 -0.4558 -0.0726 -0.8203
12664SOL     OW40884   6.041   3.823   4.062 -0.1560  0.6435 -0.6077
12664SOL    HW140885   6.093   3.755   4.019 -1.1522 -0.1110 -0.6521
12664SOL    HW240886   5.967   3.776   4.100  0.5915  1.2744  1.8382
12665SOL     OW40887   8.044   7.149   1.509 -0.0221 -0.7337 -0.1252
12665SOL    HW140888   8.073   7.058   1.513 -0.8455 -1.1298 -1.9454
12665SOL    HW240889   8.007   7.168   1.595  2.5935 -1.2280  1.1775
12666SOL     OW40890   5.042   7.870   9.712  0.0621  0.5307  0.5920
12666SOL    HW140891   5.111   7.811   9.743 -0.6201 -0.1183  0.9171
12666SOL    HW240892   5.086   7.928   9.650  0.2336 -2.3267 -2.2705
12667SOL     OW40893   9.991   8.660   7.847  0.1116  0.2942 -1.0595
12667SOL    HW140894  10.022   8.589   7.790 -1.7726 -1.6230  0.1456
12667SOL    HW240895  10.055   8.665   7.917  0.1668 -0.3715 -1.0559
12668SOL     OW40896   9.259   9.246   3.078 -0.2794  0.1394 -0.3827
12668SOL    HW140897   9.271   9.303   3.002 -1.3510 -0.0982 -0.7504
12668SOL    HW240898   9.229   9.306   3.147  1.9531  0.5779  0.2758
12669SOL     OW40899   3.697   6.137   9.494  0.2672 -0.1635  0.6293
12669SOL    HW140900   3.768   6.121   9.432  0.1867  4.5027 -1.1474
12669SOL    HW240901   3.618   6.114   9.445  0.3583  0.6021  0.0853
12670SOL     OW40902   7.081   8.380   1.815  0.3386  0.8238 -0.1886
12670SOL    HW140903   7.128   8.350   1.737  1.2012  0.2838  0.5172
12670SOL    HW240904   7.077   8.302   1.871  1.0321  1.5538  0.9238
12671SOL     OW40905  10.649   4.271   4.524  0.7130  0.1009 -0.1356
12671SOL    HW140906  10.649   4.310   4.436  0.2895  1.5417  0.4753
12671SOL    HW240907  10.611   4.338   4.580  1.2353 -0.6911  1.2163
12672SOL     OW40908   7.387   8.564   4.874  0.8148  0.2616 -0.0688
12672SOL    HW140909   7.325   8.620   4.828 -1.4540 -0.6650  1.6742
12672SOL    HW240910   7.366   8.475   4.846 -1.6503 -0.5065  3.5661
12673SOL     OW40911  10.410   4.582   8.333  0.1590 -0.1543  0.3771
12673SOL    HW140912  10.345   4.549   8.271  0.2338 -0.4650  0.4608
12673SOL    HW240913  10.389   4.537   8.415 -0.4450  0.8565  0.7979
12674SOL     OW40914   9.343   1.595   1.357 -0.0540 -0.0280 -0.2056
12674SOL    HW140915   9.375   1.676   1.397  0.1409  0.3135 -1.0308
12674SOL    HW240916   9.309   1.544   1.430 -0.0701  0.7502  0.3405
12675SOL     OW40917   2.516   2.213   9.926  0.6769  0.3527  0.0522
12675SOL    HW140918   2.557   2.288   9.968  0.7895  0.4937 -0.3089
12675SOL    HW240919   2.452   2.251   9.866  0.2053  0.1420  0.4096
12676SOL     OW40920   5.705   0.517  10.260 -0.2403  0.0182 -0.6596
12676SOL    HW140921   5.677   0.476  10.342 -2.3260  2.0484 -0.2622
12676SOL    HW240922   5.738   0.603  10.287  1.6187 -0.3039 -1.7295
12677SOL     OW40923   2.862   3.509   3.703 -0.9312  0.3932 -0.0635
12677SOL    HW140924   2.773   3.474   3.714 -0.1765 -1.4172  0.7585
12677SOL    HW240925   2.885   3.543   3.789 -0.2261 -0.7291  0.2136
12678SOL     OW40926   8.697   5.098   2.886 -0.0636  0.3372  0.7290
12678SOL    HW140927   8.670   5.182   2.849 -1.0869  0.2264  1.2020
12678SOL    HW240928   8.683   5.108   2.981 -1.4895 -0.8109  0.6763
12679SOL     OW40929   1.177   8.251   8.267 -0.4005 -0.1745  0.4143
12679SOL    HW140930   1.127   8.180   8.306  1.0713 -1.9586 -0.7280
12679SOL    HW240931   1.112   8.307   8.225 -1.5897 -0.9538  1.1757
12680SOL     OW40932   1.825   1.023   9.028  0.1013 -0.0976 -0.3687
12680SOL    HW140933   1.865   1.098   8.984  0.1815  0.0873  0.0187
12680SOL    HW240934   1.731   1.043   9.029  0.0811 -0.1839 -0.6151
12681SOL     OW40935   7.017   0.269   1.018 -0.8053  0.2538 -0.1033
12681SOL    HW140936   6.985   0.200   1.075 -2.4672  0.0419 -1.2178
12681SOL    HW240937   6.957   0.342   1.033 -1.7972 -0.0811 -2.0833
12682SOL     OW40938   0.381   7.458   0.546 -0.1222 -0.0060  0.5126
12682SOL    HW140939   0.303   7.415   0.579 -1.0466  1.8678  0.8912
12682SOL    HW240940   0.409   7.515   0.618  1.5340 -0.5425  0.3367
12683SOL     OW40941   6.763   4.067   0.689  0.2341  0.6479  0.1820
12683SOL    HW140942   6.808   4.119   0.622  0.2951  0.9695  0.4726
12683SOL    HW240943   6.696   4.018   0.640  0.5286  0.5899 -0.1685
12684SOL     OW40944   0.138   6.589   7.026 -0.1177 -0.3262 -0.2246
12684SOL    HW140945   0.048   6.558   7.018 -0.4371  0.8351 -1.4868
12684SOL    HW240946   0.189   6.530   6.970 -0.2035 -0.5231 -0.0980
12685SOL     OW40947   2.826   7.976   9.779  0.2962 -0.0180  0.4389
12685SOL    HW140948   2.853   8.010   9.694 -0.3961 -0.6584 -0.0542
12685SOL    HW240949   2.764   8.041   9.813 -1.8884 -1.2242 -0.9951
12686SOL     OW40950   5.589   1.662   6.258 -0.0893 -0.0379 -0.4496
12686SOL    HW140951   5.501   1.694   6.282 -1.3474 -1.9778 -2.1195
12686SOL    HW240952   5.602   1.585   6.313  1.4153  1.2428  1.0792
12687SOL     OW40953   4.557   2.325   9.307 -0.2121  0.1476 -0.0850
12687SOL    HW140954   4.556   2.265   9.233  0.4548 -0.0027  0.0218
12687SOL    HW240955   4.503   2.399   9.279 -1.1625 -0.5585 -0.1575
12688SOL     OW40956   5.821   4.706   4.833 -0.2486 -0.2299 -0.3269
12688SOL    HW140957   5.917   4.709   4.834 -0.1825 -1.5393  0.8981
12688SOL    HW240958   5.796   4.711   4.926 -1.2872 -1.3664 -0.5258
12689SOL     OW40959   3.202   9.235   8.167  0.9191 -0.2583 -0.5962
12689SOL    HW140960   3.176   9.238   8.075  2.3067 -1.0286 -1.0415
12689SOL    HW240961   3.120   9.220   8.214  0.3061 -0.8446 -1.7913
12690SOL     OW40962   1.184  10.213   5.660  0.3854  0.4188 -0.1596
12690SOL    HW140963   1.132  10.293   5.663  0.0343  0.2311 -1.0171
12690SOL    HW240964   1.134  10.154   5.603  1.0336 -0.1245 -0.1745
12691SOL     OW40965   2.394   2.259   6.071  0.3932  0.7384 -0.1323
12691SOL    HW140966   2.485   2.247   6.046  0.9530  0.8613  1.6720
12691SOL    HW240967   2.348   2.276   5.989  2.0783  1.2394 -1.0181
12692SOL     OW40968   3.313   2.474   3.797 -0.2017  0.5572 -0.1688
12692SOL    HW140969   3.325   2.509   3.885 -0.4857 -3.4818  1.6592
12692SOL    HW240970   3.400   2.444   3.771 -0.6900 -1.3945  0.2945
12693SOL     OW40971   1.620   2.231   3.574  0.0052 -0.6986 -0.6845
12693SOL    HW140972   1.663   2.253   3.492 -0.5044  0.5556 -0.6427
12693SOL    HW240973   1.535   2.196   3.548 -0.5412  0.5735 -0.7076
12694SOL     OW40974   6.286   8.390   1.253 -0.1593  0.2274  0.1018
12694SOL    HW140975   6.366   8.413   1.300 -1.7095  2.2933  1.9283
12694SOL    HW240976   6.311   8.393   1.161  1.5913  2.1157  0.5540
12695SOL     OW40977   7.008   0.232   7.941  0.1275  0.1099 -0.1338
12695SOL    HW140978   6.925   0.193   7.914 -0.4509 -0.4913  2.2677
12695SOL    HW240979   7.066   0.157   7.957  0.0905  0.3380  1.2171
12696SOL     OW40980   6.875   8.301   2.024  0.6851  0.3289 -0.0135
12696SOL    HW140981   6.844   8.353   1.950 -0.6538 -0.6958 -0.2281
12696SOL    HW240982   6.916   8.364   2.083 -1.8760  1.8664  0.2732
12697SOL     OW40983  10.672   3.879   7.780  0.6750 -0.1168  0.2880
12697SOL    HW140984  10.654   3.846   7.868  0.5663 -2.8321 -0.6575
12697SOL    HW240985  10.586   3.895   7.742  0.6279 -1.2496 -0.1044
12698SOL     OW40986   8.056   2.680  10.211 -0.2895 -0.0156 -0.0789
12698SOL    HW140987   8.117   2.753  10.200  1.1329 -0.8808  1.6803
12698SOL    HW240988   8.107   2.603  10.189 -1.3714 -0.6221 -0.5332
12699SOL     OW40989   2.841   3.297  10.027  0.0046 -0.8691 -0.2999
12699SOL    HW140990   2.754   3.270  10.000  0.4125 -2.1000 -0.4084
12699SOL    HW240991   2.833   3.392  10.040 -1.4611 -1.0288  0.1554
12700SOL     OW40992   8.278  10.547   6.328  0.5101 -0.0897  0.0193
12700SOL    HW140993   8.336  10.618   6.300  1.7661 -0.6352  1.0947
12700SOL    HW240994   8.191  10.573   6.297  1.2036  1.1040 -1.0381
12701SOL     OW40995   0.650   0.355   7.823 -0.1195 -0.3719  0.5336
12701SOL    HW140996   0.564   0.317   7.805  0.2790 -0.4349 -1.5107
12701SOL    HW240997   0.631   0.440   7.861 -1.1435  0.0852 -0.8853
12702SOL     OW40998   5.439   0.087   9.011  0.5378 -0.3577  0.4247
12702SOL    HW140999   5.383   0.042   8.948  0.7541  1.6628 -1.3294
12702SOL    HW241000   5.398   0.071   9.096 -0.7985 -1.6428 -0.4243
12703SOL     OW41001  10.010   2.742   6.830 -0.0788  0.2461  0.0603
12703SOL    HW141002   9.954   2.818   6.814 -0.0310  0.2051 -0.3170
12703SOL    HW241003   9.950   2.669   6.841 -0.1906  0.5521  1.7686
12704SOL     OW41004   7.605   5.607   9.442  0.2171 -0.4072  0.2414
12704SOL    HW141005   7.531   5.549   9.427 -1.4716  1.4215  0.9334
12704SOL    HW241006   7.636   5.584   9.530 -0.3931 -0.3416  0.4842
12705SOL     OW41007   8.095   0.738   2.905 -0.6083  0.2677 -0.1583
12705SOL    HW141008   8.142   0.818   2.927  1.0599 -0.3307 -1.3614
12705SOL    HW241009   8.159   0.668   2.920 -1.9341 -0.8542  0.6048
12706SOL     OW41010   0.729   5.241   1.785 -0.2795 -0.0534 -0.0751
12706SOL    HW141011   0.658   5.184   1.757  0.5679 -1.0185 -0.3350
12706SOL    HW241012   0.804   5.182   1.796  0.1271  0.7059  1.5602
12707SOL     OW41013  10.098   7.900   6.795  0.5512 -0.5498 -0.3068
12707SOL    HW141014  10.107   7.980   6.848  0.2836 -0.0160 -1.0575
12707SOL    HW241015  10.149   7.917   6.716 -0.0937 -0.8395 -0.7944
12708SOL     OW41016   0.452   6.781   4.193  0.1958  0.1796  0.4053
12708SOL    HW141017   0.399   6.735   4.258 -1.2661  1.5787  0.2625
12708SOL    HW241018   0.405   6.769   4.111  0.9112  0.1864 -0.0107
12709SOL     OW41019   5.393   9.878   1.865 -0.5253  0.3069  0.0220
12709SOL    HW141020   5.314   9.854   1.817  0.0993  0.5930 -1.1866
12709SOL    HW241021   5.361   9.921   1.944 -1.6275 -2.0682  0.9720
12710SOL     OW41022   2.174   2.097   5.715 -0.0802 -0.2391  0.2067
12710SOL    HW141023   2.253   2.095   5.768  0.6684 -0.8000 -0.8929
12710SOL    HW241024   2.103   2.083   5.778  0.9159 -3.3188  0.8124
12711SOL     OW41025   9.231  10.367   6.237  0.2563  0.4682  0.1277
12711SOL    HW141026   9.140  10.337   6.235 -1.0647  3.5927  2.6598
12711SOL    HW241027   9.227  10.456   6.202  2.3288  0.6884  0.3492
12712SOL     OW41028   0.937   3.541   6.318 -0.1782  0.4319  0.2095
12712SOL    HW141029   1.012   3.490   6.347 -0.6156  0.5800  1.6427
12712SOL    HW241030   0.881   3.550   6.395 -1.2470  1.0841 -0.5990
12713SOL     OW41031   1.151   8.359   3.079 -0.1970  0.6141 -0.5232
12713SOL    HW141032   1.188   8.428   3.134  1.2495 -0.7546  0.3023
12713SOL    HW241033   1.209   8.284   3.092 -0.0660  0.0511 -3.5340
12714SOL     OW41034   0.896   7.931   0.047  0.5102  0.4277  0.7041
12714SOL    HW141035   0.809   7.969   0.061  0.2502  0.2305 -0.3215
12714SOL    HW241036   0.935   7.986  -0.021  1.1514  0.4370  1.0702
12715SOL     OW41037   4.243   8.537  10.152 -0.7199  0.6061  0.1578
12715SOL    HW141038   4.300   8.480  10.204 -0.7268 -0.4846 -0.9816
12715SOL    HW241039   4.304   8.595  10.106 -0.7047  1.4287  1.1819
12716SOL     OW41040   3.864   7.955   6.515  0.5332 -0.2073 -0.2682
12716SOL    HW141041   3.843   7.999   6.432  1.2722  1.1406  0.2320
12716SOL    HW241042   3.803   7.992   6.578  0.4112 -0.7457 -0.0645
12717SOL     OW41043   7.297   5.173   4.338  0.3590  0.0851 -0.2449
12717SOL    HW141044   7.268   5.227   4.412 -0.5963 -1.3713  0.5156
12717SOL    HW241045   7.339   5.234   4.278 -1.2013  1.7769  0.2668
12718SOL     OW41046   3.035   2.722   0.769 -0.0512 -0.1371 -0.3409
12718SOL    HW141047   2.990   2.708   0.686  0.1527 -1.5505 -0.2392
12718SOL    HW241048   3.100   2.651   0.774 -1.0965 -1.0361  1.7156
12719SOL     OW41049   3.864   4.813   4.910 -0.3740 -0.5211  0.5803
12719SOL    HW141050   3.835   4.748   4.974  0.2645 -0.5252  0.8695
12719SOL    HW241051   3.840   4.897   4.948 -0.7965 -0.5596  0.4101
12720SOL     OW41052   8.775   7.104   3.437 -0.2398  0.0896  0.1582
12720SOL    HW141053   8.810   7.080   3.351 -0.8340 -1.1735  0.2511
12720SOL    HW241054   8.853   7.119   3.491  0.1574  1.6396 -0.7504
12721SOL     OW41055  10.178   6.361   7.882  0.1880 -0.0201  0.3860
12721SOL    HW141056  10.230   6.428   7.927  1.1565 -1.0768  0.9066
12721SOL    HW241057  10.233   6.332   7.810 -0.0173 -0.5875  0.4531
12722SOL     OW41058   5.253  10.249   6.439  0.4246  0.4987 -0.4848
12722SOL    HW141059   5.178  10.272   6.383  0.9012 -0.1538 -1.4246
12722SOL    HW241060   5.227  10.168   6.482  0.7969 -0.0566 -1.2709
12723SOL     OW41061   4.080   3.056   8.452  0.4443  0.1787  0.1587
12723SOL    HW141062   4.085   3.091   8.540 -0.3787  1.0330 -0.1246
12723SOL    HW241063   4.035   3.124   8.401 -0.4039 -0.9141 -0.5964
12724SOL     OW41064   1.589   2.222   9.378 -0.2975 -0.2272 -0.3894
12724SOL    HW141065   1.636   2.232   9.295  0.4816 -0.1654  0.0486
12724SOL    HW241066   1.537   2.302   9.386 -2.9184 -1.5622 -2.3393
12725SOL     OW41067   6.852   6.273   3.678  0.0600 -0.1769 -0.0087
12725SOL    HW141068   6.918   6.207   3.700 -0.7001 -1.1476 -0.5674
12725SOL    HW241069   6.875   6.348   3.732  0.9647 -0.8815  0.6251
12726SOL     OW41070   7.454   5.717   6.091 -0.1343  0.5980 -0.3003
12726SOL    HW141071   7.380   5.680   6.043 -0.0389  1.1275 -0.8594
12726SOL    HW241072   7.414   5.761   6.166 -0.5170  1.9551 -1.2568
12727SOL     OW41073   0.647   0.247   5.626 -0.0198 -0.1597  0.2669
12727SOL    HW141074   0.609   0.162   5.649  0.5017 -0.3891  0.2970
12727SOL    HW241075   0.688   0.233   5.541 -2.7489  0.9264 -1.3533
12728SOL     OW41076   0.425   4.884  10.725 -0.4001 -0.8281 -0.1161
12728SOL    HW141077   0.477   4.958  10.693  0.0962 -0.8989  0.5144
12728SOL    HW241078   0.461   4.808  10.679 -0.9780 -0.6797 -0.8431
12729SOL     OW41079  10.430   1.281   3.283  0.5497 -0.0474  0.8606
12729SOL    HW141080  10.430   1.321   3.196  1.8997  0.3778  1.0223
12729SOL    HW241081  10.358   1.218   3.281 -0.1455  0.7492 -0.1833
12730SOL     OW41082   4.957   7.970   7.585 -0.3169 -0.7285  0.2790
12730SOL    HW141083   4.958   7.875   7.581 -0.3292 -0.7468  0.6927
12730SOL    HW241084   5.023   7.993   7.651 -1.8135 -0.5435  1.7827
12731SOL     OW41085   7.546   3.924   6.895  0.4225  0.3635  0.2974
12731SOL    HW141086   7.538   4.017   6.916 -0.8693  0.3693 -0.1777
12731SOL    HW241087   7.480   3.908   6.828 -0.3785 -1.1968  1.3904
12732SOL     OW41088   1.128   3.496   8.196  0.0573  0.5300 -0.4590
12732SOL    HW141089   1.121   3.474   8.103  1.7282  2.5505 -1.1204
12732SOL    HW241090   1.201   3.557   8.202  1.0744 -0.7851  2.4446
12733SOL     OW41091   9.779   2.508   2.309 -0.0888 -0.1621 -0.3603
12733SOL    HW141092   9.685   2.526   2.302 -0.5600 -2.4152 -0.4540
12733SOL    HW241093   9.818   2.555   2.236 -1.3605 -0.5008 -1.2876
12734SOL     OW41094   5.497   2.831  10.295  0.4565  0.5150  0.2511
12734SOL    HW141095   5.547   2.883  10.232  0.8756  1.5491  1.3759
12734SOL    HW241096   5.515   2.873  10.380 -0.7912 -0.2731  0.9427
12735SOL     OW41097   5.901   5.318   1.476 -0.4820 -0.1324 -0.4054
12735SOL    HW141098   5.922   5.389   1.415  0.1521 -0.4592 -0.5667
12735SOL    HW241099   5.940   5.240   1.437  0.0456 -0.3185  0.4861
12736SOL     OW41100   5.337   9.161   3.035 -0.1235 -0.6140 -0.2683
12736SOL    HW141101   5.405   9.135   3.097 -1.2604 -0.9818  0.8580
12736SOL    HW241102   5.353   9.254   3.020 -0.8919 -0.0426  2.0266
12737SOL     OW41103   0.472   4.137  10.259 -0.1545 -0.8858  0.4246
12737SOL    HW141104   0.391   4.180  10.287 -0.1712 -1.0238  0.5850
12737SOL    HW241105   0.542   4.184  10.306 -0.2804 -2.0529  1.8393
12738SOL     OW41106   1.953   1.862   7.498 -0.0303  0.3466 -0.1256
12738SOL    HW141107   2.044   1.888   7.482 -0.2907  1.6909  0.4404
12738SOL    HW241108   1.901   1.920   7.441 -0.6051  0.6744  0.7166
12739SOL     OW41109   4.028   3.678   8.854  0.2569 -0.1714 -0.0573
12739SOL    HW141110   3.951   3.720   8.892 -0.5531 -0.3317 -1.4605
12739SOL    HW241111   4.100   3.702   8.913 -0.1885  3.0289 -0.6551
12740SOL     OW41112   6.375   4.557   3.459 -0.2737 -0.2888 -0.0351
12740SOL    HW141113   6.444   4.510   3.505  0.4246  2.0228  1.4527
12740SOL    HW241114   6.396   4.547   3.367  1.8110 -0.0497  0.3710
12741SOL     OW41115  10.669   7.473   4.701  0.5557 -0.3016 -0.8173
12741SOL    HW141116  10.755   7.512   4.720 -0.0545  1.5255 -1.5087
12741SOL    HW241117  10.622   7.475   4.784 -0.2701  2.7722 -1.2131
12742SOL     OW41118   0.858   2.050   2.732  0.4955  0.4580  0.4395
12742SOL    HW141119   0.944   2.064   2.771  0.2804  0.0144  1.0911
12742SOL    HW241120   0.811   2.132   2.748  0.3914  0.2598  1.1682
12743SOL     OW41121   9.993   6.326   2.664  0.0266 -0.4206  0.3607
12743SOL    HW141122  10.025   6.296   2.749 -0.2914 -1.1253  0.2392
12743SOL    HW241123  10.068   6.371   2.624  0.1044  0.1188  1.1044
12744SOL     OW41124   1.438   0.497   3.237  0.4146  0.4096 -0.1326
12744SOL    HW141125   1.405   0.483   3.149 -2.5984 -0.8946  1.0664
12744SOL    HW241126   1.514   0.438   3.244  0.2525  0.0017 -1.5864
12745SOL     OW41127   1.850  10.632  10.505  0.1670 -0.1349 -0.2679
12745SOL    HW141128   1.787  10.703  10.520  0.1910 -0.0054 -0.7795
12745SOL    HW241129   1.809  10.578  10.438  1.0924  0.5735 -1.4510
12746SOL     OW41130   2.587   6.965   5.940  0.2030  0.5988 -0.2642
12746SOL    HW141131   2.527   6.969   6.015 -0.5523 -2.0017 -0.6543
12746SOL    HW241132   2.662   6.915   5.973  0.6146  0.8753 -0.7749
12747SOL     OW41133   1.365   5.394   0.831 -0.4531  0.1086 -0.3264
12747SOL    HW141134   1.296   5.447   0.792 -0.4295 -0.3967 -1.0723
12747SOL    HW241135   1.445   5.421   0.786 -0.3974 -0.3603 -0.5170
12748SOL     OW41136  10.367   1.825   9.907  0.3344 -0.1711 -0.3928
12748SOL    HW141137  10.425   1.809   9.832 -0.1856  1.7866 -1.2822
12748SOL    HW241138  10.306   1.751   9.906  0.1984 -0.0707 -2.0642
12749SOL     OW41139   5.332  10.796   9.903  0.0316 -0.3083 -0.0684
12749SOL    HW141140   5.266  10.861   9.926  2.0895  2.1926 -0.8097
12749SOL    HW241141   5.341  10.742   9.981  0.0792  1.9671  1.5809
12750SOL     OW41142   6.726  10.490   6.850  0.3407  0.1800 -0.1912
12750SOL    HW141143   6.670  10.567   6.859  0.2910  0.0757  0.4620
12750SOL    HW241144   6.813  10.525   6.829  0.4854  0.4689  0.8331
12751SOL     OW41145   0.471   1.494  10.023 -0.3802 -0.2140 -0.4185
12751SOL    HW141146   0.446   1.586  10.017 -1.7038 -0.6173 -1.8991
12751SOL    HW241147   0.411   1.457  10.087  0.2341 -0.0416  0.2692
12752SOL     OW41148   5.633   4.023   4.542  0.5721  0.2037 -0.0644
12752SOL    HW141149   5.676   3.976   4.470 -0.8013  1.5845 -1.8971
12752SOL    HW241150   5.644   3.966   4.618  1.2433 -1.8184 -1.5845
12753SOL     OW41151   6.634   8.334   5.865  0.1575  0.2153  0.8140
12753SOL    HW141152   6.597   8.315   5.951  0.2006  1.5057  1.1391
12753SOL    HW241153   6.626   8.429   5.856  0.8844  0.1919 -0.2693
12754SOL     OW41154   7.029   8.664  10.205 -0.1597 -0.0712  0.0379
12754SOL    HW141155   6.985   8.622  10.131 -0.0865 -0.6171  0.3008
12754SOL    HW241156   6.961   8.675  10.271 -0.5287  1.5837 -0.5690
12755SOL     OW41157   9.585   1.201   2.137 -0.4537  0.2224  0.3021
12755SOL    HW141158   9.568   1.268   2.203 -1.5370 -0.1207  0.3825
12755SOL    HW241159   9.592   1.119   2.186  2.8073  0.4556  0.4492
12756SOL     OW41160   0.625   9.366   7.120 -0.3895  0.3582 -0.1319
12756SOL    HW141161   0.715   9.393   7.099 -0.8577  0.4426 -2.1798
12756SOL    HW241162   0.585   9.444   7.157 -0.6810  1.5333 -2.7186
12757SOL     OW41163   5.595   2.931   0.969  0.2665  0.2622  0.5701
12757SOL    HW141164   5.610   3.025   0.976 -1.2324  0.4562  1.9122
12757SOL    HW241165   5.682   2.892   0.970  0.8631  1.5193  2.5873
12758SOL     OW41166   7.605   2.925   5.638  0.5612  0.2495 -0.3312
12758SOL    HW141167   7.609   2.888   5.726 -1.8256 -1.0420 -0.6596
12758SOL    HW241168   7.558   3.008   5.649  0.1570  0.0312 -0.3813
12759SOL     OW41169   1.855   8.751   6.936  0.2867  0.5458 -0.5875
12759SOL    HW141170   1.830   8.691   7.006 -1.2268  0.3603 -1.2615
12759SOL    HW241171   1.932   8.711   6.896 -1.5379 -1.7512 -1.9863
12760SOL     OW41172   9.250   0.189   2.169 -0.3909  0.2669  0.7897
12760SOL    HW141173   9.345   0.192   2.158 -0.0987  0.6339  3.0141
12760SOL    HW241174   9.217   0.260   2.115  0.4516 -0.5917 -0.9529
12761SOL     OW41175   0.244   3.041   9.328  0.4931  0.1990 -0.0954
12761SOL    HW141176   0.196   2.962   9.350 -0.2318  0.5082 -0.5431
12761SOL    HW241177   0.313   3.012   9.269  0.1681 -0.0808 -0.3346
12762SOL     OW41178   9.939   3.167   0.684 -0.3221 -0.1747  0.2940
12762SOL    HW141179   9.901   3.087   0.648  2.3805 -0.8573 -1.3706
12762SOL    HW241180  10.027   3.141   0.712  0.0119  1.8548  1.3156
12763SOL     OW41181   2.807   3.907   8.902 -0.5014 -0.0792 -0.2604
12763SOL    HW141182   2.828   4.000   8.912  0.2527 -0.4288  2.2230
12763SOL    HW241183   2.712   3.904   8.889 -0.4455  1.0514 -1.0260
12764SOL     OW41184   3.699   7.172   0.953 -0.1862 -0.3415  0.1787
12764SOL    HW141185   3.747   7.233   1.010  2.8512 -1.4893 -0.9227
12764SOL    HW241186   3.679   7.224   0.875 -1.5184  0.3674  0.9623
12765SOL     OW41187   4.133   3.110   2.803 -0.4975  0.4141  0.7589
12765SOL    HW141188   4.045   3.147   2.796 -1.5468 -1.7078  1.8475
12765SOL    HW241189   4.164   3.141   2.888 -1.1977 -0.7590  1.4694
12766SOL     OW41190   6.015   4.011   7.335  0.0833  0.8584  0.1446
12766SOL    HW141191   6.073   3.943   7.369 -1.0085  0.7719  1.9679
12766SOL    HW241192   6.013   3.995   7.240 -0.1683 -1.7171  0.4914
12767SOL     OW41193   0.906   5.298   7.858  1.0045  0.6420 -0.7082
12767SOL    HW141194   0.963   5.341   7.794  0.5911  1.0581 -0.8005
12767SOL    HW241195   0.834   5.262   7.805  1.2157  0.0476 -0.6024
12768SOL     OW41196   8.390   9.921   0.536  0.1434 -0.3303  0.3920
12768SOL    HW141197   8.398   9.978   0.460 -2.7150 -0.4126 -0.0554
12768SOL    HW241198   8.396   9.832   0.501  0.8006 -0.3609  0.5653
12769SOL     OW41199   1.796   9.086   8.011  0.1581 -0.4149  0.2370
12769SOL    HW141200   1.823   9.011   8.064 -1.6558 -1.0725  0.2957
12769SOL    HW241201   1.731   9.051   7.950 -0.3843  1.0217 -0.0612
12770SOL     OW41202   8.763   8.818   3.541  0.0159  0.0244 -0.3027
12770SOL    HW141203   8.705   8.890   3.520  0.9257  0.5179 -1.1910
12770SOL    HW241204   8.841   8.859   3.578 -0.6724 -0.6995  2.1490
12771SOL     OW41205   5.424   7.049   3.054 -0.2071 -0.2130  0.3958
12771SOL    HW141206   5.410   6.958   3.028 -0.7145 -0.5219  1.6808
12771SOL    HW241207   5.484   7.043   3.129 -0.2370  0.5132  0.4788
12772SOL     OW41208   1.554  10.754   2.885  0.5312 -0.2959  0.4532
12772SOL    HW141209   1.466  10.788   2.900  1.3440  1.9146  0.5555
12772SOL    HW241210   1.546  10.660   2.900 -1.5229  0.0192  1.7343
12773SOL     OW41211   8.829   9.297   6.434 -0.0872  0.1312  0.0145
12773SOL    HW141212   8.836   9.204   6.414  1.2749 -0.0726  1.2754
12773SOL    HW241213   8.814   9.339   6.349 -0.6005 -1.2121 -0.5816
12774SOL     OW41214   1.084   7.043   8.435 -0.5027 -0.2418  0.2465
12774SOL    HW141215   1.156   7.094   8.397 -0.3982 -1.9587 -2.0745
12774SOL    HW241216   1.051   7.098   8.506  2.7127  0.8524  1.0789
12775SOL     OW41217   9.866   5.241   2.769 -0.6003 -0.2534  0.0662
12775SOL    HW141218   9.823   5.296   2.834 -1.2491 -1.5841  0.7943
12775SOL    HW241219   9.818   5.158   2.771 -1.2278 -0.0697 -2.7457
12776SOL     OW41220   4.081   9.486   4.043 -0.1618  0.2345  0.0987
12776SOL    HW141221   4.129   9.486   3.960  0.0410 -0.6251  0.2013
12776SOL    HW241222   4.101   9.401   4.082 -1.5606 -0.0582  0.2530
12777SOL     OW41223   6.216   1.692   3.306  0.2544  0.1337  0.1850
12777SOL    HW141224   6.207   1.600   3.331  0.4329  0.5261  1.8029
12777SOL    HW241225   6.303   1.698   3.267 -0.3350 -0.6539 -1.3227
12778SOL     OW41226   9.238   8.803   3.411 -0.1605  0.4579  0.8266
12778SOL    HW141227   9.185   8.753   3.349 -0.3076  0.8686  0.6128
12778SOL    HW241228   9.219   8.895   3.390  0.5111  0.6092  0.8603
12779SOL     OW41229   6.151   5.559   5.289 -0.1464 -0.4018  0.2226
12779SOL    HW141230   6.222   5.508   5.250 -0.0543  0.8389 -1.3560
12779SOL    HW241231   6.072   5.507   5.274  0.3211 -1.5088  1.4514
12780SOL     OW41232   6.372  10.353  10.564 -0.1278 -0.6476 -0.4421
12780SOL    HW141233   6.326  10.361  10.648 -0.5784  0.7108 -0.7919
12780SOL    HW241234   6.409  10.440  10.549 -0.4237 -0.7537 -1.8669
12781SOL     OW41235   7.674   3.022   9.996  0.0217  0.2653  0.4196
12781SOL    HW141236   7.716   2.989  10.075  1.8365  0.7786 -0.2902
12781SOL    HW241237   7.633   2.944   9.957  1.4515 -0.5485  0.4625
12782SOL     OW41238  10.322   0.525   6.950 -0.4928  0.2710 -0.5779
12782SOL    HW141239  10.281   0.609   6.970 -1.3296 -0.4734  1.0473
12782SOL    HW241240  10.413   0.546   6.930 -1.0287  1.6923 -1.6620
12783SOL     OW41241   7.005   2.535   9.336  0.5956  0.1246  0.1010
12783SOL    HW141242   7.044   2.534   9.424 -0.2595  2.4225  0.5885
12783SOL    HW241243   7.032   2.619   9.299  0.4372 -0.5508 -1.6111
12784SOL     OW41244   6.820   4.038   4.735  0.1841  0.7231  0.5880
12784SOL    HW141245   6.859   4.039   4.648 -1.5233  1.8596 -0.2170
12784SOL    HW241246   6.793   3.947   4.748  0.6676  0.4934  0.0420
12785SOL     OW41247   6.394   5.407   4.802  0.1462  0.0313 -0.2142
12785SOL    HW141248   6.301   5.399   4.785  0.7222 -0.2952 -4.0608
12785SOL    HW241249   6.417   5.324   4.844 -1.4257  0.7187  2.2134
12786SOL     OW41250   6.572   1.846   7.309  0.0319  0.1704  0.0677
12786SOL    HW141251   6.646   1.786   7.311 -0.2953 -0.2473 -0.2279
12786SOL    HW241252   6.517   1.814   7.238 -0.5100  0.3820  0.3828
12787SOL     OW41253   8.437   8.097   2.627 -0.2445  0.7528 -0.4692
12787SOL    HW141254   8.506   8.034   2.649 -0.9698  0.2570  0.4620
12787SOL    HW241255   8.394   8.060   2.551  0.6481  1.1816 -1.2017
12788SOL     OW41256   6.764   1.493   5.188 -0.0732 -0.1271  0.4374
12788SOL    HW141257   6.696   1.516   5.125 -0.1962 -0.5359  0.4180
12788SOL    HW241258   6.749   1.400   5.207  0.9333 -0.4175 -0.1382
12789SOL     OW41259   8.085   5.200   9.699  0.5856  0.4653 -0.0479
12789SOL    HW141260   8.052   5.254   9.627 -1.7811 -0.3880  0.3371
12789SOL    HW241261   8.164   5.246   9.728 -0.6869  3.0888 -0.4627
12790SOL     OW41262   0.870   3.479   0.165 -0.0330 -0.3013 -0.1810
12790SOL    HW141263   0.900   3.402   0.213 -0.6580 -1.1083 -1.0730
12790SOL    HW241264   0.798   3.513   0.218  0.3340 -0.2244  0.2873
12791SOL     OW41265   8.495   8.301   1.602 -0.2759 -0.3634 -0.7380
12791SOL    HW141266   8.553   8.355   1.549  0.8199 -0.8675 -0.1045
12791SOL    HW241267   8.536   8.302   1.689 -1.6876 -0.0527 -0.0542
12792SOL     OW41268   6.018   9.125   9.320 -0.4263 -0.7595 -0.3766
12792SOL    HW141269   6.110   9.126   9.292 -0.5943 -0.1544 -0.9506
12792SOL    HW241270   5.970   9.160   9.245 -1.2990 -2.4193 -0.6389
12793SOL     OW41271   7.454   0.231   0.906 -0.1371  0.4494 -0.0016
12793SOL    HW141272   7.523   0.259   0.967  0.3848  0.4673 -0.5876
12793SOL    HW241273   7.485   0.260   0.820 -0.5537 -0.1501 -0.3619
12794SOL     OW41274   1.710   0.107   6.156 -0.1349  0.2645 -0.1357
12794SOL    HW141275   1.619   0.104   6.126 -0.0563 -0.0720 -0.3451
12794SOL    HW241276   1.742   0.192   6.127 -0.3554  0.3450 -0.1456
12795SOL     OW41277   5.034   6.151   1.854 -0.3155  0.8236 -0.0358
12795SOL    HW141278   5.080   6.178   1.933  1.2148 -0.2072 -0.5485
12795SOL    HW241279   5.020   6.233   1.806 -0.3184  1.3197  0.7915
12796SOL     OW41280   2.776   5.572   6.670  0.1439 -0.4903 -0.0660
12796SOL    HW141281   2.821   5.627   6.606 -1.1496  2.7611  1.5985
12796SOL    HW241282   2.704   5.532   6.622  0.8175 -0.3684 -1.2094
12797SOL     OW41283   8.444   5.132   9.672 -0.2714  0.3348  0.1106
12797SOL    HW141284   8.362   5.093   9.702  0.5076 -0.0485  1.8805
12797SOL    HW241285   8.506   5.059   9.668  0.1601  0.7243 -0.5903
12798SOL     OW41286   9.071   7.205   7.143  0.3960  0.0705  0.3793
12798SOL    HW141287   9.075   7.143   7.070 -2.2843 -0.5836  0.6811
12798SOL    HW241288   9.097   7.153   7.219 -0.8751 -0.4423  0.4815
12799SOL     OW41289   6.878   2.970   8.678  0.6089  0.1679 -0.1128
12799SOL    HW141290   6.794   2.944   8.639  0.4659 -0.5901  0.6696
12799SOL    HW241291   6.857   2.986   8.771  0.8458  2.3701 -0.3834
12800SOL     OW41292  10.298   4.994   2.390 -0.4479 -0.7336 -0.6119
12800SOL    HW141293  10.285   5.087   2.373  0.6632 -0.3412  0.5346
12800SOL    HW241294  10.388   4.988   2.422 -0.1447 -2.3552 -1.6506
12801SOL     OW41295   5.489   5.533   2.868 -0.0697 -0.2608  0.4864
12801SOL    HW141296   5.493   5.626   2.891  0.6663 -0.2499  0.3200
12801SOL    HW241297   5.544   5.524   2.790 -0.1331 -0.8346  0.4992
12802SOL     OW41298   3.256   3.370  10.245  0.1156 -0.0730  0.2008
12802SOL    HW141299   3.179   3.326  10.281  0.1551  0.0012  0.3759
12802SOL    HW241300   3.265   3.333  10.157  0.4698 -0.8176  0.5414
12803SOL     OW41301   4.078   1.000   0.389 -0.1154  0.1620  0.2146
12803SOL    HW141302   4.036   0.914   0.386  0.4846 -0.1158 -1.0769
12803SOL    HW241303   4.016   1.056   0.435 -0.4099 -1.0100  1.3130
12804SOL     OW41304   7.860   1.971   4.371  0.0288  0.9511  0.6177
12804SOL    HW141305   7.791   2.031   4.399 -0.4470  0.5465  0.3290
12804SOL    HW241306   7.829   1.937   4.287  1.2007  1.7829 -0.1754
12805SOL     OW41307   4.203   5.284   4.177  0.1164  0.3378 -0.4091
12805SOL    HW141308   4.274   5.230   4.213  0.5514  0.7899 -0.5692
12805SOL    HW241309   4.200   5.361   4.235  0.8617  1.1003 -1.3504
12806SOL     OW41310   5.004   5.952   7.918  0.3690 -0.0960  0.3166
12806SOL    HW141311   5.017   6.020   7.983 -0.4828  0.3482  0.0377
12806SOL    HW241312   5.063   5.975   7.846  0.1667  0.2866  0.2718
12807SOL     OW41313   7.825   6.251   1.970  0.0516 -0.4615  0.1606
12807SOL    HW141314   7.809   6.161   1.999  0.4560 -1.3249 -2.0532
12807SOL    HW241315   7.854   6.242   1.879  0.7443  1.8837  0.0765
12808SOL     OW41316   0.972  10.601   0.533  0.0332 -0.2306  0.0161
12808SOL    HW141317   0.935  10.525   0.577  1.1177 -0.6085  0.3179
12808SOL    HW241318   0.976  10.669   0.601  0.1133 -0.2627  0.0434
12809SOL     OW41319   4.508   8.962   0.598 -0.1389 -0.6392  0.1256
12809SOL    HW141320   4.466   9.026   0.540 -0.4074  0.9208  1.9440
12809SOL    HW241321   4.444   8.948   0.668  1.0066 -0.8556  1.1580
12810SOL     OW41322   7.454   1.976   1.298 -0.2696 -0.1298 -0.2724
12810SOL    HW141323   7.455   2.069   1.322  1.1709  0.3813 -2.1399
12810SOL    HW241324   7.499   1.972   1.214  0.1957 -2.6070  0.0246
12811SOL     OW41325   2.484   2.765   2.505  0.2300  0.4705  0.0045
12811SOL    HW141326   2.400   2.771   2.458 -0.7587  0.0570  1.6309
12811SOL    HW241327   2.544   2.817   2.453 -0.9965  0.6702 -1.2942
12812SOL     OW41328   9.598   8.423   3.268  0.2648  0.8811 -0.0214
12812SOL    HW141329   9.592   8.511   3.230 -0.1700  0.4585 -0.9849
12812SOL    HW241330   9.668   8.381   3.219 -1.2749 -0.1598 -1.4339
12813SOL     OW41331   8.131   6.555   3.615 -0.0885  0.3470  0.0775
12813SOL    HW141332   8.040   6.568   3.641 -0.1182 -2.8470  2.1110
12813SOL    HW241333   8.127   6.487   3.547  0.7441  0.7059 -0.3384
12814SOL     OW41334   8.725   6.604   8.209 -1.1255  0.1261 -0.2644
12814SOL    HW141335   8.715   6.683   8.262 -1.1919 -1.1764  1.8310
12814SOL    HW241336   8.816   6.606   8.178 -1.1593  1.0545 -0.3099
12815SOL     OW41337   4.349   4.957   8.967  0.1587  0.7631 -0.2161
12815SOL    HW141338   4.389   4.970   8.881  2.4819  0.1633  0.6985
12815SOL    HW241339   4.284   4.888   8.953  2.7653 -1.7579 -0.9765
12816SOL     OW41340   9.087   4.808   8.075 -0.1439 -0.2356  0.0214
12816SOL    HW141341   9.034   4.837   8.149  0.0170  1.0679 -0.3449
12816SOL    HW241342   9.058   4.718   8.058  0.1456 -0.7521  1.9532
12817SOL     OW41343   0.824   8.617   6.620  0.1953  0.3076  0.3515
12817SOL    HW141344   0.846   8.536   6.573 -0.1034  0.5003 -0.1233
12817SOL    HW241345   0.787   8.587   6.703  1.7267 -0.0317  0.9501
12818SOL     OW41346   8.850   1.197   5.152 -0.8027 -0.2755 -0.0603
12818SOL    HW141347   8.821   1.234   5.235 -1.8356  0.8324 -0.8766
12818SOL    HW241348   8.927   1.247   5.128  0.4889 -1.6748  0.9774
12819SOL     OW41349   8.252   9.639   6.933  0.7733  0.3867  0.4285
12819SOL    HW141350   8.189   9.575   6.966 -0.0363  0.8984 -0.0893
12819SOL    HW241351   8.331   9.588   6.914 -0.2697 -0.7305 -1.2116
12820SOL     OW41352   3.605   4.518   7.061 -0.1751  0.2466  0.2335
12820SOL    HW141353   3.631   4.452   7.125  0.2600  0.5483  0.3755
12820SOL    HW241354   3.648   4.598   7.092 -1.4130  0.8058  0.5876
12821SOL     OW41355   7.156   1.740   7.268  0.1053 -0.4260 -0.1466
12821SOL    HW141356   7.171   1.657   7.314  2.4055  1.1586  2.2659
12821SOL    HW241357   7.088   1.784   7.320  0.4582  0.0598 -0.0824
12822SOL     OW41358   1.050   4.680   6.817 -0.3925  0.2904  0.4146
12822SOL    HW141359   1.043   4.590   6.785 -2.0197  0.3457  0.5092
12822SOL    HW241360   1.080   4.671   6.907 -0.1789 -0.1372  0.3027
12823SOL     OW41361   9.499   3.916   5.951 -0.7702 -0.4485 -0.2396
12823SOL    HW141362   9.489   3.837   5.898  1.6659 -0.2285 -1.1884
12823SOL    HW241363   9.521   3.985   5.888  2.1960 -0.1570  0.9546
12824SOL     OW41364   1.360   6.549  10.066  0.3628  0.7917 -0.2350
12824SOL    HW141365   1.446   6.532  10.106 -0.1574  0.7653  0.9180
12824SOL    HW241366   1.379   6.559   9.973  1.6438  0.9716  0.0198
12825SOL     OW41367   0.665   1.069   3.163 -0.1293  0.2304  0.0854
12825SOL    HW141368   0.718   1.092   3.239  0.1486 -1.1115  0.3204
12825SOL    HW241369   0.724   1.020   3.106 -0.7859 -0.2491 -0.2033
12826SOL     OW41370   7.276   8.255  10.437  0.5108  0.0790 -0.5027
12826SOL    HW141371   7.273   8.330  10.378 -1.5741 -0.2128 -0.8356
12826SOL    HW241372   7.203   8.269  10.497  0.6914 -1.2009  0.0418
12827SOL     OW41373   9.582   2.236   5.010  0.0257 -0.5886 -0.0989
12827SOL    HW141374   9.672   2.208   4.991  0.9312  1.9214  0.0052
12827SOL    HW241375   9.551   2.273   4.927  0.4230  1.6578  0.6896
12828SOL     OW41376   0.365   0.936   7.373 -0.0292  0.0732  0.3886
12828SOL    HW141377   0.348   0.843   7.389  1.4551 -0.2988 -0.0469
12828SOL    HW241378   0.356   0.978   7.458 -1.7399 -0.2712  0.4176
12829SOL     OW41379   2.838   5.579  10.684 -0.4582 -0.0098 -0.3649
12829SOL    HW141380   2.846   5.528  10.603  0.4898 -1.2737  0.5015
12829SOL    HW241381   2.799   5.662  10.655 -0.9339 -0.7492 -1.9829
12830SOL     OW41382   6.781   3.021   0.010  0.4487  0.0073 -0.2852
12830SOL    HW141383   6.761   3.099   0.061 -0.4364 -0.3992  0.0000
12830SOL    HW241384   6.704   3.008  -0.045  0.7085 -0.5044 -0.5387
12831SOL     OW41385   3.538   7.571   4.873  0.0578 -0.0056 -0.0154
12831SOL    HW141386   3.444   7.579   4.889 -0.1306 -0.7810 -0.6696
12831SOL    HW241387   3.558   7.644   4.815 -0.2498 -0.1688 -0.3290
12832SOL     OW41388   9.774   8.745   0.354  0.0596 -0.4139 -0.2988
12832SOL    HW141389   9.798   8.833   0.324 -0.1400 -0.7143 -1.3984
12832SOL    HW241390   9.679   8.749   0.366 -0.1092 -0.7596 -1.4019
12833SOL     OW41391   6.859   9.361   9.270 -0.0153  0.3499  0.2676
12833SOL    HW141392   6.848   9.280   9.221 -0.7912  0.4291  0.3000
12833SOL    HW241393   6.809   9.426   9.221  1.4160  1.0606 -0.3211
12834SOL     OW41394   7.265   3.355   5.805 -0.0793  0.1635  0.6289
12834SOL    HW141395   7.330   3.353   5.876  0.6073  2.7384  0.1769
12834SOL    HW241396   7.315   3.331   5.727 -0.3776 -0.7183  0.6995
12835SOL     OW41397  10.422  10.211   9.651 -0.0400  0.8102  0.0662
12835SOL    HW141398  10.356  10.171   9.595 -0.5822  1.1563  0.4515
12835SOL    HW241399  10.447  10.291   9.604  0.3099  0.5379 -0.2141
12836SOL     OW41400   5.251   9.414  10.232 -0.2117 -0.2071 -0.3794
12836SOL    HW141401   5.243   9.345  10.298  0.0318  0.6833  0.6178
12836SOL    HW241402   5.247   9.368  10.148 -1.5512 -1.2793  0.2215
12837SOL     OW41403   9.660   2.219   2.397  0.2956 -0.5874  0.3760
12837SOL    HW141404   9.676   2.190   2.486 -1.3293 -0.3004  0.8031
12837SOL    HW241405   9.692   2.148   2.342 -0.1390 -1.4850  1.2542
12838SOL     OW41406   7.940   3.885   4.936  0.2005 -0.1800  0.0233
12838SOL    HW141407   8.007   3.951   4.956 -0.3530  0.2008  0.6743
12838SOL    HW241408   7.940   3.826   5.011 -0.9461  0.4694  0.5723
12839SOL     OW41409   8.953   7.503   8.558  0.2710 -0.1485  0.3640
12839SOL    HW141410   8.944   7.504   8.463 -0.1876 -1.6965  0.3643
12839SOL    HW241411   8.975   7.413   8.579 -1.9433 -0.4052  1.9057
12840SOL     OW41412   8.807   0.966   3.191 -0.3015 -0.0992 -0.2709
12840SOL    HW141413   8.823   0.935   3.280 -1.9432  0.3376  0.2159
12840SOL    HW241414   8.819   0.888   3.136 -0.7564 -0.7403  0.5168
12841SOL     OW41415   9.469   5.541   0.000 -0.1218 -0.3956 -0.0964
12841SOL    HW141416   9.553   5.552  -0.045  0.7714 -0.8463  1.3673
12841SOL    HW241417   9.492   5.493   0.080 -1.4342  1.4732  1.4682
12842SOL     OW41418   0.163   8.341   6.440 -0.1202 -0.1147  0.2336
12842SOL    HW141419   0.194   8.367   6.526 -0.3304  0.3358  0.1764
12842SOL    HW241420   0.243   8.334   6.387 -0.1500  2.3972 -0.2807
12843SOL     OW41421   5.731   9.062   2.835 -0.1082 -0.0057 -0.2081
12843SOL    HW141422   5.679   9.019   2.903 -0.8986  1.2711  0.0201
12843SOL    HW241423   5.680   9.049   2.755 -1.3186  2.0482  0.1692
12844SOL     OW41424   3.140   0.175   4.471 -0.3957  0.3862 -0.0571
12844SOL    HW141425   3.091   0.238   4.524  0.0805  0.0424  0.8051
12844SOL    HW241426   3.180   0.228   4.402  1.1395  1.2969  1.4433
12845SOL     OW41427   6.074   4.384   3.314 -0.2625  0.0934 -0.4587
12845SOL    HW141428   6.081   4.324   3.388 -0.0392  0.2652 -0.3374
12845SOL    HW241429   6.084   4.471   3.353  2.9413  0.1037 -1.0181
12846SOL     OW41430   9.088   3.523   0.308  0.3166  0.4555 -0.2697
12846SOL    HW141431   9.181   3.543   0.311  0.1350  2.0579 -2.4805
12846SOL    HW241432   9.082   3.443   0.256  0.4711  0.6258 -0.5558
12847SOL     OW41433   2.072   0.952   5.601  0.2009  0.6272  0.4995
12847SOL    HW141434   1.979   0.933   5.607  0.3219 -0.3398 -0.4977
12847SOL    HW241435   2.106   0.890   5.536  1.1116  2.5155 -0.9161
12848SOL     OW41436   1.965   3.300   5.288  1.0358 -0.2536  0.2229
12848SOL    HW141437   1.880   3.274   5.254  0.6701  0.9888  0.1605
12848SOL    HW241438   2.027   3.274   5.220  0.3826  1.5776 -1.1221
12849SOL     OW41439   3.408   0.483   7.612  0.6436  0.1783 -0.2031
12849SOL    HW141440   3.361   0.404   7.640 -0.0886  0.8500  0.5295
12849SOL    HW241441   3.356   0.555   7.648  0.1403  1.1020 -2.5789
12850SOL     OW41442   2.425   2.962   1.523  0.3798  0.3904 -0.7190
12850SOL    HW141443   2.459   3.051   1.531  2.0964 -0.2608 -0.4593
12850SOL    HW241444   2.330   2.972   1.526  0.5626  2.1435 -0.0329
12851SOL     OW41445   3.726   2.309   2.376 -0.2095 -0.4615 -1.1316
12851SOL    HW141446   3.631   2.318   2.383 -0.0558  1.0199 -0.6567
12851SOL    HW241447   3.739   2.265   2.292 -1.3140 -0.7557 -1.1666
12852SOL     OW41448   4.243   4.441   0.875  0.0231 -0.2190 -0.0674
12852SOL    HW141449   4.338   4.447   0.879 -0.1215  2.8527  1.3850
12852SOL    HW241450   4.219   4.392   0.954  0.3530  0.7166  0.6334
12853SOL     OW41451   2.567   8.290   6.299 -0.5509 -0.5902  0.1601
12853SOL    HW141452   2.510   8.303   6.375  0.9092  1.3287  0.9984
12853SOL    HW241453   2.520   8.331   6.227 -1.1822 -0.9315  0.3640
12854SOL     OW41454   8.849   7.978   8.793 -0.1619 -0.1733 -0.0642
12854SOL    HW141455   8.780   7.976   8.727 -0.7179  1.6122  0.4131
12854SOL    HW241456   8.911   8.043   8.760 -0.1540  0.3129  0.8710
12855SOL     OW41457   1.291   0.913   9.879 -0.0937 -0.5592  0.8822
12855SOL    HW141458   1.381   0.913   9.911 -0.1781  1.1274  1.2110
12855SOL    HW241459   1.258   1.000   9.900 -1.1619 -0.4318 -1.0764
12856SOL     OW41460   3.670   9.272   7.573 -0.0767 -0.5823  0.0991
12856SOL    HW141461   3.686   9.257   7.666  0.4032 -0.1221  0.0965
12856SOL    HW241462   3.580   9.305   7.569  0.2258  0.3478  0.5129
12857SOL     OW41463   7.905   3.544   0.993  0.0620 -0.1422  0.3422
12857SOL    HW141464   7.961   3.544   0.915  1.6782  2.3210  1.3673
12857SOL    HW241465   7.862   3.629   0.991 -1.7801 -1.0066  0.9373
12858SOL     OW41466   5.957   5.800   9.251 -0.6146  0.1556 -0.6061
12858SOL    HW141467   5.990   5.720   9.209  0.0240  0.5360 -0.8363
12858SOL    HW241468   6.023   5.866   9.231 -0.8446  0.6011  0.0822
12859SOL     OW41469   0.103   7.414   9.588 -0.7028 -0.0809 -0.5277
12859SOL    HW141470   0.061   7.489   9.629  0.3680  1.1669 -1.6315
12859SOL    HW241471   0.031   7.356   9.564 -1.4640 -0.1661  1.7031
12860SOL     OW41472   0.973   2.199   9.875  0.2021  0.0899  0.6009
12860SOL    HW141473   0.979   2.278   9.929 -0.7449  0.1700  0.6052
12860SOL    HW241474   1.041   2.142   9.908  0.6662  0.7672  0.8370
12861SOL     OW41475  10.295   5.577   7.471 -0.4054 -0.2496  0.1761
12861SOL    HW141476  10.374   5.525   7.488 -0.8358 -0.8913  0.2351
12861SOL    HW241477  10.326   5.650   7.418  0.1058 -0.9385 -0.5108
12862SOL     OW41478  10.779   4.068   6.126 -0.1234  0.0806  0.0690
12862SOL    HW141479  10.790   4.051   6.033  0.4151 -0.9891  0.3138
12862SOL    HW241480  10.805   4.160   6.136  0.6018 -0.0277 -0.7062
12863SOL     OW41481   1.129   3.512   6.717  0.0933 -0.4465  0.2659
12863SOL    HW141482   1.220   3.541   6.716  0.0867 -0.4100 -0.8898
12863SOL    HW241483   1.117   3.471   6.631 -1.4567  1.0502 -0.2694
12864SOL     OW41484   8.734   3.914   7.115 -0.3519 -0.1807  0.3534
12864SOL    HW141485   8.817   3.909   7.161 -1.7921 -0.8297  3.1140
12864SOL    HW241486   8.732   4.003   7.079  1.1024  0.1824  1.0859
12865SOL     OW41487   3.590   2.105   0.668  0.0849 -0.0919 -0.2589
12865SOL    HW141488   3.526   2.113   0.740  0.3328  2.6126 -0.2556
12865SOL    HW241489   3.596   2.193   0.632  3.4349 -0.3674 -0.6109
12866SOL     OW41490   0.265   6.611   3.399 -0.3450  0.2367  0.7040
12866SOL    HW141491   0.237   6.627   3.309  1.4128  0.6626  0.1914
12866SOL    HW241492   0.189   6.634   3.452 -1.6877 -0.7750 -0.6872
12867SOL     OW41493   9.009   4.840   5.631 -0.3574  0.4672 -0.3473
12867SOL    HW141494   8.926   4.866   5.592 -1.9222  1.0773  3.0176
12867SOL    HW241495   8.987   4.763   5.684  0.8846  1.3926  1.6150
12868SOL     OW41496   8.461   1.148   3.506 -0.2066  0.2965  0.4455
12868SOL    HW141497   8.431   1.190   3.587 -1.0489  0.9650 -0.1983
12868SOL    HW241498   8.405   1.184   3.438  0.9814  0.3103 -0.5632
12869SOL     OW41499   8.480   0.857   1.591  0.1132  0.1938 -0.0840
12869SOL    HW141500   8.541   0.880   1.661 -0.0654  2.2462 -0.5398
12869SOL    HW241501   8.444   0.772   1.618  2.1680 -0.4548  0.8392
12870SOL     OW41502   1.320   0.452   1.580  0.3753  0.0391  0.2015
12870SOL    HW141503   1.247   0.392   1.594  0.2569 -0.0283 -0.6463
12870SOL    HW241504   1.321   0.468   1.486  1.6029 -0.1455  0.1615
12871SOL     OW41505   8.290  10.580  10.307 -0.2744 -0.1058 -0.7270
12871SOL    HW141506   8.224  10.515  10.331  1.0825 -1.5661 -0.7263
12871SOL    HW241507   8.276  10.595  10.213 -0.4073 -0.6782 -0.8060
12872SOL     OW41508   1.820   1.275   3.552  0.7975 -0.4602  0.3966
12872SOL    HW141509   1.728   1.255   3.571  0.6419  1.3698  1.8689
12872SOL    HW241510   1.834   1.241   3.463 -1.1597 -1.1719  0.3065
12873SOL     OW41511   4.692   0.641   4.119 -0.3832 -0.1732 -0.0713
12873SOL    HW141512   4.642   0.685   4.049 -1.0377  0.1167  0.5588
12873SOL    HW241513   4.696   0.707   4.189 -1.2354 -1.0473  0.8286
12874SOL     OW41514   5.861   6.306   3.601  0.8040  0.2956 -0.1319
12874SOL    HW141515   5.859   6.400   3.622  0.3051  0.2585 -0.0042
12874SOL    HW241516   5.952   6.280   3.616  0.6597  0.4659  1.1175
12875SOL     OW41517   3.175   9.579   1.867 -0.3241  0.1532  0.1015
12875SOL    HW141518   3.150   9.669   1.888 -0.5239 -0.1048  0.9881
12875SOL    HW241519   3.095   9.540   1.831 -0.5196  0.0385  0.6575
12876SOL     OW41520   5.315   0.714   8.833 -0.0325  0.1578  0.1549
12876SOL    HW141521   5.355   0.668   8.906 -0.6545 -0.5460  0.0662
12876SOL    HW241522   5.314   0.651   8.762 -1.5317  0.0441  0.2412
12877SOL     OW41523   5.775   7.606   1.733 -0.3792 -0.0804 -0.4399
12877SOL    HW141524   5.706   7.645   1.679 -0.6964  1.1344  0.7814
12877SOL    HW241525   5.856   7.622   1.683 -0.6741  0.8939 -0.6352
12878SOL     OW41526   7.785   3.753   6.505 -0.1337 -0.1325  0.7603
12878SOL    HW141527   7.822   3.704   6.578  2.0348  1.6505  0.9563
12878SOL    HW241528   7.856   3.761   6.441 -0.5945  2.0578  0.4247
12879SOL     OW41529   5.498   3.743   9.229 -0.2723  0.3567  0.3552
12879SOL    HW141530   5.588   3.763   9.253 -0.0990  0.1033 -0.0600
12879SOL    HW241531   5.472   3.675   9.291  0.2507 -0.4640 -0.2967
12880SOL     OW41532  10.641   2.145   3.748 -0.3460 -0.0266 -0.0634
12880SOL    HW141533  10.651   2.051   3.766  0.3415 -0.3073 -1.7055
12880SOL    HW241534  10.731   2.176   3.734 -0.6769  0.5493 -0.9675
12881SOL     OW41535   6.628   7.025   1.115  0.0774 -0.0822 -1.0532
12881SOL    HW141536   6.622   7.051   1.207 -0.2848 -0.2235 -1.0345
12881SOL    HW241537   6.590   6.937   1.113  1.2640 -0.6030 -1.1153
12882SOL     OW41538   6.996   7.287   5.983  0.4906 -0.1111  0.3373
12882SOL    HW141539   6.948   7.213   5.945  0.9144 -0.8156  1.1243
12882SOL    HW241540   7.022   7.340   5.908 -1.3272  0.1860 -0.1238
12883SOL     OW41541   8.685   9.397   6.190 -0.0595  0.1060 -0.0095
12883SOL    HW141542   8.592   9.385   6.172  0.1879 -1.4654 -0.4792
12883SOL    HW241543   8.710   9.475   6.141 -1.1928  0.7764  0.4448
12884SOL     OW41544   1.290   7.517   6.323 -0.4115 -0.1364  0.2185
12884SOL    HW141545   1.337   7.453   6.268  1.5238  1.7058 -0.4151
12884SOL    HW241546   1.212   7.538   6.273  0.9441  0.9486 -1.5683
12885SOL     OW41547   1.632   1.284   4.369 -0.3325 -0.1181 -0.0146
12885SOL    HW141548   1.597   1.196   4.385  0.1857 -0.6247 -1.4881
12885SOL    HW241549   1.716   1.285   4.415 -1.3491  0.4739  1.9904
12886SOL     OW41550   2.021   7.387   1.651  0.2774 -0.0118 -0.0411
12886SOL    HW141551   2.114   7.366   1.661  0.4721 -0.9067 -2.9313
12886SOL    HW241552   2.009   7.468   1.700  2.4699 -0.0677  0.6882
12887SOL     OW41553  10.453   9.786   4.838 -0.4913  0.2199 -0.2369
12887SOL    HW141554  10.452   9.858   4.775  0.9221  0.0879 -0.4352
12887SOL    HW241555  10.530   9.801   4.892 -0.5577 -0.7661  0.1614
12888SOL     OW41556  10.674   9.988   4.092  0.6678  0.2425 -0.2161
12888SOL    HW141557  10.719  10.072   4.086  0.6344  0.2906  0.2298
12888SOL    HW241558  10.585  10.007   4.064  0.3530  0.5983  0.9712
12889SOL     OW41559   7.551   3.520   7.335 -0.0336  0.2308  0.4132
12889SOL    HW141560   7.607   3.594   7.309 -0.3671  0.0130 -1.0151
12889SOL    HW241561   7.551   3.522   7.430  0.7834  1.4620  0.4071
12890SOL     OW41562   0.542   6.576   1.644 -0.4202 -0.5040  0.1469
12890SOL    HW141563   0.599   6.621   1.582 -0.2358  1.9095  1.9013
12890SOL    HW241564   0.599   6.513   1.687  0.7770  1.1751  1.1697
12891SOL     OW41565   2.481   8.491   2.387 -0.0050  0.0668  0.0716
12891SOL    HW141566   2.554   8.459   2.334 -0.3439 -0.8063  0.1017
12891SOL    HW241567   2.494   8.451   2.473  0.2871  1.1037  0.5170
12892SOL     OW41568   4.948  10.532   4.459 -0.4327  0.4906  0.0228
12892SOL    HW141569   5.022  10.548   4.518 -0.0034 -2.0479  0.2940
12892SOL    HW241570   4.922  10.619   4.429  2.0410  1.5424  0.6641
12893SOL     OW41571   1.578  10.377   7.028 -0.5040  0.5110 -0.0355
12893SOL    HW141572   1.564  10.313   6.958  3.2157 -0.9105  0.2642
12893SOL    HW241573   1.638  10.441   6.990  1.0494  0.0864  1.5193
12894SOL     OW41574   1.037   1.492   5.430 -0.5066  0.1053 -0.2165
12894SOL    HW141575   1.085   1.457   5.505 -0.5356  0.3336 -0.0911
12894SOL    HW241576   1.076   1.448   5.354  0.2037  0.6062 -0.1556
12895SOL     OW41577   2.695   8.878   5.733 -0.2304 -0.2202  0.2337
12895SOL    HW141578   2.669   8.805   5.790 -0.7135  1.5040  2.3323
12895SOL    HW241579   2.744   8.937   5.790 -1.6109  2.1012 -0.8435
12896SOL     OW41580   6.103   3.283   8.066  0.0537  0.0885 -0.1249
12896SOL    HW141581   6.114   3.196   8.027 -0.4798 -0.1323  0.1933
12896SOL    HW241582   6.008   3.298   8.063 -0.0544 -0.1199  1.4283
12897SOL     OW41583   3.683   9.663   8.209 -0.4058 -0.1350  0.0003
12897SOL    HW141584   3.751   9.624   8.264  0.6648 -0.0138 -1.1860
12897SOL    HW241585   3.700   9.628   8.122  0.4642  2.7185 -1.0945
12898SOL     OW41586   1.284   5.562  10.721  0.0202  0.2522  0.1614
12898SOL    HW141587   1.281   5.587  10.628  1.3182 -1.5314 -0.4175
12898SOL    HW241588   1.372   5.585  10.749 -0.0836 -0.0149  0.7220
12899SOL     OW41589   1.960  10.301   0.103  0.1341 -0.2404  0.3845
12899SOL    HW141590   2.029  10.340   0.050  0.2075 -0.5736  0.2299
12899SOL    HW241591   1.879  10.322   0.056  0.2964 -1.7171 -0.6383
12900SOL     OW41592  10.125   8.853   7.404  0.3284  0.3904 -0.0481
12900SOL    HW141593  10.190   8.853   7.474  0.1416  0.8465  0.1330
12900SOL    HW241594  10.133   8.767   7.363  1.1282  0.4837 -0.1056
12901SOL     OW41595   3.614   8.567   8.775  0.3862 -0.2261 -0.2170
12901SOL    HW141596   3.545   8.560   8.841  0.5778 -2.2260 -0.1594
12901SOL    HW241597   3.573   8.537   8.694  1.3220 -2.2445 -0.0209
12902SOL     OW41598  10.060   3.989   5.943  0.2707  0.8988  0.9569
12902SOL    HW141599  10.031   4.080   5.931 -0.5023  0.6741  1.0889
12902SOL    HW241600  10.064   3.977   6.038  0.7053  0.8895  0.9420
12903SOL     OW41601   6.887   7.080   5.824 -0.7070 -0.5319 -0.0345
12903SOL    HW141602   6.848   7.039   5.901 -0.5620  0.2024  0.4352
12903SOL    HW241603   6.816   7.083   5.760 -0.9980 -0.5963  0.2821
12904SOL     OW41604   1.179   7.022   7.924 -0.4908 -0.0629  0.3716
12904SOL    HW141605   1.229   6.970   7.861 -1.6355  0.2034 -0.7979
12904SOL    HW241606   1.158   6.961   7.995 -1.3929 -1.1147 -0.7446
12905SOL     OW41607   2.747   2.833   1.177 -0.0464 -0.0574  0.2042
12905SOL    HW141608   2.765   2.870   1.091  0.3225 -0.4690  0.0997
12905SOL    HW241609   2.807   2.876   1.237 -0.8449  0.8104  0.4075
12906SOL     OW41610  10.574   2.475   2.543  0.7479 -0.1399 -0.2108
12906SOL    HW141611  10.559   2.517   2.628 -1.0273 -1.0991 -0.0068
12906SOL    HW241612  10.652   2.421   2.556  1.7178  1.3004  0.1746
12907SOL     OW41613   3.489   3.134   5.700  0.0979 -0.3838 -0.0901
12907SOL    HW141614   3.537   3.114   5.781 -0.4035 -1.8829 -0.1361
12907SOL    HW241615   3.495   3.054   5.648 -1.2691 -0.1193 -0.7023
12908SOL     OW41616   6.894   0.381  10.678  0.1018 -0.0785 -0.3864
12908SOL    HW141617   6.866   0.339  10.596 -0.1434 -2.0507  0.6268
12908SOL    HW241618   6.985   0.406  10.662 -0.2360  0.4653 -1.5757
12909SOL     OW41619   7.437  10.251   2.417  0.0392 -0.7668  0.0762
12909SOL    HW141620   7.384  10.306   2.475  1.0389  1.2362 -0.8570
12909SOL    HW241621   7.514  10.228   2.470  0.5771  0.4159 -0.1655
12910SOL     OW41622   1.988   4.359   8.476  0.3448  0.5607  0.2465
12910SOL    HW141623   2.024   4.408   8.403 -0.4112  2.0013  0.8032
12910SOL    HW241624   1.909   4.319   8.441  1.1389 -0.5904 -0.3009
12911SOL     OW41625   0.518   0.391   9.963  0.1735  0.0015  0.2740
12911SOL    HW141626   0.555   0.310  10.000  0.9126 -0.4476 -1.3788
12911SOL    HW241627   0.454   0.361   9.898  0.4676  0.7414 -0.3705
12912SOL     OW41628   7.378   3.235   4.984 -0.3662 -0.3920 -0.4974
12912SOL    HW141629   7.321   3.269   4.915  0.8378  2.5929 -0.1392
12912SOL    HW241630   7.467   3.251   4.952  0.2532 -1.2466  0.7002
12913SOL     OW41631   0.109   1.616   5.941 -0.0772 -0.1696 -0.4944
12913SOL    HW141632   0.081   1.562   6.014 -1.4870  0.4320 -0.5689
12913SOL    HW241633   0.031   1.625   5.886  1.2602 -1.7109 -2.7937
12914SOL     OW41634   1.241   5.917   2.530  0.0241  0.4573 -0.6509
12914SOL    HW141635   1.295   5.842   2.553 -0.5133 -0.2991 -1.7773
12914SOL    HW241636   1.246   5.922   2.435  1.3074  2.8199 -0.5464
12915SOL     OW41637   7.188  10.096   9.891  0.0807 -0.3286 -0.4304
12915SOL    HW141638   7.102  10.074   9.927 -0.0767  2.1153  0.9249
12915SOL    HW241639   7.210  10.022   9.835 -1.8337 -2.1424  1.0170
12916SOL     OW41640   4.250   0.880   6.291 -0.5595  0.0931  0.2243
12916SOL    HW141641   4.252   0.880   6.387 -1.9444 -0.9838  0.2930
12916SOL    HW241642   4.334   0.918   6.265 -0.3720  0.8968  1.8576
12917SOL     OW41643   8.288   3.692   9.384 -0.5293 -0.0850 -0.4196
12917SOL    HW141644   8.292   3.615   9.441 -1.3942  0.4449  0.3877
12917SOL    HW241645   8.347   3.755   9.424 -0.3556 -0.0697 -0.6939
12918SOL     OW41646   8.414   7.409   1.126 -0.5015  0.1404 -0.2453
12918SOL    HW141647   8.324   7.427   1.155 -0.0240 -0.1738  1.5614
12918SOL    HW241648   8.454   7.363   1.200  0.8812 -0.5589 -1.3829
12919SOL     OW41649   0.374   2.294   2.589  0.3865 -0.5202 -0.8912
12919SOL    HW141650   0.383   2.335   2.675 -3.1802 -0.8929 -0.1628
12919SOL    HW241651   0.420   2.353   2.529  2.2715  0.1770  1.1153
12920SOL     OW41652   1.148   4.801   6.154 -1.1589  0.3553  0.6033
12920SOL    HW141653   1.174   4.849   6.075 -0.1840  0.7806  1.1681
12920SOL    HW241654   1.161   4.709   6.131 -1.4026  0.4430  0.0873
12921SOL     OW41655   4.002   1.052   3.950  0.2833  0.3135 -0.4201
12921SOL    HW141656   4.028   1.039   4.041  1.4138  1.8758 -0.4844
12921SOL    HW241657   3.985   1.146   3.943 -1.2101  0.0019 -1.4831
12922SOL     OW41658   9.568   1.941   7.672 -0.1228  0.5969  0.4053
12922SOL    HW141659   9.535   1.868   7.620 -1.3432  0.3962  1.4020
12922SOL    HW241660   9.595   2.006   7.607 -1.2174  0.1949 -0.4881
12923SOL     OW41661   8.507   3.114   3.931  0.3376  0.1459  0.0282
12923SOL    HW141662   8.464   3.125   4.016 -0.2934  0.5098 -0.3307
12923SOL    HW241663   8.576   3.180   3.930 -0.0571  0.5607  0.0075
12924SOL     OW41664   9.571   0.081   6.882 -0.3127 -0.2579  0.2612
12924SOL    HW141665   9.515   0.146   6.839  1.0654  0.9897  0.2861
12924SOL    HW241666   9.621   0.131   6.946  2.2271 -0.9520 -1.0719
12925SOL     OW41667   0.309   6.008   5.114 -0.0748 -0.0169 -0.0151
12925SOL    HW141668   0.343   6.053   5.191  0.9439  1.0786 -1.0712
12925SOL    HW241669   0.382   6.008   5.052 -1.1786 -0.0011 -1.3462
12926SOL     OW41670   2.433   3.626   9.471 -0.4610 -0.0118 -0.9361
12926SOL    HW141671   2.411   3.719   9.481  0.2089  0.1315 -0.7099
12926SOL    HW241672   2.528   3.623   9.483 -0.5713 -0.8313 -0.1655
12927SOL     OW41673   6.519   8.358   5.261  0.3493  0.1740  0.3367
12927SOL    HW141674   6.579   8.304   5.312  0.9469  2.3031  1.9953
12927SOL    HW241675   6.533   8.447   5.291 -2.7536  0.9538 -0.0871
12928SOL     OW41676   4.129   2.658   9.140 -0.2069 -0.2680 -0.1838
12928SOL    HW141677   4.102   2.725   9.203  0.7921 -0.5520  0.5920
12928SOL    HW241678   4.181   2.705   9.075 -1.7113  0.1211 -1.1537
12929SOL     OW41679  10.675   1.951   5.076 -0.1530  0.3794 -0.5175
12929SOL    HW141680  10.608   1.891   5.041 -0.3374  0.9125 -1.1017
12929SOL    HW241681  10.683   2.019   5.009 -0.5193  1.4426  0.4843
12930SOL     OW41682   4.180   1.336   7.067  0.1973 -0.4139  0.1561
12930SOL    HW141683   4.203   1.243   7.060  0.4181 -0.5572  2.1903
12930SOL    HW241684   4.115   1.339   7.137  0.7332  1.0482  0.6181
12931SOL     OW41685   1.957   0.068   1.165  0.6044  0.3402  0.1683
12931SOL    HW141686   1.910   0.106   1.091  0.2699 -1.0807 -0.3761
12931SOL    HW241687   1.911   0.102   1.242  0.7700  1.5983 -0.2527
12932SOL     OW41688   8.074   4.587   5.020 -0.1525  0.8439  0.1797
12932SOL    HW141689   8.131   4.518   4.989 -0.2509 -0.1655  2.1099
12932SOL    HW241690   7.989   4.569   4.979  0.1405  0.5685 -0.3040
12933SOL     OW41691   1.717   3.969   6.602  0.1097  0.3739  0.4757
12933SOL    HW141692   1.721   4.009   6.515  1.8834  0.8021  0.7274
12933SOL    HW241693   1.764   3.886   6.593  1.6621  1.1217  1.3627
12934SOL     OW41694   1.764   4.555   1.010 -0.4080 -0.6293 -0.1911
12934SOL    HW141695   1.821   4.575   1.085 -0.3342 -0.9235 -0.1687
12934SOL    HW241696   1.819   4.572   0.934 -1.1395  1.8025 -0.2596
12935SOL     OW41697   8.514   4.388   1.072  0.2316  0.3025 -0.1528
12935SOL    HW141698   8.447   4.332   1.111 -0.1623  1.0044  0.1999
12935SOL    HW241699   8.588   4.329   1.056 -0.7097 -0.6363 -1.2073
12936SOL     OW41700   6.699   2.966  10.431  0.0540  0.1982  0.4438
12936SOL    HW141701   6.719   3.055  10.460 -0.2561 -0.3873  2.6287
12936SOL    HW241702   6.770   2.945  10.369  1.7964  0.9447  2.0803
12937SOL     OW41703   1.160   2.773   2.165 -0.2196  0.5481  0.0599
12937SOL    HW141704   1.169   2.866   2.187  2.1365  0.3414  0.2841
12937SOL    HW241705   1.072   2.750   2.195 -0.4839  2.4524  0.9492
12938SOL     OW41706   3.036   9.450   3.160 -0.5927 -0.8912  0.3960
12938SOL    HW141707   3.009   9.392   3.089 -1.6382 -0.4317  0.3961
12938SOL    HW241708   3.037   9.394   3.237 -2.7078 -0.7391  0.6112
12939SOL     OW41709   4.590   6.640   9.222 -0.5776  0.5421  0.1792
12939SOL    HW141710   4.631   6.603   9.300  1.3362 -0.5549 -1.2704
12939SOL    HW241711   4.521   6.577   9.200 -0.7575  0.5669  0.6625
12940SOL     OW41712   9.390  10.065   7.790 -0.0908  0.5137  0.1632
12940SOL    HW141713   9.303  10.029   7.808  1.1564 -2.1655  1.3500
12940SOL    HW241714   9.449  10.015   7.845  2.7164 -0.5665 -3.4196
12941SOL     OW41715  10.787   8.275   7.237 -0.0282  0.3445 -0.0723
12941SOL    HW141716  10.800   8.328   7.158  0.0899  0.7053  0.1868
12941SOL    HW241717  10.703   8.305   7.272 -0.8971 -0.9416 -0.9336
12942SOL     OW41718   4.118   7.627   8.282  0.0832 -0.2126 -0.5620
12942SOL    HW141719   4.099   7.699   8.343  1.1498  1.6287 -2.2546
12942SOL    HW241720   4.043   7.626   8.223  1.5982  2.0653 -2.7308
12943SOL     OW41721   8.627   7.097   0.626 -0.0690  0.1527  0.0212
12943SOL    HW141722   8.648   7.013   0.667 -0.1996 -0.4807 -1.1834
12943SOL    HW241723   8.572   7.074   0.551 -2.4631  1.5196  1.2338
12944SOL     OW41724  10.185   0.241   1.449 -0.1214  0.7096  0.0800
12944SOL    HW141725  10.133   0.162   1.467 -0.8991  0.3383 -3.1387
12944SOL    HW241726  10.266   0.208   1.411 -0.1682  1.4386 -0.6748
12945SOL     OW41727   2.121   5.953   6.424  0.7223  0.3836  0.3702
12945SOL    HW141728   2.102   5.946   6.518  0.4558 -0.7116  0.2521
12945SOL    HW241729   2.124   5.862   6.394 -2.1043  0.7194 -1.2671
12946SOL     OW41730   4.809   1.366   4.684  0.3104  0.2235 -0.3858
12946SOL    HW141731   4.827   1.273   4.679 -1.2635 -0.1690  0.4081
12946SOL    HW241732   4.767   1.387   4.600  0.0595  0.0567 -0.3039
12947SOL     OW41733   0.355   0.423   9.254 -0.2257  0.0451 -0.1341
12947SOL    HW141734   0.383   0.514   9.259  2.2267 -0.3815 -3.2003
12947SOL    HW241735   0.331   0.410   9.163 -0.9258 -2.2878  0.3160
12948SOL     OW41736   3.935   9.086   2.586  0.3405  0.3651 -0.1220
12948SOL    HW141737   4.019   9.118   2.619  2.5873 -3.6486 -1.3046
12948SOL    HW241738   3.958   9.014   2.526 -3.9553 -0.9657 -0.5230
12949SOL     OW41739   9.032   8.353   8.175 -0.2489 -0.4799  0.4528
12949SOL    HW141740   9.079   8.358   8.092 -2.2258 -1.6956 -0.8488
12949SOL    HW241741   8.986   8.437   8.181  1.0830  0.2322  1.1400
12950SOL     OW41742   8.622   7.796   7.979 -0.1365  0.3667 -0.2028
12950SOL    HW141743   8.564   7.777   7.905 -1.1929  1.3759  0.3245
12950SOL    HW241744   8.706   7.757   7.954 -0.2626  1.2373 -2.2528
12951SOL     OW41745   5.752   1.896   2.600 -0.0599  0.0829  1.3891
12951SOL    HW141746   5.791   1.820   2.557 -1.0004 -0.2540  1.1311
12951SOL    HW241747   5.827   1.953   2.619  0.6449 -0.8739  1.5419
12952SOL     OW41748   5.536  10.061   6.547 -0.2179 -0.1610  0.1784
12952SOL    HW141749   5.477   9.985   6.549 -1.0364  0.4660  1.2451
12952SOL    HW241750   5.605  10.040   6.610  0.5906 -0.7987 -0.9024
12953SOL     OW41751   4.095   5.815   7.150  1.0304 -0.1477  0.7521
12953SOL    HW141752   4.003   5.791   7.164  0.5910  0.9295 -0.1580
12953SOL    HW241753   4.100   5.907   7.174  1.1265  0.6843 -2.1227
12954SOL     OW41754   0.364   4.530   8.116  0.3624  0.3081 -0.4147
12954SOL    HW141755   0.368   4.525   8.020 -2.4410  1.8434 -0.7451
12954SOL    HW241756   0.378   4.440   8.146 -0.1867 -0.4826 -2.3794
12955SOL     OW41757   7.532   7.825   1.259  0.2416 -0.0662  0.2183
12955SOL    HW141758   7.454   7.791   1.302  0.2349 -0.8964 -0.4289
12955SOL    HW241759   7.553   7.905   1.307 -1.3406  0.4835  0.0452
12956SOL     OW41760   6.163   9.070   5.383  0.1654  0.0696 -0.1613
12956SOL    HW141761   6.161   9.088   5.289 -0.2665  0.7811 -0.0191
12956SOL    HW241762   6.075   9.040   5.404  0.2152  0.0663  0.0473
12957SOL     OW41763   3.074   9.653   6.207 -0.5272 -0.2696 -0.4819
12957SOL    HW141764   3.009   9.586   6.228 -1.0811  0.5339  0.4976
12957SOL    HW241765   3.145   9.638   6.269 -1.1149  0.6647  0.4424
12958SOL     OW41766   9.578   1.758   4.707  0.7553 -0.0778  0.3154
12958SOL    HW141767   9.571   1.842   4.663 -0.0693  0.7060  1.8857
12958SOL    HW241768   9.650   1.713   4.662  0.4148  0.9575 -1.3257
12959SOL     OW41769   8.093   3.573   4.526  0.2044  0.0712 -0.2481
12959SOL    HW141770   8.142   3.522   4.462  0.6460  0.4349 -0.1989
12959SOL    HW241771   8.157   3.599   4.592 -0.3964 -1.0187  0.8181
12960SOL     OW41772   0.563   9.359  10.264 -0.0761  0.0103 -0.0631
12960SOL    HW141773   0.494   9.294  10.278  0.1342 -0.1158  0.4138
12960SOL    HW241774   0.622   9.318  10.201 -0.1929 -0.0684 -0.1217
12961SOL     OW41775   0.334   2.011  10.663 -0.0670  0.3455  0.1617
12961SOL    HW141776   0.241   1.991  10.675  0.1004 -0.4419  0.1980
12961SOL    HW241777   0.356   1.973  10.578 -0.2681  2.3714 -0.8626
12962SOL     OW41778   1.824   5.367   5.244  0.1479  0.0827 -0.1718
12962SOL    HW141779   1.758   5.301   5.227 -0.7315  1.3000 -1.7421
12962SOL    HW241780   1.785   5.423   5.311  0.3777 -0.2577  0.2524
12963SOL     OW41781  10.145   6.407   7.376 -0.5032  0.2064  0.1268
12963SOL    HW141782  10.182   6.319   7.367 -1.7908 -0.3454 -0.1348
12963SOL    HW241783  10.155   6.446   7.290  0.1347  0.3499  0.2614
12964SOL     OW41784   5.759   0.886   7.470 -0.2957  0.4806  0.1245
12964SOL    HW141785   5.690   0.942   7.506 -1.1934 -1.0662  0.8779
12964SOL    HW241786   5.727   0.797   7.483  1.2778 -0.2361 -0.7015
12965SOL     OW41787   3.705   8.800   9.286 -0.2034  0.0103  0.1794
12965SOL    HW141788   3.656   8.854   9.348  0.6591  0.7861  0.2120
12965SOL    HW241789   3.796   8.830   9.294  0.1992 -1.0192 -0.2627
12966SOL     OW41790   8.593   4.479  10.704  0.1396  0.2394  0.1543
12966SOL    HW141791   8.579   4.385  10.697 -0.1061  0.3553 -1.1894
12966SOL    HW241792   8.626   4.505  10.618 -2.6003  1.8459 -0.5332
12967SOL     OW41793   5.712   5.944   0.142  0.0343 -0.7039  0.8141
12967SOL    HW141794   5.657   6.015   0.110  1.5864 -0.0090 -0.3854
12967SOL    HW241795   5.747   5.976   0.225  3.4135  1.5008 -1.2366
12968SOL     OW41796   7.625   5.148   1.435 -0.4486  0.2589 -0.3104
12968SOL    HW141797   7.548   5.192   1.400  0.5365  1.8690 -0.5724
12968SOL    HW241798   7.628   5.175   1.527 -0.1174  0.3510 -0.3455
12969SOL     OW41799   7.658   8.350   2.636 -0.2758 -0.3597  0.2740
12969SOL    HW141800   7.658   8.421   2.572  2.4506  0.3026  0.8767
12969SOL    HW241801   7.699   8.388   2.714  1.8902 -2.7278  0.4155
12970SOL     OW41802   8.711  10.038  10.297 -0.4566  0.0251 -0.2313
12970SOL    HW141803   8.773  10.083  10.240 -0.1824 -0.4742 -0.3376
12970SOL    HW241804   8.716   9.946  10.269 -0.4770 -0.1862  0.4520
12971SOL     OW41805   9.454   4.881   9.007  0.1926 -0.2655 -0.4011
12971SOL    HW141806   9.483   4.895   9.097 -0.5155 -0.0477 -0.2045
12971SOL    HW241807   9.445   4.786   8.999 -2.2026 -0.1734  0.5588
12972SOL     OW41808   4.621   1.421   6.737 -0.4576 -0.0294  0.0829
12972SOL    HW141809   4.670   1.408   6.818  2.0271  1.8456 -0.9466
12972SOL    HW241810   4.535   1.452   6.764 -0.8928 -2.5935  1.9879
12973SOL     OW41811   8.612   5.702  10.446 -0.3347  0.0315  0.1596
12973SOL    HW141812   8.587   5.613  10.472 -1.4785 -0.5826 -2.6818
12973SOL    HW241813   8.528   5.747  10.434  0.1734  0.7681 -0.7014
12974SOL     OW41814   4.687   3.210  10.206 -0.4291 -0.1362 -0.1624
12974SOL    HW141815   4.650   3.290  10.170 -0.0072  0.7790  1.3211
12974SOL    HW241816   4.739   3.240  10.281 -0.1238 -1.7830  0.3207
12975SOL     OW41817   3.691   1.394   7.880 -0.6672  0.2858 -0.1052
12975SOL    HW141818   3.646   1.443   7.948 -0.1470  0.7104 -0.0626
12975SOL    HW241819   3.626   1.382   7.811 -0.9482  0.5730  0.1111
12976SOL     OW41820   1.727   3.641   7.229 -0.1311 -0.2230  0.4870
12976SOL    HW141821   1.813   3.667   7.197 -0.8391  0.1916 -1.2071
12976SOL    HW241822   1.706   3.561   7.179 -0.0740 -1.2550  2.0421
12977SOL     OW41823   6.594   1.791   4.651  0.6915 -0.0328  0.4837
12977SOL    HW141824   6.662   1.724   4.665  0.7083 -0.0725  0.2241
12977SOL    HW241825   6.552   1.765   4.569 -2.1145 -2.1358  2.4024
12978SOL     OW41826  10.158   3.908   0.764  0.8054 -0.2125  0.7712
12978SOL    HW141827  10.131   3.823   0.730  0.7731 -0.7448  2.0548
12978SOL    HW241828  10.244   3.923   0.725  0.8227 -0.8447  0.5556
12979SOL     OW41829   4.551   1.985   1.899  0.0933 -0.6093  0.1090
12979SOL    HW141830   4.506   1.983   1.814  0.2408  0.6430 -0.0064
12979SOL    HW241831   4.548   1.894   1.929 -1.1870 -0.8259 -0.5970
12980SOL     OW41832   8.277   1.519   3.021  0.3827 -0.0073 -1.0581
12980SOL    HW141833   8.335   1.485   3.089 -0.2017 -0.1415 -0.6238
12980SOL    HW241834   8.190   1.490   3.047  0.1979 -0.3638 -2.0596
12981SOL     OW41835   2.134   6.481   0.916 -0.2709  0.2853 -0.3486
12981SOL    HW141836   2.098   6.453   0.832  0.3556 -0.3568 -0.4076
12981SOL    HW241837   2.228   6.476   0.905 -0.1799 -1.3860  0.9129
12982SOL     OW41838   2.971   5.814   8.680  0.5302  0.2868 -0.3451
12982SOL    HW141839   2.881   5.796   8.708  0.3596  1.2463 -0.2678
12982SOL    HW241840   2.980   5.766   8.598 -0.2580  0.7101 -0.6863
12983SOL     OW41841   7.371   0.856   5.186  0.1560  0.0579  0.0224
12983SOL    HW141842   7.335   0.768   5.170  0.7731 -0.4651  1.3664
12983SOL    HW241843   7.309   0.896   5.247 -0.1467  0.5967 -0.6217
12984SOL     OW41844   8.657   5.201   3.134 -0.3915 -0.4919  0.0234
12984SOL    HW141845   8.738   5.227   3.179  0.1192 -1.6090 -0.2053
12984SOL    HW241846   8.601   5.167   3.204  0.8723 -3.3849 -0.2338
12985SOL     OW41847   4.119   4.694   5.967 -0.0273  0.0374  0.2578
12985SOL    HW141848   4.069   4.775   5.977  0.1843  0.3873 -1.3356
12985SOL    HW241849   4.064   4.637   5.913 -0.6215 -1.3202  2.1741
12986SOL     OW41850   9.948   2.572   4.384  0.9829 -0.0017  0.3709
12986SOL    HW141851   9.984   2.493   4.344 -1.4084 -0.6450 -0.6722
12986SOL    HW241852  10.009   2.642   4.359  0.9397 -0.8182 -2.2639
12987SOL     OW41853   5.512   1.407   2.028 -0.0122 -0.1840  0.2877
12987SOL    HW141854   5.480   1.404   2.118  1.1405  0.2033  0.7230
12987SOL    HW241855   5.550   1.320   2.012 -2.4762 -1.1817 -0.7310
12988SOL     OW41856   5.986   8.116   2.991  0.0815 -0.1425  0.6519
12988SOL    HW141857   5.890   8.124   2.993 -0.0493 -1.2268 -0.3235
12988SOL    HW241858   6.016   8.198   2.952 -0.3909  0.4775  1.5512
12989SOL     OW41859   4.030   6.554   5.463  0.2071 -0.1134  0.2240
12989SOL    HW141860   4.068   6.570   5.550  0.9783 -1.0841  0.0829
12989SOL    HW241861   3.938   6.578   5.472  0.1531 -0.6954  1.4602
12990SOL     OW41862   9.401  10.026   1.439 -0.2496  0.7107 -0.7789
12990SOL    HW141863   9.468  10.091   1.465 -0.9431  0.1862  2.8354
12990SOL    HW241864   9.435   9.943   1.472 -2.6883  0.4707  1.4264
12991SOL     OW41865   9.179   6.887   0.943 -0.4631 -0.1479  0.3774
12991SOL    HW141866   9.220   6.932   1.016 -0.3478  1.5978 -0.7138
12991SOL    HW241867   9.246   6.883   0.875 -0.8252 -1.0016  0.0456
12992SOL     OW41868   1.300   1.822   1.035 -0.2314  0.1714  0.0413
12992SOL    HW141869   1.286   1.775   1.117  1.6540 -0.2394  0.1571
12992SOL    HW241870   1.395   1.824   1.024 -0.4597 -0.7639 -2.7128
12993SOL     OW41871   9.380   8.072   5.514  0.4057  0.3972  0.2089
12993SOL    HW141872   9.402   8.057   5.606 -0.8476  0.2278  0.5088
12993SOL    HW241873   9.311   8.139   5.517  1.7626  1.9024 -0.7513
12994SOL     OW41874   8.412   2.263   7.867 -0.0104  0.3722  0.1068
12994SOL    HW141875   8.466   2.263   7.788  0.3540 -1.4257  0.3093
12994SOL    HW241876   8.336   2.318   7.845 -0.8112 -1.4957 -2.1666
12995SOL     OW41877   7.455   9.485   6.228 -0.0206  0.0426  0.0864
12995SOL    HW141878   7.550   9.493   6.229 -0.1466  2.0421 -0.1541
12995SOL    HW241879   7.426   9.537   6.303 -0.9729  0.6556 -0.6819
12996SOL     OW41880  10.314   0.355   9.928  0.3718 -0.7653 -0.3406
12996SOL    HW141881  10.223   0.344   9.958  0.8007 -0.0726  1.3218
12996SOL    HW241882  10.366   0.308   9.993  1.1990 -1.7833 -1.6751
12997SOL     OW41883   4.458   3.880   2.519 -0.5129 -0.4554  0.6581
12997SOL    HW141884   4.457   3.976   2.517 -0.5167 -0.3550  2.7494
12997SOL    HW241885   4.528   3.855   2.459  0.5745  0.9317  1.2876
12998SOL     OW41886  10.074   5.283   0.296  0.3237  0.0827  0.0360
12998SOL    HW141887  10.032   5.236   0.224  0.0229  1.1912 -0.5250
12998SOL    HW241888  10.136   5.219   0.333 -1.7620 -1.5919  0.8659
12999SOL     OW41889   3.841   6.126   9.028  0.1660  1.0009 -0.0711
12999SOL    HW141890   3.909   6.121   8.961 -0.2130 -1.0918 -0.3692
12999SOL    HW241891   3.761   6.097   8.984 -0.5981  1.9245  0.6790
13000SOL     OW41892   4.538  10.343   4.470 -0.0641  0.6769 -0.1294
13000SOL    HW141893   4.475  10.339   4.542 -0.2547 -2.1113 -0.3185
13000SOL    HW241894   4.623  10.328   4.512 -0.2725 -1.9295 -0.4808
13001SOL     OW41895   6.889   1.594   6.891 -0.2901 -0.4005 -0.1604
13001SOL    HW141896   6.957   1.569   6.953 -0.6866 -1.1802 -0.0284
13001SOL    HW241897   6.824   1.640   6.943  0.2150  0.5387 -0.3226
13002SOL     OW41898   6.371   5.915   1.636 -0.1556  0.1513 -0.2360
13002SOL    HW141899   6.404   5.840   1.685 -1.0423  0.6252  1.1523
13002SOL    HW241900   6.439   5.934   1.571  0.0719 -1.8423 -0.6257
13003SOL     OW41901   2.078   7.511   8.644 -0.4143 -0.5836 -0.2849
13003SOL    HW141902   2.026   7.475   8.716  1.4667 -2.3037  0.3375
13003SOL    HW241903   2.110   7.434   8.597  1.0735  0.3795 -0.9501
13004SOL     OW41904   7.092   4.284   8.447 -0.4676 -0.0186  0.0800
13004SOL    HW141905   7.073   4.370   8.411 -0.2163  0.0388  0.0811
13004SOL    HW241906   7.013   4.259   8.495 -0.2313  0.5831  0.7942
13005SOL     OW41907   4.050   8.665   0.399  0.1346 -0.1910  0.1962
13005SOL    HW141908   4.037   8.757   0.377 -1.5022 -0.1584  1.1501
13005SOL    HW241909   3.977   8.620   0.358  1.0190 -1.1111 -0.4113
13006SOL     OW41910   2.118   9.543   8.782  0.0009 -0.1380  0.1349
13006SOL    HW141911   2.100   9.632   8.750  1.0437  0.7662  1.8988
13006SOL    HW241912   2.118   9.489   8.704 -0.3876  1.4656 -1.0285
13007SOL     OW41913   4.280   3.964   0.292 -0.2289 -0.1692  0.1481
13007SOL    HW141914   4.249   4.021   0.221  0.2503 -0.0119  0.0587
13007SOL    HW241915   4.229   3.883   0.282 -0.9500  0.2570  0.3041
13008SOL     OW41916   3.092   6.106   7.127 -0.6562  0.6608  0.9166
13008SOL    HW141917   3.145   6.044   7.076 -0.8971  0.3959  0.9829
13008SOL    HW241918   3.028   6.050   7.172 -1.0053  0.9811  0.8193
13009SOL     OW41919   8.618   5.199   9.176 -0.2335 -0.2404 -0.5320
13009SOL    HW141920   8.656   5.287   9.184 -0.4844  0.0757 -2.3869
13009SOL    HW241921   8.533   5.213   9.136 -0.9617 -1.2265  0.6068
13010SOL     OW41922   5.968   0.913   4.314 -0.5477 -0.6323  0.2119
13010SOL    HW141923   5.979   0.898   4.220  0.2058  0.4154  0.1119
13010SOL    HW241924   6.057   0.928   4.346 -0.9866  1.0076  0.7219
13011SOL     OW41925   5.144   0.294   9.004  0.1973 -0.6516  0.8933
13011SOL    HW141926   5.210   0.303   9.074  0.5717 -1.0429  0.5940
13011SOL    HW241927   5.188   0.243   8.936 -0.7966 -1.9499  1.1853
13012SOL     OW41928   2.634   3.765   4.666  0.1159 -0.6283 -0.2093
13012SOL    HW141929   2.597   3.704   4.730 -0.6811 -0.6983 -0.7212
13012SOL    HW241930   2.640   3.849   4.713 -0.8164 -0.5870 -0.1483
13013SOL     OW41931   0.644   6.031   8.732  0.1613  0.2994 -0.1065
13013SOL    HW141932   0.627   6.057   8.641  1.3192 -0.7627 -0.6592
13013SOL    HW241933   0.738   6.014   8.734  0.1626  0.4150  1.3328
13014SOL     OW41934   7.644   1.367   5.914 -0.1815 -0.3964 -0.0621
13014SOL    HW141935   7.724   1.415   5.890  0.3609 -0.6272  1.1816
13014SOL    HW241936   7.660   1.277   5.884  0.2699 -0.5656  0.6583
13015SOL     OW41937  10.181   3.000   6.885 -0.6143  0.2437 -0.6747
13015SOL    HW141938  10.133   2.922   6.913 -2.4925  1.0962 -1.3463
13015SOL    HW241939  10.234   2.970   6.811  2.2604 -1.3772  1.8080
13016SOL     OW41940   8.662   6.719   6.183 -0.5726  0.7470  0.4478
13016SOL    HW141941   8.662   6.801   6.133 -1.2018  0.6449  0.2685
13016SOL    HW241942   8.729   6.665   6.139 -1.2480  0.5904 -0.4154
13017SOL     OW41943   9.451   3.659   9.978  0.2909 -0.2763  0.1738
13017SOL    HW141944   9.368   3.613   9.994 -0.2720  0.8808  0.7448
13017SOL    HW241945   9.501   3.645  10.058  0.0339  0.2515  0.4342
13018SOL     OW41946   7.552   2.540   4.341 -0.0394 -0.1727 -0.2715
13018SOL    HW141947   7.623   2.484   4.372 -1.4944 -1.9498  0.0011
13018SOL    HW241948   7.539   2.604   4.412 -0.3256 -1.3808  0.7943
13019SOL     OW41949   9.954   3.097   2.536 -0.3039  0.0067 -0.1291
13019SOL    HW141950  10.016   3.024   2.542 -1.4692 -1.0589 -0.5952
13019SOL    HW241951  10.007   3.175   2.554  0.7634 -1.0216  1.4716
13020SOL     OW41952   7.815   1.218   6.488 -0.2650  0.4704 -0.1367
13020SOL    HW141953   7.791   1.259   6.571  0.9123 -0.6930  0.8286
13020SOL    HW241954   7.823   1.125   6.509  0.7528  0.2460 -1.4030
13021SOL     OW41955   3.574   0.821   9.233  0.1928 -0.6664 -0.3972
13021SOL    HW141956   3.553   0.791   9.322 -1.1126  0.1350 -0.4140
13021SOL    HW241957   3.666   0.800   9.223 -0.0658 -2.4356  0.4814
13022SOL     OW41958   4.948  10.656   1.471  0.4894  0.4430  0.0112
13022SOL    HW141959   4.909  10.733   1.512  1.2575  1.2344 -0.6916
13022SOL    HW241960   5.023  10.635   1.526 -1.0844 -1.3631  1.6319
13023SOL     OW41961   9.036   0.805   0.304  0.6183 -0.6718 -0.4326
13023SOL    HW141962   8.962   0.833   0.359  0.4777  0.0317 -0.9635
13023SOL    HW241963   9.003   0.810   0.215  1.4078 -0.0055 -0.6976
13024SOL     OW41964   5.319   7.902   9.104 -0.3152  0.4843  0.3846
13024SOL    HW141965   5.312   7.840   9.176 -0.5390 -0.3828 -0.3681
13024SOL    HW241966   5.371   7.974   9.139 -0.8483  0.3116  1.5644
13025SOL     OW41967   6.387   5.282   8.497  0.0641  0.4027  0.0779
13025SOL    HW141968   6.436   5.216   8.546  0.4020  1.7491  1.6354
13025SOL    HW241969   6.364   5.238   8.415  2.0047 -0.9728  0.1895
13026SOL     OW41970   5.106   3.435   0.761 -0.2978  0.5146 -0.3955
13026SOL    HW141971   5.176   3.409   0.701 -0.7992  0.2648 -0.8811
13026SOL    HW241972   5.069   3.515   0.722 -0.2385  0.6889 -0.1006
13027SOL     OW41973   5.510   4.306   9.465 -0.1822 -0.3492 -0.3430
13027SOL    HW141974   5.550   4.390   9.489  1.0149 -0.5314 -1.5627
13027SOL    HW241975   5.417   4.326   9.456 -0.1170  0.5313  0.7213
13028SOL     OW41976   1.903   7.763   2.198 -0.0257 -0.5423  0.1471
13028SOL    HW141977   1.992   7.786   2.171 -0.1013 -1.7388 -1.2214
13028SOL    HW241978   1.864   7.847   2.223  1.3583  0.0496  0.4604
13029SOL     OW41979   7.728   0.915   0.692 -0.5183 -0.2558  0.0809
13029SOL    HW141980   7.742   0.826   0.658 -2.5445 -0.0906 -1.4259
13029SOL    HW241981   7.670   0.902   0.767 -1.0779 -0.2210 -0.3337
13030SOL     OW41982   3.685   0.381   4.129  0.2758  0.0873  0.1074
13030SOL    HW141983   3.604   0.417   4.166 -0.3124 -0.3046 -0.7605
13030SOL    HW241984   3.750   0.451   4.142 -0.2702  0.5298  0.5401
13031SOL     OW41985   4.907   8.807   6.252 -0.2389  0.2147  0.5783
13031SOL    HW141986   4.971   8.840   6.315  1.8010  0.0485 -1.3116
13031SOL    HW241987   4.883   8.720   6.285  0.3230  0.3767  1.4395
13032SOL     OW41988   5.412   0.037   8.016 -0.7088  0.0807 -0.1942
13032SOL    HW141989   5.482   0.077   8.067 -1.1731 -1.4126  1.7449
13032SOL    HW241990   5.331   0.066   8.059 -1.2307  0.3681 -1.3225
13033SOL     OW41991   8.766   1.091   5.645  0.2153 -0.2555  0.3699
13033SOL    HW141992   8.851   1.078   5.688  0.4904  1.8972  0.5801
13033SOL    HW241993   8.705   1.109   5.716  0.2969  1.5240  0.0206
13034SOL     OW41994   8.353   0.872   5.258  0.0452 -0.5025  0.0961
13034SOL    HW141995   8.349   0.967   5.256 -0.0152 -0.4650  1.5764
13034SOL    HW241996   8.295   0.844   5.186 -2.0389  0.5374  1.2904
13035SOL     OW41997   2.923   8.136   0.714 -0.6518 -0.2509 -0.2089
13035SOL    HW141998   2.841   8.107   0.753 -1.8647  1.1903 -1.5539
13035SOL    HW241999   2.902   8.151   0.622  0.9634  0.7653 -0.4524
13036SOL     OW42000   0.288   9.375   0.616 -0.3633 -0.0456 -0.2578
13036SOL    HW142001   0.196   9.402   0.624 -0.1399  0.4278  0.8401
13036SOL    HW242002   0.307   9.332   0.699  0.2153 -0.7784 -0.7592
13037SOL     OW42003   6.064   2.972   8.890 -0.4045 -0.2761  0.6747
13037SOL    HW142004   6.128   2.920   8.939 -0.5108 -2.6356 -1.4901
13037SOL    HW242005   5.980   2.931   8.909 -0.7511  0.3107  0.4146
13038SOL     OW42006   1.276   8.789   8.564 -0.3193  0.3661  0.7272
13038SOL    HW142007   1.277   8.706   8.612 -1.2728 -0.9096 -1.3176
13038SOL    HW242008   1.308   8.854   8.627  0.2299 -1.4990  2.4657
13039SOL     OW42009   1.699   0.421   1.264 -0.2558 -0.0791  0.2313
13039SOL    HW142010   1.704   0.477   1.342 -1.8682  1.1538 -0.5046
13039SOL    HW242011   1.738   0.473   1.194 -0.1853 -0.5745 -0.1003
13040SOL     OW42012   3.511   7.850   8.440 -0.8974  0.6348 -0.7120
13040SOL    HW142013   3.569   7.849   8.364  0.0225  0.4159 -0.0196
13040SOL    HW242014   3.449   7.779   8.423  2.0902 -2.6649  0.7949
13041SOL     OW42015   5.262   7.046   8.757 -0.0737  0.0783  0.1176
13041SOL    HW142016   5.279   7.097   8.836 -0.5858 -0.5037  0.6233
13041SOL    HW242017   5.206   7.102   8.704 -2.1448 -0.5745  1.4592
13042SOL     OW42018   0.725   2.922   7.388 -0.1291  0.6438  0.3136
13042SOL    HW142019   0.809   2.951   7.354  0.2584  1.5006  1.9056
13042SOL    HW242020   0.664   2.932   7.314  0.9636  0.8821 -0.5778
13043SOL     OW42021   7.285   1.840   5.588  0.1924 -0.0001  0.4775
13043SOL    HW142022   7.251   1.762   5.545 -0.5200  0.4717  0.1624
13043SOL    HW242023   7.376   1.818   5.610  0.4295 -0.4265 -0.8572
13044SOL     OW42024   6.420   8.446   1.581  0.0707  1.4552  0.6308
13044SOL    HW142025   6.465   8.370   1.544 -1.6914  0.6265  0.1007
13044SOL    HW242026   6.388   8.417   1.666  0.0444  1.8476  0.7572
13045SOL     OW42027   2.660   9.922   7.503  0.5041 -0.1928  0.0814
13045SOL    HW142028   2.659   9.975   7.582 -0.1036 -0.6179  0.3664
13045SOL    HW242029   2.674   9.833   7.535 -0.2894 -0.4398 -0.2368
13046SOL     OW42030   6.351   9.164   3.719  0.5895 -0.1067  0.2683
13046SOL    HW142031   6.354   9.220   3.796 -0.8312 -0.4805  0.6389
13046SOL    HW242032   6.308   9.084   3.749 -0.6628  0.0144 -1.0414
13047SOL     OW42033   0.904   5.446   9.141  0.1177 -0.0104  0.2194
13047SOL    HW142034   0.863   5.367   9.174  0.5788  0.2274  1.4257
13047SOL    HW242035   0.850   5.517   9.175 -0.1463  0.2113 -0.6399
13048SOL     OW42036   7.420   0.237   3.952 -0.3976 -0.4939 -0.8769
13048SOL    HW142037   7.511   0.257   3.929 -0.8727  0.7058 -1.8194
13048SOL    HW242038   7.387   0.186   3.878 -0.8069  0.0132 -1.0457
13049SOL     OW42039   5.532   4.637   5.481  0.0426  0.2080 -0.0234
13049SOL    HW142040   5.474   4.561   5.471  1.0299 -0.3588 -2.0658
13049SOL    HW242041   5.476   4.712   5.460 -0.6562 -0.0400  0.8920
13050SOL     OW42042   6.081   6.521   2.120 -0.6788 -0.0002  0.0009
13050SOL    HW142043   6.073   6.603   2.170  3.0978  1.1776 -1.0003
13050SOL    HW242044   6.043   6.542   2.034  1.8974  1.4687 -0.8794
13051SOL     OW42045   5.509   3.885   3.147 -0.1109 -0.1864  0.3697
13051SOL    HW142046   5.575   3.854   3.209  0.0031 -1.3984 -0.3353
13051SOL    HW242047   5.489   3.809   3.093 -1.7467  0.2889  0.2542
13052SOL     OW42048  10.345   3.950   7.962  0.2570  0.2777  0.5682
13052SOL    HW142049  10.387   3.960   8.047  1.8559 -1.6017  0.0725
13052SOL    HW242050  10.404   3.993   7.900  1.5958 -2.3603 -0.1325
13053SOL     OW42051   6.347   6.783   0.277  0.0947 -1.1679  0.4082
13053SOL    HW142052   6.439   6.807   0.288 -0.0104 -0.9866  0.9113
13053SOL    HW242053   6.349   6.703   0.225  0.4603 -0.1286 -1.2691
13054SOL     OW42054   7.807   6.454   6.407  0.0074 -0.7054  0.3563
13054SOL    HW142055   7.837   6.363   6.412 -1.1595 -1.0368  2.1660
13054SOL    HW242056   7.715   6.448   6.381  0.2970  0.0701 -0.9466
13055SOL     OW42057   0.562   0.552   1.895 -0.7300 -0.0895  0.1213
13055SOL    HW142058   0.505   0.578   1.967 -1.4768  1.5600 -1.0074
13055SOL    HW242059   0.506   0.501   1.837 -0.6009  0.0804 -0.1541
13056SOL     OW42060   7.990   0.339  10.242 -0.6314 -0.0391  0.5043
13056SOL    HW142061   7.964   0.303  10.156  0.3967  0.3034  0.0399
13056SOL    HW242062   7.911   0.332  10.295 -1.5466  0.5461 -0.7318
13057SOL     OW42063   6.196   3.688   3.375  0.2983  0.1277  0.3045
13057SOL    HW142064   6.149   3.726   3.449  0.8325  3.1532 -0.7862
13057SOL    HW242065   6.263   3.633   3.415  0.2605  1.2714  2.0497
13058SOL     OW42066  10.174   2.311   4.402  0.3765 -0.3646 -0.5300
13058SOL    HW142067  10.202   2.239   4.459 -0.9056  0.3376  1.0787
13058SOL    HW242068  10.144   2.379   4.462  1.3001  1.4407 -2.0063
13059SOL     OW42069   9.667   5.286   9.056  0.6109 -0.2288 -0.3379
13059SOL    HW142070   9.692   5.315   8.968  2.7076  0.7125  0.5092
13059SOL    HW242071   9.724   5.212   9.074  0.1729 -0.4343  0.2421
13060SOL     OW42072   4.553   6.984   7.597  0.0548  0.0331  0.0407
13060SOL    HW142073   4.485   6.975   7.530 -1.4803 -1.3231  1.6857
13060SOL    HW242074   4.544   6.906   7.652  1.8298  0.6607  1.3404
13061SOL     OW42075   1.712   8.921   2.377  0.2130  0.0698 -0.0186
13061SOL    HW142076   1.720   8.982   2.304 -1.5487 -0.4601 -0.7049
13061SOL    HW242077   1.687   8.838   2.337  1.5735 -0.8848  0.9940
13062SOL     OW42078   1.034   1.583  10.759  0.2403  0.2358  0.2828
13062SOL    HW142079   0.986   1.660  10.728 -1.3723 -0.8625 -0.0070
13062SOL    HW242080   1.062   1.607  10.847 -0.8890  0.8705  0.4806
13063SOL     OW42081   8.188   9.036   8.574 -0.5842 -0.2708 -0.1066
13063SOL    HW142082   8.098   9.003   8.567 -0.4499 -0.6674  0.0420
13063SOL    HW242083   8.181   9.114   8.629 -0.4446 -1.8787  2.3374
13064SOL     OW42084   5.212   0.729   3.633  0.1559 -0.0062  0.0546
13064SOL    HW142085   5.215   0.749   3.726 -0.9164  0.1787  0.0644
13064SOL    HW242086   5.260   0.646   3.625  0.8618  0.3294  0.6539
13065SOL     OW42087   3.669   1.309   8.620  0.2679 -0.3102  0.8283
13065SOL    HW142088   3.669   1.400   8.591 -0.6494 -1.2805 -2.7124
13065SOL    HW242089   3.585   1.274   8.590  1.3553 -2.7468  0.3783
13066SOL     OW42090   8.123  10.141   1.019  0.3332  0.3610 -0.1320
13066SOL    HW142091   8.175  10.221   1.026  0.5773  0.0705  2.7285
13066SOL    HW242092   8.084  10.130   1.106 -0.4800 -2.1036 -0.7238
13067SOL     OW42093   0.773   6.286   6.172  0.1062  0.0735 -0.0526
13067SOL    HW142094   0.708   6.229   6.212  1.5354 -1.1205  0.6933
13067SOL    HW242095   0.846   6.286   6.234  1.4153  0.1269 -1.5327
13068SOL     OW42096   9.656   7.803   1.829 -0.2246  0.2672 -0.1517
13068SOL    HW142097   9.566   7.772   1.838 -0.0182 -0.0969  0.7381
13068SOL    HW242098   9.663   7.874   1.893 -0.0340  0.6572 -0.6006
13069SOL     OW42099   4.762   3.398   1.350 -0.1388 -0.2055  0.2358
13069SOL    HW142100   4.833   3.351   1.394 -1.1622 -0.3879  1.7771
13069SOL    HW242101   4.804   3.475   1.312  1.2591 -1.4163 -0.8055
13070SOL     OW42102   1.927   2.213   5.549  0.1398  0.3932 -0.7601
13070SOL    HW142103   1.995   2.162   5.594 -1.1008 -1.2308 -0.6458
13070SOL    HW242104   1.854   2.216   5.610 -0.0302  1.8805 -0.9932
13071SOL     OW42105   7.619   3.192   2.156  0.4077  0.2327 -0.1971
13071SOL    HW142106   7.661   3.277   2.154  0.3475  0.2607 -1.5092
13071SOL    HW242107   7.688   3.130   2.134  0.0666  0.1544 -1.1217
13072SOL     OW42108   4.091   3.975   8.625  0.8523 -0.5633  0.1168
13072SOL    HW142109   4.140   3.926   8.559 -0.5774 -1.2858 -0.4492
13072SOL    HW242110   4.064   4.055   8.581  0.8343 -0.5316  0.1842
13073SOL     OW42111   7.871  10.051   5.337 -0.4973  0.3978  0.4511
13073SOL    HW142112   7.911   9.966   5.354 -1.3832 -0.3003 -0.7425
13073SOL    HW242113   7.879  10.062   5.242  0.2924  2.0194  0.6761
13074SOL     OW42114   9.302   2.576   8.361  0.1637  0.3759 -0.0444
13074SOL    HW142115   9.295   2.549   8.453 -1.7293 -0.6274 -0.4222
13074SOL    HW242116   9.292   2.495   8.311 -1.1997  1.1729 -1.1516
13075SOL     OW42117   2.623   2.213   2.664 -0.6154 -0.1885 -0.5976
13075SOL    HW142118   2.654   2.131   2.626  0.9760  0.3655 -0.5457
13075SOL    HW242119   2.564   2.249   2.597  1.7921  0.5610 -2.4707
13076SOL     OW42120   0.222   0.409   2.933 -0.7995 -0.4629 -0.2017
13076SOL    HW142121   0.274   0.478   2.891 -1.7349  0.3397 -0.0783
13076SOL    HW242122   0.190   0.449   3.014 -0.1232 -1.5526  0.6269
13077SOL     OW42123   5.405   7.297   0.678 -0.2710 -0.3610 -0.5603
13077SOL    HW142124   5.482   7.310   0.733 -1.2610 -0.9649  1.0247
13077SOL    HW242125   5.346   7.369   0.703 -0.3165 -0.0040 -1.6354
13078SOL     OW42126   2.418   6.346  10.767  0.3952  0.0385  0.2527
13078SOL    HW142127   2.339   6.393  10.738  1.0572  0.7141 -0.4831
13078SOL    HW242128   2.384   6.267  10.810 -0.6387 -0.7544 -1.8865
13079SOL     OW42129   5.956   9.768   6.441  0.2036 -0.0124 -0.1786
13079SOL    HW142130   5.963   9.860   6.468 -0.0731 -0.4495  1.5294
13079SOL    HW242131   5.868   9.742   6.468  1.4250 -1.7059  2.6593
13080SOL     OW42132   0.613   8.801   4.805  0.7404 -0.1699  0.5431
13080SOL    HW142133   0.580   8.853   4.731  0.9691 -1.6034 -0.6121
13080SOL    HW242134   0.638   8.866   4.870  1.5777  1.2260 -1.0752
13081SOL     OW42135   1.286   6.697   0.259 -0.0640 -0.5104 -0.5345
13081SOL    HW142136   1.221   6.765   0.236  1.3592  0.7652 -0.9504
13081SOL    HW242137   1.254   6.618   0.216 -1.5501 -0.0211 -0.3976
13082SOL     OW42138   1.602   7.504   5.166  0.1872 -0.4682  0.3410
13082SOL    HW142139   1.694   7.509   5.140  0.0465  2.1991  0.1055
13082SOL    HW242140   1.561   7.451   5.097  0.8971  1.5994 -1.8211
13083SOL     OW42141   7.785   1.827   0.775 -0.8202 -0.0421  0.0164
13083SOL    HW142142   7.812   1.816   0.866 -0.4688  0.3549 -0.0343
13083SOL    HW242143   7.793   1.921   0.760  0.6663 -0.2818 -0.8925
13084SOL     OW42144   6.549   9.095   6.365 -0.0478 -0.6155 -0.3048
13084SOL    HW142145   6.580   9.134   6.284 -0.8310 -0.0053 -0.3171
13084SOL    HW242146   6.587   9.150   6.434 -0.0074 -0.6818 -0.2734
13085SOL     OW42147   2.651   7.846   6.411  0.0464 -0.0777 -0.4737
13085SOL    HW142148   2.733   7.798   6.427  0.0128  0.2963  1.0352
13085SOL    HW242149   2.677   7.923   6.362 -0.0060 -1.9751 -3.7351
13086SOL     OW42150   9.020  10.683   0.374 -0.0225 -0.4456  0.3112
13086SOL    HW142151   8.962  10.640   0.437 -0.7544  0.3683  0.2160
13086SOL    HW242152   8.963  10.743   0.326  0.5332 -1.0234 -1.1184
13087SOL     OW42153   2.748   0.116   0.891  0.2575  0.9201  0.5769
13087SOL    HW142154   2.818   0.124   0.955  2.7619 -1.7274 -1.5045
13087SOL    HW242155   2.705   0.033   0.913 -1.5380  1.9446  1.1192
13088SOL     OW42156   3.443   4.823   8.861 -0.3318 -0.2346 -0.1552
13088SOL    HW142157   3.423   4.893   8.799 -1.0708 -0.7529 -0.5282
13088SOL    HW242158   3.384   4.752   8.835  0.3304 -0.9534  0.2787
13089SOL     OW42159   1.017   2.912  10.227  0.4076 -0.0114 -0.1755
13089SOL    HW142160   1.049   2.986  10.175 -1.8099  1.2595  0.1415
13089SOL    HW242161   1.074   2.911  10.304  0.6384  1.2176 -0.3129
13090SOL     OW42162   9.383   5.115   1.865  0.1005  0.1573  0.0855
13090SOL    HW142163   9.356   5.034   1.907  1.0542 -0.4837 -0.5173
13090SOL    HW242164   9.308   5.141   1.811 -0.2166 -0.2985  0.3069
13091SOL     OW42165   3.965   1.958   3.461 -0.5803 -0.0543  0.4743
13091SOL    HW142166   3.922   2.041   3.483 -0.7347 -0.2756  1.0176
13091SOL    HW242167   4.014   1.977   3.381 -2.7283 -0.1248 -0.9481
13092SOL     OW42168   4.300   9.713   6.294 -0.0734  0.6295  0.1458
13092SOL    HW142169   4.303   9.781   6.227  0.1677 -0.6315 -1.1746
13092SOL    HW242170   4.377   9.730   6.348  0.4958  0.8760 -0.7159
13093SOL     OW42171  10.236   8.158   8.120 -0.1711  0.2687  0.3064
13093SOL    HW142172  10.176   8.188   8.189  0.5689  1.1078  0.6088
13093SOL    HW242173  10.199   8.076   8.090 -3.1044  2.0838 -1.5267
13094SOL     OW42174   0.714   2.740  10.102 -0.1427 -0.6589  0.2946
13094SOL    HW142175   0.673   2.773  10.182 -0.2935 -0.4011  0.1095
13094SOL    HW242176   0.697   2.807  10.036  1.3905 -0.1044  0.4396
13095SOL     OW42177   6.656   2.430   6.485 -0.1949 -0.2091  0.7896
13095SOL    HW142178   6.579   2.382   6.454 -1.7497  1.6461  1.5920
13095SOL    HW242179   6.729   2.370   6.470 -1.7399 -1.9299 -0.2661
13096SOL     OW42180   8.416   8.428   3.215  0.1971 -0.6314  0.3326
13096SOL    HW142181   8.331   8.420   3.259  0.0843 -1.3296  0.0096
13096SOL    HW242182   8.421   8.351   3.158  1.0631 -0.6217  0.3751
13097SOL     OW42183   3.218   4.784   6.974 -0.2057 -0.0519 -0.2231
13097SOL    HW142184   3.174   4.824   7.049 -0.5827 -0.0079 -0.4665
13097SOL    HW242185   3.149   4.739   6.926 -0.2486  1.1457 -1.3477
13098SOL     OW42186   3.703   4.281   0.077  0.1700 -0.3607  0.4042
13098SOL    HW142187   3.696   4.327  -0.006 -1.3660 -0.8473  0.2291
13098SOL    HW242188   3.784   4.231   0.071  1.4572  1.5967  0.2702
13099SOL     OW42189   0.402   5.643   4.215  0.3600 -0.0804 -0.0317
13099SOL    HW142190   0.342   5.717   4.206  1.6077  0.7763 -2.1064
13099SOL    HW242191   0.436   5.651   4.304 -0.5249  1.0471  0.2294
13100SOL     OW42192   5.739  10.638   7.908  0.4040 -0.6772 -0.0905
13100SOL    HW142193   5.680  10.712   7.915  0.9220 -0.2496 -0.1713
13100SOL    HW242194   5.817  10.673   7.864  0.2099 -1.5244 -1.1595
13101SOL     OW42195   9.261   9.292   3.399 -0.4140 -0.1214  0.1416
13101SOL    HW142196   9.272   9.346   3.477 -0.5317  0.8659 -0.4968
13101SOL    HW242197   9.218   9.350   3.336  0.8289 -0.4636 -1.0882
13102SOL     OW42198   8.914   1.376   4.822  0.3051  0.1386 -0.3911
13102SOL    HW142199   8.937   1.291   4.860 -0.4289  0.1179  0.0419
13102SOL    HW242200   8.965   1.439   4.873  0.7805 -0.0348 -0.6505
13103SOL     OW42201   9.795  10.452   2.905  0.1084  0.1565 -0.4628
13103SOL    HW142202   9.798  10.468   2.811 -0.0014  0.7951 -0.3612
13103SOL    HW242203   9.884  10.470   2.935  0.0970  0.1350 -0.4164
13104SOL     OW42204   3.732   0.434   7.708  0.0721  0.2015  0.4482
13104SOL    HW142205   3.640   0.460   7.702 -0.4289 -0.6597  3.1501
13104SOL    HW242206   3.751   0.393   7.624 -2.0689  0.2498 -0.1022
13105SOL     OW42207   1.151  10.739   0.386 -0.3019  0.3045  0.4265
13105SOL    HW142208   1.174  10.800   0.456 -1.1795  1.1318  0.0142
13105SOL    HW242209   1.110  10.665   0.432  0.4680  0.1607  0.9000
13106SOL     OW42210   6.827   9.098   7.290  0.4824 -0.1279  0.4618
13106SOL    HW142211   6.762   9.042   7.332  0.8370  1.1252  2.8244
13106SOL    HW242212   6.906   9.044   7.287 -0.0800 -0.9456 -0.5709
13107SOL     OW42213   1.769   3.234   8.904  0.0316  0.0149 -0.5356
13107SOL    HW142214   1.743   3.229   8.996  0.9308 -1.8409 -0.3325
13107SOL    HW242215   1.699   3.187   8.857  0.3463 -0.3839 -0.6084
13108SOL     OW42216   9.461   4.669   5.543 -0.0611 -0.1477  0.2263
13108SOL    HW142217   9.541   4.621   5.524 -0.3168 -0.6087  0.2955
13108SOL    HW242218   9.469   4.694   5.635 -0.0336 -0.2628  0.2547
13109SOL     OW42219   1.276   2.386  10.140  0.4956  0.4174 -0.1033
13109SOL    HW142220   1.308   2.464  10.185  3.7425 -0.5614 -0.4539
13109SOL    HW242221   1.244   2.418  10.056  0.6427  1.4689  0.2272
13110SOL     OW42222   8.347   1.149   7.807 -0.2632 -0.3595 -0.0222
13110SOL    HW142223   8.385   1.085   7.867  0.1291 -0.4442 -0.3547
13110SOL    HW242224   8.253   1.143   7.820 -0.1251  1.2032  2.2195
13111SOL     OW42225   2.661   7.751   7.369  0.0885  0.2470 -0.5388
13111SOL    HW142226   2.640   7.842   7.388 -2.7133 -0.1999 -1.0499
13111SOL    HW242227   2.601   7.700   7.424  2.0431 -1.3521  0.2426
13112SOL     OW42228   5.776   5.031   7.542 -0.3500  0.4674  0.5231
13112SOL    HW142229   5.816   5.048   7.457  1.0168  0.8658  1.2006
13112SOL    HW242230   5.693   4.989   7.522  0.1052  0.2190 -0.9980
13113SOL     OW42231   6.388   1.116   5.694  0.2897 -0.0323  0.3960
13113SOL    HW142232   6.337   1.186   5.653  1.2797 -0.1636 -1.1331
13113SOL    HW242233   6.328   1.079   5.759 -1.2471  0.4293 -0.6803
13114SOL     OW42234   9.039   6.133   8.878 -0.3022 -0.4156 -0.0833
13114SOL    HW142235   9.047   6.225   8.903 -1.0424  0.0772 -1.5460
13114SOL    HW242236   9.127   6.108   8.849 -0.1056 -0.1654  0.2855
13115SOL     OW42237   8.601   8.692   0.258 -0.1835  0.1440  0.0822
13115SOL    HW142238   8.550   8.703   0.338 -1.5070 -3.2809 -0.1229
13115SOL    HW242239   8.536   8.678   0.189  0.9817 -0.1247 -1.0074
13116SOL     OW42240   6.718   5.026   8.393 -0.1170 -0.6515 -0.8230
13116SOL    HW142241   6.788   4.993   8.337  0.9606 -0.5714  0.4206
13116SOL    HW242242   6.762   5.085   8.454 -1.2978 -0.4624 -0.1204
13117SOL     OW42243   0.414   6.748   7.731 -0.2847  0.6664 -0.4703
13117SOL    HW142244   0.487   6.806   7.753 -0.5536  1.2943 -1.2171
13117SOL    HW242245   0.421   6.734   7.637 -0.3459 -0.3587 -0.3359
13118SOL     OW42246   3.753   3.225   1.902  0.2289  0.0705 -0.2271
13118SOL    HW142247   3.679   3.165   1.914  0.9234 -0.8515 -0.3957
13118SOL    HW242248   3.718   3.296   1.848 -0.1443 -1.1686 -1.7140
13119SOL     OW42249   6.438   0.069   2.966 -0.2000 -0.1795 -0.0254
13119SOL    HW142250   6.346   0.074   2.941 -0.3824 -0.4603  0.5780
13119SOL    HW242251   6.462  -0.022   2.952  0.3835  0.1641 -1.5020
13120SOL     OW42252   8.074   2.807   0.987 -0.1781  0.3780 -0.0887
13120SOL    HW142253   8.002   2.829   1.046  0.0450 -0.2536  0.4289
13120SOL    HW242254   8.042   2.832   0.900 -0.8880  0.4182  0.1754
13121SOL     OW42255   0.612   2.261   7.183 -0.4873  0.2371  0.4056
13121SOL    HW142256   0.518   2.247   7.178 -0.6768  0.6903  2.0120
13121SOL    HW242257   0.622   2.354   7.201  0.3916  0.6143 -1.6892
13122SOL     OW42258   8.984   7.607   0.317 -0.4506  0.2564  0.5886
13122SOL    HW142259   9.070   7.618   0.277 -0.7234 -0.2796 -0.1698
13122SOL    HW242260   9.002   7.592   0.409  0.3554 -1.1207  0.2339
13123SOL     OW42261   4.536   4.153   5.905 -0.4310  0.1617  0.1420
13123SOL    HW142262   4.494   4.078   5.946  0.0086 -0.5847 -0.7391
13123SOL    HW242263   4.630   4.136   5.915 -0.2807 -0.4139 -1.7471
13124SOL     OW42264   6.273   0.610   7.530  1.4129  0.1402  0.0310
13124SOL    HW142265   6.299   0.629   7.621 -2.3616  1.3130  1.0515
13124SOL    HW242266   6.200   0.548   7.539  1.1744  0.0267 -2.2588
13125SOL     OW42267   1.590   1.028   5.793 -0.4366  0.2633 -0.0103
13125SOL    HW142268   1.530   0.954   5.796  0.7342 -0.6964  1.5522
13125SOL    HW242269   1.595   1.059   5.883  1.7775 -0.0535  0.0411
13126SOL     OW42270   9.981   0.943   5.621 -0.1612 -0.0795 -0.1480
13126SOL    HW142271   9.904   0.893   5.592 -0.2941  0.7448 -1.2765
13126SOL    HW242272  10.054   0.880   5.615 -0.1200  0.1002 -2.6630
13127SOL     OW42273   0.333   8.309   3.661 -0.5843 -0.0575  0.0149
13127SOL    HW142274   0.313   8.254   3.585  0.5862 -0.9924  0.3482
13127SOL    HW242275   0.346   8.396   3.625 -2.2038 -0.0360 -0.5647
13128SOL     OW42276   6.392   7.597   6.784 -0.5695 -0.2885  0.5649
13128SOL    HW142277   6.376   7.691   6.798 -0.6473 -0.3912  1.2087
13128SOL    HW242278   6.377   7.584   6.690 -1.5583  0.1579  0.6398
13129SOL     OW42279   3.646   2.179   3.261  0.2357 -0.2803  0.4680
13129SOL    HW142280   3.606   2.099   3.226 -1.3047  0.9869 -0.8215
13129SOL    HW242281   3.699   2.213   3.190 -1.9104  1.6423 -0.3317
13130SOL     OW42282   0.627   9.903   8.232 -0.9403  0.4359 -0.3541
13130SOL    HW142283   0.556   9.964   8.254  0.6581  2.2207  0.1411
13130SOL    HW242284   0.687   9.909   8.306  0.1609 -0.3380 -1.1569
13131SOL     OW42285   1.147   8.575   1.796  0.4014  1.0812 -0.2292
13131SOL    HW142286   1.203   8.603   1.870 -2.6502  2.4198  1.7701
13131SOL    HW242287   1.138   8.654   1.742  1.6389  0.4296 -1.4484
13132SOL     OW42288   9.156   1.519   7.389  0.7554  0.2629 -0.3755
13132SOL    HW142289   9.123   1.488   7.472  1.1940  0.6666 -0.0418
13132SOL    HW242290   9.238   1.471   7.376  1.8052  1.7278  0.4867
13133SOL     OW42291   0.503   1.632   2.527  0.0850  0.1731 -0.7776
13133SOL    HW142292   0.466   1.645   2.439  0.7427 -1.7324 -1.3743
13133SOL    HW242293   0.427   1.617   2.583 -0.2737  0.2569 -1.2350
13134SOL     OW42294   0.385   1.615   3.167  0.5468 -0.3136 -0.4548
13134SOL    HW142295   0.388   1.708   3.143 -0.2038 -0.4178 -0.9892
13134SOL    HW242296   0.476   1.588   3.171  0.7424  0.1085 -1.6608
13135SOL     OW42297   6.519   2.151   9.064  0.4806  0.7136 -0.4324
13135SOL    HW142298   6.528   2.057   9.079  0.7657  0.7418 -0.4227
13135SOL    HW242299   6.454   2.158   8.995 -0.4971  0.5661  0.4592
13136SOL     OW42300   7.689   6.854   6.288  0.8338 -0.1360  0.2914
13136SOL    HW142301   7.732   6.908   6.354  1.6090  2.0420 -1.8501
13136SOL    HW242302   7.669   6.915   6.217 -1.4240 -2.0434 -0.8406
13137SOL     OW42303   7.497  10.262   3.215  0.0588  0.3584  0.7112
13137SOL    HW142304   7.501  10.221   3.129  0.3851 -1.4491  1.5199
13137SOL    HW242305   7.587  10.290   3.232  0.2138 -0.2213  0.8713
13138SOL     OW42306   5.727   0.711   3.628  0.0349  0.3806  0.1490
13138SOL    HW142307   5.649   0.710   3.684  0.6530  2.2336  1.1188
13138SOL    HW242308   5.801   0.718   3.689  0.7186  2.7849 -0.8088
13139SOL     OW42309   5.819   6.983  10.211  0.1564 -0.0677 -0.1801
13139SOL    HW142310   5.788   7.063  10.254 -1.0450 -0.6086  0.0165
13139SOL    HW242311   5.806   6.914  10.276  0.0416 -0.6040 -0.7607
13140SOL     OW42312   8.424   3.932   9.585  0.1896  0.1547 -0.0346
13140SOL    HW142313   8.369   4.000   9.623  2.5013  2.3406 -0.3326
13140SOL    HW242314   8.417   3.858   9.646  0.1231  1.8583  2.1235
13141SOL     OW42315   5.997   9.145   4.176 -0.1326 -0.0858 -0.4650
13141SOL    HW142316   6.032   9.147   4.265 -1.1976 -1.1061  0.0080
13141SOL    HW242317   5.996   9.237   4.149  1.3351  0.1301  0.0916
13142SOL     OW42318   3.056   8.506   9.558  0.0405  0.0231  0.0009
13142SOL    HW142319   2.996   8.464   9.497 -0.1932  2.0188 -1.2391
13142SOL    HW242320   3.143   8.485   9.524  0.0009 -1.1610  0.6061
13143SOL     OW42321   9.398   7.648   8.088  0.1700  0.3089  0.3408
13143SOL    HW142322   9.487   7.684   8.090 -0.0486  0.8817  0.2093
13143SOL    HW242323   9.409   7.554   8.097  0.9327  0.1374 -1.7843
13144SOL     OW42324   2.343   8.056   6.271 -0.3247 -0.3540  0.3287
13144SOL    HW142325   2.417   8.010   6.231  0.0887  0.3512  0.2598
13144SOL    HW242326   2.323   8.126   6.209 -0.0886  0.3632  1.0536
13145SOL     OW42327   7.903   4.818   8.096  0.1674  0.1375 -0.4393
13145SOL    HW142328   7.840   4.753   8.063 -0.6971  0.9395 -0.4058
13145SOL    HW242329   7.861   4.854   8.174  1.9447 -1.3247  1.2866
13146SOL     OW42330   9.184   7.101   6.660 -0.4197  0.3900 -0.3090
13146SOL    HW142331   9.149   7.096   6.571  0.3814  0.9180 -0.6727
13146SOL    HW242332   9.211   7.192   6.670  0.2042  0.1609  0.1936
13147SOL     OW42333  10.139   6.087   7.781 -0.1746  0.0046 -0.4465
13147SOL    HW142334  10.151   6.066   7.688 -2.9015 -3.8837 -0.1700
13147SOL    HW242335  10.190   6.021   7.828 -2.7959 -1.4196  0.6465
13148SOL     OW42336   6.515   0.167   2.546  0.1164 -0.2353  0.0277
13148SOL    HW142337   6.469   0.088   2.575  0.2728 -0.6989 -0.9533
13148SOL    HW242338   6.587   0.134   2.491  1.4887  0.4733  1.3038
13149SOL     OW42339   4.949   7.025   8.832  0.3790 -0.3578 -0.0336
13149SOL    HW142340   4.999   7.070   8.899 -1.9616  0.6070  1.1545
13149SOL    HW242341   4.878   6.982   8.879 -0.4630 -0.9166 -1.7269
13150SOL     OW42342   9.750   8.549   6.034 -0.6259 -0.3379  0.1242
13150SOL    HW142343   9.770   8.460   6.007 -0.3665 -0.5302  0.8967
13150SOL    HW242344   9.836   8.587   6.055 -0.7599 -0.0057  0.0707
13151SOL     OW42345   7.957   3.265   2.318 -0.3391  0.0615  0.0751
13151SOL    HW142346   7.982   3.293   2.229  1.1528 -1.3978 -0.0280
13151SOL    HW242347   7.912   3.182   2.305  0.0662 -0.2639  0.6727
13152SOL     OW42348   9.200   3.175   5.417 -0.1353  0.0203 -0.1349
13152SOL    HW142349   9.263   3.121   5.466 -2.5524 -3.2121 -0.2461
13152SOL    HW242350   9.117   3.159   5.460 -1.0363  4.4047  0.2130
13153SOL     OW42351   1.534  10.428  10.632  0.2539 -0.2875 -0.3814
13153SOL    HW142352   1.619  10.392  10.658 -0.7475 -1.7998  1.0039
13153SOL    HW242353   1.500  10.468  10.712 -1.6749 -2.5305  0.0464
13154SOL     OW42354   1.087  10.215   7.816 -0.1255  0.0915  0.3735
13154SOL    HW142355   1.026  10.193   7.746  1.1484  1.6460 -1.3040
13154SOL    HW242356   1.046  10.288   7.862  0.0428  0.5367 -0.1757
13155SOL     OW42357   3.143   9.710  10.644  0.3261 -0.3357  0.0609
13155SOL    HW142358   3.222   9.693  10.593  0.1162 -0.9835 -0.0584
13155SOL    HW242359   3.166   9.684  10.733  0.7123  0.8531  0.3254
13156SOL     OW42360   4.629   5.444   0.641  0.7145 -0.8257 -0.7613
13156SOL    HW142361   4.698   5.392   0.600 -0.6768 -3.3166 -0.0929
13156SOL    HW242362   4.594   5.389   0.710 -1.3825  0.7044 -0.5014
13157SOL     OW42363   4.468   9.432   0.755  0.3134  0.5794 -0.4361
13157SOL    HW142364   4.412   9.384   0.816  1.8162 -0.4079  0.2090
13157SOL    HW242365   4.488   9.514   0.800 -0.8165  1.0790 -0.7996
13158SOL     OW42366   9.991   5.777  10.704 -0.3788  0.1511 -0.1641
13158SOL    HW142367  10.022   5.782  10.613 -1.1060 -2.0746 -0.5936
13158SOL    HW242368   9.982   5.868  10.731  0.2847  0.8722 -2.1757
13159SOL     OW42369   1.512   0.706   8.978 -0.1395 -0.3804 -0.5090
13159SOL    HW142370   1.458   0.762   8.922 -0.3671  0.4156  0.4511
13159SOL    HW242371   1.601   0.717   8.944 -0.5602 -1.8086 -2.1891
13160SOL     OW42372   0.167   0.061   5.829  0.5816  0.7420 -0.1621
13160SOL    HW142373   0.089   0.092   5.783 -0.4428 -1.3974  0.0488
13160SOL    HW242374   0.171   0.115   5.908 -0.1209  1.5096 -0.6311
13161SOL     OW42375   9.955   9.213   8.583 -0.0381 -0.5981 -0.4425
13161SOL    HW142376   9.979   9.125   8.555 -1.1571 -0.3510 -2.3659
13161SOL    HW242377   9.885   9.200   8.647 -1.5408 -1.1298 -2.1145
13162SOL     OW42378   0.378   5.635   7.167  0.6644  0.2285  0.3903
13162SOL    HW142379   0.338   5.599   7.088  0.8425 -0.8944  0.7862
13162SOL    HW242380   0.472   5.627   7.152  0.7069 -1.5144  1.3451
13163SOL     OW42381   2.993   4.903   2.370 -0.0396 -0.2599 -0.2111
13163SOL    HW142382   2.953   4.951   2.298  1.4237  1.7969  0.2521
13163SOL    HW242383   3.082   4.884   2.340 -0.1744 -1.5445  0.1422
13164SOL     OW42384   7.840   3.445   4.997 -0.0610  0.3591  0.5447
13164SOL    HW142385   7.825   3.481   4.910 -1.0832 -0.1616  0.4850
13164SOL    HW242386   7.791   3.363   4.997  1.1187 -0.3727  1.1248
13165SOL     OW42387   9.664   4.441   7.313 -0.1033  0.3440  0.4043
13165SOL    HW142388   9.637   4.501   7.382 -0.4644 -2.0071  2.4161
13165SOL    HW242389   9.760   4.450   7.309 -0.2503  2.0471 -0.3868
13166SOL     OW42390   8.187   7.824   4.505 -0.3734  0.2850  0.1977
13166SOL    HW142391   8.191   7.809   4.600 -0.2004 -0.5686  0.0583
13166SOL    HW242392   8.278   7.818   4.477 -0.5291 -0.4138 -0.1642
13167SOL     OW42393   3.327   6.102   2.180 -0.3758 -0.5077 -1.0322
13167SOL    HW142394   3.379   6.087   2.259  0.0696  0.1390 -1.1981
13167SOL    HW242395   3.385   6.074   2.109 -0.2382  0.2397 -1.2189
13168SOL     OW42396   3.386   3.992   1.451  0.4837  0.3110 -0.0984
13168SOL    HW142397   3.416   4.019   1.364 -0.0068  0.7449 -0.1371
13168SOL    HW242398   3.456   4.020   1.510 -0.4742  2.7505  0.0074
13169SOL     OW42399   0.082   0.035  10.565  0.3155  0.1685 -0.0977
13169SOL    HW142400   0.088   0.023  10.470 -0.4452  1.4450 -0.3384
13169SOL    HW242401  -0.010   0.058  10.580  0.7732  1.5482  0.7507
13170SOL     OW42402   7.505   3.476   0.750 -0.5124 -0.2938 -0.1304
13170SOL    HW142403   7.488   3.566   0.776  0.8063  0.7093 -2.4174
13170SOL    HW242404   7.531   3.482   0.658  0.7652 -2.8799 -0.0356
13171SOL     OW42405   8.533   9.589   1.005  0.3206 -0.0626  0.4224
13171SOL    HW142406   8.605   9.525   1.008  0.2095 -0.1445  2.4727
13171SOL    HW242407   8.538   9.625   0.916  0.9415 -2.2674 -0.5232
13172SOL     OW42408  10.600   4.958   3.781  0.2212 -0.2302  0.2706
13172SOL    HW142409  10.595   4.932   3.873 -1.4429 -0.2104  0.2111
13172SOL    HW242410  10.641   5.045   3.783  3.0855 -1.4719  0.7005
13173SOL     OW42411   9.380   9.374   7.191 -0.3523  0.3680  0.1708
13173SOL    HW142412   9.302   9.337   7.233 -1.6083  1.7157 -0.8299
13173SOL    HW242413   9.423   9.423   7.261 -1.6407  1.4275  0.2742
13174SOL     OW42414  10.046   6.908   0.237 -0.0264  0.1307  0.0119
13174SOL    HW142415  10.076   6.871   0.154 -0.9932  0.9005 -0.7067
13174SOL    HW242416  10.123   6.904   0.294  0.2684 -1.6957 -0.4567
13175SOL     OW42417   1.103   9.262   1.655  0.2357 -0.0254  0.4192
13175SOL    HW142418   1.020   9.247   1.700  0.3190  0.4944  0.7547
13175SOL    HW242419   1.085   9.334   1.594  0.1316 -0.7033 -0.3662
13176SOL     OW42420   9.949   2.051   4.412  0.2085  0.2418 -0.0928
13176SOL    HW142421  10.024   1.997   4.387  0.0208  0.6352 -1.6101
13176SOL    HW242422   9.882   2.031   4.347 -0.3302  1.2935  0.1075
13177SOL     OW42423   5.614   3.799   3.384 -0.0022  0.5200  0.6532
13177SOL    HW142424   5.646   3.883   3.418  0.9445 -0.3167  1.9189
13177SOL    HW242425   5.534   3.782   3.434  0.7161 -0.1083  1.6357
13178SOL     OW42426   2.761   1.663   2.669  0.3356 -0.1046  0.4047
13178SOL    HW142427   2.805   1.687   2.587  0.0601 -1.2554 -0.1024
13178SOL    HW242428   2.683   1.719   2.672  0.3882  0.0009 -0.0869
13179SOL     OW42429   3.106   8.012   7.842 -0.1238  0.3201 -0.2984
13179SOL    HW142430   3.027   7.980   7.799 -0.2886  1.9718 -1.3666
13179SOL    HW242431   3.136   7.940   7.897 -1.3880 -0.9609 -1.2275
13180SOL     OW42432   9.017  10.747   0.879 -0.1799  0.0014 -0.8765
13180SOL    HW142433   8.971  10.697   0.811 -1.0967  1.9407 -1.7747
13180SOL    HW242434   9.061  10.817   0.831  0.1805  0.6847  0.4217
13181SOL     OW42435   8.961   9.233   1.655 -0.1663  0.5045  0.4447
13181SOL    HW142436   8.877   9.279   1.667 -1.1936 -1.0612 -0.4150
13181SOL    HW242437   8.996   9.225   1.744 -1.0383  0.9722  0.8514
13182SOL     OW42438   4.706   3.985   3.769  0.5025 -0.4666 -0.1120
13182SOL    HW142439   4.711   3.987   3.864  0.3856 -0.2284 -0.1083
13182SOL    HW242440   4.646   3.913   3.749 -2.7636  1.9451  0.1657
13183SOL     OW42441   4.979   5.243   6.132 -0.1693 -0.5052 -0.1385
13183SOL    HW142442   4.944   5.296   6.060 -2.3166  0.5574  1.5629
13183SOL    HW242443   5.058   5.289   6.160 -1.6194  1.5259  0.8592
13184SOL     OW42444   7.725   7.419   2.195 -0.2857  0.0491 -0.0204
13184SOL    HW142445   7.736   7.348   2.259  0.1745  0.9480  0.9418
13184SOL    HW242446   7.811   7.427   2.154  0.4955  1.7398  1.7545
13185SOL     OW42447   4.334   2.128   9.999 -0.6015  0.5401 -0.2316
13185SOL    HW142448   4.378   2.159  10.078  0.6991  2.8665 -1.7682
13185SOL    HW242449   4.289   2.205   9.964 -1.7731 -0.6087 -1.3933
13186SOL     OW42450   7.611   5.918   9.979  0.1494 -0.1491 -0.3480
13186SOL    HW142451   7.536   5.927   9.920 -0.9126 -1.2953  0.7572
13186SOL    HW242452   7.573   5.888  10.061  1.4573  2.2618  1.2698
13187SOL     OW42453   8.060   6.059   8.366  0.1323 -0.2228  0.3327
13187SOL    HW142454   7.972   6.040   8.331 -0.7817  0.1932  2.2779
13187SOL    HW242455   8.069   6.000   8.441  0.7289  1.0334  1.2796
13188SOL     OW42456   8.176   2.297   3.767 -0.0794 -0.5867 -0.3349
13188SOL    HW142457   8.271   2.300   3.762  0.0621 -2.6065  0.4267
13188SOL    HW242458   8.149   2.388   3.752  2.1179  0.6798  2.4123
13189SOL     OW42459   8.771   9.207   0.324 -0.0277  0.0537  0.0666
13189SOL    HW142460   8.707   9.275   0.305  0.1443  0.5876  1.3100
13189SOL    HW242461   8.856   9.248   0.310  0.0946  0.3738  1.6064
13190SOL     OW42462   8.832   1.570   2.142 -0.2709 -0.4003  0.3890
13190SOL    HW142463   8.899   1.568   2.210 -0.0067 -0.4165  0.1257
13190SOL    HW242464   8.809   1.478   2.129  1.4525 -0.6373 -1.3038
13191SOL     OW42465   0.707   4.379   5.226 -0.0828  0.1938 -0.1855
13191SOL    HW142466   0.662   4.325   5.290  0.4002 -0.8173 -0.6866
13191SOL    HW242467   0.711   4.325   5.147 -2.0555  1.9655 -1.6123
13192SOL     OW42468   6.845   6.447   7.878  0.4110  0.2808 -0.3015
13192SOL    HW142469   6.871   6.536   7.900 -0.5911  0.4616  0.2034
13192SOL    HW242470   6.753   6.453   7.855  0.4881 -0.5326 -0.8827
13193SOL     OW42471  10.268   3.725   0.022 -0.2502  0.2639  0.4380
13193SOL    HW142472  10.239   3.800  -0.030 -0.0357 -0.0651 -0.1699
13193SOL    HW242473  10.204   3.656   0.003 -0.4977  0.3180  1.0630
13194SOL     OW42474   9.565   4.512   6.187  0.2979  0.1342 -0.3213
13194SOL    HW142475   9.471   4.507   6.203  0.3928 -0.3686  0.1137
13194SOL    HW242476   9.573   4.531   6.093 -0.2389  0.5851 -0.2756
13195SOL     OW42477   3.234   3.665   6.625  0.5639  0.0601  0.1032
13195SOL    HW142478   3.220   3.694   6.715 -3.9891 -0.1226 -0.2957
13195SOL    HW242479   3.233   3.569   6.630 -0.6926  0.0421 -0.1747
13196SOL     OW42480   1.253   0.644   2.393 -0.6463 -0.1180  0.2733
13196SOL    HW142481   1.175   0.637   2.447 -1.1246 -0.7462 -0.4859
13196SOL    HW242482   1.247   0.731   2.353 -0.7175  0.0158  0.5736
13197SOL     OW42483   8.102   8.987   5.978  0.1048  0.3964 -0.4512
13197SOL    HW142484   8.023   9.039   5.998 -0.8819 -1.1185 -0.2457
13197SOL    HW242485   8.138   8.965   6.064  0.9053  1.2588 -0.5474
13198SOL     OW42486   2.938   5.770  10.463  0.0315  0.0654  0.4454
13198SOL    HW142487   2.881   5.799  10.392  2.5887  0.3836 -1.6495
13198SOL    HW242488   2.973   5.851  10.500  0.7006 -0.1200  0.2499
13199SOL     OW42489   9.157   8.308   5.537  0.3264  0.5335 -0.2654
13199SOL    HW142490   9.077   8.282   5.492 -0.8478  1.0704  1.3900
13199SOL    HW242491   9.133   8.309   5.630  2.5107 -0.1558  0.3823
13200SOL     OW42492   0.667   4.599   3.010 -0.7313  0.4635 -0.6109
13200SOL    HW142493   0.641   4.523   3.062 -0.1071 -0.5254 -1.6713
13200SOL    HW242494   0.695   4.664   3.074 -0.2733 -0.5926  0.2948
13201SOL     OW42495   1.896   7.823   0.743  0.4552 -1.0212  0.7053
13201SOL    HW142496   1.883   7.797   0.834 -0.6002 -1.3058  0.4860
13201SOL    HW242497   1.959   7.759   0.708  1.0552 -0.7649  1.2839
13202SOL     OW42498   1.897   1.373   4.917  1.1089  0.5087 -0.0020
13202SOL    HW142499   1.838   1.298   4.907  1.7966 -0.0133 -0.2096
13202SOL    HW242500   1.985   1.335   4.915  1.5074  1.4122 -1.0444
13203SOL     OW42501   7.806   1.035   8.116 -0.9403 -0.6954  0.2524
13203SOL    HW142502   7.784   1.124   8.144 -2.5745 -1.2788  0.9249
13203SOL    HW242503   7.855   0.998   8.189  0.5669 -0.0653 -0.4088
13204SOL     OW42504   5.166   7.600   6.086  0.2074  0.4019  0.1430
13204SOL    HW142505   5.139   7.509   6.072 -1.2690  0.9560 -0.9527
13204SOL    HW242506   5.241   7.612   6.027 -0.7294  0.3585 -1.1108
13205SOL     OW42507   4.828   3.737   0.840  0.2855 -0.1110  0.0351
13205SOL    HW142508   4.918   3.746   0.809 -0.0563 -1.0982 -1.3122
13205SOL    HW242509   4.774   3.752   0.762 -0.6913 -0.4360  0.6266
13206SOL     OW42510   3.755   0.050   6.355  0.0921  0.3485  0.2904
13206SOL    HW142511   3.746  -0.045   6.368 -4.5893  0.3072 -1.3950
13206SOL    HW242512   3.799   0.059   6.270  0.5565 -0.2597  0.4559
13207SOL     OW42513   7.878   7.923   2.260  0.1817 -0.4965 -0.3561
13207SOL    HW142514   7.844   7.995   2.311  1.4772  0.8100 -1.2515
13207SOL    HW242515   7.860   7.946   2.169  0.0761 -1.5947 -0.6338
13208SOL     OW42516   7.824   4.207  10.500 -0.0085  0.0388  0.2723
13208SOL    HW142517   7.845   4.261  10.576 -2.6164 -1.2961  2.1304
13208SOL    HW242518   7.749   4.251  10.459 -1.4610 -1.4436  1.1793
13209SOL     OW42519   0.331   3.914   4.549 -0.1094  0.5212  0.0518
13209SOL    HW142520   0.261   3.884   4.607  0.8454 -2.4674 -0.1750
13209SOL    HW242521   0.410   3.913   4.604  0.2752  0.7627 -0.4890
13210SOL     OW42522   0.456   5.772   5.810 -0.1938  0.0377  0.3016
13210SOL    HW142523   0.391   5.745   5.875 -0.2441  0.3765  0.3922
13210SOL    HW242524   0.422   5.854   5.775  0.2369  0.2658  0.4171
13211SOL     OW42525   4.553   5.101   9.235  0.1010  0.8031 -0.2980
13211SOL    HW142526   4.553   5.012   9.201  1.5175  0.0573  1.4491
13211SOL    HW242527   4.467   5.111   9.277  0.3382 -0.1570  0.4426
13212SOL     OW42528   0.238   6.788   0.484 -0.0018  0.5294  0.1696
13212SOL    HW142529   0.174   6.804   0.414 -0.9105  0.2058  0.8993
13212SOL    HW242530   0.229   6.862   0.543 -1.3592 -0.5819  1.4532
13213SOL     OW42531   4.395   2.103   6.847 -0.1334 -0.6930  0.9109
13213SOL    HW142532   4.314   2.054   6.859 -0.0887 -0.8346  0.6507
13213SOL    HW242533   4.411   2.101   6.753 -0.2565  0.0328  0.8730
13214SOL     OW42534   9.708   7.390   3.580  0.0790  0.2094  0.3057
13214SOL    HW142535   9.635   7.420   3.635 -1.1933  0.2668 -1.3294
13214SOL    HW242536   9.739   7.310   3.622 -0.7502  0.3341  1.1906
13215SOL     OW42537   0.331   7.527   4.698 -0.3623 -0.6394  0.2903
13215SOL    HW142538   0.258   7.584   4.721  0.6366  0.1747  1.6000
13215SOL    HW242539   0.380   7.576   4.631  1.6438  1.1020  2.8589
13216SOL     OW42540   1.926   2.179   2.417  0.4920  0.1128 -0.6512
13216SOL    HW142541   1.926   2.222   2.502  1.1585 -1.5982  0.2674
13216SOL    HW242542   2.002   2.120   2.419 -0.5463 -1.3495 -1.6630
13217SOL     OW42543   5.586   5.081   4.480 -0.1189  0.0502  0.3737
13217SOL    HW142544   5.565   5.042   4.395  2.2549 -0.7686  0.0963
13217SOL    HW242545   5.538   5.028   4.544  0.1169 -0.9817 -0.2898
13218SOL     OW42546   4.708   7.719  10.005 -0.1967 -0.6684  0.6907
13218SOL    HW142547   4.796   7.728   9.968  0.0773 -3.0021  0.6368
13218SOL    HW242548   4.723   7.696  10.097 -0.6778 -2.3572  0.3798
13219SOL     OW42549   4.271   5.749   7.345  0.3205 -0.4178  0.7956
13219SOL    HW142550   4.216   5.754   7.267  2.0364  1.0898 -0.3927
13219SOL    HW242551   4.243   5.668   7.388  0.3808 -2.1900 -2.2024
13220SOL     OW42552   2.637  10.594   4.280 -0.2102  0.5857 -0.0559
13220SOL    HW142553   2.587  10.622   4.356 -0.8910  1.1426 -0.6981
13220SOL    HW242554   2.593  10.515   4.249  1.0728 -0.6494  1.1109
13221SOL     OW42555   2.292  10.355   4.055  0.1518 -0.4538  0.0330
13221SOL    HW142556   2.264  10.421   4.118  1.1881  0.9340 -0.9106
13221SOL    HW242557   2.369  10.315   4.094  1.7336  1.4854 -0.9750
13222SOL     OW42558   2.276   0.273  10.486  0.0208  0.3345 -0.3806
13222SOL    HW142559   2.335   0.311  10.421  0.1708  0.5583 -0.1177
13222SOL    HW242560   2.192   0.266  10.440  0.2046  0.1816 -0.6997
13223SOL     OW42561   0.492   7.054   4.319  0.0063 -0.1044  0.9397
13223SOL    HW142562   0.481   7.107   4.398 -1.3362  4.3006 -1.8273
13223SOL    HW242563   0.420   7.082   4.262  2.5261 -0.7946 -2.9127
13224SOL     OW42564   2.386   4.737   8.586 -0.3839 -0.6178  0.2710
13224SOL    HW142565   2.381   4.744   8.490  0.1884 -0.6124  0.2383
13224SOL    HW242566   2.389   4.828   8.616  3.4117 -0.5258  0.0521
13225SOL     OW42567   1.499   8.225  10.741  0.0246  0.2280 -0.6580
13225SOL    HW142568   1.431   8.165  10.773 -0.2310  0.8870  0.0642
13225SOL    HW242569   1.453   8.286  10.684  0.0945  0.3928 -0.5374
13226SOL     OW42570   8.283   7.552   3.592  0.1418 -0.1855  0.2341
13226SOL    HW142571   8.221   7.605   3.642  0.6752  0.5578  0.1236
13226SOL    HW242572   8.361   7.549   3.647  0.4314 -0.0943 -0.1685
13227SOL     OW42573   6.516   5.285   7.250  0.8743 -0.1506  0.0921
13227SOL    HW142574   6.498   5.344   7.177  1.1162  0.6728  0.6929
13227SOL    HW242575   6.435   5.234   7.259  0.5351  0.3233 -0.2044
13228SOL     OW42576   5.229   9.034   2.827 -0.0508 -0.0880 -0.2719
13228SOL    HW142577   5.273   9.060   2.907 -0.3027 -2.0622  0.5751
13228SOL    HW242578   5.197   9.116   2.788  4.0192  1.4375 -0.8243
13229SOL     OW42579   1.793   8.993   5.502  0.1916  0.5091 -0.1761
13229SOL    HW142580   1.748   8.908   5.508  1.4040 -0.0730  1.3093
13229SOL    HW242581   1.882   8.970   5.474  0.7367  1.1989  0.9162
13230SOL     OW42582   3.555   0.365  10.265  0.1192  0.4686 -0.2628
13230SOL    HW142583   3.631   0.314  10.235  0.2047  0.4345  0.0125
13230SOL    HW242584   3.585   0.407  10.346 -0.1136  0.5617 -0.2263
13231SOL     OW42585   4.332   1.427   8.723 -0.5058  0.6611 -0.3931
13231SOL    HW142586   4.326   1.496   8.657  0.7134  1.4498  0.2851
13231SOL    HW242587   4.426   1.417   8.738 -0.6090 -1.7107 -1.0308
13232SOL     OW42588   8.555   4.536   2.493 -0.1681 -0.1986  0.2967
13232SOL    HW142589   8.502   4.471   2.445  0.2541  0.1385 -0.6515
13232SOL    HW242590   8.636   4.490   2.512  0.5894  0.3635 -1.3768
13233SOL     OW42591   2.049   8.315   8.068 -0.3844 -0.2059  0.5490
13233SOL    HW142592   2.126   8.369   8.077 -0.1803 -0.4414  0.2252
13233SOL    HW242593   2.064   8.242   8.128 -0.2658 -0.3525  0.3424
13234SOL     OW42594   1.211   2.424   7.049 -0.1867  0.2418 -1.0145
13234SOL    HW142595   1.128   2.464   7.074  0.1859  0.5780 -0.2818
13234SOL    HW242596   1.228   2.458   6.961 -0.6849  0.3866 -1.0615
13235SOL     OW42597   4.879   0.826   5.570 -0.4674 -0.3259 -0.3312
13235SOL    HW142598   4.849   0.779   5.493 -0.0757  0.4481 -0.9722
13235SOL    HW242599   4.970   0.847   5.551 -0.4810  0.2152  0.1688
13236SOL     OW42600   0.453   3.649   9.865  0.5742 -0.0081 -0.4372
13236SOL    HW142601   0.452   3.609   9.778  0.2073 -1.3633  0.1603
13236SOL    HW242602   0.370   3.697   9.870  0.0880 -0.8289 -0.4480
13237SOL     OW42603   8.211   5.696   8.989 -0.3000 -0.0476  0.5498
13237SOL    HW142604   8.277   5.692   9.058  0.2697 -0.3362 -0.0093
13237SOL    HW242605   8.164   5.778   9.007  1.3144  1.0531 -0.0360
13238SOL     OW42606   0.998   7.835   9.257  0.4477  0.1012  0.3472
13238SOL    HW142607   0.962   7.870   9.176  0.5066  0.5929  0.5336
13238SOL    HW242608   1.065   7.898   9.283  0.2999  0.0426  0.8808
13239SOL     OW42609   8.104   2.552   5.196  0.2027  0.5386 -0.4039
13239SOL    HW142610   8.064   2.466   5.207 -0.1386  0.4540 -1.9990
13239SOL    HW242611   8.122   2.582   5.285 -2.6867  0.2462  0.3847
13240SOL     OW42612   5.599   2.121  10.566  0.5311  1.1676 -0.2770
13240SOL    HW142613   5.680   2.073  10.549 -0.1963  0.0316 -0.6586
13240SOL    HW242614   5.583   2.171  10.486 -0.7265 -1.0006 -1.4747
13241SOL     OW42615   7.380   8.594   0.619 -0.2429  0.1049  0.4645
13241SOL    HW142616   7.285   8.605   0.612 -0.2900 -0.5794 -0.1783
13241SOL    HW242617   7.416   8.654   0.553 -0.2946 -0.4503 -0.0825
13242SOL     OW42618   6.526   5.508   7.070  0.2770  0.5603 -0.6993
13242SOL    HW142619   6.605   5.563   7.069  1.0060 -0.4304 -0.0687
13242SOL    HW242620   6.522   5.469   6.982  1.6079 -0.8624 -0.1821
13243SOL     OW42621   8.949   2.016   3.991 -0.3276  0.9280  0.6799
13243SOL    HW142622   9.040   2.032   4.017 -0.2744  2.5532 -0.3317
13243SOL    HW242623   8.944   2.051   3.902 -1.5605 -0.5707  0.1243
13244SOL     OW42624   9.279   5.013   8.267 -0.1646  0.4861 -0.1769
13244SOL    HW142625   9.265   5.033   8.360 -0.1097 -0.0903 -0.0411
13244SOL    HW242626   9.332   4.933   8.268  3.4619  2.6513 -0.6304
13245SOL     OW42627   0.273   9.922   2.347 -0.2313 -0.6248 -0.5057
13245SOL    HW142628   0.259   9.931   2.253  1.4272 -2.9712 -1.0723
13245SOL    HW242629   0.232   9.839   2.370 -2.8842  1.0865  1.4555
13246SOL     OW42630   4.443   1.091   5.076  0.0881  0.0698 -0.0971
13246SOL    HW142631   4.472   1.176   5.044  1.5354 -0.3672 -0.0261
13246SOL    HW242632   4.371   1.111   5.136  1.9038  1.4788  1.7819
13247SOL     OW42633   2.582   0.002   4.853 -0.4730  0.1683  0.4097
13247SOL    HW142634   2.505  -0.031   4.807 -1.2240  3.1664 -0.7279
13247SOL    HW242635   2.567   0.096   4.860  2.3462  0.6252  1.6611
13248SOL     OW42636   6.554   1.515   6.841  0.0345 -0.0135 -0.8114
13248SOL    HW142637   6.504   1.497   6.921 -1.2252  0.2639 -1.5185
13248SOL    HW242638   6.632   1.459   6.848 -0.1585 -0.1425  0.5024
13249SOL     OW42639   6.489   4.674   0.562 -0.1335 -0.3817 -0.2072
13249SOL    HW142640   6.550   4.600   0.565 -0.8312 -0.9547  0.4786
13249SOL    HW242641   6.535   4.742   0.513  1.9948  0.0487  2.1798
13250SOL     OW42642   9.177   9.151   0.515 -0.4526 -0.1694  0.4156
13250SOL    HW142643   9.268   9.121   0.522 -0.3795  0.0875  0.5861
13250SOL    HW242644   9.184   9.240   0.481 -0.7396 -0.8898 -1.6638
13251SOL     OW42645   8.623   9.712   8.507 -0.1776 -0.5485 -0.2647
13251SOL    HW142646   8.577   9.651   8.450 -1.0065 -1.1105  0.9549
13251SOL    HW242647   8.572   9.713   8.588  0.1362  1.3341 -0.0351
13252SOL     OW42648   3.055   7.184   0.993 -0.7405  0.0916  0.1996
13252SOL    HW142649   3.076   7.128   1.068  0.4315  0.4827  0.1746
13252SOL    HW242650   3.095   7.140   0.918  0.4852  1.1197  0.2285
13253SOL     OW42651   0.374   1.851   0.726 -0.1855 -0.7447  0.2629
13253SOL    HW142652   0.284   1.877   0.709 -0.2356 -0.8042  0.4335
13253SOL    HW242653   0.381   1.762   0.693 -0.6040 -1.2908  1.5556
13254SOL     OW42654   9.656  10.794   7.224 -0.2008  0.4140 -0.5714
13254SOL    HW142655   9.669  10.878   7.179 -0.1177  0.3953 -0.5821
13254SOL    HW242656   9.742  10.752   7.221 -0.1193  0.5434 -0.1371
13255SOL     OW42657   0.725   9.584   9.567  0.0093  0.6193 -0.7480
13255SOL    HW142658   0.636   9.582   9.601  0.4935  1.0437  0.6190
13255SOL    HW242659   0.751   9.492   9.560 -1.8562  0.1863 -5.0157
13256SOL     OW42660   2.347   9.489   8.425 -0.4459  0.3614 -0.2003
13256SOL    HW142661   2.406   9.547   8.472  1.2415 -0.3765 -1.3071
13256SOL    HW242662   2.396   9.407   8.415 -2.3753 -0.9529  0.4598
13257SOL     OW42663   7.871   1.201   4.394  0.8217 -0.1142 -0.2569
13257SOL    HW142664   7.788   1.157   4.375  1.5390 -1.2907 -0.8323
13257SOL    HW242665   7.854   1.253   4.473 -0.0716 -1.5006  0.5074
13258SOL     OW42666   5.674   8.956   6.348  0.4997 -0.0310  0.6674
13258SOL    HW142667   5.702   8.900   6.276  1.4240 -0.9677  1.7160
13258SOL    HW242668   5.651   9.039   6.306  2.0219 -0.1980 -0.6033
13259SOL     OW42669   0.966   5.953   4.821 -0.5915  0.6030  0.5685
13259SOL    HW142670   0.930   6.000   4.746 -1.6729 -1.5940 -0.3747
13259SOL    HW242671   1.059   5.944   4.801 -0.7499  0.6032 -0.1854
13260SOL     OW42672  10.785   6.057   5.839  0.2672 -0.0749  0.4565
13260SOL    HW142673  10.718   5.992   5.816 -0.0064  0.4705 -0.3214
13260SOL    HW242674  10.764   6.083   5.929 -1.1527  0.7781 -0.0885
13261SOL     OW42675   8.886   1.150   7.973  0.1919 -0.3484  0.0549
13261SOL    HW142676   8.826   1.114   8.038 -1.8843  1.2916 -0.8279
13261SOL    HW242677   8.922   1.073   7.929 -0.3574 -1.4183  1.3952
13262SOL     OW42678   8.656   2.993   5.820 -0.2963 -0.1851  0.2735
13262SOL    HW142679   8.675   3.062   5.884  0.4606  0.1705 -0.3172
13262SOL    HW242680   8.735   2.940   5.819 -0.2363 -0.0863 -0.4856
13263SOL     OW42681   5.906   3.787   5.119  0.5812 -0.2263 -0.1209
13263SOL    HW142682   5.963   3.720   5.082  0.8649  0.4402 -0.9254
13263SOL    HW242683   5.953   3.869   5.103 -0.3295  0.2770 -0.2444
13264SOL     OW42684   2.931   2.638   9.564  0.1603 -0.1249 -0.5704
13264SOL    HW142685   2.855   2.591   9.598  0.7034 -0.0066  0.8781
13264SOL    HW242686   2.906   2.730   9.564 -0.6899 -0.2911 -2.8441
13265SOL     OW42687   7.682   6.425   7.915 -0.0517  0.0754 -0.3357
13265SOL    HW142688   7.714   6.491   7.854  0.2396  1.0576  0.8242
13265SOL    HW242689   7.653   6.353   7.860 -0.0645  1.0328 -1.6386
13266SOL     OW42690   1.096   7.513   0.018 -0.5445  0.2551  0.4441
13266SOL    HW142691   1.030   7.501   0.086  1.3057 -0.9911  2.1390
13266SOL    HW242692   1.089   7.605  -0.007 -3.4735 -0.0233 -0.1407
13267SOL     OW42693   4.541   2.463   8.562  0.2063  0.3925  0.2124
13267SOL    HW142694   4.498   2.399   8.505  0.1159  0.6373  0.0038
13267SOL    HW242695   4.520   2.548   8.523 -0.3644  0.6035  0.9566
13268SOL     OW42696   5.943   0.144   5.918 -0.2686  0.1609  0.1419
13268SOL    HW142697   6.037   0.131   5.933 -0.3358 -2.5567 -1.0286
13268SOL    HW242698   5.939   0.192   5.835  0.0322  2.0802  1.1853
13269SOL     OW42699   2.696   1.539   3.765 -0.2628  0.2750 -0.2393
13269SOL    HW142700   2.731   1.450   3.766  0.0969  0.4148 -0.1160
13269SOL    HW242701   2.603   1.529   3.780 -0.0196  0.0058  1.2490
13270SOL     OW42702   8.207   0.790   6.626 -0.1105 -0.4988  0.1443
13270SOL    HW142703   8.184   0.780   6.718 -0.3021 -1.3739  0.0082
13270SOL    HW242704   8.300   0.765   6.622  0.4217  1.2827  0.3872
13271SOL     OW42705   4.770   5.560   1.170  0.0401  0.0591  0.4781
13271SOL    HW142706   4.700   5.510   1.128  0.9142  1.2498 -2.6985
13271SOL    HW242707   4.849   5.510   1.152  0.3243 -0.1492  2.1360
13272SOL     OW42708   0.260   3.040   6.518  0.0719  0.0715 -0.0211
13272SOL    HW142709   0.268   3.128   6.481 -0.4083  0.1347  0.0086
13272SOL    HW242710   0.319   3.039   6.593  0.1673  0.3287 -0.0914
13273SOL     OW42711  10.128   5.276   7.372  0.3462 -0.3374 -0.1086
13273SOL    HW142712  10.148   5.370   7.373 -2.8551  0.4602 -0.4019
13273SOL    HW242713  10.128   5.250   7.464  0.7048  0.0686  0.0096
13274SOL     OW42714   2.944   9.044   2.213 -0.2195  0.1670  0.0438
13274SOL    HW142715   2.880   9.114   2.199  1.4178  1.6903 -0.1512
13274SOL    HW242716   2.942   8.994   2.131 -1.8072 -0.4246  0.3944
13275SOL     OW42717   5.804   6.454   2.527  0.1187  0.4617  0.0483
13275SOL    HW142718   5.776   6.363   2.527 -0.4625  0.6210 -0.7340
13275SOL    HW242719   5.859   6.462   2.449 -1.7922  1.3025 -1.3212
13276SOL     OW42720  10.097   9.459   4.704 -0.1158  0.8925  0.1105
13276SOL    HW142721  10.010   9.476   4.668  0.0072  0.0912 -0.6015
13276SOL    HW242722  10.157   9.478   4.633  0.2288  0.6270  0.3259
13277SOL     OW42723   6.617   1.615   8.261  0.1779 -0.4164  0.3952
13277SOL    HW142724   6.710   1.629   8.278  0.6481 -1.3852 -1.0768
13277SOL    HW242725   6.593   1.542   8.319  0.6177 -0.8296  0.0719
13278SOL     OW42726   8.636   6.618   6.895 -0.9368  0.0944 -0.2165
13278SOL    HW142727   8.586   6.541   6.869 -1.6526 -0.3401  2.2476
13278SOL    HW242728   8.689   6.589   6.969  1.5144  1.0781 -1.4720
13279SOL     OW42729   9.488   3.069   2.447  0.3276  0.1788  0.4963
13279SOL    HW142730   9.567   3.117   2.424 -1.2486  1.9544 -1.6485
13279SOL    HW242731   9.434   3.133   2.494 -2.3983  1.2578 -3.6114
13280SOL     OW42732   7.560   8.211   2.182 -0.4313  0.4782 -0.4394
13280SOL    HW142733   7.490   8.189   2.242  2.0306 -1.2919  2.0280
13280SOL    HW242734   7.565   8.136   2.122 -1.2493  1.0918 -1.3128
13281SOL     OW42735   4.075   9.650   8.151  0.0473 -0.2261 -0.4064
13281SOL    HW142736   4.048   9.597   8.076 -0.8014  1.2343 -1.1738
13281SOL    HW242737   4.014   9.626   8.221 -1.2175  0.6815 -1.1558
13282SOL     OW42738   0.116   2.127   1.745 -0.3004  0.0847 -0.0505
13282SOL    HW142739   0.091   2.192   1.811 -1.3905 -1.3081  0.9765
13282SOL    HW242740   0.039   2.119   1.689 -0.2608 -0.4997 -0.0233
13283SOL     OW42741   1.154   0.593   8.872 -0.3160 -0.1798 -0.6147
13283SOL    HW142742   1.226   0.550   8.918 -2.0220 -0.9788  1.4972
13283SOL    HW242743   1.142   0.676   8.918 -1.9151 -0.8966  0.3768
13284SOL     OW42744   2.723   0.978   3.843 -0.3109 -0.4600 -0.5516
13284SOL    HW142745   2.662   0.905   3.847 -1.8514  0.6224 -2.4916
13284SOL    HW242746   2.685   1.045   3.901  0.0821 -0.4652 -0.2770
13285SOL     OW42747   6.911   3.007   8.990 -0.3318  0.8330  0.0445
13285SOL    HW142748   6.828   3.012   9.038 -0.0488 -0.1009  0.6529
13285SOL    HW242749   6.956   3.089   9.012 -1.4723  1.8034 -1.0549
13286SOL     OW42750   8.472   1.099   5.916  0.1935 -0.1881 -0.2470
13286SOL    HW142751   8.412   1.164   5.953  1.4760  0.2975  1.1189
13286SOL    HW242752   8.558   1.141   5.922  0.9561 -1.7288 -0.0522
13287SOL     OW42753   7.620   8.247   5.721 -0.4165 -0.2227  0.1590
13287SOL    HW142754   7.570   8.328   5.730  2.2711  1.8535 -1.7766
13287SOL    HW242755   7.702   8.265   5.767  0.3080 -1.8191 -0.4334
13288SOL     OW42756   2.052   4.372   3.252 -0.2260 -0.1045 -0.1722
13288SOL    HW142757   1.967   4.378   3.208  1.1131  3.3347 -2.7964
13288SOL    HW242758   2.102   4.309   3.199  0.3335  1.6166 -1.8212
13289SOL     OW42759   6.187   3.687   0.530 -0.1886 -0.1400  0.3111
13289SOL    HW142760   6.181   3.614   0.468 -0.3549  0.9127 -0.9561
13289SOL    HW242761   6.097   3.714   0.545 -0.1496 -0.3618  1.0136
13290SOL     OW42762   1.470   6.044   7.201 -0.7783 -0.4906  0.1179
13290SOL    HW142763   1.437   5.980   7.138 -0.0152 -1.5585  0.7822
13290SOL    HW242764   1.395   6.062   7.258 -1.5687  0.7054 -1.2108
13291SOL     OW42765   4.583   2.889   0.788  0.0734 -0.3340 -0.2752
13291SOL    HW142766   4.548   2.923   0.870  2.8942  1.3253  0.3780
13291SOL    HW242767   4.640   2.817   0.814  2.6703  1.5450 -0.4332
13292SOL     OW42768   6.217   4.188   9.816  0.0564  0.3312  0.1962
13292SOL    HW142769   6.149   4.213   9.754  1.1914 -0.1426 -1.2972
13292SOL    HW242770   6.201   4.243   9.893 -0.7252  1.7423 -0.9368
13293SOL     OW42771   7.582   9.872   7.511 -0.0799  0.7124  0.6877
13293SOL    HW142772   7.670   9.910   7.511 -0.3013  1.2432  0.6122
13293SOL    HW242773   7.544   9.900   7.427  0.0325 -0.3655  0.2652
13294SOL     OW42774   5.745   4.961   3.536 -0.2045 -0.1379  0.0221
13294SOL    HW142775   5.728   4.926   3.449  0.1979 -0.3914  0.0431
13294SOL    HW242776   5.834   4.933   3.557 -0.2353  0.0617  0.4466
13295SOL     OW42777   2.651   9.705   1.138  0.4204 -0.5630 -0.2917
13295SOL    HW142778   2.581   9.749   1.186  0.3417 -0.2540 -0.6861
13295SOL    HW242779   2.726   9.705   1.198  0.2036 -0.5425 -0.0206
13296SOL     OW42780   6.741   6.883   2.587 -0.6104 -0.2241  0.0294
13296SOL    HW142781   6.795   6.962   2.579 -1.1045  0.1958  0.7147
13296SOL    HW242782   6.797   6.819   2.629 -0.5656  0.1347  0.5212
13297SOL     OW42783   5.653   0.153   3.354 -0.5670  0.3461 -0.3768
13297SOL    HW142784   5.731   0.191   3.312 -1.3250  1.6441 -0.6620
13297SOL    HW242785   5.579   0.189   3.305 -1.4983  1.7384  1.9078
13298SOL     OW42786   8.068   7.977   7.961 -0.3904 -0.1634 -0.6629
13298SOL    HW142787   8.052   8.044   7.895 -0.6902  1.7444  1.2512
13298SOL    HW242788   8.121   8.021   8.027  2.9063 -2.9703 -1.1599
13299SOL     OW42789  10.122   8.618   0.240  0.7339 -0.2357  0.3602
13299SOL    HW142790  10.078   8.562   0.304  0.6079 -0.2398  0.2689
13299SOL    HW242791  10.136   8.562   0.164 -0.3844  0.1576 -0.1551
13300SOL     OW42792   1.607   8.224   3.328 -1.1645  0.4481  0.3669
13300SOL    HW142793   1.576   8.181   3.407 -0.5439 -1.7111 -0.4974
13300SOL    HW242794   1.702   8.223   3.335 -1.0970  0.1329 -0.4403
13301SOL     OW42795   6.141   0.749   2.238 -0.1825  0.2340 -0.4179
13301SOL    HW142796   6.129   0.687   2.166  2.6211  1.6846 -2.3117
13301SOL    HW242797   6.053   0.780   2.258 -1.2173 -1.3697 -2.1595
13302SOL     OW42798   6.532   1.146   2.783 -0.3057  0.0321 -0.4344
13302SOL    HW142799   6.437   1.151   2.773 -0.1177 -0.3135 -2.8754
13302SOL    HW242800   6.547   1.060   2.822 -0.9727  0.1334  0.0761
13303SOL     OW42801   7.978   2.003   3.243 -0.0672 -0.3919 -0.3546
13303SOL    HW142802   7.920   2.079   3.237  0.2879 -0.1354 -0.5495
13303SOL    HW242803   8.064   2.040   3.264  0.2280 -0.6872 -1.0294
13304SOL     OW42804   5.608   0.324   0.734  0.1765  0.0708 -0.0784
13304SOL    HW142805   5.585   0.233   0.752 -1.4355  0.8223  1.9845
13304SOL    HW242806   5.689   0.339   0.783 -0.4221  0.1739  0.8917
13305SOL     OW42807   5.822   9.885   9.348  0.4758 -0.0505  0.2540
13305SOL    HW142808   5.891   9.951   9.352  0.3708  0.0188  1.1535
13305SOL    HW242809   5.851   9.815   9.407 -0.1101 -0.1271  0.4678
13306SOL     OW42810   3.847   9.888   5.181  0.7130  0.5963  0.1346
13306SOL    HW142811   3.882   9.800   5.195 -0.0479 -0.1756 -2.2927
13306SOL    HW242812   3.760   9.886   5.221  0.0288 -0.3411 -1.3282
13307SOL     OW42813   0.724  10.207   4.440  0.2428 -0.1714  0.2898
13307SOL    HW142814   0.761  10.295   4.429 -0.8036  0.0143 -2.5319
13307SOL    HW242815   0.775  10.152   4.381  0.1138 -1.2398  1.1503
13308SOL     OW42816  10.661   8.171   0.493 -0.7237  0.9254 -0.2566
13308SOL    HW142817  10.610   8.213   0.562 -2.2821  0.1150 -0.8620
13308SOL    HW242818  10.752   8.191   0.514 -1.2567  1.9575  1.1757
13309SOL     OW42819   8.963   5.220   9.096 -0.2761  0.4411  0.0150
13309SOL    HW142820   8.914   5.290   9.054  1.2719  1.3119 -0.4044
13309SOL    HW242821   8.942   5.142   9.044 -0.5269  0.9669 -0.6938
13310SOL     OW42822   0.153   5.567   3.618 -0.5632 -0.9475 -0.0547
13310SOL    HW142823   0.170   5.656   3.650  2.3389 -1.6712  0.7302
13310SOL    HW242824   0.110   5.580   3.534  0.6790  1.2613 -0.4305
13311SOL     OW42825   2.517   1.254   9.564 -0.0616  0.2311 -0.0945
13311SOL    HW142826   2.583   1.264   9.495 -0.3805  0.0475 -0.4312
13311SOL    HW242827   2.559   1.290   9.643  0.3597  0.3111 -0.3502
13312SOL     OW42828   1.299   1.405  10.093  0.0927 -0.8969  0.4095
13312SOL    HW142829   1.284   1.452  10.175  1.1479  0.7634 -0.2880
13312SOL    HW242830   1.242   1.328  10.098 -0.1623 -0.6293  2.5096
13313SOL     OW42831   9.027   4.164   2.886  0.3168 -0.6609 -0.2919
13313SOL    HW142832   9.035   4.238   2.825 -0.4630 -1.7654 -1.7859
13313SOL    HW242833   9.117   4.134   2.899  0.5372 -0.1102 -0.4972
13314SOL     OW42834   6.631  10.234   5.803 -0.0948  0.0639 -0.2214
13314SOL    HW142835   6.672  10.215   5.887  0.7913  1.3095 -0.3361
13314SOL    HW242836   6.569  10.305   5.822 -1.2210 -0.8635 -0.3087
13315SOL     OW42837   0.259   9.993   3.334  0.2209  0.2936  0.3526
13315SOL    HW142838   0.330  10.053   3.354  0.5821  0.3602 -1.0401
13315SOL    HW242839   0.281   9.913   3.382  0.8163  0.5797  0.5644
13316SOL     OW42840   4.841   7.405   7.145  0.1002 -0.1178  0.0993
13316SOL    HW142841   4.767   7.353   7.114 -0.0093 -1.5102  2.4866
13316SOL    HW242842   4.800   7.482   7.186  0.1952  1.0062 -1.7891
13317SOL     OW42843   6.294   9.158   9.290  0.3452 -0.2169 -0.1777
13317SOL    HW142844   6.338   9.185   9.370 -1.8290  0.8150  0.7672
13317SOL    HW242845   6.317   9.225   9.225  3.6361 -2.0380 -1.1135
13318SOL     OW42846   0.118   8.468   2.057  0.1227  0.1533 -0.8060
13318SOL    HW142847   0.146   8.490   2.146 -0.0731  1.7987 -1.1181
13318SOL    HW242848   0.105   8.373   2.059  2.5626 -0.2447  0.2230
13319SOL     OW42849   1.016   8.370  10.604  0.4183 -0.1650  0.0627
13319SOL    HW142850   1.082   8.372  10.534 -0.3534  2.0312 -0.7046
13319SOL    HW242851   1.054   8.422  10.674  0.2129 -0.3386  0.3019
13320SOL     OW42852   8.244   6.202  10.383  0.2591 -0.0166 -0.6788
13320SOL    HW142853   8.278   6.241  10.464 -2.5752  0.4474  0.3964
13320SOL    HW242854   8.296   6.243  10.314  1.0537  1.5432  0.7483
13321SOL     OW42855   2.438   3.162   8.027 -0.0894  0.5375  0.2101
13321SOL    HW142856   2.480   3.150   7.942 -0.6050 -1.5196  0.1962
13321SOL    HW242857   2.500   3.216   8.077  2.3578 -1.8976  0.0027
13322SOL     OW42858  10.669   5.764   6.588 -0.2348  0.7843 -0.4256
13322SOL    HW142859  10.720   5.683   6.592  0.3526  1.1043 -1.2179
13322SOL    HW242860  10.732   5.831   6.563 -0.1077  2.0786  2.8587
13323SOL     OW42861   8.606   4.589   0.856 -0.7093  0.1300 -0.1905
13323SOL    HW142862   8.641   4.679   0.851  0.1096 -0.2411 -1.9569
13323SOL    HW242863   8.523   4.598   0.903 -0.2121  1.6746  0.4573
13324SOL     OW42864   4.278   9.829   5.586 -0.0461  0.0124 -0.2644
13324SOL    HW142865   4.336   9.899   5.557 -0.1008 -0.0634 -0.5614
13324SOL    HW242866   4.274   9.769   5.511  0.0012 -0.3049 -0.0144
13325SOL     OW42867   7.894   2.681   4.429 -0.7520 -0.3286  0.1858
13325SOL    HW142868   7.957   2.709   4.496  1.9517 -0.7988 -1.9790
13325SOL    HW242869   7.882   2.587   4.445  0.7226 -0.6752 -0.5115
13326SOL     OW42870   9.057  10.152   8.782 -0.0355  0.1811  0.1685
13326SOL    HW142871   9.143  10.125   8.814  0.2238 -0.5056 -1.0532
13326SOL    HW242872   9.005  10.165   8.862  0.6393 -1.2477  0.8899
13327SOL     OW42873   4.579   7.353   6.834  0.1362 -0.1943  0.0234
13327SOL    HW142874   4.531   7.379   6.913 -1.2029  0.8554 -1.0870
13327SOL    HW242875   4.569   7.258   6.831  0.8761 -0.3619  1.5030
13328SOL     OW42876   0.060   6.754   8.489 -0.0740 -0.7488 -0.2076
13328SOL    HW142877   0.009   6.678   8.462  0.3649 -0.7806 -0.9743
13328SOL    HW242878  -0.005   6.822   8.505 -0.4504 -1.1942  0.2001
13329SOL     OW42879   3.443   9.107   6.514  0.2394  0.2879 -0.3241
13329SOL    HW142880   3.405   9.183   6.560 -0.0577  0.1905 -0.4025
13329SOL    HW242881   3.502   9.145   6.450 -0.7265  0.5170 -1.1119
13330SOL     OW42882   5.532   4.484   6.555  0.3074 -0.0737  0.1918
13330SOL    HW142883   5.480   4.523   6.485  0.1154 -0.2940  0.2111
13330SOL    HW242884   5.472   4.480   6.630  0.3365 -0.3750  0.1997
13331SOL     OW42885   8.161   4.045   2.595  0.1493 -0.0114 -0.0545
13331SOL    HW142886   8.136   4.118   2.652 -0.6531 -0.4468  0.1651
13331SOL    HW242887   8.080   4.023   2.549  0.3477 -0.8670  0.0035
13332SOL     OW42888   0.284   0.266  10.590 -0.3312  0.3615 -0.2269
13332SOL    HW142889   0.317   0.298  10.506 -0.3348 -0.1496 -0.4286
13332SOL    HW242890   0.227   0.192  10.567 -1.3533  1.0118  0.1349
13333SOL     OW42891   7.298   2.953   4.944 -0.0856  0.0468  0.8767
13333SOL    HW142892   7.347   3.031   4.971  0.5572 -0.2421  0.5663
13333SOL    HW242893   7.366   2.887   4.927 -0.5782 -0.2997  0.2502
13334SOL     OW42894   1.625   4.946   3.359 -0.1916  0.2338  0.5880
13334SOL    HW142895   1.541   4.901   3.351  0.8057 -1.7538  0.6670
13334SOL    HW242896   1.645   4.976   3.270  0.3346 -1.8924 -0.0782
13335SOL     OW42897   7.833   7.401   1.525 -0.6231 -0.2916  0.0931
13335SOL    HW142898   7.906   7.340   1.527  0.2810  0.7572  0.8337
13335SOL    HW242899   7.798   7.399   1.614 -0.4630  0.3873  0.1788
13336SOL     OW42900  10.385   8.948   2.163 -0.4070  0.1983  0.3745
13336SOL    HW142901  10.321   8.936   2.233  0.2110 -1.5300  0.7028
13336SOL    HW242902  10.377   8.868   2.110  0.6474  0.4871 -0.2534
13337SOL     OW42903   7.822   3.630   9.176  0.2713  0.1626  0.2618
13337SOL    HW142904   7.792   3.721   9.177  1.5045  0.5992  0.3159
13337SOL    HW242905   7.843   3.612   9.084 -0.0639 -0.1064  0.2355
13338SOL     OW42906   1.097   4.244   6.762 -0.5355  0.1547  0.4222
13338SOL    HW142907   1.011   4.218   6.731 -1.3589  0.3868  2.3995
13338SOL    HW242908   1.084   4.271   6.853  1.3271  1.7768  0.2962
13339SOL     OW42909   4.942   1.557   2.858 -0.1566 -0.5363  0.5882
13339SOL    HW142910   4.984   1.487   2.906  0.0014  0.0990  1.3972
13339SOL    HW242911   4.855   1.565   2.897  0.0479  0.1228  0.9150
13340SOL     OW42912   7.281   6.918   3.650  0.4410  0.3799  0.5020
13340SOL    HW142913   7.268   7.013   3.654 -0.4881  0.2335  1.4284
13340SOL    HW242914   7.214   6.882   3.708  0.5713 -0.8688 -0.0898
13341SOL     OW42915  10.210   3.977   1.279 -0.5559  0.0203 -0.3745
13341SOL    HW142916  10.232   3.906   1.339  1.4367  0.3525 -0.6501
13341SOL    HW242917  10.242   3.946   1.194  1.7797  1.8056 -0.2425
13342SOL     OW42918   3.269   5.922   6.985 -0.4576  0.2403  0.1202
13342SOL    HW142919   3.363   5.904   6.986 -0.3318  0.8745 -0.1301
13342SOL    HW242920   3.233   5.859   7.047 -0.0454 -0.9740 -0.8288
13343SOL     OW42921  10.314   2.826   7.860  0.1190  0.3987 -0.1049
13343SOL    HW142922  10.357   2.755   7.907  0.9027 -0.6030 -2.2157
13343SOL    HW242923  10.376   2.899   7.862  0.9262 -0.2369 -1.0563
13344SOL     OW42924   1.839  10.266   1.905 -0.3348  0.5048 -0.5994
13344SOL    HW142925   1.869  10.273   1.996  1.0944 -1.2795 -0.8753
13344SOL    HW242926   1.773  10.197   1.907  1.5981 -1.4720 -1.2601
13345SOL     OW42927   8.787   0.766   9.274  0.2357  0.2316  0.3346
13345SOL    HW142928   8.764   0.826   9.203 -0.5362  0.4492  0.7583
13345SOL    HW242929   8.802   0.824   9.349  1.7620  0.0651  0.1940
13346SOL     OW42930   4.199   3.456   1.128  0.2555  0.2760 -0.2108
13346SOL    HW142931   4.227   3.383   1.183  3.8551 -0.5053 -2.7748
13346SOL    HW242932   4.258   3.527   1.151 -0.8551  1.2408 -0.2760
13347SOL     OW42933   1.620   3.664   7.985 -0.1642 -0.1771  0.3127
13347SOL    HW142934   1.652   3.726   8.050 -0.0942 -0.0630  0.1700
13347SOL    HW242935   1.531   3.694   7.965  0.1321  0.3133 -0.2952
13348SOL     OW42936   8.062   6.720   7.372 -0.1596 -0.5324  0.1537
13348SOL    HW142937   8.149   6.737   7.337  0.1357  1.8898  1.8616
13348SOL    HW242938   8.077   6.687   7.460 -0.9247  0.9745  0.8896
13349SOL     OW42939   6.960   5.008   1.753 -0.3794 -0.0656 -0.1146
13349SOL    HW142940   6.948   5.015   1.847 -1.3304 -0.5418 -0.1955
13349SOL    HW242941   6.894   4.945   1.724 -0.6418  0.6832 -1.2096
13350SOL     OW42942   3.621   3.134   5.930 -0.1351 -0.4232  0.5549
13350SOL    HW142943   3.688   3.098   5.989 -1.0437 -0.5940  1.5145
13350SOL    HW242944   3.624   3.229   5.947  0.6205 -0.2926 -0.2322
13351SOL     OW42945   7.089   2.349   2.332 -1.1417  0.4374  0.5700
13351SOL    HW142946   7.148   2.394   2.271  0.2915  0.6742  2.0803
13351SOL    HW242947   7.004   2.350   2.287 -0.2358  0.9330 -1.2497
13352SOL     OW42948   7.752   9.489   9.641  0.5152  0.2706 -0.5673
13352SOL    HW142949   7.788   9.493   9.729 -1.5480  0.7645  0.3200
13352SOL    HW242950   7.735   9.396   9.626 -1.4425  0.3838  0.6236
13353SOL     OW42951  10.522   8.333   7.379  0.0767 -0.6127  0.2620
13353SOL    HW142952  10.518   8.404   7.443  0.0845 -0.1850 -0.2103
13353SOL    HW242953  10.485   8.257   7.425  1.2987 -0.6481  1.2245
13354SOL     OW42954   9.394   0.802   2.795  0.0211 -0.1493 -0.1980
13354SOL    HW142955   9.484   0.773   2.806  0.6829  1.0126 -2.0402
13354SOL    HW242956   9.402   0.891   2.761 -1.7833 -0.2992 -1.1500
13355SOL     OW42957   7.158   2.356   5.833  0.1972  0.6279  0.1664
13355SOL    HW142958   7.234   2.405   5.804  0.5308 -0.1827 -0.3775
13355SOL    HW242959   7.182   2.264   5.821 -0.9939  0.3557 -0.3662
13356SOL     OW42960  10.202   8.083   4.687 -0.1522 -0.7714  0.1902
13356SOL    HW142961  10.144   8.152   4.719 -2.6144 -1.6555 -1.9870
13356SOL    HW242962  10.284   8.128   4.668 -1.6516  1.6413 -1.1423
13357SOL     OW42963   0.708   5.298   3.281  0.1284  0.4219  0.4244
13357SOL    HW142964   0.680   5.385   3.254  0.2780 -0.1173 -1.5947
13357SOL    HW242965   0.767   5.314   3.355  0.8609  2.1122 -0.4643
13358SOL     OW42966   6.532   4.515   3.826 -0.2929  0.4522 -0.5326
13358SOL    HW142967   6.468   4.494   3.893  1.2143  1.0272  1.1813
13358SOL    HW242968   6.531   4.440   3.767 -0.5809 -0.8132  1.0138
13359SOL     OW42969   9.456   9.224   4.165 -0.4151  0.4102 -0.6830
13359SOL    HW142970   9.465   9.152   4.227 -1.5757  0.1388 -0.8083
13359SOL    HW242971   9.366   9.218   4.134 -0.3964  1.6422 -1.0416
13360SOL     OW42972   2.052  10.280   3.888 -0.3466  0.2261  0.0424
13360SOL    HW142973   2.136  10.285   3.934  0.1187  2.0764 -0.9339
13360SOL    HW242974   2.068  10.219   3.817  0.1391  0.4589 -0.0557
13361SOL     OW42975  10.132   1.155   5.157  0.1452 -0.5868 -0.1643
13361SOL    HW142976  10.134   1.147   5.253 -0.8245 -0.4594 -0.1210
13361SOL    HW242977  10.039   1.145   5.134  0.3350 -0.3638 -1.0683
13362SOL     OW42978   7.352  10.188   6.258 -0.2153 -0.1722 -0.2760
13362SOL    HW142979   7.367  10.269   6.211 -1.6830  0.3426  0.0785
13362SOL    HW242980   7.260  10.192   6.285  0.7831  0.2352  3.8261
13363SOL     OW42981   2.000   2.740  10.571  0.2353 -0.1788  0.5384
13363SOL    HW142982   2.071   2.731  10.635  0.4075 -1.0636  0.2498
13363SOL    HW242983   1.958   2.654  10.571  1.2930 -0.7834 -1.7257
13364SOL     OW42984   4.513   5.165   8.344  0.7603 -0.1705  0.2935
13364SOL    HW142985   4.458   5.103   8.296 -0.5325 -1.9829  3.7821
13364SOL    HW242986   4.603   5.133   8.331  0.5907  0.0381 -1.6622
13365SOL     OW42987   1.003   0.994   4.136 -0.2413  0.8577  0.1684
13365SOL    HW142988   0.967   1.037   4.058  0.8311  0.4352 -0.5770
13365SOL    HW242989   0.930   0.994   4.199 -0.3768  3.5413  0.1304
13366SOL     OW42990   2.532   9.267   9.792 -0.0241  0.5133 -0.4527
13366SOL    HW142991   2.571   9.329   9.854 -1.0608 -0.6610  1.4461
13366SOL    HW242992   2.598   9.199   9.782 -0.0660  0.4395 -0.2305
13367SOL     OW42993   5.095   0.318   6.025  0.2315 -0.2189 -0.5980
13367SOL    HW142994   5.013   0.363   6.045  0.7803  0.0275  1.2347
13367SOL    HW242995   5.067   0.234   5.987 -0.8130  0.7641 -2.1057
13368SOL     OW42996   8.296   9.454   7.730 -0.2944  0.1061  0.5764
13368SOL    HW142997   8.298   9.512   7.654  0.3475 -0.4269  0.1775
13368SOL    HW242998   8.293   9.366   7.692 -0.0685 -0.1600  1.1749
13369SOL     OW42999   2.062   6.721   1.239  0.1473  0.0797 -0.1740
13369SOL    HW143000   2.035   6.631   1.257  1.6858 -0.4898 -0.6023
13369SOL    HW243001   2.042   6.734   1.146  0.4599 -0.0167 -0.2548
13370SOL     OW43002   0.905   2.794   5.777 -0.5430 -0.4879 -0.3443
13370SOL    HW143003   1.000   2.802   5.767 -0.5851  1.3470  0.2321
13370SOL    HW243004   0.892   2.715   5.828  0.8103  0.0658  0.9378
13371SOL     OW43005   8.886   7.000   1.014 -0.1222  0.1589 -0.0526
13371SOL    HW143006   8.800   6.970   1.044 -0.9191  1.7633 -0.6066
13371SOL    HW243007   8.945   6.928   1.035 -1.5968 -0.9913  0.3365
13372SOL     OW43008   7.498   5.382   3.527 -0.0644 -0.0837  0.3688
13372SOL    HW143009   7.486   5.391   3.433  0.7904  0.6605  0.3129
13372SOL    HW243010   7.566   5.316   3.537  0.5435  0.5375  0.4160
13373SOL     OW43011   0.452   5.114   5.623 -0.2198 -0.5015 -0.3548
13373SOL    HW143012   0.398   5.166   5.682  0.3407 -0.0137 -0.2518
13373SOL    HW243013   0.439   5.154   5.537 -2.8742 -2.6421 -1.0929
13374SOL     OW43014   0.317   9.394   5.446  0.0361  0.1727  0.2309
13374SOL    HW143015   0.251   9.330   5.473  0.4298 -0.4870 -0.3488
13374SOL    HW243016   0.381   9.394   5.517  0.4185 -0.6344 -0.1003
13375SOL     OW43017   4.235  10.148   1.934  0.5063 -0.4374  0.0177
13375SOL    HW143018   4.246  10.232   1.977  0.7578 -0.8078  0.7025
13375SOL    HW243019   4.185  10.095   1.997 -0.9874 -0.3331 -1.0249
13376SOL     OW43020   4.924   1.237   0.654 -0.2739 -0.0253 -0.2126
13376SOL    HW143021   4.865   1.164   0.635 -0.2726  0.0424 -0.4892
13376SOL    HW243022   4.921   1.291   0.575 -1.2609  0.9624  0.4748
13377SOL     OW43023   8.222   7.989   0.072 -0.1551 -0.8191 -0.5731
13377SOL    HW143024   8.163   8.030   0.010 -0.4263  1.7459  1.1970
13377SOL    HW243025   8.165   7.954   0.140  0.2143 -1.8617 -0.7840
13378SOL     OW43026   6.449   6.811   4.928 -0.0056 -0.0387  0.0785
13378SOL    HW143027   6.540   6.793   4.950  0.3621  0.0532 -1.2620
13378SOL    HW243028   6.432   6.898   4.965  0.3581 -0.1744  0.5707
13379SOL     OW43029   7.166   0.705   9.557 -0.5580 -0.4731 -0.1644
13379SOL    HW143030   7.099   0.672   9.496 -0.9100 -2.4236  1.1758
13379SOL    HW243031   7.244   0.653   9.538 -0.3967 -0.4463  0.3969
13380SOL     OW43032   0.348   1.596   6.453  0.3831  0.4976  0.3450
13380SOL    HW143033   0.353   1.517   6.507 -2.2631 -1.1885 -1.5795
13380SOL    HW243034   0.413   1.655   6.490  0.4052 -1.4130  3.7707
13381SOL     OW43035  10.662   0.426  10.120 -0.2293 -0.0937  0.1521
13381SOL    HW143036  10.582   0.455  10.165  0.1094  1.3849 -0.1512
13381SOL    HW243037  10.689   0.348  10.169 -0.9255  0.3671  1.3264
13382SOL     OW43038   0.512   3.773   7.174  0.0726 -0.3513 -0.1666
13382SOL    HW143039   0.589   3.830   7.162  0.8993 -0.4184  3.5483
13382SOL    HW243040   0.439   3.835   7.182  0.4408  0.0150  0.5038
13383SOL     OW43041   4.450   7.751   9.835 -0.3241  0.0985  0.1424
13383SOL    HW143042   4.376   7.755   9.774  0.8649  0.5848 -1.3300
13383SOL    HW243043   4.504   7.827   9.812  0.4216  0.0074  1.4894
13384SOL     OW43044   4.418   0.127   0.710  0.1321  0.0715  0.0070
13384SOL    HW143045   4.375   0.079   0.640  0.9244  0.4109 -0.7302
13384SOL    HW243046   4.372   0.211   0.714 -0.1108 -0.0649  0.1089
13385SOL     OW43047   0.061   0.500   9.961  0.3470  0.2166 -0.8055
13385SOL    HW143048   0.029   0.524   9.874  0.1990  0.4766 -0.6792
13385SOL    HW243049  -0.018   0.474  10.008  0.1802  1.7694 -0.1904
13386SOL     OW43050   8.393   4.858  10.739  0.0276 -0.1510 -0.0795
13386SOL    HW143051   8.463   4.871  10.803 -0.2246  0.3491  0.1035
13386SOL    HW243052   8.434   4.811  10.667  0.8594  1.1596 -0.5060
13387SOL     OW43053   2.526   7.145   9.407  0.5317  0.2593 -0.0590
13387SOL    HW143054   2.603   7.195   9.380  0.1688  1.3102  0.7632
13387SOL    HW243055   2.486   7.116   9.325 -0.8153  3.7660 -0.8179
13388SOL     OW43056   6.622   9.168   1.580  0.4127  0.0844  0.3600
13388SOL    HW143057   6.614   9.249   1.530  0.4546 -0.9414 -1.4001
13388SOL    HW243058   6.715   9.162   1.601  0.7230 -0.3545 -1.0486
13389SOL     OW43059   8.817   5.404   8.967  0.0766 -0.5353 -0.4154
13389SOL    HW143060   8.778   5.409   9.054 -1.9249  0.2389 -1.3020
13389SOL    HW243061   8.795   5.488   8.926  1.9487 -0.4288 -1.3041
13390SOL     OW43062   5.103   6.274   6.565 -0.1309 -0.3295  0.3128
13390SOL    HW143063   5.011   6.287   6.541 -0.1350  0.9151  0.9002
13390SOL    HW243064   5.099   6.230   6.650 -0.1871 -0.1601  0.3982
13391SOL     OW43065   8.297   4.679   8.587 -0.4809 -0.6633 -0.3915
13391SOL    HW143066   8.207   4.647   8.585 -0.5643 -0.4033 -1.3480
13391SOL    HW243067   8.289   4.772   8.607 -0.1718 -1.3466  3.8226
13392SOL     OW43068   9.580   4.495   9.944 -0.0216 -0.2126 -0.0844
13392SOL    HW143069   9.670   4.527   9.937 -0.3036  0.4831 -0.7690
13392SOL    HW243070   9.578   4.446  10.026  1.0191 -0.3755 -0.1388
13393SOL     OW43071   7.293   1.497   1.385  0.5151  0.3177  0.3967
13393SOL    HW143072   7.314   1.414   1.428 -0.2812  0.3509  0.8880
13393SOL    HW243073   7.276   1.558   1.458  0.0168  0.6102  0.0433
13394SOL     OW43074   4.111  10.328   2.921 -0.0808 -0.0248  0.1922
13394SOL    HW143075   4.197  10.289   2.909  1.4925  2.5034  2.2613
13394SOL    HW243076   4.119  10.416   2.884 -2.2218 -0.1216 -0.6822
13395SOL     OW43077   7.823   0.943   2.424 -0.2489 -0.1790 -0.7492
13395SOL    HW143078   7.799   0.852   2.407  0.4088 -0.4038 -0.4984
13395SOL    HW243079   7.780   0.992   2.355  1.2423 -0.9283 -2.2817
13396SOL     OW43080   0.456   7.777   0.089  0.2554  0.1187  0.0694
13396SOL    HW143081   0.458   7.725   0.169 -3.2806 -0.6555 -0.1786
13396SOL    HW243082   0.491   7.862   0.114  0.4602 -0.5080  2.0885
13397SOL     OW43083  10.239   6.547   2.881 -0.1678 -0.0764  0.1605
13397SOL    HW143084  10.287   6.466   2.896  0.5497  0.2233 -0.4323
13397SOL    HW243085  10.147   6.525   2.899 -0.0066 -1.0574 -0.1810
13398SOL     OW43086   2.243   0.292   2.328 -0.2291  0.7623  0.2655
13398SOL    HW143087   2.303   0.218   2.334  0.8121  1.6479  1.0168
13398SOL    HW243088   2.299   0.369   2.322 -1.2610  1.6636  1.5863
13399SOL     OW43089   1.395   6.807   5.516 -0.6125 -0.3255 -0.0478
13399SOL    HW143090   1.367   6.857   5.593 -1.2481  0.7429 -0.9390
13399SOL    HW243091   1.489   6.795   5.528 -0.0268  2.7687 -0.6558
13400SOL     OW43092   2.078   8.413   5.363  0.3636 -0.2509 -0.6163
13400SOL    HW143093   2.103   8.480   5.299 -2.1725 -0.4725 -1.9544
13400SOL    HW243094   2.051   8.463   5.440  1.8188  0.0727 -0.2705
13401SOL     OW43095   5.694   0.970   5.380  0.0882  0.3735  0.3562
13401SOL    HW143096   5.789   0.969   5.376  0.3064 -4.2613  1.3628
13401SOL    HW243097   5.674   1.018   5.461  1.9134 -1.6638  2.1599
13402SOL     OW43098   0.308   0.999   6.742 -0.2134  0.3896  0.1591
13402SOL    HW143099   0.393   0.974   6.778 -0.0659 -1.4713 -1.3525
13402SOL    HW243100   0.270   1.057   6.808  0.4626 -2.0140  2.8766
13403SOL     OW43101  10.012   7.261   3.097 -0.2185  0.2179 -0.9670
13403SOL    HW143102   9.943   7.214   3.144 -1.8111  1.6476 -1.7379
13403SOL    HW243103  10.061   7.193   3.051 -0.3991 -0.9391  0.4837
13404SOL     OW43104   7.562   6.191   7.826  0.8796  0.1965  0.3169
13404SOL    HW143105   7.470   6.212   7.811  0.8363  0.5141  0.9952
13404SOL    HW243106   7.569   6.181   7.921  1.4776 -0.1431  0.2401
13405SOL     OW43107   4.616   8.114   1.000 -0.8810 -0.1674 -0.0831
13405SOL    HW143108   4.611   8.101   1.095 -0.9453 -0.3591 -0.1119
13405SOL    HW243109   4.527   8.138   0.974 -0.7658  0.3195 -0.0328
13406SOL     OW43110   5.234   5.127   4.467  0.0895  0.0903 -0.1235
13406SOL    HW143111   5.278   5.055   4.511 -1.7260 -0.8972  0.2058
13406SOL    HW243112   5.272   5.129   4.380  0.6838 -0.7866  0.1027
13407SOL     OW43113   5.814   1.070   0.377 -0.6170  0.8033  0.5804
13407SOL    HW143114   5.724   1.048   0.402 -0.2084  1.2420  2.6382
13407SOL    HW243115   5.811   1.162   0.353 -1.2338  0.1095 -2.3698
13408SOL     OW43116   0.734   8.886   7.072 -0.9795 -0.0206  0.2000
13408SOL    HW143117   0.706   8.891   6.980  1.3102 -2.0942 -0.7163
13408SOL    HW243118   0.653   8.864   7.119 -1.6367 -2.5811 -1.8592
13409SOL     OW43119   3.808   9.679   3.294 -0.5377  0.7594  0.2393
13409SOL    HW143120   3.773   9.666   3.382 -0.7035  0.3470  0.1118
13409SOL    HW243121   3.753   9.626   3.237  1.0825 -0.9844  0.2003
13410SOL     OW43122   0.190   7.883   1.650  0.0454  0.3022 -0.3877
13410SOL    HW143123   0.122   7.831   1.607  1.0103  0.8606 -2.7647
13410SOL    HW243124   0.267   7.826   1.650 -0.3536 -0.3611  2.3585
13411SOL     OW43125   1.641  10.413   6.093 -0.5583  0.5089 -0.4161
13411SOL    HW143126   1.559  10.461   6.102  0.1146  1.3153  3.1792
13411SOL    HW243127   1.709  10.480   6.101  0.5439 -0.1377 -3.3296
13412SOL     OW43128  10.573   2.215   4.138 -0.2717 -0.1344 -0.2484
13412SOL    HW143129  10.659   2.222   4.097 -0.3407 -1.3748 -0.6736
13412SOL    HW243130  10.583   2.254   4.225  0.6549 -0.0706 -0.3824
13413SOL     OW43131   1.409   9.047   8.998 -0.2031  0.1672 -0.2510
13413SOL    HW143132   1.366   8.992   9.063 -1.0857 -0.8849 -1.6545
13413SOL    HW243133   1.383   9.137   9.020  0.2609 -0.0634  1.3410
13414SOL     OW43134   4.268   9.203   3.159 -0.1437  0.2132  0.3342
13414SOL    HW143135   4.219   9.279   3.189 -0.8800 -0.8908  2.0967
13414SOL    HW243136   4.201   9.142   3.129  0.4776  0.5208 -1.8824
13415SOL     OW43137   9.764   6.815   0.817  0.0410  0.0325 -0.9206
13415SOL    HW143138   9.720   6.734   0.842 -0.9561  0.8597  0.1570
13415SOL    HW243139   9.734   6.834   0.729 -2.4775  0.9786  0.0628
13416SOL     OW43140   5.389  10.188   8.344  0.1759  0.0498  0.2223
13416SOL    HW143141   5.380  10.216   8.253  1.1938  0.1478  0.1459
13416SOL    HW243142   5.463  10.127   8.343 -1.4969 -2.1362  0.4924
13417SOL     OW43143   7.403   2.616   8.063  0.1137 -0.4394 -0.4411
13417SOL    HW143144   7.459   2.541   8.044  0.9285 -0.0501  0.3751
13417SOL    HW243145   7.366   2.598   8.149  1.3276  0.6494  0.3587
13418SOL     OW43146   6.862   7.740   5.907  0.0584  0.1862 -0.8396
13418SOL    HW143147   6.840   7.656   5.866  0.2364  0.5894 -1.7959
13418SOL    HW243148   6.950   7.760   5.873  0.6109  0.0922  0.4754
13419SOL     OW43149   5.532   4.892   1.952  1.1458 -0.3475 -0.2703
13419SOL    HW143150   5.441   4.867   1.937  1.5142 -2.6980  0.9897
13419SOL    HW243151   5.538   4.982   1.919 -0.9528 -1.0172 -2.7647
13420SOL     OW43152   6.325   7.943   0.923 -0.0985 -0.4464 -0.3041
13420SOL    HW143153   6.338   7.879   0.993  3.0130 -1.4769 -1.6440
13420SOL    HW243154   6.244   7.916   0.881 -2.0340  0.1736  2.7411
13421SOL     OW43155   6.758   6.984  10.358  0.0828 -0.1748 -0.2515
13421SOL    HW143156   6.699   6.916  10.325  0.3955 -1.8725  2.3184
13421SOL    HW243157   6.846   6.946  10.349  0.6430  1.3897 -1.9575
13422SOL     OW43158   8.920   0.938   6.009 -0.2989 -0.1010 -0.0185
13422SOL    HW143159   8.961   0.915   6.092  0.8512 -1.3918 -0.9168
13422SOL    HW243160   8.834   0.897   6.012 -0.1429 -0.3969  0.4088
13423SOL     OW43161  10.380   1.076   8.538  0.5183  0.3530  0.7345
13423SOL    HW143162  10.422   1.160   8.559 -0.5446  0.9728  0.4511
13423SOL    HW243163  10.311   1.099   8.477 -0.6572 -0.5469  1.6800
13424SOL     OW43164   3.074   3.796   0.306  0.0356  0.3665  0.5617
13424SOL    HW143165   2.981   3.805   0.329 -1.1012 -3.6672 -1.5315
13424SOL    HW243166   3.083   3.843   0.223 -0.6390 -0.6536 -0.1124
13425SOL     OW43167   6.340   1.659   8.102 -0.1254  0.7003  0.3428
13425SOL    HW143168   6.421   1.703   8.075  0.0186  0.4962  0.4453
13425SOL    HW243169   6.290   1.727   8.147  0.6776  0.4219  1.6969
13426SOL     OW43170   5.759   1.549   3.728  0.3163 -0.1595 -0.5041
13426SOL    HW143171   5.710   1.598   3.662 -1.3781  0.8444  1.4197
13426SOL    HW243172   5.746   1.457   3.704 -0.1309  0.1864 -1.6462
13427SOL     OW43173   6.112   9.979   5.397 -0.7667  0.2046 -0.6975
13427SOL    HW143174   6.126  10.053   5.338  0.1380  0.9426  0.4024
13427SOL    HW243175   6.017   9.979   5.413 -1.0635 -0.1336 -2.2662
13428SOL     OW43176   5.977   9.801   7.695  0.1909 -0.1193  0.5395
13428SOL    HW143177   6.019   9.718   7.716 -1.3064 -1.0066  0.1988
13428SOL    HW243178   6.034   9.841   7.629  0.7657 -1.0355  0.4588
13429SOL     OW43179   6.363   3.477   9.375 -0.0390  0.1324  0.0642
13429SOL    HW143180   6.304   3.538   9.419 -0.4186  0.2443 -0.5911
13429SOL    HW243181   6.446   3.524   9.371 -0.2120  0.4345 -0.0413
13430SOL     OW43182   2.503   3.042   8.601  0.2459 -0.5055  0.3523
13430SOL    HW143183   2.595   3.033   8.622  0.8676  1.2319 -1.3725
13430SOL    HW243184   2.489   3.136   8.592 -1.6929 -0.7332  0.4921
13431SOL     OW43185   7.241   9.363   1.898  0.1620  0.2422 -0.3226
13431SOL    HW143186   7.317   9.348   1.955 -0.0613 -0.2005 -0.1385
13431SOL    HW243187   7.277   9.413   1.824  0.3754  1.2060  0.4010
13432SOL     OW43188   7.378   1.793   9.696 -0.1633  0.0529 -0.4474
13432SOL    HW143189   7.404   1.850   9.623 -0.0572 -0.3596 -0.7365
13432SOL    HW243190   7.290   1.763   9.673 -0.1840  0.0323 -0.3384
13433SOL     OW43191   0.508   6.278   5.965  0.6588  0.0766  0.2847
13433SOL    HW143192   0.601   6.282   5.945  0.8260 -0.1508  0.9962
13433SOL    HW243193   0.470   6.353   5.919  0.6469 -1.6668 -2.8184
13434SOL     OW43194   1.603   9.043   8.653  0.1895  0.2016 -0.5657
13434SOL    HW143195   1.603   9.138   8.649 -2.3988  0.2788 -0.7315
13434SOL    HW243196   1.515   9.020   8.683  1.4678 -2.0891  1.8481
13435SOL     OW43197   7.268   3.435   9.618 -0.2326  0.3991  0.7343
13435SOL    HW143198   7.177   3.453   9.597  0.3335  1.5511 -0.9461
13435SOL    HW243199   7.299   3.381   9.546  1.2303  2.7132 -0.4840
13436SOL     OW43200   4.943   9.665   1.509 -0.5896  0.6033 -0.0680
13436SOL    HW143201   4.884   9.690   1.581  0.4762  0.0377  1.0276
13436SOL    HW243202   5.006   9.737   1.504 -0.6314  0.6174 -0.4157
13437SOL     OW43203   9.313   5.307   0.418 -0.1076 -0.0569  0.1835
13437SOL    HW143204   9.344   5.286   0.506  1.5133 -0.0463 -0.3466
13437SOL    HW243205   9.296   5.222   0.377 -0.9589 -0.0591  0.5214
13438SOL     OW43206   3.075  10.165   3.202  0.1723  0.4445 -0.3593
13438SOL    HW143207   2.996  10.207   3.167 -0.0609  0.3990  0.1065
13438SOL    HW243208   3.093  10.212   3.283  0.1348 -0.0921 -0.0317
13439SOL     OW43209   3.773   7.417   8.815  0.1010 -0.0536 -0.8851
13439SOL    HW143210   3.709   7.381   8.876 -1.2725 -0.7878 -2.6717
13439SOL    HW243211   3.727   7.422   8.731  2.0529  0.4526 -1.9983
13440SOL     OW43212   8.085   5.733   8.235  0.1775 -0.4018  0.2697
13440SOL    HW143213   8.057   5.641   8.241  2.8891 -1.2662  0.8793
13440SOL    HW243214   8.079   5.765   8.325 -0.2202 -0.1397  0.1521
13441SOL     OW43215   2.234   1.142   3.055  0.6615 -0.1020 -0.0923
13441SOL    HW143216   2.204   1.136   3.146 -0.4435  0.5575 -0.3986
13441SOL    HW243217   2.303   1.209   3.058 -0.4049  1.0369  0.0411
13442SOL     OW43218   9.866   1.459   6.154  0.3044 -0.6594 -0.3192
13442SOL    HW143219   9.956   1.462   6.122  0.2985 -0.5142 -0.3215
13442SOL    HW243220   9.820   1.401   6.093  0.0856  0.3159 -1.1003
13443SOL     OW43221   2.214   0.888   3.363  0.1790  0.9369 -0.3729
13443SOL    HW143222   2.170   0.957   3.413  0.7537 -0.1522  1.7745
13443SOL    HW243223   2.149   0.817   3.359 -0.5281  1.6096 -2.8410
13444SOL     OW43224   2.482   8.530   4.857  0.1445  0.1574  0.0297
13444SOL    HW143225   2.430   8.604   4.889  0.5199 -0.8655  3.3448
13444SOL    HW243226   2.451   8.516   4.767  1.0809  5.1833 -1.3893
13445SOL     OW43227   0.291   5.731   2.344  0.1772 -0.4779 -0.5637
13445SOL    HW143228   0.342   5.652   2.328 -0.5983 -1.1896  0.3531
13445SOL    HW243229   0.302   5.748   2.438 -0.3665 -0.0052 -0.5798
13446SOL     OW43230   7.563   7.401   8.179 -0.3105 -0.2162  0.2784
13446SOL    HW143231   7.536   7.312   8.156  0.0345  0.0747 -1.3489
13446SOL    HW243232   7.653   7.392   8.208 -0.2024 -0.3785 -0.1029
13447SOL     OW43233  10.003   2.678   3.691 -0.8351 -0.1747  0.0447
13447SOL    HW143234   9.968   2.654   3.605  0.1986 -3.4433  0.4015
13447SOL    HW243235   9.957   2.622   3.752 -0.0071  0.5482  1.3809
13448SOL     OW43236   4.089   6.861   8.632  0.5181 -0.6077 -0.4163
13448SOL    HW143237   4.169   6.898   8.595 -1.2090  2.2878 -1.6629
13448SOL    HW243238   4.074   6.780   8.582  1.5372 -0.0437 -1.6907
13449SOL     OW43239   2.099   0.761   1.032 -0.0471 -0.1280 -0.1345
13449SOL    HW143240   2.170   0.728   1.087  0.4212 -0.9629 -1.1924
13449SOL    HW243241   2.094   0.698   0.960 -0.0949  1.3572 -1.4712
13450SOL     OW43242   9.694   3.603   5.321  0.7229  0.7735  0.3977
13450SOL    HW143243   9.655   3.518   5.342  0.0866  0.9389 -0.0732
13450SOL    HW243244   9.619   3.661   5.309  1.1161  1.1416 -0.3576
13451SOL     OW43245   3.755   2.524  10.393  0.3495 -0.2579 -0.5187
13451SOL    HW143246   3.774   2.606  10.439 -0.7866 -0.6076  0.6202
13451SOL    HW243247   3.817   2.461  10.429  0.7567 -0.0760 -0.8903
13452SOL     OW43248   4.417   3.106  10.671 -0.2914  0.3722 -0.6561
13452SOL    HW143249   4.396   3.193  10.637  0.4471  0.6804 -0.3306
13452SOL    HW243250   4.486   3.073  10.614  1.1977  1.0295  0.6991
13453SOL     OW43251   3.385   8.980   5.014 -0.1804  1.0091 -0.4767
13453SOL    HW143252   3.379   9.009   5.105 -2.1419  0.9289 -0.5300
13453SOL    HW243253   3.307   8.926   5.002  0.9517 -0.4318 -1.7206
13454SOL     OW43254   0.675   7.970   3.928  0.1019  0.1521  0.1305
13454SOL    HW143255   0.761   7.973   3.886  0.1559  0.5682  0.2682
13454SOL    HW243256   0.616   7.936   3.860  0.6639 -1.8103  0.5479
13455SOL     OW43257   3.344   5.249   5.468  0.5428  0.6302 -0.4451
13455SOL    HW143258   3.340   5.305   5.391 -0.3227  0.3864 -0.5852
13455SOL    HW243259   3.432   5.210   5.464  0.3422  0.2497 -1.5741
13456SOL     OW43260   9.230   1.528   1.614  0.1306  0.5735 -0.4653
13456SOL    HW143261   9.158   1.494   1.666 -0.8863  1.7920 -1.0059
13456SOL    HW243262   9.205   1.619   1.595  2.0045  1.1666 -0.3236
13457SOL     OW43263   4.141   3.340   9.791 -0.6362  0.3824 -1.0050
13457SOL    HW143264   4.131   3.266   9.731 -1.1800 -0.4300  0.0575
13457SOL    HW243265   4.060   3.391   9.781 -0.9901 -0.0822 -0.5289
13458SOL     OW43266   8.317   5.171  10.075  0.0099  0.2385  0.5714
13458SOL    HW143267   8.307   5.076  10.065 -1.1262  0.4774 -1.1715
13458SOL    HW243268   8.263   5.193  10.151  1.2466 -0.6289  1.7402
13459SOL     OW43269   2.226   8.099   4.500  0.4218  0.3805 -1.0414
13459SOL    HW143270   2.244   8.136   4.587  0.8012  2.3500 -1.8853
13459SOL    HW243271   2.177   8.019   4.518  1.5388  0.0732  1.0216
13460SOL     OW43272   4.976   7.370   7.664  0.2020 -1.2806  1.1645
13460SOL    HW143273   4.954   7.277   7.662 -0.7724 -1.0499  0.7808
13460SOL    HW243274   5.003   7.390   7.574 -0.4766 -0.9901  1.0214
13461SOL     OW43275   4.389   2.930   7.343  0.0163  0.0493  0.0379
13461SOL    HW143276   4.389   2.922   7.439  1.7150 -0.0940  0.0586
13461SOL    HW243277   4.433   2.850   7.313 -0.4050  0.1520 -0.8581
13462SOL     OW43278   0.770  10.380   3.162 -0.1342  0.1730  0.2899
13462SOL    HW143279   0.700  10.315   3.152  0.5379 -0.3966 -0.9989
13462SOL    HW243280   0.762  10.435   3.084  3.2034 -2.2730 -2.0146
13463SOL     OW43281   9.573   5.039   4.688 -0.1821 -0.2946 -0.4875
13463SOL    HW143282   9.602   5.069   4.602  0.3052  0.5593 -0.0465
13463SOL    HW243283   9.509   4.970   4.670 -0.5686  0.3183 -1.5401
13464SOL     OW43284   4.507   3.483   0.912  0.0549 -0.0164  0.3901
13464SOL    HW143285   4.497   3.517   0.823 -1.8737 -0.4704  0.4011
13464SOL    HW243286   4.509   3.561   0.967 -0.5121  0.2181  0.0890
13465SOL     OW43287   7.340   4.998   3.417  0.5379  0.3324 -0.0602
13465SOL    HW143288   7.335   5.038   3.504  0.8814  2.4319 -0.9501
13465SOL    HW243289   7.432   4.972   3.408  0.2952 -0.8410  0.5533
13466SOL     OW43290   6.257   2.958   9.208  0.4740 -0.4015  0.1629
13466SOL    HW143291   6.318   2.907   9.261 -0.8652 -0.5804  1.6170
13466SOL    HW243292   6.240   2.903   9.131  2.3408 -0.2030 -0.4298
13467SOL     OW43293   0.985   9.457   0.014 -0.1820 -0.0307 -0.6762
13467SOL    HW143294   0.965   9.482  -0.077  0.3817 -0.0946 -0.8224
13467SOL    HW243295   0.928   9.513   0.067 -0.2427  0.2793 -1.0623
13468SOL     OW43296   0.559  10.508   1.774 -0.4709 -0.2277 -0.4384
13468SOL    HW143297   0.474  10.516   1.730  0.0405 -1.5142 -1.7314
13468SOL    HW243298   0.577  10.596   1.808 -2.4285  0.0171  0.1169
13469SOL     OW43299   3.278   3.240   8.517 -0.8435 -0.5406 -0.0825
13469SOL    HW143300   3.320   3.326   8.513 -0.1833 -0.8099  0.6744
13469SOL    HW243301   3.348   3.178   8.495 -1.3313 -0.8826 -0.6862
13470SOL     OW43302   6.315   0.615   0.172  0.0844 -0.0190 -0.0809
13470SOL    HW143303   6.305   0.520   0.164 -0.2819  0.1282 -1.7541
13470SOL    HW243304   6.394   0.635   0.122  1.2298  0.3881  1.7866
13471SOL     OW43305   9.395   9.223   6.527  0.2643  0.0625  0.2096
13471SOL    HW143306   9.308   9.252   6.553  0.4606  0.6472  0.2125
13471SOL    HW243307   9.439   9.201   6.609  0.7512  1.5420  0.3788
13472SOL     OW43308   6.285   7.099   7.465  0.2744 -0.8646  0.0222
13472SOL    HW143309   6.319   7.174   7.416  0.0640 -0.4223  0.5444
13472SOL    HW243310   6.363   7.060   7.505  0.2537 -0.2845  0.6269
13473SOL     OW43311   4.695   5.213   7.051 -0.3131 -0.4192 -0.0325
13473SOL    HW143312   4.701   5.244   6.961  2.3406 -0.0075  0.2302
13473SOL    HW243313   4.733   5.125   7.049 -1.0005 -0.7421  0.5666
13474SOL     OW43314   5.032   9.456   0.666 -0.3540  0.2915 -0.7310
13474SOL    HW143315   5.067   9.533   0.711  1.1005  0.0542 -1.4070
13474SOL    HW243316   5.046   9.384   0.727  0.6131  0.1544 -1.0995
13475SOL     OW43317   8.515   7.026   8.371 -0.6849 -0.2876 -0.1409
13475SOL    HW143318   8.475   7.074   8.443 -1.6974 -0.0947 -0.8061
13475SOL    HW243319   8.444   6.971   8.336 -0.2340 -0.3327 -1.0217
13476SOL     OW43320   2.305   5.093   8.463 -0.1601 -0.3062  0.1740
13476SOL    HW143321   2.351   5.135   8.390  0.9900 -2.0801 -0.1959
13476SOL    HW243322   2.235   5.043   8.421 -0.6736  0.1597  0.4715
13477SOL     OW43323   0.229   7.420   3.194 -0.3041  0.0221 -0.9157
13477SOL    HW143324   0.242   7.344   3.138  1.9246  0.6841 -1.3940
13477SOL    HW243325   0.185   7.484   3.138  0.9656  0.3022 -1.6221
13478SOL     OW43326   4.747   9.248   1.291  0.5745  0.0004  0.5499
13478SOL    HW143327   4.817   9.302   1.327 -2.1822  1.8942  3.5276
13478SOL    HW243328   4.747   9.170   1.347  0.0405  0.1996  0.8260
13479SOL     OW43329   9.070   0.593   4.451  0.0727 -0.0372  0.0203
13479SOL    HW143330   9.096   0.653   4.381 -2.3383 -0.0676 -1.0062
13479SOL    HW243331   9.101   0.634   4.531 -1.8167  2.8362 -0.5893
13480SOL     OW43332   6.653   2.229   1.133 -0.3667 -0.2790 -0.1943
13480SOL    HW143333   6.728   2.171   1.120  0.7253  0.6519  1.5505
13480SOL    HW243334   6.673   2.307   1.082 -1.5668 -1.1115 -2.0685
13481SOL     OW43335  10.405   4.523   8.587 -0.2686 -0.0423 -0.3706
13481SOL    HW143336  10.429   4.431   8.597  0.6602  0.3151  0.8976
13481SOL    HW243337  10.335   4.537   8.650  1.3073  0.7006  1.2855
13482SOL     OW43338   7.852   6.558   1.080  0.2896 -0.1246 -0.3454
13482SOL    HW143339   7.879   6.478   1.126 -0.5197 -0.6056 -0.6739
13482SOL    HW243340   7.763   6.574   1.111  1.2723  2.0450  1.5494
13483SOL     OW43341   8.788   2.898   2.056  0.4927 -0.1147  0.4178
13483SOL    HW143342   8.832   2.910   1.972  1.8361  2.2625  1.3541
13483SOL    HW243343   8.706   2.853   2.035  1.8760 -1.7857 -1.8078
13484SOL     OW43344   0.766   4.136   8.564 -0.0559 -0.0986  0.2399
13484SOL    HW143345   0.692   4.114   8.508 -0.0000 -0.5397  0.3368
13484SOL    HW243346   0.835   4.073   8.540 -0.0582 -0.3467  0.8540
13485SOL     OW43347   1.988   0.692   4.747  0.7705 -0.3164 -0.0799
13485SOL    HW143348   1.929   0.708   4.674 -1.6903 -1.6706  1.4617
13485SOL    HW243349   2.055   0.634   4.712 -0.0338 -0.4785 -1.3964
13486SOL     OW43350   1.571   5.890   2.237  0.1972  0.3269  0.5045
13486SOL    HW143351   1.598   5.801   2.215  1.6920  0.5037  1.5166
13486SOL    HW243352   1.645   5.927   2.284 -0.3680  2.1470  0.0460
13487SOL     OW43353   8.215   5.473  10.608  0.0140 -0.6648  0.2784
13487SOL    HW143354   8.139   5.445  10.556 -0.8961 -0.7007  1.5707
13487SOL    HW243355   8.210   5.568  10.608 -0.8905 -0.6844  1.5247
13488SOL     OW43356   1.425   0.415   9.739 -0.1302 -0.3998  0.6573
13488SOL    HW143357   1.490   0.442   9.805 -0.0770  0.8136  0.1395
13488SOL    HW243358   1.370   0.351   9.784 -0.3478  0.7042  2.0311
13489SOL     OW43359   7.937   2.319   5.213  0.1629  0.0586  0.1022
13489SOL    HW143360   7.875   2.367   5.158 -0.6424  0.0632  0.9814
13489SOL    HW243361   7.963   2.244   5.160  0.6204  0.8872 -0.8801
13490SOL     OW43362   8.959   6.291   0.775 -0.0679  0.2095 -0.0171
13490SOL    HW143363   8.979   6.336   0.693 -0.0260  0.6810  0.2525
13490SOL    HW243364   8.881   6.335   0.809  0.6138  0.8116  0.7978
13491SOL     OW43365   6.586   8.630   1.265  0.0427  0.0324 -0.2496
13491SOL    HW143366   6.590   8.541   1.230 -1.1444  0.3785 -1.3324
13491SOL    HW243367   6.652   8.631   1.335  1.1039 -1.2559 -1.1807
13492SOL     OW43368   5.942   5.219   7.999 -0.4851 -0.0501  0.1254
13492SOL    HW143369   5.877   5.189   8.062 -0.0401 -0.4772  0.3924
13492SOL    HW243370   5.891   5.249   7.924 -1.0003  0.0310  0.5020
13493SOL     OW43371   6.981   2.805   8.457  0.2578  0.1759 -0.1056
13493SOL    HW143372   6.956   2.874   8.396  1.6513  0.3333 -0.5191
13493SOL    HW243373   6.978   2.847   8.543  0.3865  0.5524 -0.2843
13494SOL     OW43374   0.399   8.822   3.012  0.1239  0.5611  0.1924
13494SOL    HW143375   0.319   8.801   2.964 -0.8967  1.3748  1.4770
13494SOL    HW243376   0.373   8.821   3.104  1.6306  0.7125  0.6505
13495SOL     OW43377   4.389   8.557   9.739  0.3477 -0.3700 -0.3148
13495SOL    HW143378   4.395   8.581   9.832  1.1604  2.4535 -0.9982
13495SOL    HW243379   4.300   8.524   9.729  0.1055 -0.3501  1.4028
13496SOL     OW43380   6.324   3.698   9.682 -0.6056  0.1219 -0.0980
13496SOL    HW143381   6.338   3.726   9.592 -0.0141  0.8731  0.2100
13496SOL    HW243382   6.264   3.764   9.718  0.2488  0.6148  0.4423
13497SOL     OW43383   1.324   6.128   6.547 -0.0704 -0.0238 -0.4065
13497SOL    HW143384   1.395   6.175   6.503 -0.4012 -0.2855 -1.2281
13497SOL    HW243385   1.268   6.197   6.583  0.7350  0.1855  0.4948
13498SOL     OW43386  10.442   6.457  10.305 -0.4066  0.0131  0.3278
13498SOL    HW143387  10.438   6.464  10.210 -0.3675 -1.8552  0.1662
13498SOL    HW243388  10.363   6.409  10.329 -1.4905  2.1826  1.4851
13499SOL     OW43389   8.247   2.202   0.386 -0.0440 -0.3754 -0.5386
13499SOL    HW143390   8.253   2.297   0.376  0.6474 -0.2442  0.8400
13499SOL    HW243391   8.174   2.188   0.448 -0.1205 -0.7381 -0.7050
13500SOL     OW43392  10.714   6.759   9.252  0.6446  0.3605  0.6117
13500SOL    HW143393  10.687   6.667   9.253 -2.3502  1.0928 -0.6661
13500SOL    HW243394  10.705   6.788   9.343 -0.9089 -0.0362  0.6163
13501SOL     OW43395   8.248   4.852   5.018  0.4705  0.6131 -0.8977
13501SOL    HW143396   8.205   4.883   5.097  2.2317  0.1310  0.3049
13501SOL    HW243397   8.216   4.763   5.006  1.7676 -0.0947  0.5419
13502SOL     OW43398  10.047   7.894   3.504 -0.0991  0.6001 -0.7943
13502SOL    HW143399  10.091   7.818   3.468  0.2058 -0.0259  0.8137
13502SOL    HW243400  10.117   7.945   3.545 -0.4475  1.2205 -0.9579
13503SOL     OW43401   9.764   2.652   9.565  0.0326 -0.0764 -0.4375
13503SOL    HW143402   9.728   2.667   9.653 -0.9990  5.2041 -1.4418
13503SOL    HW243403   9.858   2.642   9.579 -0.0022  1.5157  1.2560
13504SOL     OW43404  10.593   4.506   4.321 -0.1534  0.0039  0.5241
13504SOL    HW143405  10.579   4.483   4.229  0.4893 -1.2519  0.7175
13504SOL    HW243406  10.665   4.569   4.319  0.4809 -0.7100  0.2154
13505SOL     OW43407   0.993   9.129   7.384  0.0324 -0.1613 -0.0335
13505SOL    HW143408   0.923   9.075   7.422 -2.2055  0.9945 -2.1521
13505SOL    HW243409   0.988   9.110   7.290  0.9325  1.7704 -0.5200
13506SOL     OW43410  10.126   6.102   0.312 -0.2921  0.2434  0.1412
13506SOL    HW143411  10.140   6.184   0.265 -1.5836  0.0795 -0.5926
13506SOL    HW243412  10.197   6.045   0.284 -0.8776  0.2483 -1.4454
13507SOL     OW43413  10.031   9.984   0.022 -0.5627  0.4892 -0.3051
13507SOL    HW143414   9.989   9.942  -0.052  0.3857 -0.8529 -0.1202
13507SOL    HW243415  10.095  10.044  -0.017 -0.8040  0.5682 -0.5756
13508SOL     OW43416   9.432   3.191   7.824  0.1947  0.0777  0.1859
13508SOL    HW143417   9.439   3.098   7.805  2.5756  0.4276 -1.0378
13508SOL    HW243418   9.464   3.200   7.914  2.6070 -0.0547 -0.5903
13509SOL     OW43419   0.996   4.938   0.273 -0.0046 -0.6723  0.1466
13509SOL    HW143420   0.978   4.906   0.184  0.5850 -1.0672  0.1660
13509SOL    HW243421   1.064   4.880   0.306 -0.5092 -0.7782  1.0160
13510SOL     OW43422   1.619   0.470   8.328 -0.4516 -0.0411  0.8056
13510SOL    HW143423   1.713   0.463   8.313 -0.7542 -0.1735 -1.4017
13510SOL    HW243424   1.610   0.542   8.391  1.0816  0.5325  0.4211
13511SOL     OW43425   9.550   5.756   1.218  0.4426  0.1338  0.0592
13511SOL    HW143426   9.632   5.793   1.251 -0.1059  1.1664  0.3194
13511SOL    HW243427   9.513   5.826   1.163 -0.3788 -0.2262  0.1457
13512SOL     OW43428  10.772   4.490   7.142  0.0384  0.1676  0.0242
13512SOL    HW143429  10.687   4.471   7.182 -0.3444 -0.2165 -0.9469
13512SOL    HW243430  10.753   4.495   7.048  1.4295 -1.9819 -0.4302
13513SOL     OW43431  10.781   3.143   4.737 -0.3731 -0.5873  0.3924
13513SOL    HW143432  10.798   3.206   4.666  0.8746 -1.3735 -0.0489
13513SOL    HW243433  10.744   3.067   4.693  1.0400 -1.3450  0.4434
13514SOL     OW43434   9.306   8.641   6.783  0.2065  0.8398  0.0080
13514SOL    HW143435   9.223   8.672   6.744  0.4479  1.7966  0.2305
13514SOL    HW243436   9.297   8.661   6.876  1.0079  1.7184 -0.0866
13515SOL     OW43437   5.994   3.697   2.715 -0.3356  0.2412  0.2363
13515SOL    HW143438   6.042   3.716   2.634  0.6296 -1.9609  0.2155
13515SOL    HW243439   5.933   3.627   2.691  0.0785 -0.5619  1.4298
13516SOL     OW43440   3.785   2.249   9.908  0.4438  0.1100 -0.2180
13516SOL    HW143441   3.717   2.314   9.888 -0.3657 -0.9035 -0.8592
13516SOL    HW243442   3.740   2.181   9.957  1.3825  0.2188  0.8273
13517SOL     OW43443   4.210   8.485   0.089 -0.0357 -0.6216 -0.3388
13517SOL    HW143444   4.300   8.489   0.058 -0.3193 -1.9106 -1.3855
13517SOL    HW243445   4.185   8.393   0.082 -1.2607 -0.3861  0.4754
13518SOL     OW43446   4.933   4.688   9.025 -0.2179  0.0633  0.0456
13518SOL    HW143447   4.927   4.616   9.088 -1.1523  0.1307  0.0432
13518SOL    HW243448   4.973   4.649   8.947 -0.1061 -0.2913  0.2779
13519SOL     OW43449   1.003   0.269   3.420 -0.1115  0.1258  0.2397
13519SOL    HW143450   1.013   0.183   3.461 -1.5813 -0.3954 -0.4535
13519SOL    HW243451   1.003   0.251   3.326 -2.2031  0.6260  0.0917
13520SOL     OW43452   5.356   2.113   2.837  0.5402 -0.1679  0.0009
13520SOL    HW143453   5.328   2.164   2.913 -2.4534 -1.2416 -0.2391
13520SOL    HW243454   5.368   2.177   2.767 -1.7562  0.4068  0.0690
13521SOL     OW43455   8.502   1.491   7.503 -0.0537 -0.0388 -0.0517
13521SOL    HW143456   8.410   1.468   7.503  0.1327 -0.8376 -0.6794
13521SOL    HW243457   8.503   1.586   7.503 -0.8946 -0.0092 -1.4924
13522SOL     OW43458   6.497   5.353   6.848 -0.2639 -0.0641  0.0981
13522SOL    HW143459   6.500   5.308   6.764  1.2779 -0.9356  0.5808
13522SOL    HW243460   6.404   5.367   6.865 -0.6243 -0.4229 -1.4439
13523SOL     OW43461   5.347   7.176   0.020  0.2961 -0.0490  0.4016
13523SOL    HW143462   5.263   7.197   0.062 -0.5119  2.6817 -2.1893
13523SOL    HW243463   5.323   7.120  -0.054  0.7062  0.6991 -0.3191
13524SOL     OW43464   8.956   1.822   7.764 -0.5204  0.6204  0.2524
13524SOL    HW143465   9.000   1.744   7.729 -1.8511  0.2523 -0.7084
13524SOL    HW243466   8.992   1.894   7.713 -2.0814  0.1450 -1.6843
13525SOL     OW43467   3.460   3.153   4.823 -0.2406 -0.2959 -0.3500
13525SOL    HW143468   3.386   3.200   4.861 -1.2676 -3.3118  1.7109
13525SOL    HW243469   3.471   3.192   4.736 -3.8139  0.7671 -0.4725
13526SOL     OW43470   3.087   8.532   5.541  0.3551  0.4707 -0.0892
13526SOL    HW143471   3.026   8.586   5.491  0.7913 -0.3637 -1.5791
13526SOL    HW243472   3.031   8.476   5.595 -0.1049  2.5127  1.7080
13527SOL     OW43473   0.843   5.937   5.203  0.9310  0.0792 -0.1573
13527SOL    HW143474   0.808   5.945   5.291 -0.4956  0.3586 -0.7273
13527SOL    HW243475   0.925   5.986   5.205  0.2532  1.2100  0.6655
13528SOL     OW43476   2.490   5.150   7.961  0.4529 -0.6051 -0.0089
13528SOL    HW143477   2.448   5.068   7.933 -1.4750 -0.0381  0.9993
13528SOL    HW243478   2.582   5.140   7.936  0.5158 -3.4977  1.0223
13529SOL     OW43479   9.952   1.990   8.953 -0.1998  0.4546 -0.5556
13529SOL    HW143480   9.958   2.059   9.020  2.8631  0.0423 -0.2391
13529SOL    HW243481   9.866   1.951   8.966  0.0958  0.6534  2.9129
13530SOL     OW43482   8.773   1.144   9.128  0.1651  0.3445 -0.0277
13530SOL    HW143483   8.781   1.159   9.222  0.8615 -1.1053  0.1654
13530SOL    HW243484   8.826   1.066   9.111  1.5071  1.5872 -1.9159
13531SOL     OW43485   1.546   9.783   9.733 -0.4681  0.2002 -0.1324
13531SOL    HW143486   1.554   9.702   9.785 -0.0683  0.5066  0.2941
13531SOL    HW243487   1.597   9.766   9.654  0.7498  0.5093  0.5569
13532SOL     OW43488   5.045   3.292   0.357  0.6788  0.6660  0.1346
13532SOL    HW143489   5.006   3.275   0.271 -1.5144  1.0267  0.9843
13532SOL    HW243490   5.098   3.214   0.374 -0.8327 -0.5872 -0.5242
13533SOL     OW43491   2.874   8.957   6.517  0.2028  0.2903 -0.2450
13533SOL    HW143492   2.924   8.994   6.590 -0.0111 -0.6318  0.3943
13533SOL    HW243493   2.931   8.889   6.481  0.5757  1.1722 -1.3824
13534SOL     OW43494   9.494   8.910   6.269  0.5808 -0.4615 -0.3151
13534SOL    HW143495   9.515   8.905   6.362  1.2570 -0.3805 -0.4602
13534SOL    HW243496   9.466   8.821   6.247 -0.1591 -0.3448  0.0879
13535SOL     OW43497   1.818   3.608   6.013  0.2757 -0.0671 -0.2025
13535SOL    HW143498   1.862   3.671   5.957  0.1075  0.4631  0.2489
13535SOL    HW243499   1.727   3.638   6.016  0.2611 -0.1402  0.2724
13536SOL     OW43500   9.159   9.679   4.409  0.3928  0.6970 -0.3119
13536SOL    HW143501   9.246   9.717   4.394  0.9240 -0.6626 -0.8895
13536SOL    HW243502   9.110   9.702   4.330 -0.2314  2.5893  0.5748
13537SOL     OW43503   1.719   8.607   4.600  0.0887 -0.6140 -0.5266
13537SOL    HW143504   1.662   8.595   4.676 -0.3416  0.4974 -0.6510
13537SOL    HW243505   1.777   8.531   4.601  0.8180 -0.0872  1.5651
13538SOL     OW43506   7.856   1.705   5.066 -0.4261 -0.4007  0.1157
13538SOL    HW143507   7.896   1.771   5.011 -1.1823 -0.6965 -0.8132
13538SOL    HW243508   7.821   1.753   5.141 -1.3832  0.3188 -0.7827
13539SOL     OW43509   7.904   7.786   1.745 -0.1225  0.7146 -0.1776
13539SOL    HW143510   7.838   7.729   1.785  0.0013  0.1793 -0.7251
13539SOL    HW243511   7.864   7.816   1.664 -0.8287  2.7194  0.8514
13540SOL     OW43512   5.594   5.972   8.140 -0.0644 -0.2652 -0.0007
13540SOL    HW143513   5.553   6.054   8.166  0.5350  0.4903 -1.3357
13540SOL    HW243514   5.678   5.998   8.102  0.3540 -1.5445 -0.0067
13541SOL     OW43515  10.662   3.057   0.632 -0.4818 -0.0321 -0.2411
13541SOL    HW143516  10.676   3.061   0.538 -1.6987 -1.2477 -0.5078
13541SOL    HW243517  10.608   2.979   0.645 -1.0541  0.5832  1.3665
13542SOL     OW43518   7.792   1.597   6.535 -0.0394 -0.1302  0.1068
13542SOL    HW143519   7.800   1.517   6.483 -0.5622  1.7024 -3.0464
13542SOL    HW243520   7.878   1.639   6.528 -0.6848  1.0669 -0.9867
13543SOL     OW43521   7.078  10.543   3.404 -0.1922  0.1347 -0.2322
13543SOL    HW143522   7.158  10.524   3.355 -0.2707  1.9777 -1.1660
13543SOL    HW243523   7.089  10.633   3.435 -1.3730 -0.0139  0.7052
13544SOL     OW43524   7.029   1.379   1.083 -0.0448 -0.3713 -0.3354
13544SOL    HW143525   6.963   1.312   1.063 -2.4691  2.1406 -1.5062
13544SOL    HW243526   7.071   1.395   0.998  0.9597 -0.7734  0.0705
13545SOL     OW43527   9.434   3.976   5.475  0.5082  0.1487  0.4613
13545SOL    HW143528   9.384   3.918   5.532 -0.1359 -0.1200 -0.3701
13545SOL    HW243529   9.385   4.058   5.476 -0.4320 -0.3716 -1.0148
13546SOL     OW43530   0.401   1.729   9.694  0.3489 -0.2606  0.6110
13546SOL    HW143531   0.463   1.658   9.707 -0.2812 -0.9610 -0.0951
13546SOL    HW243532   0.453   1.809   9.709  1.4304 -0.8206  0.0249
13547SOL     OW43533   2.974   9.094   6.738  0.8172 -0.1044  1.0313
13547SOL    HW143534   2.933   9.155   6.800  0.5277 -0.4645  1.1943
13547SOL    HW243535   3.028   9.037   6.792  0.3964 -0.5565  0.9817
13548SOL     OW43536   5.080   8.828   3.863  0.1413  0.5740 -0.2415
13548SOL    HW143537   4.989   8.800   3.874  0.9945 -2.1622  0.7923
13548SOL    HW243538   5.127   8.781   3.932  2.5623  0.6395 -1.7508
13549SOL     OW43539   2.805   9.983  10.694 -0.4553 -0.8510  0.3051
13549SOL    HW143540   2.762   9.991  10.779 -0.8812  1.0946 -0.0522
13549SOL    HW243541   2.735   9.958  10.633 -1.1294  1.8390 -0.1836
13550SOL     OW43542   1.282  10.557   5.831  0.4090  0.1098  0.0075
13550SOL    HW143543   1.319  10.572   5.743  0.3698  0.3774  0.0348
13550SOL    HW243544   1.332  10.484   5.866 -2.3829 -3.0024 -1.9176
13551SOL     OW43545   6.599   5.918  10.090  0.2688 -0.1740 -0.0696
13551SOL    HW143546   6.568   5.904  10.180  0.5788 -0.9562 -0.0777
13551SOL    HW243547   6.664   5.988  10.098  1.1182 -0.9988  0.5037
13552SOL     OW43548   0.715   7.693   2.961 -0.6555  0.2390  0.5625
13552SOL    HW143549   0.710   7.667   2.869  1.9386 -0.6196  0.5609
13552SOL    HW243550   0.676   7.620   3.009 -0.8746  0.1145  0.1963
13553SOL     OW43551   1.029   6.120   1.643 -0.5334  0.0583 -0.1955
13553SOL    HW143552   1.017   6.192   1.704 -0.1483 -0.3686  0.4003
13553SOL    HW243553   0.972   6.140   1.569 -1.5467  0.2350  0.6187
13554SOL     OW43554   1.131   7.691   5.234 -0.5891  0.0222 -0.9090
13554SOL    HW143555   1.197   7.636   5.275 -1.5221 -1.1713 -0.9624
13554SOL    HW243556   1.178   7.770   5.209  0.0576  0.8334  2.3793
13555SOL     OW43557   3.726   0.298   9.442 -0.3010  0.3823 -0.0029
13555SOL    HW143558   3.670   0.374   9.455  0.0732  0.5364  0.8107
13555SOL    HW243559   3.676   0.241   9.383 -0.6834  1.1449 -0.4290
13556SOL     OW43560   9.192   5.554   6.501 -0.5658 -0.1356 -0.4655
13556SOL    HW143561   9.167   5.615   6.431  1.4266  0.5234 -0.6589
13556SOL    HW243562   9.120   5.560   6.564 -1.3052  0.9946 -1.3606
13557SOL     OW43563   4.418   2.696   3.616 -0.1522 -0.1596 -0.2555
13557SOL    HW143564   4.333   2.663   3.585 -0.1706 -0.8666  0.4887
13557SOL    HW243565   4.456   2.622   3.664  0.6400  0.3303 -0.1086
13558SOL     OW43566   7.620   0.417   0.361 -0.2394  0.1632 -0.2093
13558SOL    HW143567   7.641   0.399   0.269  2.1766 -0.1259  0.3190
13558SOL    HW243568   7.565   0.344   0.388 -1.4403  0.5339 -1.5405
13559SOL     OW43569   1.498  10.726   8.169 -0.6543  0.4903 -0.4144
13559SOL    HW143570   1.582  10.696   8.135  0.5477 -0.3704  2.9689
13559SOL    HW243571   1.515  10.813   8.204 -0.7366 -0.2025  1.4790
13560SOL     OW43572   0.498   1.136   1.577 -0.6196 -0.0693 -0.6409
13560SOL    HW143573   0.482   1.041   1.573 -1.4859  0.0473 -0.1207
13560SOL    HW243574   0.532   1.150   1.666  0.8411 -0.0761 -1.1768
13561SOL     OW43575   5.686   5.452   0.198  0.2247 -0.1164 -0.0739
13561SOL    HW143576   5.745   5.376   0.198 -1.0795 -1.2775 -2.6985
13561SOL    HW243577   5.736   5.522   0.239  2.5580 -1.6552 -0.1178
13562SOL     OW43578   6.784   2.524   3.566  0.7649  0.1199 -0.2140
13562SOL    HW143579   6.724   2.577   3.619 -1.6063 -0.2790 -2.2762
13562SOL    HW243580   6.837   2.588   3.519 -0.9164  0.7315 -1.4069
13563SOL     OW43581   8.142   1.285   8.730 -0.0883  0.2702 -0.1719
13563SOL    HW143582   8.052   1.307   8.707  0.1408  1.7691  0.2778
13563SOL    HW243583   8.152   1.316   8.820  1.4180  1.8795 -0.8274
13564SOL     OW43584   9.958  10.046   1.559  0.5891 -0.0302 -0.1410
13564SOL    HW143585   9.914   9.974   1.513 -1.9580  0.8380  0.7802
13564SOL    HW243586  10.036  10.005   1.596  1.3400 -1.3557 -2.9136
13565SOL     OW43587   2.070   3.434   9.149  0.0702 -0.4266 -0.4084
13565SOL    HW143588   2.163   3.411   9.153  0.1798 -0.1248 -0.9618
13565SOL    HW243589   2.032   3.399   9.229  0.7836 -0.0230  0.1105
13566SOL     OW43590   3.276   5.499   0.952 -0.0523 -0.6167  0.4641
13566SOL    HW143591   3.300   5.510   1.044  0.4504  0.3186  0.2394
13566SOL    HW243592   3.355   5.524   0.904 -1.0299  1.2526 -0.2641
13567SOL     OW43593  10.703   6.472   1.384 -0.0977 -0.2071  0.1705
13567SOL    HW143594  10.672   6.381   1.385  0.0099 -0.2486 -0.3155
13567SOL    HW243595  10.631   6.521   1.345 -0.9302  0.2102  2.1075
13568SOL     OW43596   2.463   5.315   1.033 -0.0230 -0.1681  0.2055
13568SOL    HW143597   2.440   5.361   0.952  2.8632  0.8845 -0.1334
13568SOL    HW243598   2.538   5.260   1.009  0.1238 -0.7574  1.9095
13569SOL     OW43599   8.226   5.593   0.732  0.0870 -0.2970  0.0804
13569SOL    HW143600   8.179   5.530   0.678 -0.8231  0.3743  0.0655
13569SOL    HW243601   8.274   5.647   0.670  0.1488 -0.4114  0.0294
13570SOL     OW43602   5.102   0.660   4.757 -0.2788  0.2617 -0.3388
13570SOL    HW143603   5.165   0.672   4.686 -1.9221 -0.5632 -2.0165
13570SOL    HW243604   5.103   0.566   4.774 -0.0959  0.4218  0.5782
13571SOL     OW43605   5.950   5.221   2.016 -0.5643 -0.0972 -0.0796
13571SOL    HW143606   5.963   5.157   1.946 -0.5067  0.8252 -0.9286
13571SOL    HW243607   5.869   5.193   2.059 -0.4128 -0.8763 -0.2700
13572SOL     OW43608   4.134   8.319   2.155  0.0777  0.2339  0.5020
13572SOL    HW143609   4.212   8.360   2.193  0.7557 -0.7071  0.1701
13572SOL    HW243610   4.088   8.281   2.230  1.6310 -1.9853  0.4328
13573SOL     OW43611   9.493   4.910  10.602  0.3150 -0.6283  0.0567
13573SOL    HW143612   9.479   4.837  10.542 -1.3019 -0.6378  0.3895
13573SOL    HW243613   9.429   4.896  10.672  2.3867 -0.8001  2.0104
13574SOL     OW43614   6.996   6.409   6.997 -0.4495  0.0380  0.0021
13574SOL    HW143615   6.945   6.482   7.033 -0.2677 -0.3420  1.0483
13574SOL    HW243616   7.048   6.377   7.071 -1.6694 -2.1607 -0.0205
13575SOL     OW43617   6.582   0.339   9.983  0.1387  0.5742 -0.3008
13575SOL    HW143618   6.646   0.342  10.054  1.8871  2.9144 -1.8123
13575SOL    HW243619   6.515   0.278  10.013  0.6239  1.6582  3.4547
13576SOL     OW43620   4.256   6.290   2.114 -0.0944 -0.1260 -0.0277
13576SOL    HW143621   4.325   6.232   2.083 -1.0429 -1.6834  0.6649
13576SOL    HW243622   4.231   6.342   2.037  1.6972  0.3701 -0.3232
13577SOL     OW43623   2.367   7.260   4.707  0.0940  0.2150 -0.5458
13577SOL    HW143624   2.285   7.310   4.710 -0.9091 -1.2775 -1.5587
13577SOL    HW243625   2.367   7.209   4.788  0.4442  0.8205 -0.1575
13578SOL     OW43626   9.861   1.328   5.517 -0.7407 -0.1259  0.2528
13578SOL    HW143627   9.953   1.355   5.528 -0.6420 -1.1823  2.4611
13578SOL    HW243628   9.825   1.393   5.457  1.4462  0.2996 -0.7298
13579SOL     OW43629   5.018   3.300   9.848 -0.1548 -0.1420  0.6452
13579SOL    HW143630   4.963   3.221   9.847 -0.4662 -0.0150 -2.3454
13579SOL    HW243631   5.100   3.271   9.887 -1.0401 -1.3341  1.7133
13580SOL     OW43632   0.753   4.670   1.010  0.5227  0.2548 -0.0940
13580SOL    HW143633   0.762   4.758   0.973  0.9291  0.8327  1.3186
13580SOL    HW243634   0.678   4.676   1.068  1.1996 -0.0298  0.8251
13581SOL     OW43635  10.485   2.937   1.138  0.0671 -0.6917  0.0164
13581SOL    HW143636  10.488   3.032   1.153 -0.3655 -0.3573 -1.7949
13581SOL    HW243637  10.576   2.908   1.146  0.1094 -0.2745  1.3128
13582SOL     OW43638   3.182   6.324   2.118  0.5524 -0.2388 -0.1317
13582SOL    HW143639   3.235   6.258   2.164  1.5784 -0.2529 -1.2844
13582SOL    HW243640   3.131   6.274   2.055  0.2648 -0.0735 -0.0290
13583SOL     OW43641   2.852   8.661   7.651  0.1816 -0.2479 -0.1847
13583SOL    HW143642   2.842   8.687   7.743  0.0632 -0.1545 -0.2233
13583SOL    HW243643   2.901   8.579   7.655  0.7347  0.0843 -0.0746
13584SOL     OW43644   3.057   8.059   2.280 -0.2232  0.6388 -0.0842
13584SOL    HW143645   3.103   8.139   2.254 -1.8201  1.2888 -1.0786
13584SOL    HW243646   3.011   8.083   2.360 -0.2645  0.5390 -0.0788
13585SOL     OW43647   6.088   7.037   5.500  0.5355  0.7051 -0.7418
13585SOL    HW143648   6.057   6.960   5.452  1.4645  1.4319 -2.6148
13585SOL    HW243649   6.054   7.111   5.450 -0.2941  1.5539  0.9988
13586SOL     OW43650   2.606   3.022   7.851 -0.7536  0.3107 -0.2685
13586SOL    HW143651   2.599   2.935   7.811  0.5890 -0.2560  0.6722
13586SOL    HW243652   2.670   3.011   7.922 -1.7149  1.7042  0.8687
13587SOL     OW43653   6.750   1.780   7.020  0.4345  0.4477  0.0929
13587SOL    HW143654   6.754   1.864   6.974 -0.0513  0.2525 -0.3159
13587SOL    HW243655   6.657   1.766   7.036  0.3651 -0.7019 -1.1480
13588SOL     OW43656   1.663   3.188   2.618 -0.2861  0.4846 -0.4187
13588SOL    HW143657   1.668   3.098   2.651 -1.6254  0.5875  0.1167
13588SOL    HW243658   1.638   3.178   2.526  0.3503  0.3022 -0.5814
13589SOL     OW43659   1.223   2.571   6.814  0.3900  0.4140  0.4237
13589SOL    HW143660   1.306   2.594   6.772  0.0658 -2.0982 -1.8503
13589SOL    HW243661   1.168   2.539   6.743 -1.8961  0.2349  2.1584
13590SOL     OW43662   0.309   6.760   8.379 -0.1837 -0.1508  0.3752
13590SOL    HW143663   0.312   6.765   8.283  1.5108 -3.1382  0.1595
13590SOL    HW243664   0.216   6.757   8.400 -0.5879 -1.5983 -1.3974
13591SOL     OW43665   1.574   1.103   9.128  0.1938 -0.8761  0.4197
13591SOL    HW143666   1.560   1.070   9.217 -1.3928  0.0695  0.5486
13591SOL    HW243667   1.599   1.195   9.140  1.9597 -1.2613 -0.0527
13592SOL     OW43668   4.492   0.033   3.394 -0.2079  0.2008 -0.5613
13592SOL    HW143669   4.461   0.020   3.305  1.1449 -0.6951 -0.9303
13592SOL    HW243670   4.470  -0.048   3.440 -1.6423  0.9668  0.1818
13593SOL     OW43671   4.976   7.150   0.523 -0.1169 -0.6429 -0.0847
13593SOL    HW143672   4.991   7.174   0.614  1.0128 -0.6048 -0.2718
13593SOL    HW243673   4.884   7.170   0.508 -0.4821 -1.2427  1.2299
13594SOL     OW43674   4.331   9.635   7.489 -0.2767 -0.6233 -0.5840
13594SOL    HW143675   4.324   9.629   7.394 -0.5975  1.5580 -0.7483
13594SOL    HW243676   4.420   9.668   7.505 -0.7713  0.6215 -0.2604
13595SOL     OW43677   4.955   8.284   0.417  0.1535  0.9634  0.0799
13595SOL    HW143678   4.977   8.312   0.329  2.0038  0.1723  0.2555
13595SOL    HW243679   4.937   8.190   0.410  0.8729  0.7720  0.6127
13596SOL     OW43680   9.676   9.956   5.904  0.1871 -0.0457  0.4001
13596SOL    HW143681   9.731  10.006   5.964 -0.2200  0.6861  0.1814
13596SOL    HW243682   9.604  10.015   5.883 -1.0853 -1.2420  1.2481
13597SOL     OW43683   1.938   8.070   2.019 -0.2418  0.5429 -0.3525
13597SOL    HW143684   1.908   8.084   1.929 -0.7275 -1.7088 -0.6187
13597SOL    HW243685   2.008   8.005   2.010  0.2220  0.8558  0.8483
13598SOL     OW43686  10.781   4.886   1.251 -0.1957 -0.2794  0.1184
13598SOL    HW143687  10.703   4.883   1.308  1.5358  1.6295  2.8164
13598SOL    HW243688  10.753   4.938   1.175 -1.9510 -0.9615  0.2420
13599SOL     OW43689   1.658   7.893   1.936  0.2570  0.0295 -0.2384
13599SOL    HW143690   1.603   7.819   1.910 -0.8483  1.3009 -1.7098
13599SOL    HW243691   1.741   7.879   1.890  0.3223 -0.6402  0.0697
13600SOL     OW43692   3.538   2.538   7.722 -0.1238 -0.3783  0.9744
13600SOL    HW143693   3.574   2.451   7.742 -0.1423 -0.1497  2.0633
13600SOL    HW243694   3.525   2.537   7.627  1.1872 -1.0694  0.7770
13601SOL     OW43695   1.614   6.346   1.926  0.2734 -0.0471 -0.5158
13601SOL    HW143696   1.653   6.356   2.013 -1.4344  0.6523  0.2266
13601SOL    HW243697   1.672   6.393   1.867  0.0757  1.8278  0.6893
13602SOL     OW43698   2.914   1.159   0.024 -0.1378 -0.2735 -0.1071
13602SOL    HW143699   2.991   1.136  -0.028 -1.0189 -0.6958 -1.2673
13602SOL    HW243700   2.916   1.254   0.030 -0.4776 -0.1378 -1.7007
13603SOL     OW43701   9.326   8.797   3.726 -0.4637 -0.0810 -0.4657
13603SOL    HW143702   9.276   8.868   3.766  1.2325 -0.0096  1.7261
13603SOL    HW243703   9.293   8.792   3.637 -3.4056  0.8064  0.4665
13604SOL     OW43704   2.782   9.899   2.357  0.1282 -0.3276 -0.2543
13604SOL    HW143705   2.798   9.935   2.270 -0.4160 -0.6227 -0.4872
13604SOL    HW243706   2.687   9.886   2.360 -0.3494  2.5647  1.5137
13605SOL     OW43707   9.226   2.423   7.439  0.0414 -0.2724 -0.4391
13605SOL    HW143708   9.305   2.418   7.494 -0.2558  1.6984  0.2483
13605SOL    HW243709   9.249   2.485   7.370  0.1027 -2.0555 -2.0934
13606SOL     OW43710   1.354   5.439   9.043 -0.8227 -0.2522  0.8023
13606SOL    HW143711   1.310   5.432   9.128 -3.7232 -0.7877 -0.6482
13606SOL    HW243712   1.334   5.357   8.998 -0.6819  0.6399 -0.9916
13607SOL     OW43713   6.291   0.131   8.673  0.4236  0.0286 -0.4805
13607SOL    HW143714   6.322   0.090   8.754 -0.6610 -1.4130 -0.7670
13607SOL    HW243715   6.300   0.225   8.690 -1.0792 -0.1519  1.8889
13608SOL     OW43716   4.237   6.412   1.837  0.0444  0.2641  0.5298
13608SOL    HW143717   4.188   6.487   1.803 -0.0129  0.4561  1.0208
13608SOL    HW243718   4.182   6.336   1.817 -0.4067  0.4666  0.9680
13609SOL     OW43719   2.108   2.464   6.217 -0.0450 -0.3739  0.2176
13609SOL    HW143720   2.175   2.401   6.243  0.4769  0.2996  0.5508
13609SOL    HW243721   2.025   2.416   6.224  0.4744 -1.5656 -1.3072
13610SOL     OW43722   3.389   0.356   6.692  0.1271  0.6026  0.1816
13610SOL    HW143723   3.466   0.301   6.699  0.1039  0.3544 -1.1726
13610SOL    HW243724   3.316   0.295   6.683 -0.1203  0.8427  0.5274
13611SOL     OW43725   5.923   0.367   6.780 -0.3027  0.5502  0.0578
13611SOL    HW143726   6.001   0.420   6.789 -0.9382  1.2815  1.5284
13611SOL    HW243727   5.955   0.278   6.769  0.7491  0.7296  1.4236
13612SOL     OW43728   4.637   4.121   3.409  0.3068 -0.4812  0.2617
13612SOL    HW143729   4.713   4.097   3.355  0.1120 -0.4400 -0.0337
13612SOL    HW243730   4.655   4.210   3.437  0.1890 -0.3307 -0.1290
13613SOL     OW43731   0.624   5.650   0.918  0.0892  0.0438 -0.2124
13613SOL    HW143732   0.533   5.665   0.895 -0.0029  0.7691  0.5667
13613SOL    HW243733   0.624   5.565   0.963 -0.0900 -0.2686 -0.7970
13614SOL     OW43734   4.688   7.614   6.891 -0.2016  0.5407 -0.0948
13614SOL    HW143735   4.641   7.640   6.970  1.9158  0.3941  1.3137
13614SOL    HW243736   4.667   7.521   6.880 -0.4212  0.5322  0.3686
13615SOL     OW43737   2.036   2.691   3.711  0.4768  0.2579 -0.8812
13615SOL    HW143738   1.997   2.739   3.784  0.3151 -0.6320 -0.3655
13615SOL    HW243739   2.047   2.756   3.642  0.3749  1.0552 -0.1583
13616SOL     OW43740   4.440   0.723   9.012 -0.6915  1.1876  0.0637
13616SOL    HW143741   4.388   0.801   8.996 -1.5657  0.4323 -1.0324
13616SOL    HW243742   4.376   0.651   9.010  0.1326  0.4159  0.6792
13617SOL     OW43743   4.143   6.476   4.558 -0.2933 -0.2463 -0.4061
13617SOL    HW143744   4.223   6.430   4.581  0.6927  0.1996 -2.6341
13617SOL    HW243745   4.173   6.563   4.529 -1.5840  0.0352 -0.9802
13618SOL     OW43746   2.237   5.622   8.274 -0.4968  0.4333 -0.0384
13618SOL    HW143747   2.287   5.635   8.194 -3.2922  2.3026 -1.6905
13618SOL    HW243748   2.178   5.549   8.254  1.6696 -2.0620  2.0273
13619SOL     OW43749   1.390   0.677   2.024 -0.0692 -0.0248  0.0678
13619SOL    HW143750   1.420   0.692   2.114  0.5231  1.7628 -0.3739
13619SOL    HW243751   1.450   0.611   1.989  0.5992  0.2976  0.5702
13620SOL     OW43752   3.968   8.974   7.221 -0.6032 -0.5188 -0.2693
13620SOL    HW143753   3.957   8.887   7.182 -2.2439 -0.5230  0.1149
13620SOL    HW243754   3.932   8.965   7.309  0.1398  0.3084  0.1355
13621SOL     OW43755   8.325   6.580   7.272  0.3239  0.9872  0.4504
13621SOL    HW143756   8.315   6.547   7.183  0.1939 -0.0125  0.8308
13621SOL    HW243757   8.338   6.675   7.260  0.1367  0.8975 -0.6132
13622SOL     OW43758   9.770   6.801   4.104  0.2926  0.0504  0.2482
13622SOL    HW143759   9.721   6.881   4.087 -0.7849 -0.4089  1.0777
13622SOL    HW243760   9.854   6.814   4.060 -0.3299  1.1213 -0.6563
13623SOL     OW43761   3.153   2.655   6.371 -0.1334  0.4156 -0.4396
13623SOL    HW143762   3.208   2.589   6.414 -0.5629 -0.4947 -1.2493
13623SOL    HW243763   3.106   2.698   6.443  0.7027  0.3584  0.1587
13624SOL     OW43764  10.653   8.214   9.946  0.0783 -0.3326  0.1628
13624SOL    HW143765  10.647   8.118   9.949 -0.9378 -0.3472 -1.1182
13624SOL    HW243766  10.688   8.233   9.859 -0.8746  0.4739 -0.0656
13625SOL     OW43767   2.894   1.206   3.488 -0.3413 -0.0729  0.3127
13625SOL    HW143768   2.880   1.117   3.522  0.4729 -0.4832 -0.3734
13625SOL    HW243769   2.806   1.242   3.480 -0.8768 -1.5868 -1.3594
13626SOL     OW43770   3.421   6.774   4.285 -0.0254 -0.2544 -0.2575
13626SOL    HW143771   3.469   6.727   4.353  0.1733 -0.5375 -0.5917
13626SOL    HW243772   3.489   6.822   4.238 -0.3824  1.6974  1.0965
13627SOL     OW43773   4.243   4.918   1.436  0.1836 -0.2945  0.1861
13627SOL    HW143774   4.207   4.867   1.363  0.7004 -0.2151 -0.1269
13627SOL    HW243775   4.329   4.947   1.405  0.4231 -0.2918  0.8405
13628SOL     OW43776  10.079   7.652   7.705 -0.3833 -0.4296  0.0700
13628SOL    HW143777  10.051   7.572   7.659  0.8553 -0.6216 -0.4115
13628SOL    HW243778  10.175   7.645   7.708  0.0213  2.1993 -2.2439
13629SOL     OW43779  10.241   8.253   7.037  0.2067  0.3859 -0.0264
13629SOL    HW143780  10.226   8.192   7.109  0.3374 -0.4644 -0.6983
13629SOL    HW243781  10.309   8.312   7.068 -1.2384  1.4204  1.3549
13630SOL     OW43782   1.103   6.735   5.327  0.2281 -0.1369 -0.3614
13630SOL    HW143783   1.097   6.676   5.402 -0.8417  0.3465 -0.0606
13630SOL    HW243784   1.086   6.822   5.362  2.3083  0.4634 -0.7151
13631SOL     OW43785   1.674   9.031   7.500 -0.1119  0.0525  0.0934
13631SOL    HW143786   1.664   8.936   7.502 -0.7913  0.1216  1.4250
13631SOL    HW243787   1.624   9.059   7.423  0.7177 -0.7073 -0.7487
13632SOL     OW43788   5.660   9.018   5.526  0.4049 -0.2677  0.3509
13632SOL    HW143789   5.693   8.959   5.594 -1.3779 -1.6345  0.0939
13632SOL    HW243790   5.566   9.001   5.523  0.4571 -0.6041 -2.7381
13633SOL     OW43791   0.245   7.509   2.842  0.3292 -0.0484 -0.5806
13633SOL    HW143792   0.264   7.602   2.833  0.3890 -0.1149 -1.1609
13633SOL    HW243793   0.326   7.471   2.876  0.3500  0.0900 -0.4745
13634SOL     OW43794   3.204   3.059   6.053  0.3384  0.4155 -0.1477
13634SOL    HW143795   3.219   3.034   5.962  0.3625 -0.2430  0.0310
13634SOL    HW243796   3.277   3.116   6.074  0.0041  1.0789 -0.7226
13635SOL     OW43797   1.964   0.590   3.882 -0.1019 -0.0968  0.5718
13635SOL    HW143798   2.017   0.529   3.831  0.5710  0.7458  0.2290
13635SOL    HW243799   2.026   0.658   3.910 -0.8887  0.6031  0.6518
13636SOL     OW43800   8.473   7.682   5.898  0.0922  0.1948 -0.3594
13636SOL    HW143801   8.384   7.690   5.932  0.3024 -2.4638  1.1773
13636SOL    HW243802   8.464   7.627   5.820  0.1992  1.7986 -1.5415
13637SOL     OW43803   9.068   1.388  10.439 -0.4257  0.3118  0.3424
13637SOL    HW143804   9.161   1.381  10.462  0.0754 -0.7840 -1.7047
13637SOL    HW243805   9.069   1.427  10.352 -1.8129 -0.6141 -0.1150
13638SOL     OW43806   6.437   1.559   6.538  0.4516 -0.2606  0.1767
13638SOL    HW143807   6.387   1.629   6.497 -0.6724 -1.8205 -1.2514
13638SOL    HW243808   6.487   1.519   6.467 -0.6267 -2.2723  0.4590
13639SOL     OW43809  10.372   2.817   1.377 -0.5332 -0.5123 -0.6742
13639SOL    HW143810  10.280   2.835   1.398  0.0494  0.9768  0.7944
13639SOL    HW243811  10.378   2.831   1.283 -1.8320 -0.7662 -0.8202
13640SOL     OW43812   1.973   2.187   7.924 -0.0504 -0.0165  0.7956
13640SOL    HW143813   1.963   2.249   7.852  0.8431 -1.4424 -0.6245
13640SOL    HW243814   1.887   2.145   7.932  0.2255 -0.8993 -0.4956
13641SOL     OW43815   3.193   2.274  10.464  0.1304 -0.0979 -0.5142
13641SOL    HW143816   3.226   2.331  10.533  2.0672 -0.4248 -1.1132
13641SOL    HW243817   3.221   2.187  10.489  0.6715 -0.2493 -1.5753
13642SOL     OW43818   3.417   1.457   7.572  0.4109 -0.4736  0.1513
13642SOL    HW143819   3.383   1.520   7.508  3.1353  1.9411  0.8441
13642SOL    HW243820   3.485   1.409   7.525 -1.4740 -2.8962 -0.2941
13643SOL     OW43821   4.555   6.268  10.262 -0.3802  0.6669  0.0432
13643SOL    HW143822   4.645   6.301  10.262 -0.9276  2.2324 -0.6848
13643SOL    HW243823   4.560   6.186  10.212  1.0040 -0.4570  1.8644
13644SOL     OW43824   1.571   0.891   6.921 -0.1258  0.5535  0.0656
13644SOL    HW143825   1.655   0.902   6.965 -0.3828  2.3714  0.1787
13644SOL    HW243826   1.519   0.968   6.946 -1.2539  0.2834 -1.2473
13645SOL     OW43827   7.836   3.215   0.292 -0.3822 -0.1907  0.6700
13645SOL    HW143828   7.925   3.182   0.288 -0.8695 -1.5189  0.1166
13645SOL    HW243829   7.821   3.232   0.385  0.1889 -0.7090  0.8638
13646SOL     OW43830   1.744   1.899   1.590  0.2288  0.0942 -0.3764
13646SOL    HW143831   1.766   1.878   1.499 -1.1991  0.2825 -0.7912
13646SOL    HW243832   1.757   1.818   1.637 -1.2770 -0.6711 -1.2057
13647SOL     OW43833   1.623   7.232   0.034 -0.6280 -0.1423  0.4072
13647SOL    HW143834   1.670   7.151   0.052 -1.7670 -0.9930 -0.3145
13647SOL    HW243835   1.610   7.272   0.120  1.7489  0.3498  0.5936
13648SOL     OW43836   5.448   2.514   2.128  0.4714 -0.3711 -0.1601
13648SOL    HW143837   5.478   2.533   2.039  0.3050 -1.1944 -0.3971
13648SOL    HW243838   5.352   2.520   2.122  0.4405 -0.8553 -0.1356
13649SOL     OW43839   5.611   8.148   0.108 -0.6284  0.2715 -0.0021
13649SOL    HW143840   5.551   8.083   0.073 -1.6896  1.0744  0.2771
13649SOL    HW243841   5.614   8.131   0.202 -1.0528  0.7375  0.0976
13650SOL     OW43842   2.765   5.860  10.701 -0.4542  0.6681  0.0219
13650SOL    HW143843   2.826   5.917  10.748  2.3113 -0.9602 -1.3295
13650SOL    HW243844   2.702   5.921  10.661  0.7927  2.5394  0.7547
13651SOL     OW43845   5.902   1.706   7.971  0.0563  0.1841 -0.2299
13651SOL    HW143846   5.930   1.781   8.023  0.7602  0.0335 -0.3750
13651SOL    HW243847   5.950   1.632   8.009  0.6847  0.0961 -1.1671
13652SOL     OW43848   7.548   3.085   7.687 -0.0389  0.7442 -0.0602
13652SOL    HW143849   7.546   2.989   7.685  2.1765  0.5850  1.8593
13652SOL    HW243850   7.624   3.108   7.634 -0.5485  1.4570 -0.4947
13653SOL     OW43851   3.606   9.731   6.302 -0.2108  0.5095  0.4115
13653SOL    HW143852   3.576   9.678   6.376 -3.2118 -0.0716 -1.0721
13653SOL    HW243853   3.639   9.667   6.239 -1.8743  0.5011 -0.5150
13654SOL     OW43854   4.302   9.475   7.743  0.2407  0.1390  0.3976
13654SOL    HW143855   4.369   9.416   7.707 -0.8165 -0.5848 -0.4323
13654SOL    HW243856   4.263   9.427   7.815 -1.0631 -0.4720 -0.6857
13655SOL     OW43857   5.451   3.789   0.853 -0.1076  0.7312  0.3366
13655SOL    HW143858   5.469   3.700   0.884 -0.9635  0.5660  0.3761
13655SOL    HW243859   5.459   3.844   0.932  1.0513  0.7902  0.1922
13656SOL     OW43860   6.313   3.230   5.164 -0.2536  0.4659  0.8785
13656SOL    HW143861   6.272   3.157   5.211  1.0781 -0.3336  0.8384
13656SOL    HW243862   6.270   3.229   5.078  1.1928 -1.6841  0.0928
13657SOL     OW43863   4.047   9.273   5.161 -0.2138 -0.0232 -0.5652
13657SOL    HW143864   3.996   9.290   5.082  1.8167  0.5185 -1.8561
13657SOL    HW243865   4.094   9.354   5.177  0.2955 -0.5083  0.5192
13658SOL     OW43866  10.053   6.083   4.750 -0.7335  0.3353 -0.4009
13658SOL    HW143867   9.977   6.025   4.748 -0.3304 -0.4329  2.2489
13658SOL    HW243868  10.024   6.158   4.804 -0.0852  0.7704 -0.6489
13659SOL     OW43869   5.625   0.412   3.744 -0.0845  0.2781  0.3658
13659SOL    HW143870   5.715   0.423   3.714  0.7046 -1.5047  1.8842
13659SOL    HW243871   5.584   0.359   3.675  0.9601 -1.5149  1.0347
13660SOL     OW43872   4.302   1.079   9.725 -0.4546 -0.2946  0.3151
13660SOL    HW143873   4.228   1.023   9.748  1.2199 -2.1029  1.6968
13660SOL    HW243874   4.299   1.084   9.629 -1.3151 -1.9024  0.2112
13661SOL     OW43875   2.386   9.966   8.633  0.3751  0.2480  0.3898
13661SOL    HW143876   2.309   9.980   8.578 -0.0882  0.9071  1.1851
13661SOL    HW243877   2.367  10.015   8.713  0.6818 -1.3208  1.4621
13662SOL     OW43878   0.637   1.394   4.103 -0.3071 -0.2398  0.4146
13662SOL    HW143879   0.555   1.441   4.085  0.8898  1.6067 -0.5728
13662SOL    HW243880   0.675   1.441   4.178 -1.0463 -2.3590  2.2238
13663SOL     OW43881   1.351   6.287   9.383 -0.0874  0.7937  0.5436
13663SOL    HW143882   1.442   6.300   9.357 -0.1310 -0.4257 -0.3150
13663SOL    HW243883   1.303   6.354   9.335  0.3491  1.4684  1.0326
13664SOL     OW43884   6.110   1.606   3.611  0.0844  0.3214  0.2252
13664SOL    HW143885   6.168   1.547   3.563 -1.4864  0.3146 -1.8012
13664SOL    HW243886   6.122   1.581   3.703  1.8574 -0.9281 -0.2797
13665SOL     OW43887   9.880   3.562   7.168  0.5359 -0.3873  0.0713
13665SOL    HW143888   9.965   3.590   7.201  0.3990 -0.0381  0.1359
13665SOL    HW243889   9.833   3.644   7.150  0.4481 -0.5732 -0.5714
13666SOL     OW43890   6.278   9.307   5.179 -0.7320  0.3907 -0.1159
13666SOL    HW143891   6.237   9.226   5.148 -1.3917  0.4295  0.6300
13666SOL    HW243892   6.326   9.341   5.103 -2.1777  0.4059 -1.0484
13667SOL     OW43893  10.432   4.877   0.526  0.3853  0.6967  0.0186
13667SOL    HW143894  10.360   4.836   0.575  0.9465  0.1915  0.4364
13667SOL    HW243895  10.443   4.820   0.449 -0.2638  1.2929 -0.5281
13668SOL     OW43896   2.316   6.363   2.028  0.4857  0.1336 -0.1497
13668SOL    HW143897   2.338   6.335   1.939 -0.0974 -0.2949 -0.1650
13668SOL    HW243898   2.343   6.290   2.083 -0.9573 -0.4503 -0.1795
13669SOL     OW43899   7.699   3.486  10.104  0.7177  0.4831  0.0721
13669SOL    HW143900   7.631   3.504  10.168  0.1698 -0.2196 -0.2996
13669SOL    HW243901   7.724   3.395  10.121 -0.0543 -0.0036 -1.2746
13670SOL     OW43902   8.494   2.792  10.548 -0.6604  0.2460  0.2466
13670SOL    HW143903   8.400   2.792  10.528 -0.7114  0.7240  0.4675
13670SOL    HW243904   8.536   2.814  10.465 -0.8342  1.5297  0.4717
13671SOL     OW43905   2.462   9.861   4.479  0.0105 -0.1012  0.3110
13671SOL    HW143906   2.464   9.875   4.573  0.6091  3.0873 -0.0674
13671SOL    HW243907   2.369   9.855   4.457 -0.1432 -0.4060  1.0305
13672SOL     OW43908   1.119   1.147   2.195 -0.7589 -0.6737  0.1925
13672SOL    HW143909   1.192   1.090   2.170  0.8516  0.0907  2.7431
13672SOL    HW243910   1.136   1.229   2.150 -0.5125 -0.7534  0.1378
13673SOL     OW43911   7.665   6.193   8.086  0.0076  0.2110 -0.3142
13673SOL    HW143912   7.591   6.173   8.144  0.1961  0.2275 -0.0638
13673SOL    HW243913   7.673   6.289   8.091  0.3023  0.1723 -0.0197
13674SOL     OW43914   6.046   9.240   3.862 -0.4298 -0.0866 -0.3261
13674SOL    HW143915   6.003   9.311   3.814 -0.2750  0.5110  0.3956
13674SOL    HW243916   6.061   9.277   3.949 -0.7913 -1.1874  0.2087
13675SOL     OW43917   4.078   3.454   6.416  0.0715 -0.2796  0.3067
13675SOL    HW143918   4.097   3.369   6.377 -2.1915 -0.5698 -0.3039
13675SOL    HW243919   3.991   3.478   6.381 -0.5908  0.9834  2.6258
13676SOL     OW43920   9.068   7.717   2.685  0.0213  0.4906 -0.2955
13676SOL    HW143921   9.154   7.758   2.678  1.2858 -1.8092  0.4780
13676SOL    HW243922   9.042   7.731   2.776  0.8342 -0.9413  0.2077
13677SOL     OW43923   4.495   4.256   3.172  0.0348 -0.5347 -0.6724
13677SOL    HW143924   4.478   4.165   3.199 -1.2715 -0.2857 -0.5651
13677SOL    HW243925   4.414   4.302   3.193  0.4235  0.5116 -1.3897
13678SOL     OW43926   8.666   0.085   1.911 -0.0840  0.4256 -0.0559
13678SOL    HW143927   8.586   0.101   1.861  0.1475  1.3070 -0.1605
13678SOL    HW243928   8.736   0.124   1.858  0.2328  0.9042  0.6907
13679SOL     OW43929   9.230   7.308   4.509 -0.1234  0.2094 -0.2638
13679SOL    HW143930   9.193   7.227   4.474 -0.7113 -0.1111  1.0614
13679SOL    HW243931   9.324   7.293   4.511 -0.2327 -0.4566  0.0026
13680SOL     OW43932   2.602   5.058   2.410 -0.1862  0.0594  0.1019
13680SOL    HW143933   2.616   5.151   2.390 -2.1812  0.4830  0.4677
13680SOL    HW243934   2.654   5.042   2.488 -0.2357  1.0293  0.3439
13681SOL     OW43935   8.049   0.194   6.499 -0.0362  0.1335 -0.7131
13681SOL    HW143936   8.014   0.121   6.552  0.8600  0.7018  0.7232
13681SOL    HW243937   7.977   0.217   6.440 -0.6277 -1.3736 -0.6279
13682SOL     OW43938   5.523   4.266   1.077 -0.3208 -0.0024  0.3861
13682SOL    HW143939   5.511   4.179   1.115 -1.7231  1.2756  3.1920
13682SOL    HW243940   5.617   4.272   1.059 -0.1925 -2.0481  0.1825
13683SOL     OW43941   0.860   0.122  10.433  0.3642 -0.2621  0.2834
13683SOL    HW143942   0.810   0.079  10.502 -0.8134 -1.0817 -1.0414
13683SOL    HW243943   0.907   0.051  10.390  1.6492  0.3359  0.6609
13684SOL     OW43944  10.528   7.924   0.808 -0.4296 -0.0057  0.1909
13684SOL    HW143945  10.596   7.955   0.748 -1.0459  1.1899  0.0809
13684SOL    HW243946  10.557   7.956   0.894 -1.1315  1.0471  0.0587
13685SOL     OW43947   9.470   5.025   6.348  0.5857  0.2134 -0.1135
13685SOL    HW143948   9.491   5.062   6.433 -0.2480 -0.3814  0.3739
13685SOL    HW243949   9.437   5.098   6.296  0.3900  0.4366  0.3273
13686SOL     OW43950   9.073   5.565   5.814  0.0923 -0.0827  0.2766
13686SOL    HW143951   8.996   5.619   5.831 -0.3307  0.1664 -2.1637
13686SOL    HW243952   9.145   5.628   5.802 -0.3876  0.0307 -2.4955
13687SOL     OW43953   8.894   8.668   1.671  0.5090 -0.3500  0.5088
13687SOL    HW143954   8.957   8.736   1.692 -0.8796  1.2339 -0.2096
13687SOL    HW243955   8.817   8.688   1.724 -0.3835 -0.5853 -0.6354
13688SOL     OW43956   2.152   9.825  10.487  0.6213 -0.0841  0.0978
13688SOL    HW143957   2.110   9.872  10.558  1.1065 -0.1243  0.4142
13688SOL    HW243958   2.166   9.891  10.419 -0.6493 -0.2248 -0.3370
13689SOL     OW43959   7.613   8.868   5.414  0.3707 -0.0993  0.1099
13689SOL    HW143960   7.628   8.773   5.415 -1.0789 -0.3497  0.2117
13689SOL    HW243961   7.658   8.898   5.335  1.0376 -0.8196  0.1924
13690SOL     OW43962  10.222   2.854   8.418 -0.1406 -0.3412 -0.2392
13690SOL    HW143963  10.314   2.855   8.443 -0.0317  1.1844 -0.6037
13690SOL    HW243964  10.222   2.881   8.326 -0.9115 -0.8262 -0.3879
13691SOL     OW43965   4.171   1.066   3.403  0.1329 -0.5207 -0.1661
13691SOL    HW143966   4.259   1.047   3.371  0.5870 -1.2346  1.4076
13691SOL    HW243967   4.139   1.135   3.344  1.8316 -0.0668 -0.6281
13692SOL     OW43968   2.692   1.866   0.330 -0.2062  0.2960 -0.2251
13692SOL    HW143969   2.709   1.948   0.283 -1.3433  0.3001 -0.6726
13692SOL    HW243970   2.599   1.872   0.354 -0.3683 -0.9801 -0.4989
13693SOL     OW43971   8.928   7.709   7.557  0.0031  0.0062 -0.3814
13693SOL    HW143972   8.961   7.619   7.553 -1.0908 -0.3826 -1.1750
13693SOL    HW243973   8.834   7.701   7.540 -0.1016  1.3040 -0.5270
13694SOL     OW43974   3.876   5.782   5.381  0.7302  0.2882  0.0985
13694SOL    HW143975   3.924   5.862   5.401  2.6558 -0.0426 -2.5704
13694SOL    HW243976   3.918   5.748   5.302 -2.2430 -1.5239 -0.8842
13695SOL     OW43977   1.182   4.482   5.854  0.1840  0.6650 -0.6189
13695SOL    HW143978   1.101   4.523   5.884 -0.3703  0.1999 -1.4592
13695SOL    HW243979   1.219   4.545   5.792  0.3555  0.7848 -0.3935
13696SOL     OW43980   4.424   7.752   5.013 -0.2707  0.0848 -0.5641
13696SOL    HW143981   4.420   7.838   5.055  1.4024  0.6057 -1.3764
13696SOL    HW243982   4.340   7.743   4.969 -0.5516  1.2118 -0.2871
13697SOL     OW43983  10.404   9.787   6.833 -0.9307  0.2064  0.0804
13697SOL    HW143984  10.374   9.876   6.852 -0.4260  1.0250 -2.6137
13697SOL    HW243985  10.368   9.766   6.747  0.5641 -1.4350 -0.2198
13698SOL     OW43986   1.878   7.796   1.309 -0.3151  0.4119 -0.3325
13698SOL    HW143987   1.797   7.760   1.272  1.2175 -3.9887 -0.0786
13698SOL    HW243988   1.926   7.830   1.234 -1.6802  1.5669 -0.7165
13699SOL     OW43989   7.863   5.342   0.105 -0.0785 -0.1072  0.5474
13699SOL    HW143990   7.893   5.252   0.111 -0.8258 -0.3929  0.0944
13699SOL    HW243991   7.792   5.340   0.040 -1.5525  0.4175  2.0792
13700SOL     OW43992   6.789   8.579   4.977  0.3970 -0.4244 -0.3512
13700SOL    HW143993   6.837   8.496   4.974  1.6835  0.3186 -1.6392
13700SOL    HW243994   6.786   8.603   5.070  3.0636 -0.2247 -0.2468
13701SOL     OW43995   3.973   4.372   4.416  0.0994 -0.4376  0.4753
13701SOL    HW143996   3.930   4.401   4.496  1.1047 -1.6529  1.4879
13701SOL    HW243997   4.066   4.385   4.433  0.2632  1.8965 -1.5760
13702SOL     OW43998   6.315   5.196   4.102  0.1873 -0.5760  0.0997
13702SOL    HW143999   6.373   5.127   4.069  1.8640  0.4676  0.7238
13702SOL    HW244000   6.258   5.151   4.164  0.4488 -1.6145 -0.3757
13703SOL     OW44001   9.351   3.834   8.079 -0.5694 -0.5901  0.1581
13703SOL    HW144002   9.271   3.861   8.034  0.4069  0.4566 -1.0465
13703SOL    HW244003   9.342   3.739   8.089 -0.3633 -1.1432 -3.4783
13704SOL     OW44004   4.951   1.226   3.448  0.0497 -0.1332 -0.0611
13704SOL    HW144005   4.870   1.273   3.469  0.8477  0.8494  0.8904
13704SOL    HW244006   5.017   1.295   3.437  1.2935 -1.0115  1.5254
13705SOL     OW44007   7.408   1.922   0.246  0.5846  0.1025 -0.3588
13705SOL    HW144008   7.399   1.995   0.183  0.1426  0.5349  0.1965
13705SOL    HW244009   7.461   1.958   0.317  0.7643 -0.2709 -0.3027
13706SOL     OW44010   4.945   3.546   9.757  0.5274  0.5059 -0.3155
13706SOL    HW144011   4.854   3.531   9.733 -0.5559 -0.3225  3.4996
13706SOL    HW244012   4.981   3.458   9.771  1.5982  0.8586 -0.7253
13707SOL     OW44013   4.893   6.332   9.209  0.3681 -0.2971 -0.4133
13707SOL    HW144014   4.906   6.418   9.249  0.1903 -0.6575  0.4342
13707SOL    HW244015   4.980   6.291   9.212  0.3181 -0.3905 -0.2375
13708SOL     OW44016   5.889   6.832   2.514 -0.1258 -0.1267  0.2114
13708SOL    HW144017   5.923   6.810   2.601  1.6216 -0.1698 -0.4320
13708SOL    HW244018   5.955   6.889   2.476 -0.1255 -1.2421 -1.6172
13709SOL     OW44019   7.495   2.440   3.710 -0.1160  0.3690  0.0218
13709SOL    HW144020   7.447   2.372   3.664  0.0139 -0.4820  1.0978
13709SOL    HW244021   7.502   2.407   3.800  1.3539  1.0656  0.1819
13710SOL     OW44022  10.195   9.162   6.329  0.0701 -0.3320  0.0212
13710SOL    HW144023  10.117   9.107   6.338  0.7885 -1.3022  0.5705
13710SOL    HW244024  10.176   9.220   6.255 -1.2407 -0.4134  0.2772
13711SOL     OW44025   2.231   2.480   0.445 -0.1277 -0.6328 -0.5442
13711SOL    HW144026   2.173   2.551   0.472  0.7693  1.2859 -3.2037
13711SOL    HW244027   2.174   2.421   0.395 -0.6042 -1.1213  0.5380
13712SOL     OW44028   9.171   5.264   1.534  0.2024  0.7793 -0.8592
13712SOL    HW144029   9.112   5.233   1.467 -0.3185  1.4290 -0.7162
13712SOL    HW244030   9.242   5.307   1.486  0.1390  0.7194 -1.0063
13713SOL     OW44031   0.658  10.431   7.241  0.0161 -0.3783 -0.2322
13713SOL    HW144032   0.672  10.341   7.210 -1.1235 -0.2745 -1.1185
13713SOL    HW244033   0.743  10.458   7.276  0.4622 -1.6832 -0.2573
13714SOL     OW44034   2.193   0.862   7.442  0.0849 -0.1112 -0.3527
13714SOL    HW144035   2.243   0.903   7.371  1.5461  1.1156  1.3067
13714SOL    HW244036   2.230   0.774   7.450 -0.2060 -0.3207 -1.1837
13715SOL     OW44037   6.256   8.007   7.952  0.2174  0.6173 -0.1251
13715SOL    HW144038   6.167   7.972   7.949  0.4087  0.0101  0.8969
13715SOL    HW244039   6.297   7.977   7.871 -0.7603  1.6382 -1.0233
13716SOL     OW44040   6.078   2.513   3.867  0.2912  0.6139  0.3898
13716SOL    HW144041   5.983   2.500   3.860  0.3106  1.2335 -1.9240
13716SOL    HW244042   6.113   2.475   3.787  1.9471  0.9385  0.9308
13717SOL     OW44043   8.222   2.516   4.905 -0.1329 -0.1781 -0.3269
13717SOL    HW144044   8.153   2.484   4.962 -0.7870 -1.8884 -1.9988
13717SOL    HW244045   8.300   2.516   4.960 -0.3817 -3.4333  0.1984
13718SOL     OW44046   1.138   9.173   6.954  0.3108 -0.0384 -0.3857
13718SOL    HW144047   1.136   9.089   6.907  3.1078 -0.5518  0.2264
13718SOL    HW244048   1.222   9.173   7.000 -1.4620  1.2309  3.2362
13719SOL     OW44049   6.833  10.483  10.437 -0.1286 -0.2053 -0.2559
13719SOL    HW144050   6.815  10.396  10.403 -1.2219 -0.0813 -0.0240
13719SOL    HW244051   6.835  10.539  10.359 -3.5359  0.2382 -0.1877
13720SOL     OW44052   4.512   7.358   5.098 -0.0470  0.1185  0.0799
13720SOL    HW144053   4.422   7.368   5.128  0.0171 -0.3301  0.4333
13720SOL    HW244054   4.518   7.413   5.020  0.0054  1.9691  1.3139
13721SOL     OW44055   8.304   7.930   3.844 -0.1463 -0.2934 -0.5457
13721SOL    HW144056   8.323   7.856   3.901  0.3295  1.3776  1.6109
13721SOL    HW244057   8.378   7.933   3.783  1.0091 -0.2926  0.8091
13722SOL     OW44058   0.587   4.448   6.296 -0.0939 -0.4579  0.1304
13722SOL    HW144059   0.597   4.354   6.312  1.3077 -0.1417  1.3377
13722SOL    HW244060   0.531   4.478   6.368  0.2453 -0.2243  0.2997
13723SOL     OW44061   8.172   9.857   2.893  0.0497  0.3020 -0.0033
13723SOL    HW144062   8.089   9.850   2.941 -0.8598  0.9039 -1.3981
13723SOL    HW244063   8.200   9.767   2.879  0.1438  0.1137  1.3112
13724SOL     OW44064   2.316   0.143   5.778 -0.1695 -0.2718 -0.6736
13724SOL    HW144065   2.271   0.221   5.811  0.6295 -0.7799  1.8065
13724SOL    HW244066   2.368   0.175   5.704  0.5188  1.6990  0.5773
13725SOL     OW44067   7.870   7.944   5.694 -0.0743 -0.2064 -0.2500
13725SOL    HW144068   7.869   7.849   5.701 -0.0870 -0.2103 -0.3006
13725SOL    HW244069   7.930   7.973   5.763 -1.4574 -0.1577  0.9952
13726SOL     OW44070   7.346   1.085   2.677 -0.8729 -0.2464 -0.4233
13726SOL    HW144071   7.317   1.137   2.752  0.0802 -1.3353  0.7414
13726SOL    HW244072   7.367   1.149   2.609  0.3076  0.9243  0.9887
13727SOL     OW44073   7.877   3.768   3.687 -0.0200 -0.1355  0.0549
13727SOL    HW144074   7.843   3.840   3.634 -1.0045 -0.4897  0.1972
13727SOL    HW244075   7.826   3.692   3.661 -0.6720 -0.2863  1.6457
13728SOL     OW44076   9.731   7.900   1.572 -0.2221 -0.0421  0.2383
13728SOL    HW144077   9.797   7.840   1.538 -1.0474 -0.4518 -0.6966
13728SOL    HW244078   9.714   7.871   1.662  0.7581 -0.0113  0.4388
13729SOL     OW44079   2.659   8.133   7.755  0.2107 -0.6332 -0.3855
13729SOL    HW144080   2.737   8.157   7.706  0.3393  1.7294  0.8125
13729SOL    HW244081   2.586   8.164   7.702  0.2577  0.0549 -0.0606
13730SOL     OW44082   2.762   7.301   3.382 -0.0271 -0.0423  0.4494
13730SOL    HW144083   2.710   7.322   3.305  2.3646  0.7803 -1.0567
13730SOL    HW244084   2.843   7.263   3.347  1.6322  1.3930  2.4118
13731SOL     OW44085   7.806   9.354   0.207 -0.3511 -0.0656 -0.6166
13731SOL    HW144086   7.793   9.449   0.201 -1.7426 -0.3045 -2.1166
13731SOL    HW244087   7.852   9.341   0.290 -1.7715  1.7834  0.5528
13732SOL     OW44088   5.402   1.878   3.700 -0.0265  0.2049 -0.9698
13732SOL    HW144089   5.452   1.818   3.645  0.2148 -2.0966  1.5412
13732SOL    HW244090   5.465   1.910   3.765 -0.5460  1.9448 -1.2559
13733SOL     OW44091   9.090   6.087   2.432  0.2065  0.4482 -0.3795
13733SOL    HW144092   9.174   6.045   2.450  0.2757  0.8742  0.3385
13733SOL    HW244093   9.059   6.044   2.352  1.4192  0.7495 -1.0556
13734SOL     OW44094   3.629   4.218   6.637  0.1801 -0.7299  0.2029
13734SOL    HW144095   3.551   4.177   6.598 -0.9419  1.1240  0.3662
13734SOL    HW244096   3.626   4.308   6.605  1.8886 -0.4310  0.8141
13735SOL     OW44097   8.802   0.302   1.178  0.1050 -0.2312  0.2589
13735SOL    HW144098   8.849   0.228   1.139 -0.1163 -0.0850 -0.2933
13735SOL    HW244099   8.864   0.339   1.240  0.7145 -0.0625 -0.4351
13736SOL     OW44100   4.801  10.044   3.307 -0.0579  0.5556  1.6221
13736SOL    HW144101   4.827   9.999   3.226  1.0243 -0.9292  2.7352
13736SOL    HW244102   4.778  10.133   3.279  1.0458  0.3168 -0.1960
13737SOL     OW44103   9.401   2.376  10.319  0.5743 -0.9751  0.1286
13737SOL    HW144104   9.478   2.404  10.270 -0.7272 -0.0553 -1.5031
13737SOL    HW244105   9.365   2.457  10.356  0.7250 -1.4782  1.4314
13738SOL     OW44106   8.799   2.084  10.302  0.1564 -0.2133 -0.3959
13738SOL    HW144107   8.797   2.175  10.330 -0.7863 -0.1646 -0.6120
13738SOL    HW244108   8.807   2.034  10.383  0.7712  0.0579 -0.2841
13739SOL     OW44109   5.239   0.359   2.255  0.0660 -0.3671  0.0887
13739SOL    HW144110   5.163   0.304   2.276 -0.5866  0.5021  0.0939
13739SOL    HW244111   5.254   0.410   2.335 -0.5945  0.8724 -0.5436
13740SOL     OW44112   8.587   4.381   9.865  0.0339  0.0593  0.6791
13740SOL    HW144113   8.669   4.417   9.831  0.6182 -1.5758  0.2536
13740SOL    HW244114   8.537   4.457   9.893  1.7710  1.0869  1.1179
13741SOL     OW44115   9.439   1.694   8.199 -0.2310  0.2461  0.2200
13741SOL    HW144116   9.418   1.735   8.115  3.6287  0.6627 -0.7565
13741SOL    HW244117   9.406   1.755   8.265 -1.3459  1.0580 -1.0528
13742SOL     OW44118   3.322   0.817   5.449 -0.1144  0.4962  0.5633
13742SOL    HW144119   3.302   0.821   5.355  1.0623  0.8504  0.3143
13742SOL    HW244120   3.289   0.731   5.476  1.5258 -0.5875 -0.6752
13743SOL     OW44121   9.383   4.659  10.542  0.2799 -0.3493 -0.2354
13743SOL    HW144122   9.438   4.631  10.469 -0.4947 -1.0752 -0.5549
13743SOL    HW244123   9.303   4.690  10.501  0.1146 -0.0831  0.2749
13744SOL     OW44124   7.049   0.323   4.913  0.3043  0.0673 -0.0832
13744SOL    HW144125   7.040   0.373   4.832  0.6483  0.4944  0.1409
13744SOL    HW244126   7.137   0.284   4.907  0.9307  1.3084  0.7524
13745SOL     OW44127   1.731   0.613   1.484 -0.3746 -0.2522  0.4356
13745SOL    HW144128   1.712   0.525   1.516  1.7203 -1.5205 -1.5395
13745SOL    HW244129   1.704   0.671   1.556 -0.3116 -2.5677  2.4590
13746SOL     OW44130   6.808  10.377   2.260 -0.3263  0.6698  0.1150
13746SOL    HW144131   6.834  10.286   2.249  0.7097  0.7897  1.3003
13746SOL    HW244132   6.745  10.376   2.333 -0.6736  0.8464 -0.1803
13747SOL     OW44133   9.191   3.627   1.510  0.2545  0.4191 -0.0524
13747SOL    HW144134   9.240   3.546   1.504 -2.1666 -1.5096  2.8532
13747SOL    HW244135   9.153   3.640   1.423 -0.3264 -2.3478 -0.2944
13748SOL     OW44136   7.699  10.759   0.159 -0.3987  0.2290  0.3814
13748SOL    HW144137   7.749  10.750   0.077  0.7108  0.7343  0.9796
13748SOL    HW244138   7.654  10.675   0.169  0.7569 -0.4475  0.0877
13749SOL     OW44139   6.031   9.750   1.479  0.1028 -0.1305 -0.0216
13749SOL    HW144140   6.080   9.691   1.422  0.9732  1.6117 -1.1590
13749SOL    HW244141   6.032   9.834   1.434 -0.4355  0.9749  1.8961
13750SOL     OW44142   0.279   3.787   6.760 -0.0231 -0.1039 -0.3592
13750SOL    HW144143   0.338   3.713   6.743 -1.0280 -0.8413 -0.7283
13750SOL    HW244144   0.208   3.776   6.698 -0.4499  0.8987 -0.0661
13751SOL     OW44145   5.263   8.921   5.256  0.0854 -0.1453  0.2970
13751SOL    HW144146   5.262   8.826   5.245 -0.8044 -0.0201 -0.9415
13751SOL    HW244147   5.191   8.940   5.316  0.4554 -0.2656  0.7861
13752SOL     OW44148   3.456   5.244   6.721  0.1211  0.2735 -0.0425
13752SOL    HW144149   3.488   5.183   6.654 -2.0508 -0.2274 -0.7228
13752SOL    HW244150   3.453   5.329   6.677 -0.2988  0.1416 -0.2855
13753SOL     OW44151   0.612   5.974   4.362 -0.9955  0.3576  0.1265
13753SOL    HW144152   0.522   5.944   4.354 -1.8653  2.8425 -0.4159
13753SOL    HW244153   0.652   5.952   4.278 -1.6613  0.8416 -0.3310
13754SOL     OW44154   0.199   7.973   9.311 -0.2753  0.0465 -0.2429
13754SOL    HW144155   0.271   7.910   9.304  0.2238  0.6726 -0.8912
13754SOL    HW244156   0.168   7.963   9.401  0.5991 -0.2612  0.0380
13755SOL     OW44157   8.682   6.119   0.756 -0.1001  0.2272  0.3242
13755SOL    HW144158   8.683   6.161   0.670 -0.1065  0.9325  0.6706
13755SOL    HW244159   8.642   6.033   0.739  0.8855 -0.0749 -0.5630
13756SOL     OW44160   4.570  10.183  10.642  0.0520  0.4331 -0.0092
13756SOL    HW144161   4.562  10.263  10.695 -0.4165 -0.8906  2.0599
13756SOL    HW244162   4.550  10.211  10.553 -0.8678  2.4773  0.7720
13757SOL     OW44163   5.722   7.293   4.225  0.5732 -0.2412  0.0239
13757SOL    HW144164   5.799   7.243   4.255  0.5798 -0.6089 -0.5971
13757SOL    HW244165   5.680   7.321   4.306 -0.6342 -3.0659  0.5123
13758SOL     OW44166   5.242  10.500   8.260  0.1615  0.8862  0.4191
13758SOL    HW144167   5.179  10.428   8.267 -0.3003  1.2192 -0.2819
13758SOL    HW244168   5.248  10.535   8.349  2.0590 -1.3967  1.3023
13759SOL     OW44169   3.369   2.035   3.475 -0.1084 -0.4181 -0.1279
13759SOL    HW144170   3.426   1.990   3.413 -0.9927 -0.5888 -0.8349
13759SOL    HW244171   3.353   2.121   3.436  0.9441  0.2492  0.8431
13760SOL     OW44172   7.975   6.457   4.517  0.3977 -0.6432 -0.2736
13760SOL    HW144173   7.935   6.373   4.542 -0.2512  0.0721  1.2496
13760SOL    HW244174   7.984   6.453   4.422 -0.1108 -2.2209 -0.2755
13761SOL     OW44175   5.432   5.250   9.108  0.4669 -0.2980 -0.0411
13761SOL    HW144176   5.497   5.304   9.152  1.2339 -0.9431 -0.3610
13761SOL    HW244177   5.378   5.312   9.059  1.1830  0.2061 -0.2050
13762SOL     OW44178   6.210  10.499   7.794  0.1522 -0.2843 -0.2113
13762SOL    HW144179   6.285  10.446   7.824  0.0607  0.3725  1.2319
13762SOL    HW244180   6.233  10.522   7.704  1.8860  0.2132  0.3112
13763SOL     OW44181   8.987   6.194   1.075  0.5895 -0.5363 -0.3549
13763SOL    HW144182   8.980   6.262   1.008  0.2575 -0.0203  0.1946
13763SOL    HW244183   8.987   6.242   1.158  3.2634 -0.9795 -0.0113
13764SOL     OW44184   5.359   8.722   1.228  0.8168 -0.4879  0.0320
13764SOL    HW144185   5.446   8.722   1.269  0.6518  0.9950  0.4565
13764SOL    HW244186   5.355   8.806   1.182 -0.9442  0.2029  1.3062
13765SOL     OW44187   3.315   8.879   1.493  0.4824 -0.0899 -0.2396
13765SOL    HW144188   3.329   8.835   1.409  0.7407  0.4851 -0.5077
13765SOL    HW244189   3.249   8.946   1.474  2.3595  1.7691 -0.6411
13766SOL     OW44190   1.665   2.090   9.141 -0.3615 -0.0821  0.5959
13766SOL    HW144191   1.753   2.121   9.121 -0.8832  2.2617  1.5402
13766SOL    HW244192   1.678   2.009   9.190  1.1957 -0.5741 -0.5695
13767SOL     OW44193   9.622   2.252   7.802  0.7812  0.3226 -0.5824
13767SOL    HW144194   9.590   2.165   7.778  1.8712 -0.2473 -0.0506
13767SOL    HW244195   9.586   2.310   7.735 -0.1147 -0.5008 -0.8439
13768SOL     OW44196   6.675   1.754   3.444  0.0125  0.3399 -0.1572
13768SOL    HW144197   6.608   1.689   3.465  0.6562 -0.2139  0.2420
13768SOL    HW244198   6.630   1.818   3.389 -0.4567 -0.8244 -1.1686
13769SOL     OW44199   8.123   7.159   8.544 -0.1332  0.3038  0.4362
13769SOL    HW144200   8.111   7.163   8.639  1.0297 -1.1023  0.6669
13769SOL    HW244201   8.077   7.080   8.517 -0.3213  0.6092 -0.1653
13770SOL     OW44202   6.761   3.337   5.274 -0.2360 -0.3248  0.4408
13770SOL    HW144203   6.768   3.431   5.288  1.1809  0.3091 -3.3277
13770SOL    HW244204   6.704   3.328   5.197  2.8853 -2.0705 -1.9400
13771SOL     OW44205   2.774   3.945   2.100 -0.2456  0.5375  0.6219
13771SOL    HW144206   2.747   3.853   2.096  1.5512  0.0040 -0.2056
13771SOL    HW244207   2.786   3.962   2.193 -0.9447  0.0395  0.8079
13772SOL     OW44208   7.746   2.852   1.688 -0.0007  0.4458 -0.0723
13772SOL    HW144209   7.710   2.906   1.617 -0.5656  1.5512  1.0101
13772SOL    HW244210   7.718   2.897   1.768 -0.2984 -1.3542  0.8820
13773SOL     OW44211   5.398   4.981   6.842  0.2289 -0.2669 -0.8237
13773SOL    HW144212   5.422   5.067   6.876  2.0065 -1.3568  0.8749
13773SOL    HW244213   5.403   4.990   6.747  0.6010  1.4360 -0.6694
13774SOL     OW44214   0.969   3.150   3.777 -0.2854 -0.3304 -0.6829
13774SOL    HW144215   0.999   3.059   3.780 -1.3623 -0.6811  0.4427
13774SOL    HW244216   0.893   3.152   3.835 -1.2048  0.9605 -1.8523
13775SOL     OW44217  10.303   6.152   7.301  0.1750  0.2683  0.0470
13775SOL    HW144218  10.250   6.078   7.271 -0.3358  0.5978  0.1341
13775SOL    HW244219  10.353   6.179   7.224 -0.5903  0.6452 -0.3223
13776SOL     OW44220   3.588   1.878   0.998 -0.2291  0.1387 -0.2101
13776SOL    HW144221   3.538   1.954   0.968 -0.2852 -0.4001 -1.5572
13776SOL    HW244222   3.522   1.813   1.021 -0.1622  0.0133 -0.3746
13777SOL     OW44223   4.879   8.223   4.382  0.3761  0.1030 -0.5798
13777SOL    HW144224   4.910   8.140   4.419 -1.3747 -0.8336 -1.0749
13777SOL    HW244225   4.810   8.252   4.441 -0.9924 -0.3256 -1.8761
13778SOL     OW44226   2.206   7.815   0.849 -0.1119 -0.2494 -0.3935
13778SOL    HW144227   2.223   7.893   0.901  0.7453  1.1736 -2.7029
13778SOL    HW244228   2.270   7.817   0.779 -0.0962 -3.0333 -0.5980
13779SOL     OW44229   9.309   4.240   6.225  0.5854 -0.4524  0.4029
13779SOL    HW144230   9.306   4.327   6.185  0.0698 -0.0756  1.2383
13779SOL    HW244231   9.402   4.222   6.235  0.6945  0.3591  0.9613
13780SOL     OW44232   8.213   3.795  10.793 -0.1436 -0.1758 -0.1034
13780SOL    HW144233   8.201   3.859  10.723 -0.3819 -0.6781 -0.5312
13780SOL    HW244234   8.267   3.726  10.754  0.2173 -0.1753  0.3910
13781SOL     OW44235   6.555   8.450   3.160 -0.1204 -0.5018 -0.4940
13781SOL    HW144236   6.548   8.485   3.072 -2.2889 -0.1829 -0.2331
13781SOL    HW244237   6.476   8.398   3.173  1.2315 -2.4493  0.4827
13782SOL     OW44238   8.962   4.714   4.573  0.0841 -0.5449 -0.4252
13782SOL    HW144239   8.996   4.629   4.546 -0.0661 -0.8359  0.2824
13782SOL    HW244240   8.867   4.706   4.565  0.0670 -0.4658 -0.3027
13783SOL     OW44241   7.509   7.896   9.772  0.3536  0.9009 -0.3145
13783SOL    HW144242   7.452   7.964   9.809 -1.4693 -0.4178 -0.5274
13783SOL    HW244243   7.508   7.913   9.678  1.4927  1.7219 -0.1831
13784SOL     OW44244   7.318  10.702   4.680 -0.2857  0.9656 -0.5192
13784SOL    HW144245   7.264  10.780   4.670  1.9667  2.9446  1.3885
13784SOL    HW244246   7.293  10.665   4.765 -0.2267  0.5115 -0.6930
13785SOL     OW44247   5.503   2.570   6.079  0.1983 -0.0355  0.7608
13785SOL    HW144248   5.476   2.544   5.991 -0.3349 -1.2861  1.2578
13785SOL    HW244249   5.550   2.652   6.067  1.1758 -0.7846 -0.8233
13786SOL     OW44250   2.678   5.562   6.051 -0.1639  0.1615  0.4244
13786SOL    HW144251   2.711   5.630   5.991  1.7507  0.3849  1.6309
13786SOL    HW244252   2.587   5.548   6.025 -0.7393  3.4104  0.3278
13787SOL     OW44253   6.677   1.957   9.374 -0.2420  0.4877 -0.5835
13787SOL    HW144254   6.587   1.991   9.370 -0.3969  0.2487  0.4663
13787SOL    HW244255   6.703   1.948   9.283 -1.2866  0.5664 -0.9086
13788SOL     OW44256   0.940   4.768   6.533 -0.2480  0.1171 -0.0342
13788SOL    HW144257   0.935   4.746   6.626 -0.6227  0.9484  0.1508
13788SOL    HW244258   0.941   4.684   6.489 -0.7155 -0.2791  0.6924
13789SOL     OW44259   1.742   7.404   2.141  0.4201  0.1031  0.2691
13789SOL    HW144260   1.750   7.463   2.216  1.6179 -1.3681  1.3851
13789SOL    HW244261   1.665   7.350   2.162 -0.0658  0.5866 -0.2480
13790SOL     OW44262   0.940   1.864   5.883  0.1089 -0.0271  0.5985
13790SOL    HW144263   0.877   1.859   5.811  1.2286  0.8368 -0.4813
13790SOL    HW244264   0.890   1.902   5.955 -0.6293  0.5806 -0.2082
13791SOL     OW44265  10.047   0.640   2.976  0.0618  1.2870 -0.5738
13791SOL    HW144266   9.986   0.672   3.043 -1.3731  1.2033 -1.7877
13791SOL    HW244267  10.109   0.713   2.964  1.1923  0.8242  1.7192
13792SOL     OW44268   5.962   0.488   9.646  0.3074 -0.6156  0.0792
13792SOL    HW144269   5.985   0.417   9.707 -0.0794  2.3420  4.0396
13792SOL    HW244270   6.041   0.542   9.642  0.0022 -0.2380 -1.4197
13793SOL     OW44271   4.684   3.769   9.186  0.4654  0.0843  0.3043
13793SOL    HW144272   4.651   3.766   9.276 -0.4608 -0.1496 -0.0267
13793SOL    HW244273   4.758   3.709   9.186  0.1549 -0.3133  0.7942
13794SOL     OW44274   7.270   4.591   9.197 -0.3243  0.3529 -0.1826
13794SOL    HW144275   7.259   4.590   9.102 -0.0498 -1.2060 -0.2174
13794SOL    HW244276   7.217   4.518   9.229  0.8365 -0.1384  0.7061
13795SOL     OW44277   7.235   4.445   3.332 -0.2986 -0.3050 -0.5714
13795SOL    HW144278   7.236   4.361   3.377  0.6436  0.2512  0.5220
13795SOL    HW244279   7.145   4.455   3.300 -0.1710 -2.1490 -1.6190
13796SOL     OW44280   7.328   0.461   6.674 -0.2048  0.3539  0.1867
13796SOL    HW144281   7.377   0.499   6.748 -0.0233  1.3563 -0.4290
13796SOL    HW244282   7.382   0.480   6.598 -0.2812 -0.8807 -0.1852
13797SOL     OW44283   7.700   5.628   5.721 -0.1513 -0.1313 -0.2104
13797SOL    HW144284   7.757   5.596   5.651  1.9152 -1.1710  1.8105
13797SOL    HW244285   7.683   5.550   5.775 -2.7409  0.3579 -0.1653
13798SOL     OW44286   3.408   5.763  10.095 -0.1600  0.4514 -0.3216
13798SOL    HW144287   3.482   5.773  10.035  1.1983 -0.2888  1.1724
13798SOL    HW244288   3.368   5.679  10.069  0.6551 -0.0576  0.0234
13799SOL     OW44289   2.426   0.299   4.618 -0.5855  0.2128  0.3413
13799SOL    HW144290   2.495   0.329   4.676  0.3864  1.9105 -1.5828
13799SOL    HW244291   2.459   0.216   4.582 -0.4152  0.0642  0.8327
13800SOL     OW44292   3.682   8.156   9.073  0.3033  0.2334 -0.2233
13800SOL    HW144293   3.638   8.095   9.014 -2.1006  1.8213 -0.2143
13800SOL    HW244294   3.614   8.181   9.136  2.3092 -0.1013  2.2477
13801SOL     OW44295   4.084  10.628   4.158 -0.2752 -0.5051  0.1132
13801SOL    HW144296   4.058  10.619   4.249 -2.7366 -1.7165 -0.6370
13801SOL    HW244297   4.170  10.670   4.162 -1.3104  1.6903  2.8967
13802SOL     OW44298   3.463   1.121   3.031 -0.8429  0.1743 -0.4354
13802SOL    HW144299   3.474   1.122   2.936 -0.0185 -0.6977 -0.3612
13802SOL    HW244300   3.547   1.151   3.065 -1.1353  0.4838  0.0330
13803SOL     OW44301   4.102   1.358   6.535 -0.0273 -1.0255  0.3737
13803SOL    HW144302   4.012   1.343   6.507 -0.0244 -1.5827  0.6515
13803SOL    HW244303   4.112   1.453   6.534 -0.4831 -0.9766 -0.0781
13804SOL     OW44304   2.040   1.329   1.748 -0.8031  0.3119  0.1779
13804SOL    HW144305   2.016   1.416   1.780  2.1642  1.3208 -0.0470
13804SOL    HW244306   2.067   1.343   1.657 -1.4997 -1.0986 -0.2797
13805SOL     OW44307   5.824   5.300   1.049 -0.1682 -0.0202 -0.3806
13805SOL    HW144308   5.765   5.346   0.990  0.4797  0.7772 -0.4163
13805SOL    HW244309   5.795   5.325   1.137 -0.9952 -1.0372 -0.3366
13806SOL     OW44310   7.691  10.110   3.747 -0.0579 -0.0908  0.5560
13806SOL    HW144311   7.708  10.042   3.812 -1.1715 -1.3586 -0.4422
13806SOL    HW244312   7.610  10.083   3.704  0.5394  0.8146 -1.2418
13807SOL     OW44313   3.463   9.343   7.219  0.1514  0.4189  0.0534
13807SOL    HW144314   3.513   9.261   7.220  0.3948  0.5576  1.4565
13807SOL    HW244315   3.525   9.409   7.249 -0.1039  1.0923 -0.8630
13808SOL     OW44316   2.464   2.661   8.034 -0.2208 -0.0432 -0.0941
13808SOL    HW144317   2.462   2.719   8.110 -0.2062 -2.5144  1.9482
13808SOL    HW244318   2.372   2.649   8.010 -0.3485 -0.4514  0.5667
13809SOL     OW44319   5.101   5.436   2.503 -0.5978  0.5098  0.3102
13809SOL    HW144320   5.006   5.426   2.511 -0.4365 -0.9098  0.7297
13809SOL    HW244321   5.133   5.348   2.484  0.5300  1.1782 -1.1608
13810SOL     OW44322   3.499   3.872   8.618  0.0575  0.0794  0.5784
13810SOL    HW144323   3.410   3.838   8.609  0.3862 -0.4393 -1.3231
13810SOL    HW244324   3.547   3.802   8.661  0.0680 -0.7074 -0.6531
13811SOL     OW44325   4.267   9.105   2.666 -0.8117  0.7480  0.4223
13811SOL    HW144326   4.218   9.105   2.749  0.7145  1.6981  1.3697
13811SOL    HW244327   4.290   9.013   2.652 -2.0229  0.4183  0.4415
13812SOL     OW44328   4.767   0.889   7.772  0.4738 -1.0296  0.2821
13812SOL    HW144329   4.790   0.813   7.718  1.1033  0.1167 -1.1442
13812SOL    HW244330   4.704   0.855   7.836  1.2963 -2.8999  0.1780
13813SOL     OW44331   6.745   9.370   3.712 -0.7193 -0.0789 -0.3782
13813SOL    HW144332   6.669   9.373   3.654 -0.9469 -0.1630 -0.0882
13813SOL    HW244333   6.712   9.400   3.797 -0.2141  0.7723 -0.4694
13814SOL     OW44334   8.494   9.139   9.472 -0.6615 -0.7698 -0.0871
13814SOL    HW144335   8.453   9.174   9.393  0.7724  0.1103 -0.4738
13814SOL    HW244336   8.543   9.213   9.508  0.0923 -1.6220  0.6740
13815SOL     OW44337   8.308  10.601   9.964 -0.1954  0.4981 -0.4695
13815SOL    HW144338   8.267  10.515   9.974  0.2773  0.5280  2.5920
13815SOL    HW244339   8.395  10.582   9.927 -0.9947 -0.0341 -2.1808
13816SOL     OW44340   2.038   1.353   6.527  0.1435  0.0615  0.3320
13816SOL    HW144341   1.964   1.405   6.557 -0.0083 -0.4173  0.8074
13816SOL    HW244342   2.094   1.345   6.604  1.0696  1.0533 -0.2214
13817SOL     OW44343   5.869   9.222   7.054  0.5093  0.3940  0.4807
13817SOL    HW144344   5.857   9.167   6.977  1.0532  2.5993 -1.2590
13817SOL    HW244345   5.795   9.199   7.111  0.0648 -1.2490 -0.6695
13818SOL     OW44346   2.644   2.842   5.994  0.4305 -0.6102  0.0004
13818SOL    HW144347   2.585   2.891   5.936 -1.6245 -3.3702 -0.4376
13818SOL    HW244348   2.597   2.837   6.077  1.4349 -0.3417  0.6068
13819SOL     OW44349   4.535   5.361   7.502  0.0820  0.0009 -0.0140
13819SOL    HW144350   4.582   5.315   7.432  2.8875 -2.7669  3.3120
13819SOL    HW244351   4.469   5.297   7.532  0.9054 -0.0823  1.6988
13820SOL     OW44352  10.636   6.262   4.329 -0.5841 -0.2261 -0.2332
13820SOL    HW144353  10.642   6.249   4.234 -1.2947  0.4442 -0.3822
13820SOL    HW244354  10.694   6.336   4.346  0.8216 -1.3747  0.1116
13821SOL     OW44355   7.260   7.258   6.075 -0.4120 -0.0731  0.4046
13821SOL    HW144356   7.283   7.169   6.100  0.0368  0.1686  0.8995
13821SOL    HW244357   7.169   7.253   6.047  0.6572 -1.4305 -3.3962
13822SOL     OW44358   8.338   4.662   7.498  0.2179 -0.2270  0.0540
13822SOL    HW144359   8.412   4.719   7.519  1.4474 -1.1228 -1.5887
13822SOL    HW244360   8.280   4.717   7.446  0.7531 -0.0867 -0.4056
13823SOL     OW44361   9.408   2.963   5.990  0.0567 -0.2751  0.7077
13823SOL    HW144362   9.420   2.868   5.997 -0.5511 -0.3630  0.6253
13823SOL    HW244363   9.316   2.977   6.012 -0.1192  0.1870 -0.2657
13824SOL     OW44364   7.618   5.676   8.935  0.4179  0.6145 -0.0969
13824SOL    HW144365   7.664   5.643   9.012 -1.0866  0.7940  0.9143
13824SOL    HW244366   7.609   5.770   8.950  0.3893  0.7057 -0.6474
13825SOL     OW44367   1.324  10.088   4.809 -0.0356  0.0571 -0.1560
13825SOL    HW144368   1.308  10.061   4.900 -0.6096 -0.2403 -0.3417
13825SOL    HW244369   1.406  10.138   4.813 -0.2637  0.3837  0.5902
13826SOL     OW44370   8.083   9.486   0.439  0.4496  0.3295  0.1541
13826SOL    HW144371   8.021   9.413   0.441  0.1571  0.5765  0.1354
13826SOL    HW244372   8.158   9.455   0.490  0.0795  0.2371  0.6505
13827SOL     OW44373   4.965   1.440   4.374  0.2299  0.0611 -0.0537
13827SOL    HW144374   5.030   1.392   4.426  1.7448  0.4409 -1.5036
13827SOL    HW244375   4.973   1.403   4.286 -1.3132  0.3550 -0.3517
13828SOL     OW44376   5.165   1.940   4.419  0.8690 -0.0037  0.1058
13828SOL    HW144377   5.256   1.931   4.389  0.4935  0.1249 -1.0922
13828SOL    HW244378   5.153   2.034   4.431 -0.2856  0.4654 -3.6636
13829SOL     OW44379   7.821   9.511   8.021  0.0665 -0.2582  0.1457
13829SOL    HW144380   7.846   9.559   8.100  0.1237  0.8180 -0.5047
13829SOL    HW244381   7.845   9.420   8.039  0.7625  0.0986  1.0741
13830SOL     OW44382   2.432   2.880   9.878 -0.2839 -0.3189 -0.5455
13830SOL    HW144383   2.366   2.933   9.922 -0.5897 -1.0206 -0.1440
13830SOL    HW244384   2.391   2.851   9.797 -2.0235 -3.9923  1.4175
13831SOL     OW44385   5.613   4.814   2.623  0.1653 -0.3015 -0.1430
13831SOL    HW144386   5.541   4.802   2.562  0.9544 -3.2324 -0.6580
13831SOL    HW244387   5.689   4.830   2.567  0.5166 -0.8120  0.1799
13832SOL     OW44388   1.483   7.151   9.649  0.2599  0.0586 -0.0488
13832SOL    HW144389   1.456   7.136   9.740  1.2311 -1.0475  0.0735
13832SOL    HW244390   1.474   7.065   9.608  0.6496  0.3710 -0.7843
13833SOL     OW44391   3.681   7.903   5.585  0.2730  0.2000  0.4608
13833SOL    HW144392   3.677   7.954   5.504 -1.9729 -1.4748 -0.5994
13833SOL    HW244393   3.721   7.820   5.559 -0.0521 -0.1869  1.1573
13834SOL     OW44394   2.636   4.433   3.742 -0.1352 -0.0825  0.2187
13834SOL    HW144395   2.584   4.384   3.805 -1.4546  0.1791 -0.6439
13834SOL    HW244396   2.702   4.370   3.711 -2.2727 -1.6513 -1.4535
13835SOL     OW44397   5.295   9.385   2.326 -0.0121 -0.4481  0.1121
13835SOL    HW144398   5.390   9.375   2.322  0.0348  0.2692 -0.9034
13835SOL    HW244399   5.280   9.440   2.403  0.1884 -2.5739  1.7551
13836SOL     OW44400   8.905   8.967   0.320  0.0661  0.0505  0.1168
13836SOL    HW144401   8.851   9.043   0.300 -0.1554 -0.5773 -1.8714
13836SOL    HW244402   8.944   8.987   0.406 -1.0039  1.7940  0.2407
13837SOL     OW44403   6.539   7.984   5.727 -0.0610  0.1949 -0.5320
13837SOL    HW144404   6.519   8.039   5.803 -0.4584 -0.8100  0.1088
13837SOL    HW244405   6.493   7.902   5.744  1.9968 -1.0361 -0.5603
13838SOL     OW44406   6.705   6.713   4.958 -0.3888  0.1683 -0.0136
13838SOL    HW144407   6.734   6.675   4.875  2.5703 -0.3112  1.0874
13838SOL    HW244408   6.787   6.730   5.005 -1.9433  0.7608  2.6448
13839SOL     OW44409   8.847   3.154   3.742 -0.0394 -0.2668  0.0784
13839SOL    HW144410   8.942   3.155   3.756 -0.0703  0.5311  0.2817
13839SOL    HW244411   8.813   3.222   3.800 -0.6841 -0.2355 -0.3227
13840SOL     OW44412   6.699   3.820   4.783  0.2809 -0.0853  0.3628
13840SOL    HW144413   6.631   3.821   4.850  0.5066 -1.6835  0.6615
13840SOL    HW244414   6.665   3.762   4.715  1.4060 -1.0645  0.6095
13841SOL     OW44415   0.111   6.439   7.613 -0.0286  0.4093 -0.3482
13841SOL    HW144416   0.206   6.452   7.614  0.0303  0.4470  2.7067
13841SOL    HW244417   0.098   6.353   7.653 -1.2937  0.1184 -1.3182
13842SOL     OW44418   9.064   6.847   9.367  0.2926 -0.1064 -0.4170
13842SOL    HW144419   8.974   6.841   9.399  0.4229 -2.8073 -0.3946
13842SOL    HW244420   9.116   6.864   9.446 -0.1568  1.6485 -0.4559
13843SOL     OW44421   7.590   4.718   8.240 -0.1427  0.3310 -0.4344
13843SOL    HW144422   7.635   4.694   8.159  1.1706 -1.9457  0.8781
13843SOL    HW244423   7.529   4.646   8.256  0.1178  0.3896  0.9448
13844SOL     OW44424   0.968  10.650   7.322  0.0074  0.4349  0.1908
13844SOL    HW144425   1.009  10.727   7.282 -0.7208  0.8097  0.1525
13844SOL    HW244426   1.040  10.587   7.332  0.5503  1.0055 -0.0540
13845SOL     OW44427  10.266   2.909   0.980  0.1180  0.4339  0.4048
13845SOL    HW144428  10.353   2.916   1.019 -1.5920  1.3923  4.5916
13845SOL    HW244429  10.257   2.816   0.959  1.2486 -0.2086  2.4606
13846SOL     OW44430   1.812   8.735   3.666 -0.3093  0.2927  0.1533
13846SOL    HW144431   1.725   8.715   3.700  0.3237  0.2670  1.8838
13846SOL    HW244432   1.847   8.649   3.641 -1.4233  0.4895 -2.3541
13847SOL     OW44433   0.319  10.563   1.074 -0.5474 -0.1535  0.0681
13847SOL    HW144434   0.382  10.491   1.080 -0.1168  0.0765 -1.4048
13847SOL    HW244435   0.356  10.631   1.131  0.0515 -0.3782 -0.0472
13848SOL     OW44436   0.491   0.642   8.190  0.2140  0.1940  0.4676
13848SOL    HW144437   0.473   0.616   8.280  0.7579  1.1239  0.8493
13848SOL    HW244438   0.407   0.674   8.157  0.3265  1.1387  1.0863
13849SOL     OW44439   6.306   5.882   2.490  0.0224 -0.0009  0.2457
13849SOL    HW144440   6.323   5.976   2.490 -0.4879  0.0918 -0.2386
13849SOL    HW244441   6.212   5.874   2.480 -0.1526 -0.5442  1.9821
13850SOL     OW44442   3.949   4.392   8.094 -0.3288  0.1226 -0.3998
13850SOL    HW144443   3.885   4.429   8.033 -0.1152  0.3404 -0.4947
13850SOL    HW244444   3.999   4.468   8.124  0.3118 -0.1314 -0.8228
13851SOL     OW44445   1.933   4.184   8.838 -0.9577  0.3193  0.2312
13851SOL    HW144446   1.871   4.229   8.782 -2.2592 -1.4232  0.1815
13851SOL    HW244447   1.890   4.181   8.924 -0.5698 -0.1431  0.4152
13852SOL     OW44448   0.001   4.863   9.462  0.0050 -0.0101  0.0614
13852SOL    HW144449  -0.030   4.903   9.543  0.0368 -0.6463  0.3940
13852SOL    HW244450  -0.047   4.908   9.393  0.3876  0.9372  0.3862
13853SOL     OW44451   1.970   8.655   6.553  0.5231  0.4285 -0.0169
13853SOL    HW144452   1.959   8.746   6.578  0.6166  0.4359 -0.0017
13853SOL    HW244453   2.059   8.633   6.580  0.2198  0.0894  0.7437
13854SOL     OW44454   4.874   9.885   7.212 -0.1189  0.1150 -0.5024
13854SOL    HW144455   4.937   9.839   7.267 -2.1232 -1.5403  0.5561
13854SOL    HW244456   4.887   9.978   7.233  2.3987 -0.0854 -0.8941
13855SOL     OW44457   9.298   5.746   0.544 -0.1356  0.5764 -0.3855
13855SOL    HW144458   9.226   5.808   0.553  0.4490  1.5989 -2.1821
13855SOL    HW244459   9.376   5.801   0.530  0.1501 -0.4202 -3.8421
13856SOL     OW44460   1.368   0.004   4.161  0.1887  0.7594 -0.1802
13856SOL    HW144461   1.334  -0.083   4.180  0.5621  0.3025 -1.5222
13856SOL    HW244462   1.449   0.010   4.212  0.4822  0.0860 -0.5641
13857SOL     OW44463   7.308   6.533  10.162  0.4021 -0.0552 -0.3280
13857SOL    HW144464   7.233   6.560  10.108 -0.8289 -0.9909  0.8303
13857SOL    HW244465   7.286   6.443  10.188  1.5856 -0.0743  0.6505
13858SOL     OW44466   6.431   3.754   0.619 -0.0385  0.0149  0.1343
13858SOL    HW144467   6.345   3.735   0.583 -0.2180  1.2192 -0.1318
13858SOL    HW244468   6.476   3.670   0.622 -1.8253 -0.9681  1.9695
13859SOL     OW44469   2.387   3.629   9.116 -0.0510 -0.4997  0.1166
13859SOL    HW144470   2.400   3.716   9.155 -1.9765 -0.1844  0.1356
13859SOL    HW244471   2.358   3.574   9.188 -2.5943 -0.1728 -0.5659
13860SOL     OW44472  10.475   7.635   5.254  0.5899  0.1677  0.4810
13860SOL    HW144473  10.505   7.656   5.342 -1.7487 -1.0298  1.6409
13860SOL    HW244474  10.526   7.558   5.228  0.0782 -0.5459  1.5356
13861SOL     OW44475   0.324   9.040   7.139  0.0434  0.1708 -0.1261
13861SOL    HW144476   0.309   9.095   7.061  0.7686 -0.4444 -0.7155
13861SOL    HW244477   0.237   9.031   7.179 -0.4708 -0.0657 -1.2541
13862SOL     OW44478   8.565   7.478   9.807  0.4261 -0.2452  0.0937
13862SOL    HW144479   8.529   7.405   9.858 -0.1383  0.3522  0.5629
13862SOL    HW244480   8.622   7.436   9.742  0.7534 -1.0459  0.8801
13863SOL     OW44481   7.442   1.018   0.544  0.4412  0.5359 -0.4082
13863SOL    HW144482   7.419   1.110   0.532  1.7925  1.0393  0.5766
13863SOL    HW244483   7.518   1.005   0.487  0.9227  0.3372  0.2691
13864SOL     OW44484   8.711   2.980   5.124  0.1956 -0.4556 -0.0146
13864SOL    HW144485   8.667   2.901   5.095 -2.7911  1.0153  0.1526
13864SOL    HW244486   8.751   3.017   5.044  1.9929 -2.2328 -0.0155
13865SOL     OW44487   8.249   7.798   3.326  0.2612 -0.8457  0.0834
13865SOL    HW144488   8.203   7.784   3.409 -0.3941  0.3705 -0.0500
13865SOL    HW244489   8.341   7.783   3.347  0.4327  1.7510  1.6824
13866SOL     OW44490   9.617   9.211   7.417 -0.8116  0.1611 -0.1979
13866SOL    HW144491   9.669   9.218   7.497 -0.5301  1.5928 -0.4817
13866SOL    HW244492   9.609   9.301   7.385  0.9832 -0.5435 -2.9866
13867SOL     OW44493   6.272   1.816   9.393  0.3784 -0.0424  0.5000
13867SOL    HW144494   6.363   1.801   9.418  0.8444 -2.0079 -1.9311
13867SOL    HW244495   6.273   1.901   9.348  1.9946 -1.6691 -2.9743
13868SOL     OW44496   5.099   4.207   4.488 -0.0185  0.1260 -0.0479
13868SOL    HW144497   5.144   4.277   4.440 -0.0487  0.3455  0.2415
13868SOL    HW244498   5.045   4.253   4.553 -0.1339 -0.1619  0.0630
13869SOL     OW44499   0.806   8.238   5.646  0.6283 -0.0568  0.0068
13869SOL    HW144500   0.762   8.219   5.564 -1.4969  0.1324  1.0316
13869SOL    HW244501   0.781   8.166   5.704 -0.6978  1.4747  1.4429
13870SOL     OW44502   9.717   8.962   9.350  0.0980  0.1331 -0.5720
13870SOL    HW144503   9.756   8.878   9.325  0.0810 -0.3400  0.9122
13870SOL    HW244504   9.671   8.944   9.432 -1.1597  1.2638 -0.9907
13871SOL     OW44505   8.955   3.237   4.814  0.3647  0.8058 -0.5604
13871SOL    HW144506   9.046   3.248   4.785  1.1754  0.8715  1.8070
13871SOL    HW244507   8.903   3.282   4.747  1.9128 -0.4655 -2.7498
13872SOL     OW44508   1.232   6.366   2.954  0.0288 -0.4042  0.7674
13872SOL    HW144509   1.284   6.407   3.023 -0.7680 -1.4097  2.0080
13872SOL    HW244510   1.149   6.343   2.996 -0.7932 -0.3390 -0.7379
13873SOL     OW44511   3.517   9.808   5.800 -0.1002 -0.4193 -0.2786
13873SOL    HW144512   3.437   9.757   5.810  0.3813 -1.0234  0.6442
13873SOL    HW244513   3.539   9.836   5.889  0.0826  0.7402 -0.6674
13874SOL     OW44514   8.408   3.161   5.063 -0.5313  0.0587  0.1081
13874SOL    HW144515   8.423   3.152   4.969 -0.3285 -0.9150  0.2227
13874SOL    HW244516   8.411   3.071   5.097 -0.3355  0.4150  1.0860
13875SOL     OW44517   9.967   9.471   8.141  0.4788 -0.3295 -0.6461
13875SOL    HW144518   9.883   9.457   8.096 -0.3878 -0.0159  0.8005
13875SOL    HW244519   9.960   9.558   8.179  2.6425  0.9363 -2.8265
13876SOL     OW44520   5.814   5.232   0.485  0.1426  0.0552 -0.1762
13876SOL    HW144521   5.780   5.143   0.494 -0.4133  0.2965  0.1822
13876SOL    HW244522   5.738   5.288   0.500  0.4223  0.5895 -0.6966
13877SOL     OW44523   7.913   2.001   0.338 -0.0170  0.0752 -0.1471
13877SOL    HW144524   7.878   2.072   0.392  0.3516  0.4324 -0.3675
13877SOL    HW244525   7.856   1.998   0.261 -0.5139 -0.4028  0.2376
13878SOL     OW44526  10.393   0.712   2.999 -0.2858  0.5665  0.1690
13878SOL    HW144527  10.392   0.629   3.047 -0.8560  0.0479 -0.7194
13878SOL    HW244528  10.406   0.687   2.908  0.8518  1.5474  0.0383
13879SOL     OW44529   0.902  10.659   0.258  0.2337  0.3288  0.1884
13879SOL    HW144530   0.983  10.638   0.304 -0.9649 -4.1373  0.7953
13879SOL    HW244531   0.840  10.679   0.328 -0.4138 -1.7872  0.3086
13880SOL     OW44532   9.948   9.216   4.415  0.2694 -0.4550  0.9485
13880SOL    HW144533   9.869   9.174   4.450  0.3462 -0.2849  1.3276
13880SOL    HW244534   9.915   9.286   4.358  0.1191  0.7781  2.4734
13881SOL     OW44535   2.954   0.950   8.438 -0.0879  0.4460  0.1433
13881SOL    HW144536   3.007   0.875   8.465  0.5513  0.9404  0.2807
13881SOL    HW244537   2.865   0.928   8.467 -0.1326 -0.7607 -0.8198
13882SOL     OW44538   3.432   4.989   1.417 -0.0039 -0.2581  0.1802
13882SOL    HW144539   3.449   4.896   1.432 -0.3143 -0.1647  1.1831
13882SOL    HW244540   3.343   4.991   1.381  0.5592 -0.4451 -1.3103
13883SOL     OW44541   9.482   4.726   9.565 -0.1557 -0.3299 -0.1898
13883SOL    HW144542   9.427   4.690   9.495  0.1892 -0.0908 -0.5866
13883SOL    HW244543   9.434   4.803   9.595 -1.4924 -1.7219  1.4662
13884SOL     OW44544  10.011   1.403   0.766 -0.0495 -0.1886  0.1141
13884SOL    HW144545  10.093   1.365   0.733 -1.1736 -3.1357  0.4698
13884SOL    HW244546  10.023   1.405   0.861 -0.9956 -2.3790  0.3332
13885SOL     OW44547   9.724   4.912   7.711  0.1252  0.2000 -0.2808
13885SOL    HW144548   9.780   4.960   7.651 -1.6987 -0.2823 -2.5147
13885SOL    HW244549   9.764   4.825   7.718  1.8336  1.0707  1.4600
13886SOL     OW44550   1.387   4.631   6.138 -0.3777 -0.5602  0.2072
13886SOL    HW144551   1.342   4.573   6.078  0.4892 -2.3294  1.1928
13886SOL    HW244552   1.376   4.591   6.225  0.1495  0.7982  0.9424
13887SOL     OW44553   8.528   2.144   5.044  0.1594  0.0556 -0.2238
13887SOL    HW144554   8.581   2.198   5.103 -0.6192 -0.4610  0.9888
13887SOL    HW244555   8.589   2.077   5.012  0.3750 -0.2434  0.7743
13888SOL     OW44556   6.631   2.970   7.249 -0.0332 -0.2212  0.1511
13888SOL    HW144557   6.581   3.036   7.296  0.2654  0.1286 -0.0143
13888SOL    HW244558   6.667   2.913   7.317  3.1800  2.1877  0.7118
13889SOL     OW44559   9.636   6.535   4.599 -0.4394 -0.2070 -0.2358
13889SOL    HW144560   9.649   6.533   4.693 -0.8080  1.8470 -0.0892
13889SOL    HW244561   9.724   6.528   4.562 -0.3240 -1.3551  0.2217
13890SOL     OW44562   0.106   3.911   2.140  0.3441  0.0824 -0.0303
13890SOL    HW144563   0.100   4.002   2.167  0.8737 -0.4233  1.9958
13890SOL    HW244564   0.019   3.889   2.106  0.2088  1.3012 -0.4969
13891SOL     OW44565   6.779   8.925   6.028 -0.5453 -0.7567  0.0824
13891SOL    HW144566   6.819   8.967   6.104 -1.5236 -0.6189  0.5451
13891SOL    HW244567   6.850   8.916   5.965  0.1860 -0.4624  0.8394
13892SOL     OW44568   9.088   8.776   9.370 -0.3474  0.1663  0.4817
13892SOL    HW144569   9.008   8.731   9.397 -0.3680 -0.7572 -0.9619
13892SOL    HW244570   9.158   8.712   9.386 -0.0178  0.6209  0.8727
13893SOL     OW44571   7.041   4.009   3.517  0.5013 -0.0001 -0.2910
13893SOL    HW144572   7.084   3.975   3.595  0.5667  0.1933 -0.2420
13893SOL    HW244573   7.032   3.933   3.459  1.1639  0.0151 -0.4218
13894SOL     OW44574   6.737   5.816   6.098 -0.5230  0.0114 -0.0783
13894SOL    HW144575   6.830   5.797   6.085 -1.0162 -1.1997 -2.4860
13894SOL    HW244576   6.735   5.909   6.120  1.2445  0.0379  0.1889
13895SOL     OW44577   6.341   9.730   8.098 -0.0362  0.1574 -0.3120
13895SOL    HW144578   6.317   9.711   8.188 -0.3080 -0.2081 -0.4580
13895SOL    HW244579   6.314   9.821   8.085 -1.0255 -0.1219 -0.3540
13896SOL     OW44580   4.032   1.405   0.421  0.0247 -0.2961  0.5785
13896SOL    HW144581   4.049   1.456   0.500 -1.1030  1.1200 -0.0604
13896SOL    HW244582   4.115   1.408   0.373 -0.1163  1.2808  0.3749
13897SOL     OW44583   6.477   7.889   9.973  0.1819 -0.1559 -0.0056
13897SOL    HW144584   6.388   7.861   9.950  0.2311  0.7814 -1.4676
13897SOL    HW244585   6.516   7.916   9.889  1.3546  0.8163  0.8190
13898SOL     OW44586   7.236   0.108   8.048  0.1341 -0.1118 -0.1828
13898SOL    HW144587   7.294   0.135   8.120  1.0858  2.0834 -1.6713
13898SOL    HW244588   7.295   0.102   7.972 -1.1599 -0.5050 -1.1779
13899SOL     OW44589   1.216   2.531   3.149  0.5737  0.2552  0.1656
13899SOL    HW144590   1.261   2.587   3.085 -0.9386 -0.2775 -1.4780
13899SOL    HW244591   1.123   2.553   3.138 -0.2091 -2.9886 -1.1227
13900SOL     OW44592   0.463   2.972   8.733  0.0275  0.2522 -0.1633
13900SOL    HW144593   0.372   2.987   8.708  0.0973 -0.9001 -1.2134
13900SOL    HW244594   0.474   2.877   8.727  0.8595  0.2077  1.5393
13901SOL     OW44595   1.425   0.153   6.101 -0.4749 -0.5010  0.4439
13901SOL    HW144596   1.342   0.182   6.065 -0.2072 -0.4001 -0.1059
13901SOL    HW244597   1.402   0.091   6.170 -1.0146 -0.1089  0.6199
13902SOL     OW44598   3.232   8.461   5.825 -0.7563  0.1998 -0.2172
13902SOL    HW144599   3.228   8.554   5.801  0.6587  0.3799  0.1455
13902SOL    HW244600   3.141   8.435   5.835 -1.1644  1.7128  0.2804
13903SOL     OW44601   4.124   5.734   3.964 -0.8110 -0.0707 -0.2236
13903SOL    HW144602   4.077   5.775   4.036  2.0344  0.8261  1.2694
13903SOL    HW244603   4.124   5.641   3.984  1.0266  0.2811  1.7358
13904SOL     OW44604   3.414   6.851   2.304 -0.2928  0.1634  0.2042
13904SOL    HW144605   3.457   6.888   2.226  0.1887  0.1888  0.4797
13904SOL    HW244606   3.327   6.892   2.305 -0.2295  0.3173 -0.2025
13905SOL     OW44607  10.172   6.499   5.000 -0.4137  0.0783 -0.3606
13905SOL    HW144608  10.221   6.570   4.957 -0.6747 -0.4230 -1.5397
13905SOL    HW244609  10.239   6.440   5.034 -0.1921  0.8480  0.5921
13906SOL     OW44610  10.520   9.263   1.886 -0.3177  0.0920  0.4951
13906SOL    HW144611  10.528   9.219   1.801 -0.3198 -0.7196  0.9105
13906SOL    HW244612  10.577   9.213   1.945 -0.4492  0.5465  1.0169
13907SOL     OW44613  10.721   8.073   4.260  0.2890  0.3321  0.5662
13907SOL    HW144614  10.774   8.100   4.335  1.7657  0.4866 -0.4788
13907SOL    HW244615  10.688   7.986   4.284  1.9531 -0.2673  0.8423
13908SOL     OW44616   1.498   4.709   8.775 -0.2800  0.0690  0.1798
13908SOL    HW144617   1.574   4.768   8.772 -0.6586  0.5444 -1.8200
13908SOL    HW244618   1.450   4.735   8.853 -0.3582  2.3613 -0.5650
13909SOL     OW44619   5.853   0.973   6.599  0.3246 -0.5246 -0.5387
13909SOL    HW144620   5.930   0.962   6.655 -0.9991  0.3985  1.5701
13909SOL    HW244621   5.808   0.888   6.603 -0.4226 -0.0912  0.8965
13910SOL     OW44622   1.948   8.520   3.495 -0.5287  0.3642  0.0910
13910SOL    HW144623   1.901   8.494   3.415 -0.8056 -1.5975  0.8148
13910SOL    HW244624   2.002   8.593   3.468 -2.7126  1.6254 -1.2105
13911SOL     OW44625   0.428   2.824   2.323 -0.4717 -0.0421  0.1287
13911SOL    HW144626   0.444   2.781   2.240  1.4572  2.0753 -0.7180
13911SOL    HW244627   0.343   2.867   2.313  0.3391  1.3334 -1.3558
13912SOL     OW44628   6.260   7.042  10.721  0.4467 -0.6531 -0.2116
13912SOL    HW144629   6.227   7.111  10.778 -1.9948 -2.2290  0.3976
13912SOL    HW244630   6.347   7.023  10.756  0.7945  1.3890  0.1957
13913SOL     OW44631  10.010   6.375   4.775 -0.3485 -0.3601 -0.1947
13913SOL    HW144632  10.056   6.403   4.855 -1.4468 -0.4326  0.4814
13913SOL    HW244633  10.014   6.451   4.718 -0.9593  0.2548  0.5697
13914SOL     OW44634   4.296   5.476   6.385  0.1838  0.3522  0.7570
13914SOL    HW144635   4.234   5.484   6.457  1.3441 -1.6999  2.0822
13914SOL    HW244636   4.378   5.449   6.426  1.4256  0.9498 -1.1587
13915SOL     OW44637   6.913   3.349  10.253 -0.6745 -0.5374 -0.0387
13915SOL    HW144638   6.957   3.431  10.274  1.7438 -1.7294 -0.1845
13915SOL    HW244639   6.834   3.376  10.205 -0.7064  1.7208  1.1312
13916SOL     OW44640   4.687   1.382   5.476  0.2138  0.3935  0.1190
13916SOL    HW144641   4.692   1.389   5.381  1.0790  1.0070  0.2005
13916SOL    HW244642   4.680   1.472   5.507  0.2261  0.2148  0.6607
13917SOL     OW44643   7.864   9.356   0.711 -0.0896 -0.5717  0.7614
13917SOL    HW144644   7.801   9.332   0.779  0.1900 -0.3694  1.0998
13917SOL    HW244645   7.949   9.345   0.753  0.0645  1.9804  1.3333
13918SOL     OW44646   3.368   9.639   2.086 -0.1100 -0.0539  0.4988
13918SOL    HW144647   3.378   9.692   2.007 -0.6165  1.0917  1.1955
13918SOL    HW244648   3.455   9.602   2.101  0.4452  1.1897  0.4314
13919SOL     OW44649   5.979   1.110   3.145  0.2193  0.1056  0.6071
13919SOL    HW144650   5.886   1.111   3.167 -1.4446  2.7942 -4.6878
13919SOL    HW244651   6.008   1.200   3.156  0.7185  0.3657 -2.0303
13920SOL     OW44652   4.827   2.038   1.977  0.3313 -0.0368  0.1853
13920SOL    HW144653   4.840   2.009   2.067  0.6025 -3.0159 -0.7066
13920SOL    HW244654   4.738   2.011   1.955  0.9084 -1.1041 -0.9816
13921SOL     OW44655   8.553   6.896   4.961 -0.2306 -0.4242 -0.6118
13921SOL    HW144656   8.621   6.908   5.027 -2.5135 -1.4411  2.1365
13921SOL    HW244657   8.574   6.812   4.921  2.1751  1.0026 -2.6113
13922SOL     OW44658   8.178   1.662   3.628 -0.2572 -0.0133 -0.1880
13922SOL    HW144659   8.272   1.650   3.638 -0.3759 -0.0284  0.9901
13922SOL    HW244660   8.160   1.744   3.675 -0.7706  0.2033 -0.7558
13923SOL     OW44661   9.823   5.597   8.716 -0.2364 -0.1028 -0.1582
13923SOL    HW144662   9.735   5.584   8.751  0.4371 -0.6894  1.4181
13923SOL    HW244663   9.857   5.672   8.766  0.2142  0.0291 -0.6593
13924SOL     OW44664   8.156   1.484  10.414  0.6117 -0.0299  0.7258
13924SOL    HW144665   8.133   1.561  10.467  0.8069 -0.5842  1.6399
13924SOL    HW244666   8.079   1.427  10.422  0.5894 -0.0625  0.2914
13925SOL     OW44667   0.038   4.105   4.605  0.5987 -0.0598 -0.3836
13925SOL    HW144668  -0.034   4.163   4.581  1.6911  0.8556 -1.5869
13925SOL    HW244669   0.110   4.131   4.548  2.0125 -0.6772  1.0438
13926SOL     OW44670   3.540   3.432  10.711  0.2932 -0.1872  0.1280
13926SOL    HW144671   3.538   3.345  10.672  0.5509 -0.8574  1.5656
13926SOL    HW244672   3.448   3.459  10.712  0.2789 -0.1494 -0.9158
13927SOL     OW44673   9.980  10.788   1.564 -0.7628 -0.1866  0.2915
13927SOL    HW144674   9.970  10.782   1.469 -0.6900  2.8358  0.0006
13927SOL    HW244675  10.008  10.700   1.590  0.3020 -0.8353 -2.6174
13928SOL     OW44676   0.716   6.769   9.020 -0.3885  0.3154 -0.6598
13928SOL    HW144677   0.621   6.779   9.010 -0.2302  0.4968 -2.1886
13928SOL    HW244678   0.751   6.782   8.932  1.0307 -0.1740 -0.1920
13929SOL     OW44679   9.429   2.708   5.984 -0.2280  0.6972  0.2479
13929SOL    HW144680   9.433   2.631   6.041 -0.8926 -0.5635 -1.3273
13929SOL    HW244681   9.501   2.696   5.923  0.6948  2.2200  0.9754
13930SOL     OW44682  10.239   1.681   2.986 -0.3549 -0.0942 -0.4349
13930SOL    HW144683  10.237   1.760   3.040 -0.3991  1.2770 -2.3421
13930SOL    HW244684  10.200   1.708   2.903 -2.0977 -2.6358 -0.5396
13931SOL     OW44685   6.989   0.196   0.734  0.1532 -0.2359 -0.6594
13931SOL    HW144686   7.018   0.231   0.819 -0.0270  1.4929 -1.2802
13931SOL    HW244687   6.987   0.101   0.747  1.3536 -0.0896  0.8859
13932SOL     OW44688   3.736   7.825   0.569 -0.2340  0.2803 -0.5406
13932SOL    HW144689   3.748   7.883   0.644 -0.4020 -0.3405 -0.0285
13932SOL    HW244690   3.645   7.796   0.576  0.1704 -0.9381 -0.1448
13933SOL     OW44691   8.037   4.893   8.402 -0.4968 -0.0977  0.0571
13933SOL    HW144692   8.014   4.976   8.359 -1.0129 -0.2235  0.0876
13933SOL    HW244693   7.968   4.833   8.377 -0.1395 -0.5161  0.0674
13934SOL     OW44694   1.437   7.241   6.776 -0.2504 -0.3769 -0.0828
13934SOL    HW144695   1.419   7.334   6.787  0.5994  0.0800 -2.1887
13934SOL    HW244696   1.374   7.198   6.834 -1.8853  1.4340 -0.4269
13935SOL     OW44697  10.551   5.979   0.447 -0.0956  0.0070  0.2986
13935SOL    HW144698  10.595   5.942   0.370  2.0605  1.3624  0.7695
13935SOL    HW244699  10.558   5.911   0.514  0.7921 -0.0399  0.1720
13936SOL     OW44700   1.797   5.043   2.430 -0.2756 -0.1231 -0.0414
13936SOL    HW144701   1.772   5.057   2.521  1.3477 -0.5545  0.5158
13936SOL    HW244702   1.789   5.130   2.390 -1.0371  0.0656  0.4963
13937SOL     OW44703   4.218   4.385  10.728 -0.1153  0.6943  0.3111
13937SOL    HW144704   4.293   4.442  10.710 -0.8487  1.2570 -1.1105
13937SOL    HW244705   4.149   4.445  10.754 -0.0656  0.1645  1.7545
13938SOL     OW44706   1.539   5.607   8.391 -0.0247  0.4037  0.1184
13938SOL    HW144707   1.519   5.533   8.450 -0.1223  1.3628  1.3277
13938SOL    HW244708   1.624   5.639   8.422 -0.7409  1.8120  0.6819
13939SOL     OW44709  10.152   5.741   3.297 -0.2208  0.1878  0.2579
13939SOL    HW144710  10.241   5.775   3.285 -0.3834  0.8599  0.8891
13939SOL    HW244711  10.112   5.745   3.210  1.3201 -2.9970 -0.7437
13940SOL     OW44712   4.925   3.204   7.815  0.0145  0.3578 -0.4707
13940SOL    HW144713   4.924   3.136   7.747  0.2148 -0.7842  0.6241
13940SOL    HW244714   4.867   3.272   7.782 -1.7762 -1.2145 -0.7865
13941SOL     OW44715   3.671   9.758   1.770 -0.0588  0.0551  0.8565
13941SOL    HW144716   3.757   9.790   1.745  0.2042 -0.8225  0.5978
13941SOL    HW244717   3.668   9.668   1.737 -1.4078  0.3555  0.0680
13942SOL     OW44718   9.284   0.666   2.471  0.1738 -0.5948  0.1035
13942SOL    HW144719   9.197   0.673   2.511 -0.5733  1.3814 -1.6921
13942SOL    HW244720   9.331   0.744   2.501  0.6460 -0.6582 -0.4452
13943SOL     OW44721   3.853   7.383   5.531  0.0554  0.6633 -0.4891
13943SOL    HW144722   3.834   7.336   5.612 -1.3580  1.5948 -0.2448
13943SOL    HW244723   3.833   7.474   5.550  0.6745  1.0570 -1.5918
13944SOL     OW44724   3.740   9.444  10.008  0.1379 -0.4458  0.0396
13944SOL    HW144725   3.824   9.432   9.964  0.5271 -0.2271  0.7017
13944SOL    HW244726   3.740   9.537  10.032 -0.3047 -0.4403  0.0152
13945SOL     OW44727   0.993  10.157   4.930  0.3021 -0.5838  0.3586
13945SOL    HW144728   0.964  10.088   4.870  0.2855 -2.1586  2.1007
13945SOL    HW244729   1.083  10.175   4.904  0.4410 -1.5628  0.1494
13946SOL     OW44730   2.062   2.459   9.937  0.1859  0.1092  0.0609
13946SOL    HW144731   2.146   2.490   9.972 -0.5324  1.1240  0.9546
13946SOL    HW244732   2.026   2.535   9.892  0.5677 -0.8561 -1.9914
13947SOL     OW44733   0.022   9.944   9.578 -0.1470  0.0636  0.4068
13947SOL    HW144734  -0.013  10.023   9.619  1.0260  1.0244 -0.4145
13947SOL    HW244735   0.048   9.889   9.652  0.5013  1.1197  0.9874
13948SOL     OW44736   8.057   9.437  10.235  0.4402  0.1155  0.6101
13948SOL    HW144737   8.072   9.504  10.302  0.5749  0.7402 -0.0456
13948SOL    HW244738   8.006   9.480  10.167  0.3545 -0.5003  0.2743
13949SOL     OW44739   3.562   9.229   2.684  0.1997 -0.2311 -0.0783
13949SOL    HW144740   3.492   9.267   2.738 -0.5446 -1.3193 -0.2461
13949SOL    HW244741   3.626   9.197   2.747 -0.8612 -1.8705  0.2297
13950SOL     OW44742   9.733   0.948   1.196 -0.3197 -0.8779 -0.4781
13950SOL    HW144743   9.823   0.935   1.224 -0.3799 -0.1699  0.0599
13950SOL    HW244744   9.724   0.895   1.117  0.3941 -1.4172 -0.2045
13951SOL     OW44745   8.169  10.195   8.386  0.1557  0.4251  0.1605
13951SOL    HW144746   8.264  10.195   8.399  0.0453 -0.5690  1.0707
13951SOL    HW244747   8.133  10.223   8.470 -0.3603  1.4767 -0.3833
13952SOL     OW44748   2.082   8.976   9.971  0.4764 -0.1446 -0.2633
13952SOL    HW144749   2.154   9.039   9.960  0.9773 -0.3416  1.5781
13952SOL    HW244750   2.019   9.000   9.903  0.9902  1.8623 -0.1013
13953SOL     OW44751   8.267   2.095   6.742 -0.2646 -0.0773  0.0198
13953SOL    HW144752   8.237   2.182   6.717 -2.7290 -0.7900  0.2682
13953SOL    HW244753   8.190   2.052   6.779  1.2483 -1.8647  1.3087
13954SOL     OW44754   7.384  10.519   4.269 -0.2558 -0.1334  0.4170
13954SOL    HW144755   7.441  10.588   4.236 -0.0416 -1.4801 -2.3510
13954SOL    HW244756   7.298  10.539   4.231 -0.7173 -0.2228  1.3857
13955SOL     OW44757   6.889   6.170   9.535 -0.1812  0.2032  0.0896
13955SOL    HW144758   6.818   6.226   9.567  0.5534  0.7367  0.8056
13955SOL    HW244759   6.960   6.230   9.514  0.0212 -0.3158 -0.7723
13956SOL     OW44760  10.179   4.854   8.025 -0.2775  0.4486  0.2403
13956SOL    HW144761  10.119   4.790   7.987  1.5735 -1.0316 -0.3785
13956SOL    HW244762  10.170   4.842   8.120  0.1020 -0.8407  0.1343
13957SOL     OW44763   3.740   1.787  10.221  0.0716  0.3015  0.2185
13957SOL    HW144764   3.671   1.811  10.283 -0.7655 -0.4931 -0.3762
13957SOL    HW244765   3.714   1.702  10.188  0.4081  0.7805 -1.3684
13958SOL     OW44766   2.082   1.233   8.301 -0.2490  0.2777  0.2713
13958SOL    HW144767   2.078   1.251   8.207 -0.1742 -0.0856  0.1959
13958SOL    HW244768   2.014   1.288   8.339 -2.1634 -1.5728 -0.3163
13959SOL     OW44769   1.694   2.159   4.387 -0.0139 -0.0240 -0.3009
13959SOL    HW144770   1.612   2.162   4.436 -0.1918  1.3676 -0.6238
13959SOL    HW244771   1.746   2.231   4.424  0.8405 -0.5249 -0.4914
13960SOL     OW44772   1.153  10.650   6.874  0.5084 -0.2536  0.0354
13960SOL    HW144773   1.218  10.605   6.819  0.6208  0.4639 -0.4375
13960SOL    HW244774   1.190  10.645   6.962  0.3591 -1.3638  0.0478
13961SOL     OW44775   7.387   1.121   7.123  0.3283  0.2007 -0.0938
13961SOL    HW144776   7.408   1.029   7.137  2.2475  0.3979 -1.3029
13961SOL    HW244777   7.374   1.157   7.211  1.8835 -0.7273  0.5542
13962SOL     OW44778   9.095   4.275   4.752 -0.3479  0.2822  0.4497
13962SOL    HW144779   9.138   4.354   4.785 -2.4245  0.9251  1.7803
13962SOL    HW244780   9.111   4.276   4.658  3.3578 -0.0883  0.9032
13963SOL     OW44781   5.639   5.906   5.506 -0.0636  0.0403 -0.7034
13963SOL    HW144782   5.652   5.962   5.582 -0.0201 -0.7994 -0.0717
13963SOL    HW244783   5.567   5.848   5.531 -0.4364  0.1311 -1.5292
13964SOL     OW44784   5.270   2.150   6.471  0.3428 -0.2808 -0.1022
13964SOL    HW144785   5.202   2.123   6.532  0.2428 -1.3971 -0.6798
13964SOL    HW244786   5.234   2.132   6.384  1.1655 -0.4161 -0.4342
13965SOL     OW44787   7.028   6.986   1.945  0.4143  0.7069 -0.2414
13965SOL    HW144788   6.960   6.928   1.911 -0.6422  2.5317 -1.4566
13965SOL    HW244789   7.103   6.972   1.887  0.0789  0.7462 -0.6877
13966SOL     OW44790   0.462   3.207   3.845  0.2187  0.1622  0.0996
13966SOL    HW144791   0.511   3.137   3.888  1.9306  0.0740 -1.8074
13966SOL    HW244792   0.401   3.238   3.911  0.3501 -2.2031  1.4370
13967SOL     OW44793   8.519   4.127   4.768  0.3734 -0.0103 -0.2550
13967SOL    HW144794   8.600   4.079   4.789 -1.1592 -2.6560  0.0119
13967SOL    HW244795   8.500   4.176   4.848  1.8851  1.0069 -0.4671
13968SOL     OW44796   4.455   5.714  10.623  0.4733 -0.4163  0.2579
13968SOL    HW144797   4.455   5.652  10.696  1.3501  0.7122  1.2498
13968SOL    HW244798   4.528   5.685  10.567 -0.2277 -1.3075 -0.2299
13969SOL     OW44799   3.707   3.345   3.374  0.4062 -0.0022  0.1944
13969SOL    HW144800   3.650   3.360   3.449 -1.2135 -0.2576 -0.9352
13969SOL    HW244801   3.774   3.285   3.406  0.6522  1.0608  1.8142
13970SOL     OW44802  10.794   3.437   0.575 -0.0696 -0.2555 -0.1247
13970SOL    HW144803  10.724   3.460   0.514 -0.2454 -0.8219 -0.1410
13970SOL    HW244804  10.780   3.345   0.594 -1.4948  0.4142  2.6497
13971SOL     OW44805   5.384   8.268   8.116  0.2503 -0.9234 -0.2139
13971SOL    HW144806   5.372   8.234   8.205  1.1142  0.0861  0.3231
13971SOL    HW244807   5.479   8.268   8.103  0.3400  1.4376 -0.0500
13972SOL     OW44808   7.274   9.343   7.808 -0.4660 -0.0698  0.5242
13972SOL    HW144809   7.284   9.248   7.803  0.4288  0.0516 -0.5599
13972SOL    HW244810   7.255   9.369   7.718 -0.0217  0.8400  0.6868
13973SOL     OW44811   9.715   8.151   2.938 -0.1474  0.1583 -0.1681
13973SOL    HW144812   9.621   8.138   2.948 -0.0692 -0.1181  0.2092
13973SOL    HW244813   9.723   8.211   2.863 -0.5541 -1.4019 -1.5290
13974SOL     OW44814  10.791  10.646   6.347 -0.4302 -0.2355 -0.5367
13974SOL    HW144815  10.825  10.605   6.427 -1.7687  0.2539  0.3128
13974SOL    HW244816  10.868  10.685   6.306  0.1891  0.1044  0.8844
13975SOL     OW44817   2.964   6.484   5.682 -0.1941 -0.4307 -0.2760
13975SOL    HW144818   3.029   6.413   5.684  1.2353  0.8161  0.0731
13975SOL    HW244819   2.880   6.439   5.676  0.5091 -2.2502  1.7930
13976SOL     OW44820   5.111   2.511   8.715 -0.2655  0.1021 -0.1165
13976SOL    HW144821   5.099   2.453   8.791  0.3395 -0.8049 -0.6921
13976SOL    HW244822   5.024   2.517   8.675 -0.8544  1.4895  1.2414
13977SOL     OW44823   0.980   7.876   1.708  0.4047  0.7110 -0.0990
13977SOL    HW144824   0.948   7.839   1.791 -0.1149  0.8141 -0.2516
13977SOL    HW244825   1.075   7.863   1.712  0.3029 -0.0365  0.1494
13978SOL     OW44826   6.254   5.860  10.523 -0.6341 -0.2392 -0.1164
13978SOL    HW144827   6.310   5.824  10.454 -0.5182 -0.5962  0.1601
13978SOL    HW244828   6.316   5.895  10.587 -0.7333 -0.2425 -0.0199
13979SOL     OW44829   7.246   0.343   2.071 -0.3237  0.0112 -0.3098
13979SOL    HW144830   7.299   0.381   2.001  1.4587 -0.7405  0.5658
13979SOL    HW244831   7.204   0.419   2.113  1.0088  0.7674 -0.2934
13980SOL     OW44832   2.275   1.575   9.078  0.5989 -0.8768 -0.1550
13980SOL    HW144833   2.275   1.520   9.156 -0.3093 -2.3407 -1.1451
13980SOL    HW244834   2.335   1.532   9.018  1.2082  0.1825 -0.3341
13981SOL     OW44835   8.109  10.709   1.435  0.5805  0.0650 -0.4185
13981SOL    HW144836   8.117  10.615   1.444 -0.4813 -0.2572 -2.3208
13981SOL    HW244837   8.186  10.735   1.383 -0.1720 -0.1013 -1.6686
13982SOL     OW44838  10.192   9.606   4.093 -0.8151 -0.2223  0.4323
13982SOL    HW144839  10.140   9.671   4.141 -1.6588 -1.2633  0.9823
13982SOL    HW244840  10.127   9.552   4.049 -0.1130 -0.5378 -0.2261
13983SOL     OW44841   6.015   4.021   9.589  0.5352 -0.3430  0.3846
13983SOL    HW144842   6.085   4.059   9.535 -0.0455 -0.9504 -0.8485
13983SOL    HW244843   5.995   4.089   9.654  0.8583  0.6655 -0.5341
13984SOL     OW44844   2.052   8.289   3.626 -0.2149  0.1092  0.2959
13984SOL    HW144845   2.014   8.374   3.602  0.6623  0.0593 -1.4646
13984SOL    HW244846   2.142   8.311   3.652  0.3682 -0.3383 -1.2090
13985SOL     OW44847   4.034   7.023   5.031  0.4094  0.1719  0.7591
13985SOL    HW144848   3.985   6.971   5.095 -0.2073  0.0064  0.1627
13985SOL    HW244849   4.093   7.076   5.084 -1.8773  1.9919  1.6901
13986SOL     OW44850   4.513   7.890   3.453  0.0733  0.2585 -0.0033
13986SOL    HW144851   4.425   7.925   3.472 -0.3852 -0.8262 -0.0552
13986SOL    HW244852   4.538   7.844   3.533 -0.5131 -1.6189 -0.8448
13987SOL     OW44853   4.767   2.887   1.062  0.0519  0.2414  0.8114
13987SOL    HW144854   4.792   2.795   1.073  1.2141  0.6787  2.2441
13987SOL    HW244855   4.805   2.912   0.978 -0.1050 -0.5250  0.4991
13988SOL     OW44856   8.431  10.420   1.569  0.4885  0.2329  0.1433
13988SOL    HW144857   8.468  10.500   1.605  0.8375  0.0446  0.2016
13988SOL    HW244858   8.355  10.401   1.625  0.2280  0.6805 -0.0488
13989SOL     OW44859  10.338   9.772   7.118 -0.0832  0.2320  0.0792
13989SOL    HW144860  10.262   9.742   7.067  0.5638 -2.1819  0.4102
13989SOL    HW244861  10.392   9.818   7.054 -0.5297 -0.4442 -0.8163
13990SOL     OW44862   5.367   4.859   0.884  0.4847  0.0688 -0.7012
13990SOL    HW144863   5.419   4.840   0.806  0.7825  0.5275 -0.6174
13990SOL    HW244864   5.421   4.828   0.957 -0.8233 -2.6650 -0.7675
13991SOL     OW44865   0.221   1.954   4.503  0.8716  0.0594 -0.7222
13991SOL    HW144866   0.283   1.892   4.542 -0.3956 -1.4356 -0.9819
13991SOL    HW244867   0.169   1.902   4.442  0.4360  1.6126 -1.7464
13992SOL     OW44868   1.820   2.047  10.272  0.4648 -0.0686  0.1380
13992SOL    HW144869   1.888   2.026  10.336  0.6473 -1.9511 -0.5975
13992SOL    HW244870   1.743   2.070  10.325  1.2098  0.5404  0.9878
13993SOL     OW44871   0.886   7.637   7.127 -0.4265  0.2963  0.3040
13993SOL    HW144872   0.923   7.705   7.071 -0.9576  1.3613  1.2231
13993SOL    HW244873   0.941   7.637   7.205 -0.6304 -0.0900  0.4516
13994SOL     OW44874   0.509   2.485   4.676 -0.1137 -0.8853  0.4259
13994SOL    HW144875   0.528   2.504   4.768 -2.0322 -0.4223  0.7729
13994SOL    HW244876   0.535   2.394   4.664  1.3321 -0.5936  1.0543
13995SOL     OW44877   6.396   9.290   9.067 -0.3871  0.1412 -1.1806
13995SOL    HW144878   6.452   9.268   8.993  0.2750  0.1738 -0.6920
13995SOL    HW244879   6.333   9.353   9.031 -0.1282  0.0887 -1.7362
13996SOL     OW44880   3.477  10.460   1.834  0.5861 -0.1020 -0.2893
13996SOL    HW144881   3.424  10.386   1.864 -0.4858  0.8671  0.2915
13996SOL    HW244882   3.536  10.423   1.768 -1.0146 -1.1782 -1.1709
13997SOL     OW44883   8.126   8.392   5.195  0.2219 -0.1866  0.3660
13997SOL    HW144884   8.132   8.373   5.101 -3.4439  0.3396 -0.1331
13997SOL    HW244885   8.136   8.307   5.237  0.7349 -0.6126 -0.5769
13998SOL     OW44886   6.237   9.459   8.935  0.3210  0.2452 -0.0061
13998SOL    HW144887   6.214   9.517   8.863  1.3362  2.9712  1.7345
13998SOL    HW244888   6.181   9.486   9.007 -0.4550 -2.2151  0.4280
13999SOL     OW44889   1.113   3.315   3.061  0.6290 -0.0745 -0.5822
13999SOL    HW144890   1.049   3.304   3.132  0.9663  1.2738 -0.0501
13999SOL    HW244891   1.190   3.266   3.091  0.8676  0.7157  0.1220
14000SOL     OW44892   6.571   2.695   7.098  0.0546  0.0650  0.5897
14000SOL    HW144893   6.524   2.615   7.122  0.6647 -0.2777  0.6580
14000SOL    HW244894   6.570   2.748   7.178  2.2488 -1.1590  1.5052
14001SOL     OW44895   8.708   7.380   0.683 -0.5108  0.1414  0.3301
14001SOL    HW144896   8.681   7.292   0.656  0.3608 -0.2827  0.8330
14001SOL    HW244897   8.628   7.418   0.720 -0.5731 -0.9157  1.3322
14002SOL     OW44898   8.040   0.512   7.930 -0.1201  0.1009  0.8077
14002SOL    HW144899   8.101   0.584   7.914 -1.0875  1.1811  1.8892
14002SOL    HW244900   7.954   0.549   7.913 -0.5270 -1.4662 -0.9001
14003SOL     OW44901   7.111   3.650   5.773  0.1465 -0.2100 -0.0273
14003SOL    HW144902   7.121   3.559   5.802 -0.7012 -0.3076 -0.0285
14003SOL    HW244903   7.033   3.650   5.718  0.7322  0.3262 -0.8772
14004SOL     OW44904   8.216   8.523   8.529  0.1823  0.1534 -0.3623
14004SOL    HW144905   8.153   8.594   8.518 -0.3313  0.3072  2.8036
14004SOL    HW244906   8.248   8.531   8.619  0.4803 -3.3113  0.0059
14005SOL     OW44907   0.367   0.445   9.542 -0.6314  0.2508 -0.0359
14005SOL    HW144908   0.358   0.440   9.447 -0.3198  1.0282 -0.1152
14005SOL    HW244909   0.432   0.379   9.564  1.0376  1.6177 -0.6474
14006SOL     OW44910   0.067   6.925   2.593  0.1346 -0.1713  0.0419
14006SOL    HW144911   0.006   6.913   2.665  0.7273 -0.3568  0.5272
14006SOL    HW244912   0.013   6.951   2.519 -0.3657  1.2260  0.8571
14007SOL     OW44913   2.936   8.206   3.480  0.0421 -0.2276  0.1526
14007SOL    HW144914   3.019   8.189   3.523  0.1271 -0.6615 -0.1790
14007SOL    HW244915   2.911   8.294   3.509 -0.7416 -1.1471  2.4600
14008SOL     OW44916   2.246  10.559   8.076  0.2985  0.0841  0.6020
14008SOL    HW144917   2.255  10.502   8.000  1.9923  1.1867 -0.0946
14008SOL    HW244918   2.175  10.619   8.052  1.9164  1.5185 -0.9387
14009SOL     OW44919   2.125   4.366  10.492 -0.3526 -0.3148  0.2325
14009SOL    HW144920   2.093   4.290  10.444 -2.6266  1.0483 -0.5959
14009SOL    HW244921   2.131   4.338  10.583 -2.4895 -1.1436  0.1640
14010SOL     OW44922  10.732   4.115   5.612 -0.1034 -0.0623  0.0354
14010SOL    HW144923  10.785   4.105   5.533 -0.1255  0.4771 -0.0538
14010SOL    HW244924  10.642   4.117   5.580 -0.2243 -1.4293  0.2269
14011SOL     OW44925   5.441   5.800   4.962  0.8081 -0.6411  0.1449
14011SOL    HW144926   5.384   5.734   5.001  2.1023 -2.5859 -1.0622
14011SOL    HW244927   5.413   5.804   4.870  0.4358  0.9215  0.2821
14012SOL     OW44928   9.938   4.922   2.522 -0.2304 -0.7166 -0.2495
14012SOL    HW144929   9.960   4.913   2.429 -2.1352  0.8916 -0.9362
14012SOL    HW244930   9.865   4.862   2.535 -0.8804  0.0718 -0.1766
14013SOL     OW44931   7.601   6.705   3.020  0.1617  0.5672 -0.3228
14013SOL    HW144932   7.683   6.743   3.049 -0.8960  2.9281 -0.1527
14013SOL    HW244933   7.590   6.738   2.930 -1.0407  1.0996  0.0023
14014SOL     OW44934   0.817   5.892   0.608  0.0830 -0.0697 -0.5567
14014SOL    HW144935   0.799   5.829   0.539 -0.5074  0.8496 -1.2533
14014SOL    HW244936   0.807   5.978   0.567  3.0491  0.5427 -0.2147
14015SOL     OW44937   1.965   2.208   0.088 -0.1410  0.1871  0.0760
14015SOL    HW144938   1.871   2.197   0.099 -0.2348  0.1280 -0.7308
14015SOL    HW244939   1.975   2.294   0.047  0.2878  1.0359  1.8301
14016SOL     OW44940   2.980   5.181   0.921 -0.5263 -0.2235  0.3281
14016SOL    HW144941   3.046   5.200   0.987 -1.0015 -2.2329  1.4593
14016SOL    HW244942   3.004   5.095   0.886 -0.5224  0.5959 -1.8761
14017SOL     OW44943   1.662   9.193   6.968  0.0842 -0.1526  0.4554
14017SOL    HW144944   1.724   9.131   6.929 -0.7796 -0.2196 -0.9110
14017SOL    HW244945   1.695   9.279   6.942 -0.6097 -0.2041 -0.6969
14018SOL     OW44946   6.291   3.515   5.854 -0.4725 -0.5092  0.0860
14018SOL    HW144947   6.325   3.548   5.937 -1.0001 -1.0235  0.5222
14018SOL    HW244948   6.318   3.423   5.852 -0.7969 -0.6006 -0.1265
14019SOL     OW44949   7.675   1.388   9.719  0.4155 -0.0250 -0.3309
14019SOL    HW144950   7.701   1.469   9.673  1.9365  0.6772  1.6318
14019SOL    HW244951   7.695   1.319   9.656 -0.8741  1.0747 -2.0474
14020SOL     OW44952   3.195   1.816   0.207  0.1458 -0.4062  0.1146
14020SOL    HW144953   3.125   1.770   0.255 -1.3843  1.5223 -0.1673
14020SOL    HW244954   3.210   1.762   0.129 -0.6543 -1.1140  0.4314
14021SOL     OW44955   2.282   1.573   7.076  0.0773 -0.2627  0.3477
14021SOL    HW144956   2.242   1.660   7.086  0.8767 -0.0585  2.2425
14021SOL    HW244957   2.376   1.589   7.083  0.3107 -1.1496 -0.5910
14022SOL     OW44958   3.911  10.313   5.384 -0.2266  0.2933 -0.3616
14022SOL    HW144959   3.955  10.230   5.367 -0.0280  0.1780  0.6780
14022SOL    HW244960   3.917  10.325   5.479 -0.1357  1.5662 -0.5112
14023SOL     OW44961   9.303   1.316   2.265  0.2391  0.1562 -0.2165
14023SOL    HW144962   9.383   1.360   2.236  0.7668 -1.0625 -0.6719
14023SOL    HW244963   9.286   1.352   2.352  0.6869  1.1941 -0.5438
14024SOL     OW44964   0.125   5.627   5.817 -0.7437 -0.1370  0.6116
14024SOL    HW144965   0.185   5.650   5.888  1.1488 -2.5009 -0.1016
14024SOL    HW244966   0.154   5.681   5.743  1.3551 -2.0144 -0.0438
14025SOL     OW44967   5.876   7.745   6.897  0.0951  0.0955 -0.1308
14025SOL    HW144968   5.790   7.705   6.908  0.9718 -1.7174  0.5452
14025SOL    HW244969   5.860   7.839   6.906 -1.8467 -0.1763 -0.3489
14026SOL     OW44970   6.101  10.384   0.239  0.1178 -0.1454  0.3582
14026SOL    HW144971   6.126  10.409   0.328 -1.6823 -0.7414  1.0710
14026SOL    HW244972   6.006  10.375   0.242 -0.3118  2.1570 -2.2344
14027SOL     OW44973   8.593   8.776   8.266 -0.3167  0.5421  0.0183
14027SOL    HW144974   8.612   8.816   8.351  0.1589 -0.8637  0.6081
14027SOL    HW244975   8.503   8.801   8.247 -0.2345  1.3730  0.6451
14028SOL     OW44976   9.897   6.708   3.820 -0.6295 -0.5499 -0.3299
14028SOL    HW144977   9.947   6.642   3.771  0.1012  0.3352 -0.8070
14028SOL    HW244978   9.925   6.791   3.782  0.5714  0.2318  2.0903
14029SOL     OW44979   4.766   4.902  10.602 -0.0350  0.7861  0.3782
14029SOL    HW144980   4.756   4.816  10.562  0.2547  0.4886  0.9261
14029SOL    HW244981   4.844   4.939  10.560 -0.6453  1.1393 -0.4660
14030SOL     OW44982   5.012   2.572   3.150  0.1369 -0.1534  0.0101
14030SOL    HW144983   5.070   2.502   3.120  1.4920  0.7553  0.4013
14030SOL    HW244984   5.050   2.600   3.233 -1.3012  0.0031  0.6482
14031SOL     OW44985   5.558   1.191   9.847 -0.3604  0.3828  0.0658
14031SOL    HW144986   5.462   1.185   9.852 -0.3103 -0.2808  0.3358
14031SOL    HW244987   5.583   1.234   9.929 -0.3537 -0.4416  0.5063
14032SOL     OW44988   9.831   1.527   9.743 -0.3216 -0.0863 -0.5742
14032SOL    HW144989   9.842   1.618   9.771 -0.5182 -0.3340  0.3471
14032SOL    HW244990   9.740   1.522   9.714 -1.5195 -0.8023  2.7829
14033SOL     OW44991   7.860   2.521   6.528  0.1745  0.2343  0.1293
14033SOL    HW144992   7.932   2.564   6.483  0.4902  1.8133  2.0227
14033SOL    HW244993   7.888   2.514   6.619 -0.8171 -1.9912  0.3443
14034SOL     OW44994   6.306   8.275   2.095 -0.3431 -0.0921  0.5558
14034SOL    HW144995   6.375   8.254   2.158 -1.0388 -1.4369  0.9011
14034SOL    HW244996   6.229   8.291   2.149 -1.0318 -1.5989  0.0491
14035SOL     OW44997   7.768   7.990   9.628  0.0229  0.6022 -0.2562
14035SOL    HW144998   7.679   7.968   9.655  0.5459 -0.5816  0.6124
14035SOL    HW244999   7.821   7.972   9.705  1.0283  1.2219 -0.7835
14036SOL     OW45000   6.224   4.174   9.495 -0.3134 -0.3287 -0.9068
14036SOL    HW145001   6.223   4.259   9.540  0.6840 -1.0293  0.5277
14036SOL    HW245002   6.310   4.170   9.453 -0.4785 -0.5087 -1.2363
14037SOL     OW45003   8.574   0.575   1.311  0.3746 -0.8269  0.4499
14037SOL    HW145004   8.579   0.480   1.300  0.8049 -0.7507 -0.0538
14037SOL    HW245005   8.481   0.593   1.321 -0.0807 -0.9872 -2.5967
14038SOL     OW45006   3.080   8.094   7.205 -0.0144 -0.1401 -0.1317
14038SOL    HW145007   2.987   8.081   7.225  0.1087  0.0290  0.5792
14038SOL    HW245008   3.117   8.006   7.204  0.2887 -0.0880  2.0167
14039SOL     OW45009   4.558   1.294   9.633  0.3634 -0.1228  0.5729
14039SOL    HW145010   4.489   1.331   9.688  0.1450  1.8693 -0.9511
14039SOL    HW245011   4.511   1.244   9.566  0.1802  2.3633 -1.3024
14040SOL     OW45012   6.105   0.825   3.037 -0.2875 -0.2112  0.4808
14040SOL    HW145013   6.124   0.760   2.970 -2.2842 -0.4977  0.1291
14040SOL    HW245014   6.085   0.905   2.988 -1.3152 -0.3022  0.7236
14041SOL     OW45015   2.593   2.217   9.342  0.7278 -0.2037 -0.3317
14041SOL    HW145016   2.668   2.257   9.386  1.3886 -0.3443 -1.3069
14041SOL    HW245017   2.530   2.200   9.412  2.0488 -1.1142  0.6838
14042SOL     OW45018   8.546   1.777   4.066 -0.7518  0.0279 -0.0534
14042SOL    HW145019   8.539   1.718   4.141  0.9485  0.8190  0.7890
14042SOL    HW245020   8.539   1.865   4.104 -1.1780  0.4169 -1.0068
14043SOL     OW45021   6.217   7.620   4.019 -0.0249  0.1613 -0.0815
14043SOL    HW145022   6.275   7.550   4.050 -0.0761  0.3972  0.5633
14043SOL    HW245023   6.199   7.672   4.097  1.2452  1.7883 -0.8178
14044SOL     OW45024   1.483   6.208   8.192 -0.3882 -0.2851  0.5433
14044SOL    HW145025   1.398   6.193   8.152  0.5694 -0.4679 -1.5615
14044SOL    HW245026   1.519   6.121   8.206 -0.0106 -0.1906  0.1795
14045SOL     OW45027   9.074   2.513  10.277 -0.0530  0.5442 -0.0691
14045SOL    HW145028   9.044   2.592  10.232  0.3493  0.5240 -0.3706
14045SOL    HW245029   9.156   2.539  10.319  2.1483 -0.6770 -3.2484
14046SOL     OW45030   2.830   2.233   9.504 -0.0920 -0.2610 -0.2213
14046SOL    HW145031   2.909   2.277   9.472  0.4164  0.3798  1.7612
14046SOL    HW245032   2.855   2.141   9.509  0.3115 -0.1579 -0.2820
14047SOL     OW45033   9.236   8.051   1.892 -0.2159 -0.2272 -0.0562
14047SOL    HW145034   9.288   7.972   1.909  0.2970  0.6284  2.9948
14047SOL    HW245035   9.298   8.112   1.852  0.1846 -0.3972  0.2916
14048SOL     OW45036   8.051   7.495   4.722 -0.3461  0.4237 -0.0488
14048SOL    HW145037   7.960   7.511   4.746 -0.6965 -0.2413 -0.8786
14048SOL    HW245038   8.098   7.574   4.751 -1.1693  0.7492  0.4243
14049SOL     OW45039   3.745   0.180  10.195  0.0936 -0.2600  0.0928
14049SOL    HW145040   3.810   0.112  10.211 -0.5824 -0.9888 -0.1757
14049SOL    HW245041   3.782   0.232  10.123  0.5854 -0.3825  0.2541
14050SOL     OW45042   3.404   2.746   5.205 -0.6926 -0.9491  0.1025
14050SOL    HW145043   3.496   2.753   5.232 -0.5711 -0.2571 -0.4627
14050SOL    HW245044   3.365   2.830   5.230 -0.6655 -0.4283 -1.4935
14051SOL     OW45045   7.809   4.735   6.906  0.4121  0.5393  0.0961
14051SOL    HW145046   7.764   4.778   6.833  0.2723  0.6156  0.2286
14051SOL    HW245047   7.881   4.794   6.927  0.2270  0.7042  0.2704
14052SOL     OW45048   1.733   4.022   6.864  0.4471 -0.1496 -0.2278
14052SOL    HW145049   1.723   4.013   6.770 -1.2001  1.3787 -0.2717
14052SOL    HW245050   1.687   4.104   6.885  0.9146 -0.3597  1.8671
14053SOL     OW45051   9.903   7.476   1.608 -0.1441 -0.2818 -0.4486
14053SOL    HW145052   9.880   7.414   1.539 -2.2289 -0.1623  0.0643
14053SOL    HW245053   9.839   7.546   1.600  0.6355  0.5794  0.5496
14054SOL     OW45054   3.591   5.812   9.579 -0.1346  0.1056  0.3892
14054SOL    HW145055   3.554   5.782   9.496 -0.4947  1.0843  0.1872
14054SOL    HW245056   3.626   5.732   9.620  1.6228 -0.1725 -1.4723
14055SOL     OW45057   8.222   8.345   7.070  0.3197 -0.0816 -0.2997
14055SOL    HW145058   8.193   8.431   7.039 -0.2763 -0.6371 -1.3202
14055SOL    HW245059   8.148   8.310   7.118  0.5986  0.0023  0.2057
14056SOL     OW45060   6.067   1.694   0.068  0.0008  0.0871  0.3077
14056SOL    HW145061   6.067   1.679  -0.027 -0.1054 -0.5244  0.3956
14056SOL    HW245062   6.152   1.732   0.087 -0.2560  0.8938 -0.1323
14057SOL     OW45063   3.597   7.227   8.992 -0.2119 -0.6344 -0.2080
14057SOL    HW145064   3.615   7.169   8.917  0.1771 -0.3807 -0.3147
14057SOL    HW245065   3.673   7.216   9.049  0.5146  0.7726 -0.8625
14058SOL     OW45066   6.792   7.755   8.854  0.9516  0.3818 -0.0045
14058SOL    HW145067   6.760   7.671   8.887  1.7079 -0.3106 -0.9646
14058SOL    HW245068   6.866   7.775   8.911 -0.5648  1.5653  1.6737
14059SOL     OW45069   7.465   6.701   5.759 -0.1305 -0.0958 -0.1223
14059SOL    HW145070   7.442   6.792   5.777 -1.8052 -0.9977  2.9709
14059SOL    HW245071   7.521   6.705   5.682 -1.4715  3.3779 -1.0790
14060SOL     OW45072  10.520  10.165  10.374 -0.3976  0.6935  0.4704
14060SOL    HW145073  10.456  10.235  10.360 -0.4125  0.3143 -1.7853
14060SOL    HW245074  10.568  10.160  10.291  1.2338 -0.3553  1.4346
14061SOL     OW45075   5.008   0.631   7.810 -0.4985 -0.4602 -0.0351
14061SOL    HW145076   4.977   0.672   7.729 -0.3044 -0.0451  0.1017
14061SOL    HW245077   4.964   0.546   7.811  0.3259 -0.9353 -1.1379
14062SOL     OW45078   1.806   1.056  10.253 -0.3136 -0.1945  0.1548
14062SOL    HW145079   1.877   0.993  10.263 -0.4495 -0.9197 -2.5063
14062SOL    HW245080   1.728   1.002  10.240 -1.1011  0.5844  1.5145
14063SOL     OW45081   1.700   7.069   6.013 -0.3361  0.0757  0.0774
14063SOL    HW145082   1.763   7.046   6.081 -0.6567 -2.3589 -0.3892
14063SOL    HW245083   1.655   7.147   6.048  1.9073  1.0169  1.0322
14064SOL     OW45084   8.019   7.932   6.074 -0.3387  0.1425  0.2199
14064SOL    HW145085   8.052   7.848   6.042 -0.0607  0.3498 -0.0468
14064SOL    HW245086   7.951   7.908   6.137  0.5301 -0.3016  1.0212
14065SOL     OW45087   8.178   6.236   7.612 -0.4969 -0.0165 -0.3123
14065SOL    HW145088   8.131   6.250   7.530 -1.1511  0.8914  0.2021
14065SOL    HW245089   8.174   6.141   7.625  0.3986 -0.2950 -1.7662
14066SOL     OW45090   8.270   5.337   2.360  0.0002 -0.8473  0.0900
14066SOL    HW145091   8.241   5.341   2.268  2.4200 -2.2675 -0.8263
14066SOL    HW245092   8.198   5.294   2.405 -1.0170 -0.6183 -1.2287
14067SOL     OW45093   6.332   9.112   2.147 -0.0005  0.2687 -0.0427
14067SOL    HW145094   6.359   9.027   2.180 -0.3848  0.6739  1.4058
14067SOL    HW245095   6.244   9.098   2.111  0.5292 -0.2329 -1.2021
14068SOL     OW45096   4.747  10.001   1.485  0.0972  0.1547 -0.3107
14068SOL    HW145097   4.799  10.063   1.436 -1.2494  1.9999  0.4783
14068SOL    HW245098   4.690   9.960   1.420  0.6040  0.1436 -0.7502
14069SOL     OW45099   6.990   9.794  10.706 -0.3120 -0.5572 -0.4325
14069SOL    HW145100   7.027   9.727  10.648 -0.1431 -0.1297 -0.8260
14069SOL    HW245101   6.954   9.860  10.646  0.1841  0.0648 -0.0606
14070SOL     OW45102   4.482   4.641   6.761 -0.4946  0.0837  0.2088
14070SOL    HW145103   4.441   4.584   6.695 -1.5266  0.4028  0.5642
14070SOL    HW245104   4.469   4.729   6.728  0.3335  0.1799  0.1015
14071SOL     OW45105   7.217   6.114   5.555 -0.7184 -0.4698 -0.3026
14071SOL    HW145106   7.225   6.203   5.590 -3.0137 -0.2786 -0.1300
14071SOL    HW245107   7.145   6.075   5.603 -1.4526 -1.5320 -2.1387
14072SOL     OW45108   0.037   6.893   0.324 -0.1836 -0.0156  0.0435
14072SOL    HW145109  -0.031   6.903   0.257 -0.7550 -0.7871  0.4914
14072SOL    HW245110  -0.006   6.916   0.406 -0.2742 -1.6496  0.4898
14073SOL     OW45111   3.905   8.345   4.542 -0.0931 -0.0904 -0.1159
14073SOL    HW145112   3.910   8.255   4.510 -0.5889 -0.0285 -0.3713
14073SOL    HW245113   3.935   8.398   4.469 -2.0541  0.1157 -0.8259
14074SOL     OW45114   1.581   2.126   1.729  0.2594  0.5305  0.4765
14074SOL    HW145115   1.643   2.054   1.721  1.1470  1.3933 -0.7668
14074SOL    HW245116   1.622   2.186   1.792  0.4020  0.8028  0.1285
14075SOL     OW45117   9.145   7.697   7.909  0.0515  0.3045 -0.3555
14075SOL    HW145118   9.214   7.670   7.970 -0.5859  0.5847  0.5096
14075SOL    HW245119   9.095   7.763   7.957 -1.2420 -0.3887 -0.7075
14076SOL     OW45120   4.869   6.164   7.183 -0.0388 -0.2844 -0.1851
14076SOL    HW145121   4.948   6.114   7.201  0.8575  0.4004 -2.0326
14076SOL    HW245122   4.884   6.249   7.224 -0.6332 -0.7478  1.0496
14077SOL     OW45123   6.028   9.370   0.494 -0.0757  0.3087 -0.2791
14077SOL    HW145124   5.950   9.322   0.522  0.5158  0.3004  1.4683
14077SOL    HW245125   6.064   9.317   0.423 -1.4251  0.1019 -0.8443
14078SOL     OW45126   8.415   6.290   8.215 -0.0086 -0.2923  0.1670
14078SOL    HW145127   8.425   6.348   8.139  0.7244  0.3244  0.7270
14078SOL    HW245128   8.373   6.212   8.179 -1.5335  0.7856 -0.4976
14079SOL     OW45129   2.608   5.214   9.554 -0.1344  0.0914  0.3937
14079SOL    HW145130   2.611   5.119   9.547  1.5736 -0.0088  1.9107
14079SOL    HW245131   2.536   5.232   9.614 -1.4950 -0.1137 -1.1125
14080SOL     OW45132   3.045   3.863   3.793 -0.0442 -0.4549  0.0238
14080SOL    HW145133   3.018   3.953   3.809  1.3122 -0.1309  0.6776
14080SOL    HW245134   3.057   3.826   3.880  0.1732 -1.0207 -0.2421
14081SOL     OW45135   2.163   3.714   9.730  0.6446  0.2202 -0.1847
14081SOL    HW145136   2.137   3.673   9.812  2.0370  0.0472  0.2037
14081SOL    HW245137   2.236   3.772   9.755  0.4092  0.9528 -1.1338
14082SOL     OW45138   0.631   1.484   3.230  0.1115  0.3013 -0.3589
14082SOL    HW145139   0.705   1.463   3.173 -0.3760  0.0067 -0.8999
14082SOL    HW245140   0.573   1.408   3.223 -0.1465  0.4411  0.2164
14083SOL     OW45141   8.056   8.651   6.193  0.5038 -0.1870 -0.3416
14083SOL    HW145142   8.148   8.651   6.221  0.4678 -0.9906 -0.1788
14083SOL    HW245143   8.007   8.622   6.270  0.0684  0.6112 -0.3125
14084SOL     OW45144   9.996   4.053   8.225 -0.0378  0.3375  0.1397
14084SOL    HW145145  10.027   3.963   8.235  1.0605  0.5878 -0.8134
14084SOL    HW245146   9.975   4.081   8.314 -0.2832 -0.8094  0.4656
14085SOL     OW45147  10.345   6.577   6.464  0.0101  0.5612  0.1120
14085SOL    HW145148  10.264   6.616   6.431  0.0243  0.0260 -0.5665
14085SOL    HW245149  10.329   6.483   6.462  0.5909  0.4591  0.1331
14086SOL     OW45150   9.545   1.555   5.085 -0.1763 -0.4254  0.3430
14086SOL    HW145151   9.536   1.548   5.180 -1.4314  0.7422  0.3413
14086SOL    HW245152   9.487   1.487   5.051 -0.9019  0.1543  0.4101
14087SOL     OW45153   6.572   2.954   7.964  0.0502  0.5908 -0.1830
14087SOL    HW145154   6.533   2.867   7.958  1.0756  0.1711 -1.0703
14087SOL    HW245155   6.604   2.973   7.876  1.3902  1.1246  0.3865
14088SOL     OW45156   9.529   9.641   3.782 -0.1113  0.0881  0.0549
14088SOL    HW145157   9.611   9.688   3.792  0.5615 -0.5936 -1.7816
14088SOL    HW245158   9.551   9.550   3.802 -0.5578 -0.0201  0.0696
14089SOL     OW45159  10.661   3.569   2.370 -0.2868 -0.0985 -0.4447
14089SOL    HW145160  10.650   3.508   2.298 -2.1491  0.3807 -0.6167
14089SOL    HW245161  10.592   3.546   2.432 -0.7225  1.4928 -0.2902
14090SOL     OW45162   6.481  10.682   2.637 -0.4058  0.4789 -0.2306
14090SOL    HW145163   6.541  10.640   2.698 -1.1736 -0.3242 -0.0121
14090SOL    HW245164   6.403  10.627   2.637 -1.3252  1.7234 -0.1791
14091SOL     OW45165   5.484   3.976  10.313 -0.2603 -0.2568  0.4926
14091SOL    HW145166   5.409   4.033  10.292  0.6322  0.8034  0.0537
14091SOL    HW245167   5.501   3.993  10.405  1.0981  1.6049 -0.0360
14092SOL     OW45168   8.938   1.748   2.864  0.1785  0.2780 -0.6958
14092SOL    HW145169   9.011   1.721   2.808 -1.3667 -0.7667 -2.3040
14092SOL    HW245170   8.863   1.699   2.830 -1.2617  1.2524  0.9643
14093SOL     OW45171   9.629   8.807   8.998  0.2476  0.6049 -0.5124
14093SOL    HW145172   9.600   8.786   9.087 -0.6716 -2.2096 -1.3663
14093SOL    HW245173   9.724   8.817   9.006  0.1419  0.7320  0.8187
14094SOL     OW45174  10.340   1.086   9.584 -0.0652  0.4629 -0.6255
14094SOL    HW145175  10.403   1.022   9.552  1.6231  1.2218  1.0439
14094SOL    HW245176  10.366   1.169   9.543  0.9861  1.0686  1.1449
14095SOL     OW45177   9.873   8.927   3.611  0.3453 -0.2169 -0.1749
14095SOL    HW145178   9.935   8.947   3.681 -0.6864  1.0688  0.4207
14095SOL    HW245179   9.920   8.946   3.530  0.5937  1.1494  0.2804
14096SOL     OW45180   5.408   3.998   7.448  0.4749  0.1044  0.2304
14096SOL    HW145181   5.318   3.980   7.476 -0.0138  0.3789 -1.0704
14096SOL    HW245182   5.451   4.035   7.526 -0.0777 -1.4484  1.3130
14097SOL     OW45183   3.154   8.038   0.804 -0.1903  0.0994  0.0663
14097SOL    HW145184   3.121   7.984   0.876  1.1679  0.7424  1.2208
14097SOL    HW245185   3.077   8.084   0.772 -0.6936  0.4691  1.7065
14098SOL     OW45186   5.514   4.628   0.233  0.5469 -0.4570  0.5146
14098SOL    HW145187   5.477   4.688   0.297  0.4719 -0.1488  0.1822
14098SOL    HW245188   5.585   4.677   0.191 -1.2665  0.4379 -1.7250
14099SOL     OW45189   8.290   6.868   8.004  0.2011 -0.1423  0.1225
14099SOL    HW145190   8.364   6.861   7.945  0.8077  0.2874  0.8148
14099SOL    HW245191   8.308   6.804   8.073 -0.4663 -0.5937 -0.1088
14100SOL     OW45192   6.101   4.134   8.826  0.2143 -0.9521  0.5405
14100SOL    HW145193   6.162   4.078   8.873 -0.3247 -3.1859 -1.2454
14100SOL    HW245194   6.023   4.079   8.812 -1.8005  1.3954  1.6981
14101SOL     OW45195  10.380   4.060   9.690  0.7053  0.1775  0.3031
14101SOL    HW145196  10.443   4.129   9.706  0.4139  0.2116  1.3846
14101SOL    HW245197  10.351   4.033   9.777 -3.1885  2.3899 -0.0322
14102SOL     OW45198   0.697   7.979   4.775 -0.2101 -0.6264  0.4011
14102SOL    HW145199   0.773   7.997   4.721 -0.2116  1.0318  0.9041
14102SOL    HW245200   0.713   8.026   4.857 -1.2012 -1.2856  1.0051
14103SOL     OW45201   0.191   3.605   5.105  0.8897  0.3852 -0.0585
14103SOL    HW145202   0.107   3.610   5.151  2.2520 -0.8670  2.7356
14103SOL    HW245203   0.167   3.576   5.016 -1.6031 -0.2082  0.7159
14104SOL     OW45204   5.333   3.455  10.317  0.2585 -0.3186  0.1955
14104SOL    HW145205   5.282   3.507  10.255  1.3440  1.5731  0.8159
14104SOL    HW245206   5.402   3.514  10.347  1.2275 -1.9687  1.3594
14105SOL     OW45207   1.417   1.668   3.365 -0.0401 -0.4208  0.5092
14105SOL    HW145208   1.492   1.621   3.401  0.5841 -1.2931 -1.7940
14105SOL    HW245209   1.441   1.686   3.274 -0.9415  2.9708  0.8171
14106SOL     OW45210   8.953   5.749   1.201 -0.2495  0.0578  0.7520
14106SOL    HW145211   8.880   5.809   1.214  0.3441  1.6038 -2.2639
14106SOL    HW245212   9.031   5.805   1.201  0.4511 -0.8468 -0.7937
14107SOL     OW45213   3.049   1.727   1.220 -0.0883 -0.5531  0.4903
14107SOL    HW145214   3.036   1.808   1.270 -0.8021  2.5093 -4.1064
14107SOL    HW245215   2.962   1.707   1.184  0.9762 -0.2423 -2.5354
14108SOL     OW45216   2.415   4.924   4.955 -0.4115  0.5089  0.2810
14108SOL    HW145217   2.465   4.985   4.900 -1.1552  1.0339  0.1652
14108SOL    HW245218   2.325   4.957   4.950 -0.9638 -1.0341 -0.3814
14109SOL     OW45219   2.676   6.090   8.352 -0.1864 -0.5044 -0.1187
14109SOL    HW145220   2.676   6.184   8.370 -0.2936 -0.5985  0.3754
14109SOL    HW245221   2.763   6.060   8.379 -0.2335 -0.5859 -0.0536
14110SOL     OW45222   3.686   9.862   0.090 -0.1200 -0.2950 -0.1139
14110SOL    HW145223   3.638   9.928   0.039  0.3422 -0.1192 -0.3301
14110SOL    HW245224   3.778   9.887   0.080  0.2533 -2.0812 -1.8113
14111SOL     OW45225   0.250   1.434   2.157  0.5627 -0.0398  0.0309
14111SOL    HW145226   0.222   1.523   2.180 -0.2165 -0.4283  0.6438
14111SOL    HW245227   0.179   1.401   2.102  1.1977 -0.0283 -0.7936
14112SOL     OW45228   6.858   1.367   7.692 -0.2359 -0.5788  0.2070
14112SOL    HW145229   6.840   1.294   7.751 -1.4509  0.4485  1.1869
14112SOL    HW245230   6.900   1.327   7.615  0.5293 -2.0735  1.3515
14113SOL     OW45231   9.465  10.045   2.261  0.0231  0.1591  0.1985
14113SOL    HW145232   9.543  10.010   2.304 -0.5032 -0.8800  0.3344
14113SOL    HW245233   9.495  10.124   2.216  0.7719  0.7745  1.7265
14114SOL     OW45234   8.105   6.418   3.080 -0.7489  0.1663  0.1896
14114SOL    HW145235   8.114   6.465   2.997  1.1708 -1.2257 -0.4858
14114SOL    HW245236   8.195   6.394   3.103 -1.2824  0.1783  2.5048
14115SOL     OW45237   3.335  10.482   5.680  0.3919 -0.0718  0.1908
14115SOL    HW145238   3.417  10.482   5.630  0.4453  0.2664  0.2768
14115SOL    HW245239   3.354  10.429   5.757  0.4562 -0.1957  0.0898
14116SOL     OW45240   1.008   8.786   2.032 -0.2451  0.5245 -0.5939
14116SOL    HW145241   0.958   8.738   1.966  0.6280 -1.0894 -0.1167
14116SOL    HW245242   0.992   8.739   2.114  0.0120  1.5246  0.0588
14117SOL     OW45243   6.784   2.393   9.213 -0.2272  0.1080 -0.3379
14117SOL    HW145244   6.821   2.471   9.253 -1.7985  0.6879  0.0311
14117SOL    HW245245   6.860   2.336   9.199  0.6693  0.7755  1.4277
14118SOL     OW45246  10.003   3.569   8.027  0.0641 -0.2422 -0.3679
14118SOL    HW145247   9.970   3.595   7.941  0.3832 -0.2706 -0.4981
14118SOL    HW245248   9.982   3.476   8.034 -0.0669 -0.2130 -0.3644
14119SOL     OW45249   0.778   2.163   0.621 -0.0678  0.6470  0.6766
14119SOL    HW145250   0.756   2.251   0.650 -2.2514  0.6580 -0.7135
14119SOL    HW245251   0.693   2.124   0.597  1.1895  0.0998 -3.8488
14120SOL     OW45252   6.750   6.704   7.265 -0.0946 -0.0009 -0.2625
14120SOL    HW145253   6.736   6.795   7.239  1.2765  0.3583  0.1527
14120SOL    HW245254   6.672   6.681   7.315 -0.8944  0.6263 -1.1945
14121SOL     OW45255   8.499   4.543   3.561  0.3494  0.3736  0.7439
14121SOL    HW145256   8.546   4.558   3.479  0.8311 -2.2387  0.4334
14121SOL    HW245257   8.551   4.589   3.627  3.3203 -2.0597  0.3628
14122SOL     OW45258  10.676   8.890   4.228 -0.3875 -0.2014 -0.0064
14122SOL    HW145259  10.612   8.901   4.298 -0.3357  0.5224 -0.0618
14122SOL    HW245260  10.630   8.918   4.149 -0.5032 -1.1773 -0.3026
14123SOL     OW45261   2.646  10.736   7.362  0.2814  0.1650 -0.7005
14123SOL    HW145262   2.657  10.656   7.414 -0.9735 -0.6950 -1.6930
14123SOL    HW245263   2.731  10.751   7.322  0.4187 -0.9489 -0.8579
14124SOL     OW45264   0.089   3.427   7.049  0.4697  0.0098 -0.4504
14124SOL    HW145265   0.131   3.342   7.061  0.0049 -0.6739 -3.0411
14124SOL    HW245266   0.160   3.490   7.054  1.2608 -0.7935 -1.0359
14125SOL     OW45267   7.352   1.938   3.138 -0.1029 -0.5346  0.5800
14125SOL    HW145268   7.316   1.852   3.159 -1.5048 -0.2210 -0.4081
14125SOL    HW245269   7.434   1.918   3.091 -0.5392 -1.3504  0.1380
14126SOL     OW45270   5.753  10.516   9.676  0.3561 -0.2019  0.1351
14126SOL    HW145271   5.844  10.486   9.677  0.4795  0.0201  2.5510
14126SOL    HW245272   5.750  10.585   9.743 -1.4214  0.3768 -0.4877
14127SOL     OW45273   9.722   8.930   3.339  0.5909  0.3657  0.2477
14127SOL    HW145274   9.654   8.950   3.404  1.0204  1.1813  0.4584
14127SOL    HW245275   9.782   9.005   3.344  1.9197 -0.6899  0.6063
14128SOL     OW45276  10.766   9.065   6.250  0.0586 -0.1893  0.2450
14128SOL    HW145277  10.691   9.113   6.216  0.0383  0.1159  0.7195
14128SOL    HW245278  10.755   8.976   6.214  0.0376  0.1191 -0.5316
14129SOL     OW45279   1.373  10.187   9.991 -0.0232 -0.6212 -0.3051
14129SOL    HW145280   1.355  10.182   9.897 -0.7414 -0.4430 -0.1805
14129SOL    HW245281   1.423  10.108  10.010 -1.1467 -1.4264 -0.5631
14130SOL     OW45282   2.007   4.977   9.295  0.0384 -0.4335 -0.6559
14130SOL    HW145283   2.028   5.037   9.224 -0.2973  0.1443 -0.2750
14130SOL    HW245284   2.091   4.957   9.336  0.2099 -0.6228 -1.0923
14131SOL     OW45285   1.946   3.022   9.640  0.5675  0.2750  0.0608
14131SOL    HW145286   1.902   3.075   9.706 -2.4405 -1.2783 -0.4973
14131SOL    HW245287   1.941   2.933   9.675  3.6793 -0.0018  0.0671
14132SOL     OW45288   1.264   0.368   1.283  0.1140  0.2328  0.1354
14132SOL    HW145289   1.318   0.432   1.236  1.8135  0.5592  2.3295
14132SOL    HW245290   1.308   0.284   1.268 -0.7091 -0.0537 -0.7489
14133SOL     OW45291  10.473   3.235   8.244  0.0098  0.2056 -0.6690
14133SOL    HW145292  10.483   3.201   8.333  0.9143 -2.4037 -1.6551
14133SOL    HW245293  10.507   3.324   8.248 -0.5708  0.3720  1.7102
14134SOL     OW45294  10.781   1.984   8.241 -0.4327  0.1557 -0.4321
14134SOL    HW145295  10.870   1.959   8.217 -0.9505 -0.3444 -1.9490
14134SOL    HW245296  10.726   1.947   8.172 -1.7649  0.9869  0.1384
14135SOL     OW45297   2.945   5.745   7.546 -0.2614 -0.0270  0.0111
14135SOL    HW145298   2.856   5.729   7.578  0.5476 -0.6758  2.1183
14135SOL    HW245299   2.969   5.831   7.583  0.2653 -0.2299  0.1585
14136SOL     OW45300   7.435   4.504   3.805 -0.1740  0.5029 -0.0532
14136SOL    HW145301   7.391   4.577   3.762  0.8537 -0.2077 -2.4637
14136SOL    HW245302   7.506   4.545   3.854 -0.6773  1.2511  0.0715
14137SOL     OW45303   9.183   3.569  10.699  0.1698 -0.4784 -0.4400
14137SOL    HW145304   9.185   3.511  10.774  0.6545  1.0356  0.7741
14137SOL    HW245305   9.241   3.529  10.635  1.3575 -0.7786  0.7924
14138SOL     OW45306   8.818   2.574   0.213  1.2270  0.5133  0.4211
14138SOL    HW145307   8.847   2.539   0.297 -1.7418 -0.6013  1.0786
14138SOL    HW245308   8.841   2.506   0.150  2.2945  0.7906  0.4891
14139SOL     OW45309   4.103   0.166   3.148 -0.9273 -0.1482  0.1270
14139SOL    HW145310   4.111   0.233   3.216 -1.2198  0.6964 -0.6391
14139SOL    HW245311   4.047   0.207   3.082 -2.2288 -1.6633  0.2522
14140SOL     OW45312   7.835   6.244   8.927  0.3898  0.4536  0.0616
14140SOL    HW145313   7.748   6.280   8.945  0.2360  0.5813 -0.8776
14140SOL    HW245314   7.894   6.319   8.930  0.5590  0.2948  1.1877
14141SOL     OW45315   5.776   2.700   1.070 -0.6372  0.0454 -0.1903
14141SOL    HW145316   5.813   2.612   1.084 -1.0150 -0.0165  0.4752
14141SOL    HW245317   5.800   2.748   1.149 -0.9509  0.3655 -0.2892
14142SOL     OW45318   7.231   7.109   4.796 -0.0498  0.4316  0.1864
14142SOL    HW145319   7.179   7.061   4.861  1.0287 -0.5723  0.3345
14142SOL    HW245320   7.167   7.141   4.733 -0.7826 -1.5795 -0.1620
14143SOL     OW45321   8.229   6.920   0.231 -0.3219  0.8124 -0.1142
14143SOL    HW145322   8.155   6.895   0.287  0.1697  2.6228  1.4551
14143SOL    HW245323   8.303   6.928   0.291  0.7601  0.7046 -1.3919
14144SOL     OW45324   3.938   9.382   9.839  0.6260 -0.3437 -0.7519
14144SOL    HW145325   3.935   9.287   9.830 -1.3560 -0.4135  0.2710
14144SOL    HW245326   4.029   9.401   9.865  0.6310 -2.1262  0.7120
14145SOL     OW45327   4.443   3.441   6.105  0.0913  0.2574 -0.8041
14145SOL    HW145328   4.410   3.468   6.019 -1.0349  0.8009 -0.2172
14145SOL    HW245329   4.533   3.474   6.107  0.4343 -0.5367 -2.1096
14146SOL     OW45330   8.862   7.638   8.786  0.0847  0.1821  0.0911
14146SOL    HW145331   8.895   7.725   8.810  2.5590 -0.7177  0.2546
14146SOL    HW245332   8.913   7.614   8.709 -0.0388 -1.4169  0.4811
14147SOL     OW45333   5.733  10.356   9.469 -0.5250 -0.1335 -0.0696
14147SOL    HW145334   5.777  10.420   9.413  2.1470 -0.6699  1.2180
14147SOL    HW245335   5.720  10.402   9.552 -1.0260 -0.4627  0.0362
14148SOL     OW45336   9.102   4.860   2.522  0.1982 -0.5506  0.4672
14148SOL    HW145337   9.063   4.773   2.521 -0.5947 -0.2365 -1.3406
14148SOL    HW245338   9.069   4.902   2.442  0.4682  1.4498  1.3411
14149SOL     OW45339   1.833   8.501   2.018 -0.2902  0.1484 -0.5843
14149SOL    HW145340   1.919   8.497   2.059 -0.1541  0.7036 -0.8110
14149SOL    HW245341   1.804   8.591   2.031 -2.5744 -0.9061  2.9890
14150SOL     OW45342   9.427   2.391   0.896  0.5741 -0.2656 -0.6008
14150SOL    HW145343   9.465   2.359   0.978  0.8832 -0.8146 -0.9429
14150SOL    HW245344   9.376   2.317   0.863 -0.4720  0.3303 -0.3563
14151SOL     OW45345   9.826  10.479   6.329 -0.9933  0.2603 -0.0913
14151SOL    HW145346   9.746  10.491   6.381  0.1779  2.6149  1.3639
14151SOL    HW245347   9.831  10.558   6.274 -0.8616 -0.9871 -1.9663
14152SOL     OW45348   5.981  10.267   9.570  0.2122  0.1705  0.2954
14152SOL    HW145349   5.907  10.260   9.510  1.3356 -0.6767 -1.0519
14152SOL    HW245350   5.957  10.212   9.645 -0.3186 -0.4824 -0.3400
14153SOL     OW45351   6.678   9.754   8.145 -0.1266 -0.0068 -0.4347
14153SOL    HW145352   6.606   9.803   8.105  0.1505  1.1043  0.4058
14153SOL    HW245353   6.704   9.691   8.077  1.1290  2.6008 -2.5652
14154SOL     OW45354   1.077   5.808   4.385  0.3706  0.6667  0.4307
14154SOL    HW145355   1.051   5.899   4.397 -1.5050  0.3992 -1.0546
14154SOL    HW245356   1.065   5.768   4.472 -1.0345  1.3470  0.5778
14155SOL     OW45357   8.374   5.988   1.711  0.1458 -0.2737 -0.0335
14155SOL    HW145358   8.279   5.989   1.706  0.0432 -1.4736  1.1765
14155SOL    HW245359   8.397   5.896   1.727  1.2941  0.4196  2.7793
14156SOL     OW45360   5.679   6.104   3.655 -0.1152  0.8034  0.4836
14156SOL    HW145361   5.726   6.039   3.708  0.1945  1.0591  0.5288
14156SOL    HW245362   5.746   6.168   3.632 -0.0427  0.2606 -0.9290
14157SOL     OW45363   0.606   5.523   7.077  0.1045  0.1776  0.3628
14157SOL    HW145364   0.554   5.446   7.053  0.6190  0.2365 -1.0061
14157SOL    HW245365   0.639   5.503   7.165 -0.4773 -0.7837  0.3799
14158SOL     OW45366   2.834   8.004   4.987 -0.3619 -0.1371 -0.0962
14158SOL    HW145367   2.851   8.095   5.014  1.3074 -0.6321  0.6694
14158SOL    HW245368   2.858   7.952   5.064 -1.4023 -1.2401 -0.4887
14159SOL     OW45369   8.277   5.952   3.501 -0.0882  0.3644 -0.2807
14159SOL    HW145370   8.255   6.021   3.439 -0.3135 -0.4156 -1.0843
14159SOL    HW245371   8.199   5.897   3.504  0.4885 -0.4861 -0.5115
14160SOL     OW45372   3.776   0.459   3.215 -0.5091 -0.0412  0.5316
14160SOL    HW145373   3.698   0.463   3.160 -0.6532 -3.3805  0.2910
14160SOL    HW245374   3.758   0.519   3.288 -3.5934 -1.1829  0.8404
14161SOL     OW45375   2.526   9.244   3.666 -0.2292  0.3274  0.5739
14161SOL    HW145376   2.437   9.213   3.650  0.4778 -1.1647 -0.7543
14161SOL    HW245377   2.548   9.209   3.753 -1.3009  1.6881  1.4385
14162SOL     OW45378   4.987   9.821   8.764  0.7611 -0.1375 -0.9586
14162SOL    HW145379   4.944   9.739   8.741  2.4221 -1.2265 -0.3126
14162SOL    HW245380   4.920   9.871   8.810  0.5360 -2.4250  1.4263
14163SOL     OW45381   2.463   4.395   4.824  0.6219  0.0322  0.3694
14163SOL    HW145382   2.498   4.370   4.739  1.5484  1.5715  0.2464
14163SOL    HW245383   2.369   4.386   4.815  0.8347 -2.5868  0.1460
14164SOL     OW45384   6.529   7.847   2.931 -0.5947  0.7162  0.2614
14164SOL    HW145385   6.598   7.851   2.998  0.6711  0.7524 -0.9885
14164SOL    HW245386   6.551   7.919   2.871 -0.8487 -0.2121 -0.9707
14165SOL     OW45387   0.719   9.523   3.797  0.0604  0.1559  1.2618
14165SOL    HW145388   0.731   9.603   3.745  1.8230 -1.3299 -0.7789
14165SOL    HW245389   0.631   9.532   3.834 -1.2027  1.4951 -1.7263
14166SOL     OW45390   5.943   2.067   6.925  0.4946 -0.0919 -0.4482
14166SOL    HW145391   6.009   2.098   6.988  0.6739 -1.6083  0.1699
14166SOL    HW245392   5.909   2.146   6.884  1.9217  0.7976  0.0167
14167SOL     OW45393   6.379   6.256   3.584 -0.5264 -0.3229 -0.4211
14167SOL    HW145394   6.377   6.290   3.673 -1.1207 -1.3080 -0.0428
14167SOL    HW245395   6.464   6.210   3.578  0.1300  0.9025 -0.8281
14168SOL     OW45396   5.856   9.268   2.205  0.4013 -0.2296 -0.1488
14168SOL    HW145397   5.852   9.258   2.301  2.0737 -0.9209 -0.1283
14168SOL    HW245398   5.764   9.263   2.178 -0.0940 -0.2591  1.3939
14169SOL     OW45399   9.977   8.023   1.816 -0.3913  0.1366 -0.1379
14169SOL    HW145400   9.906   8.075   1.779 -0.4941  0.9327  1.1184
14169SOL    HW245401   9.933   7.960   1.873 -0.1047  0.5296  0.5221
14170SOL     OW45402   2.911   8.012   1.956  0.0541  0.0480 -0.4068
14170SOL    HW145403   2.952   7.990   1.872  1.2379  0.3464  0.0898
14170SOL    HW245404   2.972   8.070   1.999 -0.7360  0.2268  0.5101
14171SOL     OW45405   1.864   1.143   7.233  0.6461  0.3222  0.6168
14171SOL    HW145406   1.837   1.128   7.323 -0.3919  0.0619  0.2784
14171SOL    HW245407   1.947   1.190   7.240 -0.2039  1.7425  1.7238
14172SOL     OW45408   7.723   6.839   3.453  0.1813  0.4707 -0.1238
14172SOL    HW145409   7.717   6.747   3.428 -1.6427  0.2327  1.0329
14172SOL    HW245410   7.641   6.878   3.424  1.0894  1.8782 -0.9762
14173SOL     OW45411   1.456   9.687   1.291 -0.2902  0.3081  0.5544
14173SOL    HW145412   1.541   9.729   1.309  0.3671 -0.6123 -0.3011
14173SOL    HW245413   1.391   9.749   1.325  0.7253  0.9570  1.3849
14174SOL     OW45414   9.020   1.565   3.273  0.7649  0.4027  0.1524
14174SOL    HW145415   9.059   1.595   3.355 -0.6381 -1.0701  1.4113
14174SOL    HW245416   8.933   1.606   3.272  0.6151  0.0804 -0.4118
14175SOL     OW45417   9.585   6.704   1.582  0.3619 -0.2639  0.3936
14175SOL    HW145418   9.671   6.685   1.620  0.5731  3.2835  2.1183
14175SOL    HW245419   9.599   6.782   1.528 -1.6369  0.1061  0.3241
14176SOL     OW45420   1.460   5.491   6.416  0.4947  0.5093  0.2693
14176SOL    HW145421   1.401   5.446   6.476  0.5644 -0.9759 -0.7278
14176SOL    HW245422   1.403   5.548   6.364 -0.2752 -1.5317 -1.2644
14177SOL     OW45423   1.529   3.349   3.077  0.3876 -0.2928  0.0329
14177SOL    HW145424   1.449   3.298   3.090 -0.3382  0.0110 -2.6530
14177SOL    HW245425   1.518   3.426   3.133 -1.2705 -0.2209 -0.3343
14178SOL     OW45426   9.728   4.668   6.350 -0.6761  0.0014  0.3435
14178SOL    HW145427   9.785   4.710   6.286 -0.1641 -1.0183  0.1243
14178SOL    HW245428   9.656   4.631   6.299 -0.7372 -0.0453  0.4620
14179SOL     OW45429   1.948  10.298   4.605  0.0566  0.1709  0.5694
14179SOL    HW145430   1.996  10.296   4.523  0.8878 -0.0765  1.0481
14179SOL    HW245431   1.924  10.206   4.621  1.4970 -0.0929  1.4923
14180SOL     OW45432   2.233   4.063   5.216 -0.0266  0.5325  0.1112
14180SOL    HW145433   2.158   4.111   5.181  0.9318  1.4864 -0.7015
14180SOL    HW245434   2.295   4.131   5.242 -0.2186 -0.1838  2.6543
14181SOL     OW45435   3.460   6.447   8.928 -0.1506  0.1723  0.7264
14181SOL    HW145436   3.444   6.353   8.925  0.5784  0.0765 -0.8025
14181SOL    HW245437   3.462   6.475   8.837 -1.3064  1.8565  1.1653
14182SOL     OW45438   4.398   3.308   4.270 -0.5226  0.1079  0.4555
14182SOL    HW145439   4.383   3.214   4.257 -0.8200  0.1228  0.6770
14182SOL    HW245440   4.460   3.312   4.343  1.3929  0.0143 -1.0937
14183SOL     OW45441   3.341   0.215   1.783  0.4614  0.3440  0.1847
14183SOL    HW145442   3.344   0.171   1.868  0.6603 -2.2208 -1.0478
14183SOL    HW245443   3.431   0.211   1.752  0.9508  3.5732  0.8372
14184SOL     OW45444   8.807   4.062   3.852  0.0146 -0.1959 -0.6790
14184SOL    HW145445   8.760   3.979   3.854 -3.3339  1.5247  0.0403
14184SOL    HW245446   8.757   4.117   3.792  1.2736  1.7192 -0.0827
14185SOL     OW45447   0.246   1.268   9.151  0.3550  0.0856 -0.1496
14185SOL    HW145448   0.260   1.291   9.059 -0.0732 -3.0468 -1.1243
14185SOL    HW245449   0.202   1.184   9.148 -2.0419  1.0496  2.9643
14186SOL     OW45450   1.447   3.231   5.712 -0.0179 -0.2596 -0.4829
14186SOL    HW145451   1.432   3.282   5.791 -1.0120  0.6575 -1.2351
14186SOL    HW245452   1.375   3.255   5.654  0.5634 -1.0896 -1.5870
14187SOL     OW45453   0.257  10.103   2.571 -0.0747  0.3322 -0.3152
14187SOL    HW145454   0.256  10.078   2.479  0.8052 -0.9443  0.0000
14187SOL    HW245455   0.220  10.028   2.618 -1.4869  1.3748  0.3119
14188SOL     OW45456   8.382   3.886   3.346 -0.5216  0.0571  0.4485
14188SOL    HW145457   8.300   3.935   3.336  0.3800  1.4541 -0.4436
14188SOL    HW245458   8.360   3.797   3.320 -1.5315  0.6275 -0.7743
14189SOL     OW45459   2.978   0.958   4.232 -0.8340 -0.1703  0.3333
14189SOL    HW145460   2.955   0.870   4.204  1.1185 -1.2905  2.0077
14189SOL    HW245461   3.040   0.989   4.166 -0.8612 -0.3917  0.2027
14190SOL     OW45462   2.969   6.580   7.353 -0.2078 -0.5272  0.5728
14190SOL    HW145463   2.923   6.518   7.409  1.1396 -1.1074  1.0917
14190SOL    HW245464   2.941   6.666   7.383 -0.8302 -0.8576  0.9612
14191SOL     OW45465   8.671   9.052   1.533  0.3957 -0.1540 -0.2480
14191SOL    HW145466   8.601   8.989   1.512  0.9799 -0.9429  0.1103
14191SOL    HW245467   8.681   9.046   1.628 -0.6646  1.7213  0.0328
14192SOL     OW45468   1.512   9.193  10.411 -0.2837 -0.4231  0.2231
14192SOL    HW145469   1.468   9.240  10.341  0.1287  1.7906  1.3795
14192SOL    HW245470   1.489   9.240  10.491  0.2035 -2.1721  1.4631
14193SOL     OW45471   4.094   8.829   4.339  0.3462 -0.1836 -0.2366
14193SOL    HW145472   4.003   8.826   4.310  0.9099 -1.0019 -2.0985
14193SOL    HW245473   4.135   8.895   4.282  0.4914  1.9559  2.1288
14194SOL     OW45474   9.483  10.437   8.090 -0.2951 -0.0312  0.2346
14194SOL    HW145475   9.516  10.355   8.126 -0.3325  0.0666  0.4901
14194SOL    HW245476   9.554  10.469   8.033 -0.0871  0.0028  0.5112
14195SOL     OW45477   5.669   0.676   5.009  0.0625  0.0110  1.1257
14195SOL    HW145478   5.650   0.673   4.915 -0.0345  0.2488  1.1385
14195SOL    HW245479   5.692   0.585   5.031  0.8970  0.1145  0.7074
14196SOL     OW45480   2.432   4.130   1.281  0.1753  0.1801 -0.1732
14196SOL    HW145481   2.402   4.177   1.359 -0.5090  1.4290 -1.1508
14196SOL    HW245482   2.527   4.133   1.286  0.1388  0.1069  0.6961
14197SOL     OW45483   8.804  10.102   3.179  0.5542 -0.4164  0.1924
14197SOL    HW145484   8.720  10.148   3.178  1.0032  0.4376 -0.8939
14197SOL    HW245485   8.792  10.030   3.117  0.0753 -1.3846  1.3729
14198SOL     OW45486   3.912   9.796   4.481 -0.2146  0.8594  0.2294
14198SOL    HW145487   3.822   9.788   4.511 -0.7206  1.2671 -1.1240
14198SOL    HW245488   3.920   9.733   4.409  0.5093  0.9805  0.1938
14199SOL     OW45489   1.190   9.320   7.325 -0.1691  0.1407 -0.0485
14199SOL    HW145490   1.134   9.246   7.347  0.4110 -0.2766  0.0568
14199SOL    HW245491   1.153   9.356   7.245 -0.4272 -0.2940 -0.1246
14200SOL     OW45492   8.091   1.619   6.992 -0.0010 -0.3468 -0.1361
14200SOL    HW145493   8.060   1.648   6.906  0.4394  0.8530  0.0886
14200SOL    HW245494   8.181   1.590   6.976  0.3211  0.5385  0.0361
14201SOL     OW45495   3.577   1.687   4.813  0.8394 -0.9113  0.1713
14201SOL    HW145496   3.510   1.619   4.801  0.7322 -0.8742  0.5528
14201SOL    HW245497   3.617   1.666   4.897  0.2593 -0.0238  0.6743
14202SOL     OW45498   6.829   3.348   8.942  0.0282 -0.6547  0.3005
14202SOL    HW145499   6.793   3.421   8.993 -1.5357 -0.7694 -0.5797
14202SOL    HW245500   6.882   3.299   9.005 -0.8219 -0.0798  1.5027
14203SOL     OW45501   2.310   9.285   4.535  0.2428  0.1294 -0.0702
14203SOL    HW145502   2.262   9.362   4.506  1.3838  0.8539 -0.0900
14203SOL    HW245503   2.368   9.263   4.462  0.6683 -0.1171  0.3343
14204SOL     OW45504   4.774   3.121   0.795  0.0424  0.4403 -0.7184
14204SOL    HW145505   4.717   3.177   0.848  1.6211  0.8693  0.5994
14204SOL    HW245506   4.729   3.115   0.711 -1.8934  0.8340  0.2156
14205SOL     OW45507   2.258   8.670   2.443 -0.2276 -0.2246  0.7312
14205SOL    HW145508   2.310   8.590   2.437 -0.6413 -0.3954 -1.7512
14205SOL    HW245509   2.169   8.642   2.421 -0.8471  0.5534  2.1285
14206SOL     OW45510   9.083   3.875   4.311  0.1019  0.2585 -0.0126
14206SOL    HW145511   8.990   3.888   4.297 -0.2792 -2.0589 -0.0450
14206SOL    HW245512   9.091   3.851   4.403  0.3884 -1.2352 -0.3891
14207SOL     OW45513   0.841   0.978   8.854  1.0027 -0.4414 -0.0338
14207SOL    HW145514   0.874   1.058   8.814  1.3977 -1.1177 -1.1216
14207SOL    HW245515   0.851   0.992   8.948  0.3429  1.0777 -0.1635
14208SOL     OW45516   5.272  10.007   4.136  0.3979  0.0564 -0.7680
14208SOL    HW145517   5.311   9.963   4.212  0.2239 -1.9492 -1.7909
14208SOL    HW245518   5.313  10.094   4.136  0.4807  0.0710  1.5334
14209SOL     OW45519   7.551   9.230   0.269  0.1493 -0.0937  0.3109
14209SOL    HW145520   7.571   9.170   0.340  1.3564  0.6530  0.6378
14209SOL    HW245521   7.629   9.285   0.262  0.0364 -0.1290 -1.5732
14210SOL     OW45522   0.346   5.231   0.146 -0.1151 -0.2046 -0.3723
14210SOL    HW145523   0.394   5.297   0.196  0.2486  0.3053 -1.3694
14210SOL    HW245524   0.254   5.245   0.171 -0.0427  0.6884 -0.5686
14211SOL     OW45525   3.060  10.698   9.708 -0.3262  0.4636  0.2107
14211SOL    HW145526   3.121  10.683   9.636 -0.6339  1.0965 -0.1866
14211SOL    HW245527   2.982  10.736   9.667  0.2802  2.8368  1.1013
14212SOL     OW45528   3.753   4.375   7.692 -0.3020 -0.3568 -0.1387
14212SOL    HW145529   3.731   4.401   7.603 -0.2360 -0.8048 -0.2921
14212SOL    HW245530   3.842   4.339   7.686 -1.0732 -2.3472 -0.3078
14213SOL     OW45531   5.802   8.215  10.272  0.2205  0.8191 -0.5856
14213SOL    HW145532   5.882   8.212  10.219  2.1274  0.6019  2.1025
14213SOL    HW245533   5.814   8.291  10.329  1.3636 -2.2860  3.8234
14214SOL     OW45534   2.649   2.144   0.291  0.3316  0.1260 -0.0244
14214SOL    HW145535   2.683   2.191   0.215 -0.2708  0.6429  0.0170
14214SOL    HW245536   2.580   2.201   0.326 -2.0869 -1.7950 -1.3599
14215SOL     OW45537   7.862  10.790   7.808  0.3151 -0.4814  0.8766
14215SOL    HW145538   7.937  10.730   7.811  0.1385 -0.6916  1.1042
14215SOL    HW245539   7.884  10.852   7.738  0.5481 -0.7457  0.7124
14216SOL     OW45540   9.092   4.487   8.340  0.8345  0.1790 -0.1614
14216SOL    HW145541   9.147   4.555   8.380  0.5481 -0.0125  0.5732
14216SOL    HW245542   9.022   4.474   8.403  0.6847 -0.5394 -0.4750
14217SOL     OW45543   0.269   7.973   0.749  0.2518 -0.1407 -0.2589
14217SOL    HW145544   0.345   8.032   0.751 -0.2551  0.5136  0.3892
14217SOL    HW245545   0.250   7.956   0.841 -1.0523  0.5941 -0.3621
14218SOL     OW45546   6.847   7.973   7.067 -0.5110  1.0167  0.3396
14218SOL    HW145547   6.835   8.057   7.022  0.9736  1.7967  1.3034
14218SOL    HW245548   6.935   7.946   7.044 -0.8904 -0.1815  0.2483
14219SOL     OW45549   5.125   1.732   7.939  0.1419 -0.3273 -0.1036
14219SOL    HW145550   5.087   1.816   7.964 -1.2406 -1.1840  0.8309
14219SOL    HW245551   5.169   1.749   7.856  1.3657  1.6968  0.8741
14220SOL     OW45552  10.559   6.813   3.753 -0.2149 -0.4551  0.3075
14220SOL    HW145553  10.514   6.809   3.837  0.0849  1.8062  0.6467
14220SOL    HW245554  10.538   6.900   3.719  2.6364  0.1299 -0.2168
14221SOL     OW45555   1.650   7.983   0.415  0.4490  0.2490 -0.2861
14221SOL    HW145556   1.646   7.914   0.350  1.7056 -0.5700  0.4768
14221SOL    HW245557   1.709   8.048   0.378  2.3872 -0.9147  0.6223
14222SOL     OW45558   1.732   2.511   4.302 -0.4558  0.4233 -0.1182
14222SOL    HW145559   1.648   2.471   4.326  0.2944 -0.5619  0.9588
14222SOL    HW245560   1.747   2.482   4.212 -0.9273  0.0043 -0.0686
14223SOL     OW45561   2.363   3.262   1.242 -0.2530  0.0784  0.2176
14223SOL    HW145562   2.444   3.212   1.231 -0.4278 -0.4461  1.2005
14223SOL    HW245563   2.392   3.344   1.283 -0.4408 -1.0946  2.8770
14224SOL     OW45564   3.628   9.630   0.230 -0.0697  0.1131 -0.0611
14224SOL    HW145565   3.632   9.673   0.315  3.3852 -0.2187  0.0637
14224SOL    HW245566   3.663   9.695   0.169  0.8860 -0.8930 -0.6162
14225SOL     OW45567   5.978   2.127   7.624 -0.4994  0.3940  0.1868
14225SOL    HW145568   5.930   2.138   7.542 -1.6996  1.1145  0.9700
14225SOL    HW245569   5.921   2.164   7.691  1.0189  1.0305  1.1911
14226SOL     OW45570   9.703   3.769   4.556 -0.1348  0.3577  0.1074
14226SOL    HW145571   9.736   3.818   4.631  1.5604 -1.1761  0.4096
14226SOL    HW245572   9.712   3.829   4.482  2.6043  0.3194  0.3348
14227SOL     OW45573   2.491   2.021   7.766  0.0571 -0.1791 -0.0740
14227SOL    HW145574   2.397   2.040   7.763  0.3651  1.5857  0.6370
14227SOL    HW245575   2.533   2.105   7.783  1.9502 -0.4857 -2.5081
14228SOL     OW45576   9.888   9.063   9.699  0.6049 -0.0413 -0.6156
14228SOL    HW145577   9.909   9.126   9.768  2.9816 -0.9631 -0.4087
14228SOL    HW245578   9.950   9.081   9.629 -1.5638  0.6710 -2.4900
14229SOL     OW45579   7.313   7.496   3.059 -0.1261 -0.0999 -0.6502
14229SOL    HW145580   7.273   7.575   3.024 -0.6923 -0.5246 -0.9723
14229SOL    HW245581   7.285   7.493   3.150  0.0788  0.1854 -0.5763
14230SOL     OW45582   5.579   3.569   4.374 -0.6889  0.1648 -0.3789
14230SOL    HW145583   5.644   3.585   4.443 -1.4096 -2.2742  1.0264
14230SOL    HW245584   5.514   3.638   4.386  1.4481  2.5343 -1.6887
14231SOL     OW45585   7.034   9.648  10.418  0.1303 -0.1936 -0.0453
14231SOL    HW145586   7.105   9.698  10.378  0.3327 -0.5756 -0.1646
14231SOL    HW245587   7.035   9.564  10.373 -0.6121 -0.0861 -0.2708
14232SOL     OW45588   0.948   6.087   7.696 -0.5217  0.1796  0.0929
14232SOL    HW145589   0.978   6.174   7.671 -1.1816  0.4316  0.1653
14232SOL    HW245590   0.874   6.069   7.637  1.4957 -1.6233 -2.0779
14233SOL     OW45591   4.576   5.032   6.749  0.6637 -0.2614 -0.1379
14233SOL    HW145592   4.544   5.001   6.665  0.9532  0.8448 -0.6778
14233SOL    HW245593   4.671   5.035   6.739  0.6841  0.1054  0.1479
14234SOL     OW45594   3.853   9.997   8.135  0.3021 -0.1521  0.7820
14234SOL    HW145595   3.779   9.973   8.080  0.4051  1.2892 -0.0419
14234SOL    HW245596   3.831   9.961   8.221 -1.0571 -0.3027  0.4017
14235SOL     OW45597   6.505   7.436   0.121  0.1973 -0.2217 -0.2693
14235SOL    HW145598   6.458   7.384   0.186 -2.0547  0.7053 -1.0896
14235SOL    HW245599   6.526   7.518   0.165 -2.4661  0.9388 -0.9592
14236SOL     OW45600   1.420  10.035   1.090 -0.4850 -0.1005 -0.4451
14236SOL    HW145601   1.488  10.005   1.149 -1.4170 -0.7614  0.3114
14236SOL    HW245602   1.397  10.122   1.123  0.2981  0.3219 -0.9820
14237SOL     OW45603   6.741   2.583   8.816 -0.1561 -0.5485 -0.1593
14237SOL    HW145604   6.676   2.558   8.750 -0.8413 -0.2957  0.3981
14237SOL    HW245605   6.795   2.505   8.828 -0.2670 -0.7222 -0.7265
14238SOL     OW45606   6.763   8.828   6.372  0.1924  0.0622 -0.1857
14238SOL    HW145607   6.801   8.770   6.305 -1.2051 -0.6004 -0.4341
14238SOL    HW245608   6.693   8.874   6.327 -1.7537 -1.4608  1.1259
14239SOL     OW45609   0.020   9.123   2.526 -0.0125  0.2677  0.1661
14239SOL    HW145610   0.086   9.183   2.491 -0.7681  1.3339  0.5389
14239SOL    HW245611  -0.021   9.171   2.598 -1.2378 -0.3532 -0.0990
14240SOL     OW45612   4.424   8.691   6.441  0.2546 -0.7880 -0.2791
14240SOL    HW145613   4.364   8.640   6.495 -0.0313 -0.6652 -0.4783
14240SOL    HW245614   4.405   8.782   6.464  1.4089 -0.7906  0.7604
14241SOL     OW45615   5.274   3.979   8.349 -0.1781 -0.2681 -0.2549
14241SOL    HW145616   5.354   4.033   8.352 -0.9989  0.9513  1.1802
14241SOL    HW245617   5.266   3.944   8.438 -2.2914  1.3124  0.2719
14242SOL     OW45618   9.145   6.075   1.810 -0.0146 -0.1420  0.2579
14242SOL    HW145619   9.099   6.062   1.727  0.0213 -0.5102  0.2962
14242SOL    HW245620   9.148   6.170   1.820 -4.0466  0.0159  2.0228
14243SOL     OW45621  10.411   9.627   9.939  0.4613 -0.6842  0.0540
14243SOL    HW145622  10.492   9.635   9.888 -0.7369 -0.5152 -1.9359
14243SOL    HW245623  10.378   9.716   9.945 -0.0754 -0.8760 -0.0209
14244SOL     OW45624  10.261   6.918   5.657 -0.0348  0.0755  0.2155
14244SOL    HW145625  10.207   6.840   5.644  0.0865  0.0816 -0.3162
14244SOL    HW245626  10.301   6.934   5.572  2.5026 -1.1685  1.0950
14245SOL     OW45627   3.581   4.705   4.604 -0.5395 -0.2148 -0.0048
14245SOL    HW145628   3.591   4.740   4.693  0.3563  0.6890 -0.4403
14245SOL    HW245629   3.495   4.663   4.604 -0.1924 -1.0182  1.5443
14246SOL     OW45630   6.018   8.599   7.414  0.1946 -0.2837  0.2048
14246SOL    HW145631   5.998   8.623   7.505  0.2939 -0.6029  0.3105
14246SOL    HW245632   5.974   8.515   7.401  0.4145 -0.3745  0.0456
14247SOL     OW45633   5.805   9.906   0.093 -0.1020  0.5038 -0.0022
14247SOL    HW145634   5.803  10.001   0.084 -1.6620  0.8181  2.4679
14247SOL    HW245635   5.713   9.880   0.094  0.3122 -1.2251 -1.8179
14248SOL     OW45636   3.884   5.407   6.017  0.2808 -0.7635 -0.1268
14248SOL    HW145637   3.854   5.324   5.979 -1.0227 -0.3628 -0.0250
14248SOL    HW245638   3.825   5.472   5.980 -1.2393 -0.3684  2.7226
14249SOL     OW45639   1.940   7.827   7.108  0.0744  0.4726  0.4584
14249SOL    HW145640   1.979   7.867   7.030  1.8377 -1.5199  0.2400
14249SOL    HW245641   2.014   7.792   7.157 -1.1114  0.5444  2.4079
14250SOL     OW45642   4.731   8.523   4.348  1.3322 -0.3579 -0.4645
14250SOL    HW145643   4.805   8.529   4.288  0.1319 -1.7496 -2.1772
14250SOL    HW245644   4.653   8.524   4.292  0.0941 -0.4228  1.1570
14251SOL     OW45645   8.584   5.911   7.747  0.3602 -0.1590  0.4926
14251SOL    HW145646   8.523   5.984   7.740  0.0523 -0.4019  0.5990
14251SOL    HW245647   8.644   5.936   7.817  0.3780  0.0785  0.3932
14252SOL     OW45648   4.358   9.311   6.408  0.3585 -0.0681 -0.5202
14252SOL    HW145649   4.413   9.325   6.331 -1.1089  0.0113 -1.5908
14252SOL    HW245650   4.381   9.382   6.468  0.7060  0.5416 -1.3655
14253SOL     OW45651   5.245   4.003   5.640 -0.1401 -0.0157 -0.2583
14253SOL    HW145652   5.293   4.076   5.680 -0.1785 -0.9496  1.5759
14253SOL    HW245653   5.231   4.031   5.549 -0.7779  2.5520  0.5586
14254SOL     OW45654  10.425   7.667   2.035 -0.3066  0.2569  0.3137
14254SOL    HW145655  10.369   7.607   2.083 -0.0887 -0.1109  0.1205
14254SOL    HW245656  10.510   7.661   2.079 -0.0964 -0.1100 -0.1244
14255SOL     OW45657   6.003   9.905   3.831  0.4701 -0.4875  0.1970
14255SOL    HW145658   5.938   9.848   3.789  0.0017 -0.2467  0.5910
14255SOL    HW245659   6.084   9.886   3.784 -0.0255 -0.2859 -0.7757
14256SOL     OW45660   4.784   8.510   2.466 -0.4859 -0.1771 -0.1254
14256SOL    HW145661   4.803   8.603   2.465 -0.2566 -0.1283  2.4103
14256SOL    HW245662   4.781   8.485   2.374 -1.6712  2.5162 -0.9039
14257SOL     OW45663  10.523   7.117   1.773  0.0109 -0.1212  0.3209
14257SOL    HW145664  10.540   7.063   1.850  1.6116 -0.9639 -0.5685
14257SOL    HW245665  10.572   7.198   1.789  1.6773 -0.9309 -0.4617
14258SOL     OW45666   0.321   4.009   8.168  0.0895 -0.3412 -0.2510
14258SOL    HW145667   0.266   3.995   8.091 -0.7559  0.4686  0.1813
14258SOL    HW245668   0.272   4.073   8.221  0.0170 -1.7817  1.5566
14259SOL     OW45669   3.411   9.814   8.488  0.3832 -0.1496 -0.3443
14259SOL    HW145670   3.468   9.885   8.461  0.1785  0.1223 -0.0724
14259SOL    HW245671   3.441   9.738   8.439  2.9023 -0.7457  1.8986
14260SOL     OW45672   6.760   5.578   9.117 -0.0718 -0.2791  0.3660
14260SOL    HW145673   6.701   5.649   9.142 -0.0717  0.4895 -1.6043
14260SOL    HW245674   6.847   5.608   9.146 -0.4055 -0.7444  1.9444
14261SOL     OW45675   7.500   2.816   1.165  0.4151 -0.3829 -0.3480
14261SOL    HW145676   7.408   2.825   1.192  0.6173  0.0384  0.2449
14261SOL    HW245677   7.508   2.872   1.088  0.1410 -0.5239 -0.4781
14262SOL     OW45678   9.891   8.045   3.333  0.5166 -0.1088 -0.1281
14262SOL    HW145679   9.891   8.036   3.429 -0.5203 -1.4878 -0.2288
14262SOL    HW245680   9.933   7.966   3.301  1.6598  0.7500 -0.8186
14263SOL     OW45681   1.552  10.692   4.907 -0.4495  0.2102  0.3698
14263SOL    HW145682   1.588  10.780   4.919  0.4158 -0.0251 -0.3995
14263SOL    HW245683   1.491  10.701   4.833 -1.0343  0.3429  0.8617
14264SOL     OW45684   1.709   6.703   7.758  0.2700 -0.0863  0.0693
14264SOL    HW145685   1.716   6.695   7.663 -0.0818  3.5884 -0.4352
14264SOL    HW245686   1.615   6.695   7.775  0.1756  0.5604 -0.1101
14265SOL     OW45687   6.206   7.419   5.287  0.0594 -0.2649 -0.5957
14265SOL    HW145688   6.132   7.393   5.341  1.6803  1.5585  2.7679
14265SOL    HW245689   6.185   7.507   5.257  0.3472 -0.2033 -0.6224
14266SOL     OW45690   2.606   9.720   0.527  0.1615  0.3075  0.3561
14266SOL    HW145691   2.518   9.725   0.565 -0.0895 -1.4850  0.0892
14266SOL    HW245692   2.655   9.662   0.586  1.1777  1.2557  0.4790
14267SOL     OW45693   5.415   4.724   9.719  0.2548  0.0793  0.1930
14267SOL    HW145694   5.425   4.819   9.707  0.9356 -0.0338 -0.1929
14267SOL    HW245695   5.346   4.700   9.658  1.8077 -0.0462 -1.6370
14268SOL     OW45696   0.059   4.470   2.174 -0.3732  0.0912 -0.2708
14268SOL    HW145697   0.026   4.520   2.100 -2.5472 -1.5185 -0.4978
14268SOL    HW245698  -0.013   4.469   2.237  0.7260 -0.1795  1.0489
14269SOL     OW45699   3.396   6.210   6.735 -0.3258  0.5966 -0.2055
14269SOL    HW145700   3.344   6.253   6.803 -1.6480  0.1947 -0.9372
14269SOL    HW245701   3.477   6.262   6.731  0.5827 -0.3932  2.8527
14270SOL     OW45702   5.817   8.469   5.092  0.3709 -0.2814  0.2014
14270SOL    HW145703   5.871   8.481   5.170 -0.4760 -0.9524  0.9207
14270SOL    HW245704   5.831   8.548   5.040 -0.0052  0.7728  1.6245
14271SOL     OW45705   7.463   6.648   4.884 -0.2465 -0.3889 -0.0654
14271SOL    HW145706   7.490   6.671   4.795 -1.2572  2.2612  0.2102
14271SOL    HW245707   7.369   6.663   4.885 -0.0118  1.3995  1.8670
14272SOL     OW45708  10.511   7.333   5.423  0.1706 -0.5158  0.2713
14272SOL    HW145709  10.460   7.285   5.358  1.8975 -1.4453 -0.4585
14272SOL    HW245710  10.584   7.370   5.374  0.7843 -0.1032  1.4605
14273SOL     OW45711   4.627   1.395   9.321 -0.0430 -0.0159 -0.1559
14273SOL    HW145712   4.562   1.457   9.289 -1.1627 -0.6427  0.8518
14273SOL    HW245713   4.695   1.450   9.361 -0.8290  0.5690  0.3848
14274SOL     OW45714   0.837   6.912   1.570  0.8214 -0.0030  0.2113
14274SOL    HW145715   0.788   6.994   1.564 -2.2886 -1.7293 -0.0968
14274SOL    HW245716   0.823   6.882   1.660  0.9812 -0.7269  0.0011
14275SOL     OW45717   4.481   5.378  10.439 -0.2603 -0.4919  0.0861
14275SOL    HW145718   4.422   5.385  10.514 -0.6264  0.9527 -0.3024
14275SOL    HW245719   4.564   5.412  10.472 -0.0229 -1.1931  0.2275
14276SOL     OW45720   4.874   4.027   5.404 -0.0156  0.6684 -0.1133
14276SOL    HW145721   4.961   4.044   5.368 -0.3790 -0.9258 -1.8576
14276SOL    HW245722   4.875   4.072   5.489  3.1670 -0.7703  0.7898
14277SOL     OW45723   1.266   5.030   4.746  0.1558 -0.2570  0.0673
14277SOL    HW145724   1.328   4.979   4.797  0.3574  0.0039  0.0870
14277SOL    HW245725   1.249   4.977   4.668  2.6915  0.9392 -1.4304
14278SOL     OW45726   4.089   2.219   3.997  0.2528  0.0001  0.3399
14278SOL    HW145727   4.011   2.167   3.976 -0.1996  1.0163 -0.6052
14278SOL    HW245728   4.060   2.278   4.066  0.4161 -0.1671  0.5510
14279SOL     OW45729   7.329   8.622   1.959 -0.5416 -0.2353 -0.7922
14279SOL    HW145730   7.258   8.687   1.962 -1.5958 -1.3457 -0.7478
14279SOL    HW245731   7.310   8.563   2.032 -0.8071 -1.7828 -2.0568
14280SOL     OW45732   9.898   6.949   8.265  0.3687 -0.0055  0.2559
14280SOL    HW145733   9.930   6.874   8.214 -1.6128 -0.6507 -0.1570
14280SOL    HW245734   9.958   7.020   8.244  0.5139 -0.6635 -1.8183
14281SOL     OW45735   9.321   3.847   6.356  0.0102 -0.6463 -0.2371
14281SOL    HW145736   9.245   3.825   6.302  0.1000  0.0815 -0.6675
14281SOL    HW245737   9.391   3.790   6.325  0.1125 -0.1081 -1.0216
14282SOL     OW45738   8.816   3.648   3.980  0.0125  0.4561 -0.1643
14282SOL    HW145739   8.820   3.593   3.901  0.9671  1.4399 -0.8423
14282SOL    HW245740   8.864   3.598   4.046 -1.5714 -0.7892  0.0882
14283SOL     OW45741   3.577   1.032   6.133  0.7954 -0.0889 -0.4590
14283SOL    HW145742   3.592   0.939   6.153  1.5438  0.4105  1.5538
14283SOL    HW245743   3.503   1.032   6.072  0.4697 -1.9785 -0.1257
14284SOL     OW45744   1.237   4.370   9.144  0.3215 -0.7616  0.0492
14284SOL    HW145745   1.179   4.326   9.081 -1.3187 -0.1259  1.0711
14284SOL    HW245746   1.287   4.432   9.091 -1.8851  0.6256 -0.4942
14285SOL     OW45747   6.441   5.855   3.493  0.0723 -0.0419  0.2442
14285SOL    HW145748   6.500   5.893   3.427 -0.1299  1.5995  0.9541
14285SOL    HW245749   6.440   5.762   3.474  3.1269 -0.1864  0.3809
14286SOL     OW45750   8.540   6.480  10.478  0.2102  0.0316  0.2582
14286SOL    HW145751   8.569   6.405  10.425 -0.0040  0.7113 -0.8642
14286SOL    HW245752   8.459   6.449  10.518  0.8899 -0.8393  1.0068
14287SOL     OW45753   8.731   2.198   7.107  0.5363 -0.2019  0.4675
14287SOL    HW145754   8.770   2.204   7.194 -1.9179  0.0210  1.6575
14287SOL    HW245755   8.636   2.197   7.124 -0.1794  3.0021 -2.3519
14288SOL     OW45756   5.101   4.169   5.280  0.0259  0.3670  0.1304
14288SOL    HW145757   5.171   4.116   5.318 -0.4293  0.3351  0.9471
14288SOL    HW245758   5.123   4.259   5.306 -0.2077  0.3625  0.3440
14289SOL     OW45759   4.492   4.678   9.176 -0.4506 -0.0451  0.2247
14289SOL    HW145760   4.549   4.713   9.108 -0.0379 -0.6441  0.2502
14289SOL    HW245761   4.524   4.589   9.190 -1.5833 -0.5098  0.0255
14290SOL     OW45762   5.237   4.024   8.633 -0.0856  0.2679 -0.1144
14290SOL    HW145763   5.197   4.002   8.718 -1.1509  0.1605 -0.6243
14290SOL    HW245764   5.263   4.116   8.642 -3.4909  1.4542 -0.8183
14291SOL     OW45765   7.975   4.530   5.932 -0.1685 -0.7226 -0.5753
14291SOL    HW145766   7.884   4.554   5.952  0.2961 -0.6780  1.7786
14291SOL    HW245767   8.004   4.598   5.871 -1.4234 -0.1693 -0.6082
14292SOL     OW45768  10.420   9.341   2.865  0.0439  0.9543 -0.5624
14292SOL    HW145769  10.382   9.407   2.925 -0.1857  0.9748 -0.7287
14292SOL    HW245770  10.395   9.371   2.778  1.8205  1.8502 -0.7951
14293SOL     OW45771   0.164   2.557   2.590  0.1434  0.3730  0.0132
14293SOL    HW145772   0.088   2.500   2.597  0.0925  0.5536  1.0418
14293SOL    HW245773   0.232   2.513   2.640  1.0824 -0.3489 -1.8147
14294SOL     OW45774   6.023   8.501   2.524 -0.2518  0.5469  0.0559
14294SOL    HW145775   6.058   8.449   2.597  1.0397  1.5892  0.2297
14294SOL    HW245776   5.931   8.515   2.546 -0.3034 -0.6016  0.6235
14295SOL     OW45777   1.786   1.317   2.781  0.1848 -0.3152 -0.4197
14295SOL    HW145778   1.827   1.252   2.724 -0.3952 -0.3279 -0.8336
14295SOL    HW245779   1.756   1.386   2.721 -0.4373 -0.3300 -0.1293
14296SOL     OW45780   0.645   3.060   9.178 -0.2081  0.0798  0.0534
14296SOL    HW145781   0.578   2.994   9.200 -0.7829  0.5912 -0.1492
14296SOL    HW245782   0.595   3.135   9.146  0.2685  1.5351  2.5050
14297SOL     OW45783   5.023   1.155   9.818  0.0713 -0.0679 -0.2944
14297SOL    HW145784   4.931   1.131   9.826 -0.0921  0.4645 -0.5289
14297SOL    HW245785   5.024   1.224   9.751  0.7909 -0.9156 -1.1896
14298SOL     OW45786   1.659   7.970   4.261  0.5493  0.1036  0.2288
14298SOL    HW145787   1.652   7.878   4.235 -0.9069 -0.1619  1.4325
14298SOL    HW245788   1.752   7.983   4.278  0.7844 -1.1258 -0.0142
14299SOL     OW45789   0.565   9.299   4.444 -0.4107 -0.5271  0.2437
14299SOL    HW145790   0.647   9.346   4.425  0.6609 -2.1531  0.6058
14299SOL    HW245791   0.542   9.326   4.533 -0.9472  0.8411 -0.2854
14300SOL     OW45792   3.772   4.218   0.836 -0.3105 -0.3815  0.1621
14300SOL    HW145793   3.863   4.190   0.835 -0.4603 -0.8652 -0.3885
14300SOL    HW245794   3.747   4.224   0.744 -0.7157  0.1426  0.3018
14301SOL     OW45795   7.549   4.692   7.424  0.7255  0.6154 -0.0749
14301SOL    HW145796   7.627   4.686   7.479  0.0492  2.1924  1.1347
14301SOL    HW245797   7.581   4.678   7.335  2.0976 -0.4817  0.5539
14302SOL     OW45798   2.011   5.690   5.487  0.2538 -0.1603  0.1797
14302SOL    HW145799   1.932   5.651   5.523  0.5422 -0.3657  0.6042
14302SOL    HW245800   2.022   5.647   5.402 -1.6644  1.9200 -1.2389
14303SOL     OW45801   4.279   5.816   1.945  0.6284 -0.2074 -0.6910
14303SOL    HW145802   4.241   5.786   1.862 -0.1264 -0.4901 -0.2531
14303SOL    HW245803   4.231   5.896   1.966  1.2786  0.2321 -0.8569
14304SOL     OW45804   3.940   0.354   4.810  0.9248 -0.2184 -0.1009
14304SOL    HW145805   3.847   0.358   4.832  1.1521 -2.0198  1.4660
14304SOL    HW245806   3.950   0.417   4.738 -0.9726  1.9801  1.3915
14305SOL     OW45807   7.019   6.935   2.914 -0.4416 -0.6560 -0.0840
14305SOL    HW145808   7.043   7.007   2.856  0.4369 -1.8582 -1.2812
14305SOL    HW245809   7.095   6.924   2.972 -0.6346 -0.5374  0.1965
14306SOL     OW45810   3.231   1.813   6.019  0.4254 -0.2342  1.1353
14306SOL    HW145811   3.201   1.890   5.972  1.1019 -1.4189 -1.4303
14306SOL    HW245812   3.291   1.846   6.086 -1.8007  1.6473  2.3390
14307SOL     OW45813   5.850  10.440   8.111 -0.3270  0.5095 -0.3151
14307SOL    HW145814   5.889  10.490   8.183  0.1725 -0.1011 -0.1538
14307SOL    HW245815   5.920  10.436   8.045 -0.7785  1.0609 -0.8430
14308SOL     OW45816   4.318   1.308  10.764 -0.0192 -0.1499 -0.3657
14308SOL    HW145817   4.353   1.385  10.810  0.6157 -1.1124  0.8374
14308SOL    HW245818   4.355   1.233  10.811 -0.8248 -1.2056 -1.3439
14309SOL     OW45819   4.562   8.789   3.496  0.1099 -0.4663  0.3693
14309SOL    HW145820   4.577   8.876   3.458 -0.4954 -0.4240  0.2192
14309SOL    HW245821   4.642   8.740   3.477  0.4583  0.0646  0.4659
14310SOL     OW45822   0.204  10.670   3.012  0.3893 -0.4152  0.1318
14310SOL    HW145823   0.217  10.690   3.104 -1.1646 -0.0812  0.3054
14310SOL    HW245824   0.174  10.752   2.973 -1.4593 -1.1770 -0.1237
14311SOL     OW45825   6.887   7.476   5.602 -0.0130  0.6420 -0.3215
14311SOL    HW145826   6.973   7.518   5.602 -1.1665  3.2628  0.6644
14311SOL    HW245827   6.840   7.519   5.530 -0.6328 -0.4571 -0.5848
14312SOL     OW45828   1.281   8.559   2.624  0.0527  0.5288 -0.4620
14312SOL    HW145829   1.229   8.536   2.701  1.3545  0.0247  0.2915
14312SOL    HW245830   1.370   8.571   2.657  1.1123 -1.8145 -2.1684
14313SOL     OW45831   7.444   1.213   4.574 -0.1492  0.0119 -0.2141
14313SOL    HW145832   7.451   1.240   4.666  3.5189  2.1144 -0.8984
14313SOL    HW245833   7.448   1.117   4.577  2.6500  0.0563  1.8221
14314SOL     OW45834   3.868   8.211   1.400  0.2165  0.1506 -0.5038
14314SOL    HW145835   3.936   8.151   1.370  0.1945  0.4670 -1.2147
14314SOL    HW245836   3.824   8.165   1.471  1.2733  0.0060  0.0701
14315SOL     OW45837   3.823   8.388   0.707 -0.0092  0.3424 -0.0042
14315SOL    HW145838   3.854   8.317   0.763  0.2554 -0.1667 -0.7711
14315SOL    HW245839   3.747   8.352   0.662  0.2902  0.4334 -0.6048
14316SOL     OW45840   5.818   1.928   0.414 -0.0731 -0.3222  0.0158
14316SOL    HW145841   5.805   1.902   0.506 -0.8898  1.0854  0.3276
14316SOL    HW245842   5.838   1.846   0.369 -1.2238 -1.2929  1.1760
14317SOL     OW45843   9.156   5.073   7.529  0.2222  0.7401  0.5110
14317SOL    HW145844   9.113   5.130   7.466 -1.5721  0.6614  1.5754
14317SOL    HW245845   9.085   5.018   7.564  1.9497 -2.9432 -1.1895
14318SOL     OW45846   3.371   1.007   1.303 -0.0747  0.4732 -0.1947
14318SOL    HW145847   3.383   0.915   1.326  2.0512  1.2026  2.1331
14318SOL    HW245848   3.436   1.024   1.236  1.5294  0.8468  1.3801
14319SOL     OW45849   3.272   0.595   6.232 -1.0908 -0.1558 -0.4576
14319SOL    HW145850   3.292   0.603   6.325  0.1103  1.3732 -0.7940
14319SOL    HW245851   3.266   0.501   6.216  2.0639 -0.6517  0.5508
14320SOL     OW45852   3.545   3.992   6.085 -0.2784 -0.1312 -0.0424
14320SOL    HW145853   3.498   4.038   6.155  1.2197  0.3928  0.6531
14320SOL    HW245854   3.599   3.928   6.131 -0.0851 -0.5317 -0.8145
14321SOL     OW45855   9.831   1.028   9.837  0.2326  0.4849  0.1221
14321SOL    HW145856   9.796   1.063   9.919 -0.4592 -1.3418  0.6738
14321SOL    HW245857   9.926   1.025   9.851 -0.0130 -2.4616  2.1035
14322SOL     OW45858   3.346   8.655   3.588 -0.1122  0.1114  0.7435
14322SOL    HW145859   3.313   8.619   3.670  0.1013 -0.4488  0.5870
14322SOL    HW245860   3.295   8.611   3.520 -0.7170  1.0265  0.5907
14323SOL     OW45861   1.339   1.501   4.201  0.3657 -0.5397  0.0350
14323SOL    HW145862   1.278   1.537   4.266 -0.3273  1.5418 -1.6341
14323SOL    HW245863   1.425   1.509   4.242  0.3341  3.6031 -0.2382
14324SOL     OW45864  10.001   0.695   8.219  0.3045 -0.2108 -0.5222
14324SOL    HW145865   9.949   0.622   8.251  0.8905 -0.3085  0.2236
14324SOL    HW245866  10.092   0.666   8.229  0.6090  1.1695  1.1849
14325SOL     OW45867   6.265   8.261   7.970  0.4753  0.8368  0.4241
14325SOL    HW145868   6.267   8.165   7.967 -0.0501  0.7742  1.6231
14325SOL    HW245869   6.238   8.287   7.882 -1.2729 -0.1879  0.6170
14326SOL     OW45870   2.531   0.097   9.490 -0.4499 -0.9682  0.0555
14326SOL    HW145871   2.582   0.064   9.416 -1.9327 -1.5376 -0.7780
14326SOL    HW245872   2.545   0.032   9.559  0.1416 -0.9835 -0.0719
14327SOL     OW45873   6.867   1.839   3.092  0.1662  0.0677 -0.3002
14327SOL    HW145874   6.868   1.895   3.170  1.7200 -1.1381  0.6131
14327SOL    HW245875   6.948   1.788   3.099  0.9976  0.7709 -3.3774
14328SOL     OW45876   7.204   1.015   6.741 -0.0269  0.0246  0.4538
14328SOL    HW145877   7.175   1.029   6.650  1.3579 -1.5140 -0.2768
14328SOL    HW245878   7.186   0.923   6.758  0.9620 -0.0359  1.2680
14329SOL     OW45879   2.784   2.818   9.241 -0.0642 -0.3939 -0.1391
14329SOL    HW145880   2.769   2.723   9.241  0.8248 -0.6066  2.4006
14329SOL    HW245881   2.771   2.844   9.332  0.1279  1.8744 -0.7075
14330SOL     OW45882  10.714   7.233   5.720  0.1732  0.1138  0.0051
14330SOL    HW145883  10.743   7.180   5.794 -0.7352 -1.1311 -0.4787
14330SOL    HW245884  10.665   7.171   5.665  1.1694  0.8850 -1.8405
14331SOL     OW45885   2.663   5.825   7.012 -0.0763 -0.7048 -0.1247
14331SOL    HW145886   2.713   5.744   7.021  1.3838  0.2520  0.8883
14331SOL    HW245887   2.601   5.824   7.084 -0.4476 -1.1691 -0.4467
14332SOL     OW45888  10.390   1.743   1.109  0.0355  0.1826  0.0399
14332SOL    HW145889  10.388   1.745   1.205  0.7028 -0.2373  0.0693
14332SOL    HW245890  10.482   1.725   1.088 -0.3020 -0.7925 -0.6551
14333SOL     OW45891   4.190   3.482   1.449  0.2432  0.3493  0.1217
14333SOL    HW145892   4.189   3.398   1.403  0.8129 -0.5782  1.7067
14333SOL    HW245893   4.279   3.515   1.438  0.0181  0.7473 -0.5037
14334SOL     OW45894   3.595   8.924   8.474  0.2939  0.0124 -0.1615
14334SOL    HW145895   3.608   9.002   8.527  1.0077 -0.0935 -0.1760
14334SOL    HW245896   3.605   8.954   8.383  0.9709 -0.1653 -0.1512
14335SOL     OW45897   1.358   3.102   9.882 -0.8792  0.0786  0.5047
14335SOL    HW145898   1.440   3.083   9.837  0.2154 -0.4062  2.5468
14335SOL    HW245899   1.326   3.017   9.911 -2.0883  0.2740 -0.2050
14336SOL     OW45900   3.378   4.461  10.090 -0.3160 -0.0158 -0.7999
14336SOL    HW145901   3.394   4.368  10.100 -0.4579  0.1634  1.5624
14336SOL    HW245902   3.327   4.468  10.009  0.4429 -1.8613 -1.4891
14337SOL     OW45903   4.115   2.976   6.170 -0.2062  0.3751  0.4149
14337SOL    HW145904   4.167   3.017   6.100 -1.7052  0.4627 -0.6888
14337SOL    HW245905   4.028   2.967   6.133 -1.4955  1.8892  2.8426
14338SOL     OW45906   7.435   4.785   3.166 -0.0755  0.3181 -0.2442
14338SOL    HW145907   7.474   4.703   3.135  1.2397  0.2541  1.3975
14338SOL    HW245908   7.449   4.783   3.261  0.3668  2.6200 -0.2065
14339SOL     OW45909   4.276   2.642   6.824  0.1747 -0.1927 -0.4915
14339SOL    HW145910   4.219   2.697   6.770 -0.0641 -0.7600 -0.8209
14339SOL    HW245911   4.330   2.705   6.872  1.2741  0.3280 -2.3037
14340SOL     OW45912   7.408  10.542   0.983 -0.2443 -0.2912  0.0411
14340SOL    HW145913   7.392  10.626   1.026 -1.2088 -0.5752  0.2513
14340SOL    HW245914   7.379  10.555   0.893 -1.0197 -0.5860  0.2389
14341SOL     OW45915   7.421   7.361   9.679  0.0889  0.3185 -0.0059
14341SOL    HW145916   7.437   7.455   9.681 -1.9460  0.8548 -2.6119
14341SOL    HW245917   7.326   7.353   9.671  0.3124 -1.8489 -1.4936
14342SOL     OW45918  10.467   2.454   9.060 -0.0923 -0.1752  0.6489
14342SOL    HW145919  10.431   2.535   9.026 -0.9788 -1.5258 -1.8946
14342SOL    HW245920  10.555   2.477   9.090  0.0147  1.5572 -0.8430
14343SOL     OW45921   0.251   7.374   8.488  0.2909 -0.3132 -0.7345
14343SOL    HW145922   0.277   7.417   8.407  1.8626  0.6914  0.2534
14343SOL    HW245923   0.194   7.436   8.532  1.0649  0.0060 -0.1618
14344SOL     OW45924   5.501   3.709  10.267 -0.1368 -0.2346 -0.6223
14344SOL    HW145925   5.489   3.803  10.283 -0.4840 -0.4223  0.2672
14344SOL    HW245926   5.472   3.697  10.176 -1.1535  0.3258 -0.3861
14345SOL     OW45927   1.148  10.643   3.279  0.1591  0.2503  0.5016
14345SOL    HW145928   1.095  10.705   3.229  0.7792 -0.3642 -0.9970
14345SOL    HW245929   1.120  10.556   3.248  1.4456 -0.1062  0.2477
14346SOL     OW45930   9.827   8.195   9.678  0.5162 -0.1561 -0.4426
14346SOL    HW145931   9.817   8.166   9.768 -0.0784 -0.6797 -0.6663
14346SOL    HW245932   9.914   8.166   9.652  1.2308  1.1665  0.3693
14347SOL     OW45933   3.414   7.947   0.140  0.2691  0.6826 -0.0951
14347SOL    HW145934   3.435   8.026   0.090  2.4851 -2.0108 -3.8762
14347SOL    HW245935   3.342   7.907   0.093  1.4102 -1.1932 -0.3397
14348SOL     OW45936   4.182   1.256   9.037  0.2342 -0.2199 -0.1527
14348SOL    HW145937   4.166   1.201   9.113  0.9842  1.0309  0.9322
14348SOL    HW245938   4.100   1.251   8.987 -0.4069 -0.7583  0.9107
14349SOL     OW45939   4.860   3.529   3.552  0.7044 -0.1257  0.3328
14349SOL    HW145940   4.872   3.467   3.480  0.4077  0.6835 -0.4316
14349SOL    HW245941   4.808   3.600   3.514  0.6797  0.3919  1.3072
14350SOL     OW45942   9.438   3.313   7.474 -0.4998 -0.1787  0.1484
14350SOL    HW145943   9.369   3.250   7.455 -0.6818  0.1959 -0.4912
14350SOL    HW245944   9.513   3.260   7.503 -0.0038 -0.8854 -2.2048
14351SOL     OW45945   4.101   5.905   4.704  0.5647 -0.0555 -0.3838
14351SOL    HW145946   4.188   5.897   4.744  0.2313 -2.5033  0.0335
14351SOL    HW245947   4.118   5.941   4.617  1.8892  0.2850 -0.0196
14352SOL     OW45948   1.751   4.690   5.889 -0.1588  0.5500 -0.2517
14352SOL    HW145949   1.729   4.617   5.831  0.5670 -1.0171  1.3362
14352SOL    HW245950   1.749   4.652   5.977 -1.0431  2.7804  0.7708
14353SOL     OW45951   1.963   1.627   2.553  0.0158  0.8425  0.4281
14353SOL    HW145952   1.933   1.595   2.639  1.4645  0.4246  0.7984
14353SOL    HW245953   1.946   1.721   2.555  0.4750  0.9190  1.3751
14354SOL     OW45954   1.737   8.399   6.286 -0.1677 -0.8281 -0.1721
14354SOL    HW145955   1.712   8.422   6.197  0.0423 -0.1296 -0.0582
14354SOL    HW245956   1.654   8.399   6.335 -0.0192  1.2802  0.1610
14355SOL     OW45957   6.308   8.063  10.252 -0.0750 -0.0200  0.7282
14355SOL    HW145958   6.402   8.046  10.239 -0.4978 -1.1039 -1.5791
14355SOL    HW245959   6.267   7.977  10.240 -1.3320  0.2508  2.6760
14356SOL     OW45960   3.103   1.445   7.747  0.2292  0.2623 -0.2293
14356SOL    HW145961   3.121   1.370   7.690 -2.4477 -1.5495  1.0701
14356SOL    HW245962   3.024   1.485   7.710 -1.0289 -0.4049  1.6131
14357SOL     OW45963   0.673   8.342   8.892  0.6722 -0.6581  0.5997
14357SOL    HW145964   0.691   8.423   8.844  1.2648 -1.3748 -0.4200
14357SOL    HW245965   0.661   8.276   8.824  1.0997 -1.6170  1.4266
14358SOL     OW45966  10.033   8.528   2.815 -0.0550  0.5982  0.0888
14358SOL    HW145967  10.103   8.464   2.827 -1.3180 -0.7417  0.5657
14358SOL    HW245968   9.997   8.541   2.903 -1.5631 -0.1123 -0.3934
14359SOL     OW45969   9.770   6.493   2.681  0.9784  0.1709 -0.9219
14359SOL    HW145970   9.800   6.558   2.745  1.9706  0.7865 -1.9638
14359SOL    HW245971   9.839   6.428   2.678  1.2451  0.4711 -1.7859
14360SOL     OW45972   2.509   8.475  10.659  0.0480  0.3309 -0.0600
14360SOL    HW145973   2.462   8.503  10.580 -0.6020  0.7454  0.4551
14360SOL    HW245974   2.535   8.385  10.642 -2.1988 -0.4199  0.1664
14361SOL     OW45975   7.006   0.288   3.104  0.1182  0.3503 -0.1713
14361SOL    HW145976   6.979   0.331   3.185 -1.1384 -0.0857 -0.3413
14361SOL    HW245977   7.066   0.351   3.063 -0.2727  1.1536  0.4473
14362SOL     OW45978   5.824   9.567   3.651  0.5853  0.0617 -0.2176
14362SOL    HW145979   5.919   9.574   3.654  0.6466 -0.8636  0.7557
14362SOL    HW245980   5.807   9.499   3.587  0.5121  1.0349 -1.2529
14363SOL     OW45981   2.689   8.719   9.546 -0.2621  0.1874  0.3993
14363SOL    HW145982   2.641   8.638   9.530  0.5305 -0.0582 -0.8510
14363SOL    HW245983   2.724   8.744   9.461  1.5132  0.5490  1.1904
14364SOL     OW45984   5.562   1.467   5.885  0.1596 -0.0449  0.0641
14364SOL    HW145985   5.542   1.377   5.913  1.5635 -0.3444  0.1736
14364SOL    HW245986   5.597   1.457   5.797  0.2637  0.3991  0.0561
14365SOL     OW45987   0.724   4.237   1.499  0.4552  0.3561 -0.3927
14365SOL    HW145988   0.663   4.304   1.528  1.6066  0.7373  1.2639
14365SOL    HW245989   0.720   4.241   1.403  0.0019  2.3335 -0.3221
14366SOL     OW45990   1.731   0.158   1.050 -0.0515  0.1367 -0.1900
14366SOL    HW145991   1.710   0.211   0.973 -1.9896 -0.4461 -0.1345
14366SOL    HW245992   1.651   0.163   1.104  0.2522 -1.6715  0.4738
14367SOL     OW45993   9.814   5.713   1.911  0.0785 -0.5547 -0.3675
14367SOL    HW145994   9.776   5.625   1.906 -1.4608 -0.0062  0.9017
14367SOL    HW245995   9.754   5.768   1.860  0.5859 -0.1023 -0.4826
14368SOL     OW45996   3.082   2.764   7.202 -0.1241  0.6406  0.7876
14368SOL    HW145997   3.037   2.803   7.277 -1.7865  1.0685 -0.3463
14368SOL    HW245998   3.019   2.701   7.167  0.4036  0.7824 -0.4915
14369SOL     OW45999   2.003   5.996   8.633  0.0859 -0.3564 -0.0166
14369SOL    HW146000   2.096   6.018   8.641  0.2221  0.7786 -3.1933
14369SOL    HW246001   1.999   5.936   8.559 -1.6761 -0.9728  0.5348
14370SOL     OW46002   1.260   0.851   1.306 -0.2028  0.0927  0.3809
14370SOL    HW146003   1.332   0.788   1.306  0.0262  0.3098 -1.0340
14370SOL    HW246004   1.227   0.849   1.216 -1.7042  0.3078  0.8953
14371SOL     OW46005   9.642  10.657   5.972  0.0410 -0.2238  0.0961
14371SOL    HW146006   9.572  10.608   6.014  1.4401 -1.3513  1.2148
14371SOL    HW246007   9.710  10.666   6.039  1.9007 -1.1212 -1.5598
14372SOL     OW46008   5.941   3.383   4.437 -0.4555 -0.0272 -0.3917
14372SOL    HW146009   5.901   3.314   4.384  0.5868 -1.1656  0.2543
14372SOL    HW246010   5.899   3.374   4.522  1.8541 -2.0294  0.6706
14373SOL     OW46011   4.362   4.513   5.264  0.0229  0.0555  0.6518
14373SOL    HW146012   4.400   4.467   5.189  1.0600  1.8439  0.0257
14373SOL    HW246013   4.431   4.573   5.293 -2.4613  4.1510 -1.0944
14374SOL     OW46014   8.326   4.504   1.637  0.1774 -0.5036 -0.0004
14374SOL    HW146015   8.318   4.570   1.568  0.5563 -0.1863  0.2534
14374SOL    HW246016   8.258   4.440   1.617 -0.8350  0.4583  0.2752
14375SOL     OW46017   9.384  10.321   5.185 -0.4599 -0.5967 -0.3659
14375SOL    HW146018   9.391  10.230   5.214 -1.6196 -0.8306 -0.7860
14375SOL    HW246019   9.416  10.320   5.094 -1.3630 -0.7711 -0.6885
14376SOL     OW46020   6.271   7.775   1.620 -0.1599 -0.1157  0.7656
14376SOL    HW146021   6.258   7.719   1.543 -3.6036  1.1566  0.2416
14376SOL    HW246022   6.236   7.725   1.693 -1.5570  0.5429  0.5910
14377SOL     OW46023   3.865   4.066   8.735  0.3629  0.2733  0.0337
14377SOL    HW146024   3.956   4.040   8.722  0.6874  0.0585  2.3280
14377SOL    HW246025   3.825   3.992   8.780 -0.8614  0.5468 -0.5490
14378SOL     OW46026   3.186   7.238   7.378 -0.8466 -0.1147 -0.6056
14378SOL    HW146027   3.269   7.190   7.380  0.2031  1.5847 -0.6505
14378SOL    HW246028   3.119   7.171   7.366  0.4870 -1.5764 -0.2081
14379SOL     OW46029   7.512   7.996   8.480  0.4272  0.2336  0.0117
14379SOL    HW146030   7.600   7.983   8.514 -0.1208 -0.3605  1.2863
14379SOL    HW246031   7.524   8.022   8.388  1.9070  0.1143  0.1618
14380SOL     OW46032   7.141   1.813   0.290  0.5106 -0.1138 -0.4054
14380SOL    HW146033   7.218   1.814   0.233  0.4188  0.6493 -0.5310
14380SOL    HW246034   7.071   1.848   0.235 -0.1212 -1.5393 -0.5406
14381SOL     OW46035   2.612   2.653   9.577  0.1576 -0.2449 -0.6049
14381SOL    HW146036   2.620   2.559   9.593 -0.2351  0.0282  1.5040
14381SOL    HW246037   2.522   2.674   9.603  0.5402  0.8739 -0.1396
14382SOL     OW46038   8.355   3.894   6.508  0.5684 -0.3268  0.3352
14382SOL    HW146039   8.271   3.938   6.522  1.0518  0.2875  1.3666
14382SOL    HW246040   8.398   3.948   6.441 -0.0162 -0.9005 -0.5407
14383SOL     OW46041   7.508   9.854   4.521  0.6180 -0.3502 -0.0437
14383SOL    HW146042   7.573   9.870   4.589 -0.8261 -0.6218  1.4753
14383SOL    HW246043   7.442   9.799   4.563 -0.1321 -0.8893 -1.8052
14384SOL     OW46044   6.467   1.436   2.398  0.0748  0.0305 -0.4602
14384SOL    HW146045   6.383   1.458   2.438  0.4922 -0.9334  1.0130
14384SOL    HW246046   6.449   1.359   2.344 -0.5196  1.4156 -2.3821
14385SOL     OW46047   2.176   3.170   7.780 -0.5530 -0.2345 -0.1542
14385SOL    HW146048   2.184   3.261   7.810 -0.4071 -0.4489  0.4875
14385SOL    HW246049   2.239   3.163   7.708  0.1528 -0.0798  0.4322
14386SOL     OW46050   9.479   9.262  10.613 -0.9989 -0.5627 -0.3829
14386SOL    HW146051   9.476   9.173  10.578  2.1971 -0.7169 -0.5351
14386SOL    HW246052   9.462   9.251  10.706 -1.4212 -1.1993 -0.5222
14387SOL     OW46053   2.887  10.785   1.387 -0.6555  0.3071  0.6663
14387SOL    HW146054   2.874  10.795   1.482  0.0312  1.0187  0.6926
14387SOL    HW246055   2.824  10.717   1.362 -1.2774  0.5395  1.5302
14388SOL     OW46056   3.751   3.844   4.009  0.1320 -0.7308 -0.0367
14388SOL    HW146057   3.670   3.890   3.987 -0.4449 -1.0915  1.2674
14388SOL    HW246058   3.742   3.821   4.101  1.9571 -0.3217  0.2794
14389SOL     OW46059   0.629   2.652   9.830 -0.1196  0.4057  0.1285
14389SOL    HW146060   0.709   2.677   9.784 -0.2817  0.3854 -0.1691
14389SOL    HW246061   0.656   2.584   9.891  0.0414  0.1976 -0.1723
14390SOL     OW46062  10.702   4.327   9.948 -0.8477 -0.4358  0.1865
14390SOL    HW146063  10.727   4.420   9.944 -1.1807 -0.3492 -3.2821
14390SOL    HW246064  10.782   4.280   9.926 -1.4386 -0.7014 -1.5422
14391SOL     OW46065   9.374   2.093   1.854 -0.1639 -0.0474 -0.6172
14391SOL    HW146066   9.446   2.103   1.792  0.2407 -1.8749 -0.4900
14391SOL    HW246067   9.413   2.048   1.929 -1.0576  0.4970  0.1990
14392SOL     OW46068  10.055   9.675   7.953 -0.2701  0.3943 -0.1984
14392SOL    HW146069  10.013   9.591   7.971  0.5208  0.2691  1.2000
14392SOL    HW246070  10.052   9.683   7.857  0.1554 -1.4969 -0.4057
14393SOL     OW46071   6.309   4.464  10.466  0.1247 -0.6552  0.1099
14393SOL    HW146072   6.328   4.552  10.497 -0.6099 -0.7643  0.9234
14393SOL    HW246073   6.214   4.459  10.464  0.0366 -0.2440 -3.4561
14394SOL     OW46074   8.435   1.779   3.795  0.0739 -0.1055  0.1120
14394SOL    HW146075   8.490   1.807   3.868  0.6006 -2.1361  0.5594
14394SOL    HW246076   8.346   1.786   3.828  0.3304 -1.4868  1.1785
14395SOL     OW46077   8.938   6.707   1.471  0.0867  0.3843  0.3538
14395SOL    HW146078   8.904   6.792   1.500 -0.8003  1.0265 -2.2875
14395SOL    HW246079   8.999   6.728   1.401  1.4941 -1.1075  1.0682
14396SOL     OW46080   3.572   7.077   7.956 -0.3757  0.1866 -0.0104
14396SOL    HW146081   3.617   7.073   7.871  0.7697 -2.6112  0.6007
14396SOL    HW246082   3.640   7.055   8.020 -1.4844  1.1028  1.5313
14397SOL     OW46083   0.309   7.267   2.117  0.5025  0.4927  0.1946
14397SOL    HW146084   0.315   7.180   2.076  0.7635 -0.1374  1.5091
14397SOL    HW246085   0.243   7.256   2.186  1.3968  0.9905  1.1555
14398SOL     OW46086   8.166   4.648   7.178  0.0204 -0.4424 -0.4636
14398SOL    HW146087   8.074   4.626   7.168  0.4108 -1.8326 -1.1500
14398SOL    HW246088   8.175   4.733   7.134 -1.3132  0.7423  1.3812
14399SOL     OW46089   3.983   9.675   4.253  0.1442  0.5259 -0.4937
14399SOL    HW146090   3.925   9.732   4.203  1.3273  1.4590 -0.8375
14399SOL    HW246091   4.023   9.617   4.188 -1.5856 -1.2668 -0.0713
14400SOL     OW46092   0.948   5.459   3.404 -0.2489 -0.2494 -0.0813
14400SOL    HW146093   0.860   5.495   3.402 -0.9964 -1.9194  0.8904
14400SOL    HW246094   0.988   5.497   3.482  1.4135  3.6298 -2.5034
14401SOL     OW46095   4.232   3.687   1.588  0.6392  0.0994  0.0553
14401SOL    HW146096   4.198   3.737   1.514  0.9898  0.5510  0.1920
14401SOL    HW246097   4.190   3.602   1.581 -0.3693  0.5813  0.1144
14402SOL     OW46098   8.059   8.324   2.890 -0.1291 -0.0900 -0.1696
14402SOL    HW146099   8.108   8.309   2.810  1.8021 -2.0045  1.2708
14402SOL    HW246100   8.098   8.403   2.928 -1.1488  0.9102 -1.0990
14403SOL     OW46101   4.102   0.017   8.071 -0.1033  0.3770  0.0619
14403SOL    HW146102   4.152  -0.013   8.146 -1.0084  0.9978  0.9342
14403SOL    HW246103   4.168   0.031   8.002  0.9895  1.6178  1.3082
14404SOL     OW46104  10.564   5.487   7.654  0.2733 -0.0886  0.1563
14404SOL    HW146105  10.642   5.452   7.698 -0.6719 -0.6420  1.4418
14404SOL    HW246106  10.538   5.563   7.706  1.1637  1.4473 -1.5073
14405SOL     OW46107   2.302   4.485   8.491 -0.2692 -0.0570  0.1436
14405SOL    HW146108   2.322   4.540   8.567 -1.0120 -1.3001  1.2692
14405SOL    HW246109   2.257   4.409   8.527 -2.5001  0.2494 -1.7539
14406SOL     OW46110   7.052   5.014   4.567  0.5020  0.2182 -0.0460
14406SOL    HW146111   7.034   4.970   4.484  0.4507 -0.4818  0.3260
14406SOL    HW246112   7.145   5.002   4.582  0.0549 -2.1800  1.3667
14407SOL     OW46113   6.287   3.515   6.845  0.2242  0.0204 -0.0999
14407SOL    HW146114   6.269   3.429   6.806 -0.9961  0.1493  0.1610
14407SOL    HW246115   6.377   3.508   6.876  0.5150 -0.7881 -1.0711
14408SOL     OW46116   3.174   0.316   0.186  0.3066 -0.3272 -0.3822
14408SOL    HW146117   3.205   0.404   0.164 -0.4870  0.6414  2.0487
14408SOL    HW246118   3.125   0.288   0.109  0.1927  1.5333 -1.0392
14409SOL     OW46119   4.503   7.557  10.135  0.0221 -0.2145  0.0657
14409SOL    HW146120   4.434   7.558  10.202 -1.3424  0.0561 -1.2637
14409SOL    HW246121   4.585   7.554  10.184 -0.9427 -0.9532  1.7115
14410SOL     OW46122   6.955   5.323  10.789  0.0140 -0.3608  0.1249
14410SOL    HW146123   7.024   5.257  10.793  0.9881  0.6518  0.3131
14410SOL    HW246124   7.001   5.406  10.777 -1.1489  0.3712  0.5485
14411SOL     OW46125   2.026  10.030   1.852 -0.6596 -0.1588 -0.5803
14411SOL    HW146126   1.953   9.972   1.832 -0.3692 -1.1384  0.9942
14411SOL    HW246127   1.994  10.083   1.926 -0.8021  1.5059 -1.7695
14412SOL     OW46128   3.792   0.247   5.109  0.3369 -0.0142  0.8839
14412SOL    HW146129   3.715   0.191   5.103  0.8125 -0.8089  1.9293
14412SOL    HW246130   3.818   0.244   5.201  1.1586  0.8622  0.7042
14413SOL     OW46131   8.727   3.484   7.494  0.2851  0.2045 -0.1759
14413SOL    HW146132   8.706   3.396   7.462 -0.0948  0.9969 -2.3273
14413SOL    HW246133   8.643   3.523   7.516  0.4231  0.1273  0.4913
14414SOL     OW46134   3.435   5.894   7.295 -0.1481  0.2757  0.1788
14414SOL    HW146135   3.423   5.950   7.218  1.2125  1.2151  0.6161
14414SOL    HW246136   3.370   5.825   7.284  0.2413  0.1644 -2.0034
14415SOL     OW46137   8.525   0.381   1.534  0.1404 -0.1583  0.2602
14415SOL    HW146138   8.605   0.429   1.555 -0.2797  0.6087  0.1016
14415SOL    HW246139   8.466   0.446   1.496 -0.3915 -0.8162 -0.0588
14416SOL     OW46140   4.767   7.678   0.217 -0.4814 -0.2144 -0.2994
14416SOL    HW146141   4.760   7.585   0.241  0.7457 -0.4063 -0.6216
14416SOL    HW246142   4.706   7.722   0.277 -3.0691 -1.4580 -1.8107
14417SOL     OW46143   8.891   9.219   2.091 -0.1408  0.1728  0.3000
14417SOL    HW146144   8.801   9.219   2.059  0.6883  1.4394 -2.2912
14417SOL    HW246145   8.893   9.288   2.158 -1.1911 -0.2742  0.8188
14418SOL     OW46146   0.115   2.419   7.977 -0.4101  0.3474 -0.0726
14418SOL    HW146147   0.173   2.495   7.973 -1.0517  0.8204 -0.6175
14418SOL    HW246148   0.063   2.424   7.897 -0.7560 -0.4293  0.0943
14419SOL     OW46149   9.323   1.029   2.311 -0.4857  0.2867 -0.2481
14419SOL    HW146150   9.265   1.015   2.386  1.2461  1.4309  1.3949
14419SOL    HW246151   9.312   1.122   2.290 -0.8601  0.0028 -1.3543
14420SOL     OW46152  10.779   5.278   8.931  0.6078  0.2092  0.3171
14420SOL    HW146153  10.866   5.285   8.969  0.5820  0.3146  0.3562
14420SOL    HW246154  10.795   5.257   8.839  0.6717  0.0517  0.3639
14421SOL     OW46155   0.235   5.805   9.784  0.6894 -0.4753 -0.5366
14421SOL    HW146156   0.262   5.765   9.867  0.8893  0.5914 -0.0788
14421SOL    HW246157   0.231   5.899   9.803  3.2250  0.1109 -2.3905
14422SOL     OW46158   5.699  10.027   3.349 -0.3955  0.0193 -0.2001
14422SOL    HW146159   5.624   9.968   3.361 -0.7735  0.8560  1.9061
14422SOL    HW246160   5.680  10.102   3.406  0.6604  1.6308 -1.8665
14423SOL     OW46161   4.646   0.792   1.625 -0.2693 -0.6672 -0.4575
14423SOL    HW146162   4.592   0.743   1.564  0.5215  0.2995 -1.9860
14423SOL    HW246163   4.728   0.808   1.578  0.0148  0.9047  0.5080
14424SOL     OW46164   8.736   4.370   5.649  0.2338  0.4199 -0.0172
14424SOL    HW146165   8.644   4.396   5.654  0.3809  1.5762 -2.0778
14424SOL    HW246166   8.733   4.276   5.630 -0.4654  0.1396  1.3766
14425SOL     OW46167   7.336   4.220   7.244  0.8472  0.0005  0.3142
14425SOL    HW146168   7.403   4.279   7.278  1.5700 -0.6748  0.1052
14425SOL    HW246169   7.385   4.151   7.200 -0.0337  0.1784 -1.0022
14426SOL     OW46170   9.602   9.567   4.415  0.0916  0.1840 -0.6466
14426SOL    HW146171   9.525   9.541   4.364 -0.6205 -0.5742  0.7793
14426SOL    HW246172   9.663   9.600   4.349 -1.2022  0.2357 -1.8814
14427SOL     OW46173   9.937   0.461   3.280  0.1192 -0.4373  0.3188
14427SOL    HW146174  10.028   0.430   3.283  0.1772 -0.1983  1.8902
14427SOL    HW246175   9.921   0.494   3.368 -0.9695  1.0453 -0.4055
14428SOL     OW46176   7.344   3.806   7.066 -0.1325  0.1041  0.1957
14428SOL    HW146177   7.425   3.844   7.032 -0.4448  0.4879 -0.1262
14428SOL    HW246178   7.325   3.733   7.008  0.9350 -1.1368  1.3195
14429SOL     OW46179   9.755   2.948   5.129  0.2623  0.1460  0.4652
14429SOL    HW146180   9.813   2.942   5.054 -0.2302  0.8811  0.0106
14429SOL    HW246181   9.674   2.907   5.099  0.5002 -0.7812  1.0594
14430SOL     OW46182   1.363   8.652   3.194 -0.4791 -0.1408  0.2475
14430SOL    HW146183   1.270   8.669   3.210 -1.4893 -3.2622 -1.4472
14430SOL    HW246184   1.403   8.654   3.281 -2.4915 -0.5428  1.2551
14431SOL     OW46185   7.340   8.209   3.956 -0.2433 -0.7183  0.2147
14431SOL    HW146186   7.426   8.169   3.959  0.0992  0.0341  0.8756
14431SOL    HW246187   7.287   8.159   4.018  0.2555 -0.0134  1.2396
14432SOL     OW46188   6.136   7.788   0.094 -0.5227  0.1320  0.0250
14432SOL    HW146189   6.170   7.877   0.093  0.7448 -0.3240 -0.6750
14432SOL    HW246190   6.134   7.764   0.186  3.1740 -0.5213  0.1070
14433SOL     OW46191   3.464   0.911   7.352 -0.0493 -0.3023  0.4778
14433SOL    HW146192   3.370   0.894   7.346  0.0747 -0.6901 -0.5751
14433SOL    HW246193   3.505   0.838   7.306  0.7696 -0.0741  0.8183
14434SOL     OW46194   9.912   2.580   1.416  0.1701 -0.1057 -0.2799
14434SOL    HW146195   9.984   2.517   1.425  0.5765  0.5158  1.0632
14434SOL    HW246196   9.948   2.662   1.450 -0.9940  0.3536 -0.1303
14435SOL     OW46197   7.946   2.857   4.955 -0.1117  1.3299 -0.2103
14435SOL    HW146198   8.017   2.917   4.934  1.2642  0.2047  1.0001
14435SOL    HW246199   7.929   2.871   5.048 -0.1377  0.2605 -0.0338
14436SOL     OW46200   1.060   4.582   8.129 -0.0691 -0.3865  0.5338
14436SOL    HW146201   1.024   4.638   8.060 -0.9916 -1.5060  0.0660
14436SOL    HW246202   0.991   4.580   8.195 -1.5993 -3.5693 -0.9265
14437SOL     OW46203   1.902   2.802   1.495  0.6801 -0.0972 -0.3550
14437SOL    HW146204   1.851   2.730   1.532  0.0629  0.1968 -0.6151
14437SOL    HW246205   1.956   2.833   1.568 -0.5505  0.5045  0.3410
14438SOL     OW46206   7.554   3.407   3.695  0.3867  0.1785 -0.3876
14438SOL    HW146207   7.478   3.411   3.753  0.3518  0.5455 -0.4571
14438SOL    HW246208   7.552   3.318   3.659  0.1721  0.0851 -0.1457
14439SOL     OW46209   8.313  10.238   7.875  0.3439 -0.7762  0.1506
14439SOL    HW146210   8.336  10.259   7.966 -0.9281  2.0773 -0.0793
14439SOL    HW246211   8.219  10.250   7.871  0.6506  1.9192 -2.0959
14440SOL     OW46212   1.757   8.657   4.324 -0.4530  0.2531  0.4820
14440SOL    HW146213   1.733   8.648   4.416 -1.0840 -0.0672  0.2922
14440SOL    HW246214   1.773   8.567   4.294 -3.1824  0.0145 -0.4795
14441SOL     OW46215  10.393   0.070   4.446  0.2681 -0.1238 -0.2769
14441SOL    HW146216  10.317   0.039   4.397 -0.5655 -2.2811  2.1455
14441SOL    HW246217  10.355   0.109   4.525  1.5932  2.1076 -0.6761
14442SOL     OW46218   6.823   7.584   2.831 -0.0037  0.1056  0.0498
14442SOL    HW146219   6.839   7.490   2.840 -2.6428 -0.4344 -0.0032
14442SOL    HW246220   6.884   7.625   2.892  1.3083 -1.6223 -0.0369
14443SOL     OW46221   6.474   6.724   3.991  0.4721 -0.0702 -0.2591
14443SOL    HW146222   6.420   6.722   4.070 -0.0758  0.4696 -0.6098
14443SOL    HW246223   6.419   6.682   3.924  0.0398  1.4047 -0.8739
14444SOL     OW46224   8.135   4.712   9.308 -0.2544 -0.7452  0.0220
14444SOL    HW146225   8.216   4.753   9.339 -0.1597 -0.7553 -0.2093
14444SOL    HW246226   8.065   4.771   9.336 -0.1238 -0.4512 -0.2613
14445SOL     OW46227   6.615   5.778   1.968  0.3531  0.3884  0.4170
14445SOL    HW146228   6.554   5.744   1.902  1.0694  1.0144 -0.6063
14445SOL    HW246229   6.630   5.705   2.027 -0.8061 -0.0007  0.2547
14446SOL     OW46230  10.168   4.304   5.453 -0.1356  0.0784  0.1986
14446SOL    HW146231  10.114   4.381   5.432  1.1055  0.7897 -0.5374
14446SOL    HW246232  10.151   4.243   5.381 -0.7252 -0.1234  0.5070
14447SOL     OW46233   9.628   4.299   6.380 -0.3560  0.3234  0.5824
14447SOL    HW146234   9.657   4.232   6.318 -0.6847 -0.0354  0.8194
14447SOL    HW246235   9.625   4.379   6.327 -1.6254 -0.1694 -0.1407
14448SOL     OW46236   9.622   0.111   8.594 -0.0086 -0.3249 -0.5066
14448SOL    HW146237   9.537   0.069   8.607 -0.3333  0.9766  2.3625
14448SOL    HW246238   9.613   0.197   8.635  2.8971 -0.4583  0.6654
14449SOL     OW46239   5.703   4.463   9.989  0.1299 -0.2586 -0.8982
14449SOL    HW146240   5.619   4.508   9.980 -0.1084 -0.2579  0.9633
14449SOL    HW246241   5.768   4.527   9.959 -0.4751 -0.1588 -2.0804
14450SOL     OW46242  10.458   3.562   5.283 -0.3425 -0.4999  0.6769
14450SOL    HW146243  10.509   3.515   5.218 -0.5011 -0.1566  0.3035
14450SOL    HW246244  10.367   3.537   5.266 -0.3912 -0.3482  0.7143
14451SOL     OW46245   2.130   3.804   1.256 -0.2725 -0.5107  0.6493
14451SOL    HW146246   2.060   3.845   1.307 -1.8488 -2.6727  0.3701
14451SOL    HW246247   2.099   3.808   1.166  0.0849 -1.2461  0.4906
14452SOL     OW46248  10.261   4.484   4.015 -0.1423 -0.5281 -0.4930
14452SOL    HW146249  10.318   4.413   4.043  2.0230  0.4613 -2.0620
14452SOL    HW246250  10.280   4.555   4.076 -0.2389 -0.4452 -0.5588
14453SOL     OW46251   0.917   2.759   9.738 -0.3580 -0.4198 -0.5055
14453SOL    HW146252   0.901   2.804   9.656  1.6289  2.4160  0.4922
14453SOL    HW246253   0.987   2.810   9.780 -1.1183 -1.8399  2.8279
14454SOL     OW46254   4.347   0.697   5.233 -0.3564 -0.6180  0.1480
14454SOL    HW146255   4.330   0.751   5.156 -0.4121  1.1564  1.3583
14454SOL    HW246256   4.386   0.617   5.198  0.6435  0.5928 -1.6546
14455SOL     OW46257  10.085   5.889   1.998  0.2933 -0.2784  0.5899
14455SOL    HW146258  10.073   5.968   2.051  1.1423 -0.6005  1.2888
14455SOL    HW246259   9.996   5.859   1.980 -0.0733  1.1721 -0.2352
14456SOL     OW46260   5.055   5.155   6.481 -0.2005 -0.3643 -0.6004
14456SOL    HW146261   4.977   5.179   6.432 -0.4097  1.5084  0.5826
14456SOL    HW246262   5.121   5.219   6.455 -0.1240  0.2559  1.0230
14457SOL     OW46263   1.797   0.901   5.670 -0.5860  0.4434 -0.6855
14457SOL    HW146264   1.835   0.856   5.746  0.4472  0.4839 -1.1613
14457SOL    HW246265   1.740   0.968   5.707  0.6350  1.0839  0.0816
14458SOL     OW46266   1.937   3.370   9.400  0.2421  0.4992 -0.4282
14458SOL    HW146267   1.986   3.407   9.474  1.0136 -0.3408 -0.4974
14458SOL    HW246268   1.846   3.394   9.417  0.2115 -0.7428  1.4767
14459SOL     OW46269   6.906   1.316   2.787  0.5836  0.2437  0.9032
14459SOL    HW146270   6.831   1.327   2.729  0.6111 -2.0315  0.3679
14459SOL    HW246271   6.917   1.222   2.795  1.5673  0.4879  3.3728
14460SOL     OW46272   1.105   7.455   5.478  0.0316 -0.3722 -0.7434
14460SOL    HW146273   1.153   7.458   5.395 -0.2193 -2.1579 -1.0074
14460SOL    HW246274   1.140   7.527   5.529  1.8110 -0.6025 -1.5661
14461SOL     OW46275   2.548  10.094  10.446  0.2088 -0.2647  0.5602
14461SOL    HW146276   2.560  10.164  10.511 -1.5345 -0.2261  0.9093
14461SOL    HW246277   2.590  10.127  10.367 -1.8871  1.9776  0.2378
14462SOL     OW46278  10.202   9.894   5.412  0.8969 -0.4722 -0.2401
14462SOL    HW146279  10.218   9.952   5.486 -0.2012  0.1859 -0.4980
14462SOL    HW246280  10.119   9.925   5.374  0.1514 -2.3559 -0.2511
14463SOL     OW46281   7.801   1.844   2.668  0.1636  0.4628  0.1388
14463SOL    HW146282   7.720   1.796   2.686 -0.0685  0.8290  0.0911
14463SOL    HW246283   7.823   1.885   2.752  0.4834  0.0928  0.2365
14464SOL     OW46284   9.871   2.949   2.921 -0.2613 -0.1928  0.6544
14464SOL    HW146285   9.873   2.907   3.007  1.4018  0.6823  1.0964
14464SOL    HW246286   9.911   2.885   2.862  0.6302  0.0424  0.9843
14465SOL     OW46287  10.057   4.704   6.998 -0.3918  0.6104 -0.0206
14465SOL    HW146288  10.103   4.621   6.985 -2.2330 -0.8408  1.8711
14465SOL    HW246289  10.005   4.715   6.918 -0.1117 -0.0531 -0.3053
14466SOL     OW46290   8.203   9.767   8.145  0.1400 -0.1145 -0.7971
14466SOL    HW146291   8.159   9.817   8.075 -0.4906  1.2671  0.5355
14466SOL    HW246292   8.292   9.802   8.147 -0.4684  1.5223  0.5509
14467SOL     OW46293   0.767   5.560   8.352  0.2270  0.0031 -0.0386
14467SOL    HW146294   0.827   5.626   8.387  1.8447 -1.0821 -0.6629
14467SOL    HW246295   0.728   5.520   8.429 -1.2031  2.0217  0.3444
14468SOL     OW46296   9.997   4.782   4.402  0.1848  0.1777 -0.6704
14468SOL    HW146297  10.040   4.811   4.482  1.3060  0.9099 -1.4932
14468SOL    HW246298   9.904   4.780   4.423  0.5760 -1.1714  1.0987
14469SOL     OW46299   0.271   7.291   4.031  0.4029 -0.5290 -0.3656
14469SOL    HW146300   0.304   7.226   3.969  1.7552 -0.8246  0.6090
14469SOL    HW246301   0.308   7.374   4.002 -0.3904 -0.3708 -0.9476
14470SOL     OW46302   9.750   3.375   7.756 -0.6579  0.6054  0.0816
14470SOL    HW146303   9.839   3.410   7.747 -0.2857 -0.6628 -1.5409
14470SOL    HW246304   9.749   3.295   7.704 -3.3673  1.6999 -1.8042
14471SOL     OW46305   4.768   7.389   0.246  0.1317  0.3029  0.0377
14471SOL    HW146306   4.798   7.305   0.211 -1.0756 -0.5128  0.8905
14471SOL    HW246307   4.716   7.427   0.175  1.9243  1.0836 -0.9251
14472SOL     OW46308  10.742   6.630   2.619 -0.1893  0.2714 -0.2613
14472SOL    HW146309  10.680   6.645   2.691 -0.8804 -0.2130 -0.7378
14472SOL    HW246310  10.708   6.683   2.547 -0.1584 -0.1487 -0.5889
14473SOL     OW46311   7.490   2.905   1.554  0.2099  0.2430  0.6093
14473SOL    HW146312   7.463   2.950   1.473 -2.2704 -1.4513  0.3869
14473SOL    HW246313   7.495   2.975   1.619  1.2164  1.4931 -0.7417
14474SOL     OW46314  10.357   8.077   9.742 -0.2437 -0.2684  0.3701
14474SOL    HW146315  10.284   8.055   9.685  2.0920 -0.3267 -2.8588
14474SOL    HW246316  10.352   8.172   9.752  0.3624  0.0163 -1.6283
14475SOL     OW46317   4.694   8.252   5.303  0.0554  0.0714 -0.2028
14475SOL    HW146318   4.780   8.270   5.343 -0.4973  0.5841  0.7990
14475SOL    HW246319   4.707   8.171   5.254  0.1436 -2.1304  3.1452
14476SOL     OW46320   1.604   2.919   0.846 -1.0291  0.2174 -0.2916
14476SOL    HW146321   1.559   2.846   0.803  1.8698 -1.0975 -1.3890
14476SOL    HW246322   1.633   2.975   0.774 -0.5678  0.8061  0.3391
14477SOL     OW46323   0.091   9.797   5.310 -0.2473 -0.3762  0.5154
14477SOL    HW146324  -0.002   9.773   5.316 -0.2510 -0.4337  0.2366
14477SOL    HW246325   0.132   9.723   5.266 -0.0106 -0.4970  0.9420
14478SOL     OW46326   3.780   8.450   1.706 -0.4565 -0.5028 -1.0695
14478SOL    HW146327   3.813   8.504   1.634 -2.3641  1.2328 -0.7266
14478SOL    HW246328   3.854   8.441   1.766  0.3440  0.4317 -1.8919
14479SOL     OW46329   5.285  10.595   3.244  0.0616  0.3231  0.1503
14479SOL    HW146330   5.225  10.559   3.309 -0.9092 -0.3312 -1.0733
14479SOL    HW246331   5.370  10.594   3.287 -0.3229 -1.3477  0.9414
14480SOL     OW46332   9.111   0.680   7.703  0.5890  0.5316 -0.1285
14480SOL    HW146333   9.195   0.695   7.660  0.2070 -2.4970 -2.2429
14480SOL    HW246334   9.046   0.702   7.637 -0.0793 -2.2179 -0.5031
14481SOL     OW46335   7.983   4.931   6.953  0.5861  0.2177 -0.5302
14481SOL    HW146336   8.066   4.884   6.959  0.2063 -0.5117 -0.7116
14481SOL    HW246337   7.970   4.969   7.040  0.5215 -0.7155 -0.1158
14482SOL     OW46338   2.063   7.248   2.522  0.1921 -1.2682  0.8101
14482SOL    HW146339   1.975   7.212   2.522  0.0257 -0.8742  0.6842
14482SOL    HW246340   2.119   7.176   2.492 -0.3391 -0.9464 -1.1539
14483SOL     OW46341   4.832   3.162   9.484  0.0464  0.2786 -0.2393
14483SOL    HW146342   4.902   3.223   9.507  0.8468 -0.5363 -0.4888
14483SOL    HW246343   4.811   3.117   9.566  0.1194  0.2126 -0.2569
14484SOL     OW46344   2.420   2.720   7.005  0.4191  0.0524  0.1345
14484SOL    HW146345   2.483   2.731   7.076 -0.5143  2.4747  0.7051
14484SOL    HW246346   2.355   2.789   7.020 -1.8372 -1.6920 -0.9961
14485SOL     OW46347   7.288   3.657   1.100  0.2186  0.3134 -0.1837
14485SOL    HW146348   7.381   3.653   1.122 -0.4018  0.0054  2.8132
14485SOL    HW246349   7.268   3.570   1.066  1.1260  0.5991 -1.5358
14486SOL     OW46350   5.645  10.475   2.575  0.2580 -0.4317  0.0296
14486SOL    HW146351   5.569  10.512   2.622 -0.0444  0.1097 -0.8687
14486SOL    HW246352   5.627  10.381   2.571  0.4044 -0.5251  1.2000
14487SOL     OW46353   8.843   1.551   6.828  0.5339  0.0023 -0.3968
14487SOL    HW146354   8.851   1.457   6.845  1.2297  0.4318  1.9243
14487SOL    HW246355   8.750   1.564   6.810 -0.2977 -0.6641  2.8233
14488SOL     OW46356   0.341   6.999   0.637  0.4662  0.4637 -0.0822
14488SOL    HW146357   0.392   7.013   0.717  0.4027 -0.4772  0.1357
14488SOL    HW246358   0.271   7.064   0.641 -1.5639 -1.6533  2.3309
14489SOL     OW46359   9.493   3.535   7.010  0.2394 -0.4697 -0.0988
14489SOL    HW146360   9.436   3.599   6.967 -0.1578  0.4195  1.6874
14489SOL    HW246361   9.578   3.578   7.015  0.9745 -1.5289 -2.1289
14490SOL     OW46362   9.925   0.762   3.177 -0.0244  0.7321  0.0289
14490SOL    HW146363   9.903   0.832   3.116 -0.6551 -0.0737 -0.6939
14490SOL    HW246364   9.841   0.721   3.197  0.4241 -0.2678 -0.1065
14491SOL     OW46365   0.748   9.484   6.830  0.2186  0.3569 -0.2220
14491SOL    HW146366   0.816   9.417   6.834 -0.3917 -0.2085  1.7019
14491SOL    HW246367   0.754   9.530   6.914  0.1024  2.2456 -1.1747
14492SOL     OW46368   1.596  10.298   0.906 -0.3716 -0.1425 -0.3004
14492SOL    HW146369   1.630  10.217   0.944  0.2213  0.3474  0.2415
14492SOL    HW246370   1.564  10.272   0.820  2.0786 -0.5234 -1.1918
14493SOL     OW46371   8.521   8.642   5.518  0.0112 -0.0506 -0.1418
14493SOL    HW146372   8.605   8.611   5.483 -0.6414 -0.3821 -1.4894
14493SOL    HW246373   8.487   8.567   5.568  0.4703  0.0616  0.3492
14494SOL     OW46374   1.472   9.337  10.664  0.3376  0.4506  0.0372
14494SOL    HW146375   1.536   9.407  10.653  0.1562  0.8227  1.1835
14494SOL    HW246376   1.485   9.307  10.754 -1.5262  0.9856  0.5303
14495SOL     OW46377   4.708   1.245   7.323 -0.0425  0.6825  0.2116
14495SOL    HW146378   4.702   1.189   7.246 -0.9187  1.0157  0.0202
14495SOL    HW246379   4.727   1.185   7.395 -0.1829  0.2397 -0.1183
14496SOL     OW46380   7.663   8.136   2.481  0.7031  0.1794  0.2369
14496SOL    HW146381   7.670   8.201   2.551  0.1098 -0.4003  0.8469
14496SOL    HW246382   7.573   8.142   2.451  0.9003  0.2853 -0.3557
14497SOL     OW46383   1.448   3.787   3.929  0.2617 -0.3996  0.1463
14497SOL    HW146384   1.407   3.871   3.911 -0.4220 -1.1050 -1.8751
14497SOL    HW246385   1.431   3.734   3.851  1.4059 -2.1400  0.9922
14498SOL     OW46386   9.441   4.731   6.505  0.3977  0.3554 -0.2488
14498SOL    HW146387   9.441   4.646   6.548 -0.6256  0.8492  0.7731
14498SOL    HW246388   9.534   4.751   6.490  0.6140 -1.5498 -1.8240
14499SOL     OW46389   9.998   0.438   4.100  0.1497 -0.1335 -0.7852
14499SOL    HW146390  10.001   0.344   4.082 -2.7975 -0.0442 -2.2826
14499SOL    HW246391  10.045   0.447   4.183  1.4707 -2.7307 -1.1262
14500SOL     OW46392   7.822   3.598   4.766 -0.0492  0.2951  0.1478
14500SOL    HW146393   7.775   3.658   4.824 -0.7099  0.6996 -0.7940
14500SOL    HW246394   7.767   3.590   4.689  1.5974  1.0916 -1.1704
14501SOL     OW46395   8.630  10.007   4.690 -0.2712 -0.5525 -0.0892
14501SOL    HW146396   8.538  10.027   4.673  0.4219  2.1515 -1.2908
14501SOL    HW246397   8.667  10.090   4.720  1.9085 -1.4201 -0.2023
14502SOL     OW46398   6.561   0.382   8.609 -0.7849  0.6105 -0.1835
14502SOL    HW146399   6.610   0.305   8.581  0.7703  1.1369  0.8890
14502SOL    HW246400   6.487   0.347   8.659  0.9587 -0.2558  1.9915
14503SOL     OW46401   5.381   7.912   1.677 -0.3544 -0.3630  0.1385
14503SOL    HW146402   5.429   7.947   1.602  2.5270  0.1195  2.0671
14503SOL    HW246403   5.432   7.835   1.704 -0.0360  0.7161  2.8577
14504SOL     OW46404   3.715   6.421  10.557 -0.3564  0.1484  0.1348
14504SOL    HW146405   3.770   6.431  10.634 -0.0516 -2.4612  0.3365
14504SOL    HW246406   3.773   6.439  10.483  0.0821 -0.0403  0.4299
14505SOL     OW46407   8.452   9.718   4.300  0.7743  0.3091  0.1159
14505SOL    HW146408   8.433   9.807   4.270  1.1552 -0.0531 -1.2257
14505SOL    HW246409   8.458   9.727   4.396  0.8083  1.7223  0.0096
14506SOL     OW46410   3.741   3.993   1.374  0.3613  0.6324 -0.0460
14506SOL    HW146411   3.694   4.022   1.452 -0.0184 -0.8305  0.3106
14506SOL    HW246412   3.801   3.926   1.406 -1.2117 -1.4653 -1.2093
14507SOL     OW46413   9.853   0.931   3.807 -0.3911 -0.4446  0.5879
14507SOL    HW146414   9.803   0.936   3.726 -1.2282  0.7694  1.1408
14507SOL    HW246415   9.808   0.991   3.866  0.4348 -1.0046  1.8263
14508SOL     OW46416   4.242   8.022   0.516 -0.0824  0.3244  0.0450
14508SOL    HW146417   4.216   8.114   0.517  0.1497  0.3884  0.6837
14508SOL    HW246418   4.261   8.002   0.608  0.3382 -0.2259 -0.1586
14509SOL     OW46419   7.780   7.253   5.364  0.0991  0.2504  0.4596
14509SOL    HW146420   7.717   7.207   5.309  0.3297  1.0191 -0.4656
14509SOL    HW246421   7.839   7.185   5.395  0.0225 -0.1775 -0.3200
14510SOL     OW46422   1.840   9.440   0.165  0.0696 -1.0580  0.1493
14510SOL    HW146423   1.791   9.459   0.244 -0.0376 -0.2740 -0.0996
14510SOL    HW246424   1.932   9.439   0.193  0.1332  0.4310  0.0799
14511SOL     OW46425   6.107   0.622   2.855 -0.3635 -0.8344 -0.1800
14511SOL    HW146426   6.164   0.600   2.781 -0.1646 -1.8883  0.2719
14511SOL    HW246427   6.120   0.551   2.918 -0.7849 -0.1262  0.7298
14512SOL     OW46428   9.983   1.576   7.515 -0.0306  0.0316  0.2049
14512SOL    HW146429   9.891   1.587   7.493 -0.1257  1.0371  1.0003
14512SOL    HW246430   9.991   1.614   7.603  1.2318  0.4222 -0.0542
14513SOL     OW46431   4.664   2.795   5.242 -0.2636 -0.3150 -0.0735
14513SOL    HW146432   4.640   2.712   5.200 -0.4538 -0.5119  0.4142
14513SOL    HW246433   4.712   2.769   5.321  1.6046  0.0744 -1.0288
14514SOL     OW46434   0.306  10.114   6.203 -0.8174 -0.0083  1.0222
14514SOL    HW146435   0.297  10.094   6.110 -1.2721  1.7451  0.6429
14514SOL    HW246436   0.305  10.029   6.246  0.1178 -0.9139 -0.6132
14515SOL     OW46437   2.608   1.062   8.231  0.0419  0.0562  0.1029
14515SOL    HW146438   2.517   1.047   8.259  0.2668 -1.2100  0.2036
14515SOL    HW246439   2.654   1.086   8.311 -0.3282  1.4247 -0.0641
14516SOL     OW46440   0.548  10.044   2.369 -0.1545  0.3423 -0.3933
14516SOL    HW146441   0.471   9.989   2.353 -1.0283  0.6695  2.2535
14516SOL    HW246442   0.519  10.132   2.345  0.2715  0.1449 -1.7602
14517SOL     OW46443   1.279  10.653   2.265  0.2230  0.2079 -0.5356
14517SOL    HW146444   1.193  10.624   2.294 -0.5012  2.8091  0.2026
14517SOL    HW246445   1.314  10.703   2.339  2.2260 -0.4674 -0.9636
14518SOL     OW46446   3.181   6.496  10.525  0.0523  0.4565  0.2591
14518SOL    HW146447   3.266   6.455  10.512 -0.4843 -0.9566  0.9775
14518SOL    HW246448   3.187   6.542  10.608  0.1894  0.5683  0.1864
14519SOL     OW46449   8.593   9.922   8.745 -0.5147 -0.0496 -0.3403
14519SOL    HW146450   8.536   9.848   8.725 -0.6145  0.1430 -0.7705
14519SOL    HW246451   8.585   9.933   8.840  1.0676 -1.8664  0.0678
14520SOL     OW46452   4.241   3.125   7.784 -0.4195 -0.2764  0.4570
14520SOL    HW146453   4.298   3.201   7.794  0.0013 -0.4241 -0.7063
14520SOL    HW246454   4.276   3.078   7.709 -3.4831  0.9386 -1.9993
14521SOL     OW46455  10.680   1.849   3.648  0.1722  0.0336  0.1619
14521SOL    HW146456  10.728   1.920   3.607 -0.3795  1.9441  2.6103
14521SOL    HW246457  10.732   1.824   3.724 -0.1574 -1.5358 -0.0772
14522SOL     OW46458   0.350   1.929   0.987 -0.0698 -0.0670 -0.6225
14522SOL    HW146459   0.374   1.880   0.908  1.0260 -1.7065  0.6676
14522SOL    HW246460   0.291   1.871   1.035  2.8538 -1.1644  1.9400
14523SOL     OW46461   0.937   9.421   7.785 -0.0119  0.0331  0.2227
14523SOL    HW146462   0.921   9.398   7.693  2.2032 -2.1237  0.2631
14523SOL    HW246463   0.881   9.361   7.835 -0.0342  0.1194  0.3025
14524SOL     OW46464   2.435   5.582   5.739 -0.1051  0.2543  0.4910
14524SOL    HW146465   2.485   5.624   5.809  2.0693  0.4655 -1.0798
14524SOL    HW246466   2.364   5.644   5.720  1.5084  2.0741 -0.0072
14525SOL     OW46467   1.894   5.764   4.551 -0.3059 -0.3425 -0.2037
14525SOL    HW146468   1.916   5.813   4.631 -2.2077  0.1887  0.0454
14525SOL    HW246469   1.809   5.723   4.571 -0.6999 -0.3855 -1.8614
14526SOL     OW46470   3.641   1.786   6.964 -0.6267  0.7389 -0.3451
14526SOL    HW146471   3.657   1.775   7.058  0.5632  3.7275 -0.0856
14526SOL    HW246472   3.696   1.719   6.922 -0.1512  0.2402  1.0324
14527SOL     OW46473  10.540   3.352   9.723  0.6557  0.1664 -0.0406
14527SOL    HW146474  10.616   3.310   9.684 -0.1567 -1.2140 -0.1767
14527SOL    HW246475  10.471   3.286   9.721 -0.4991  1.3056  0.2811
14528SOL     OW46476  10.080   9.136   2.141  0.0270  0.2600 -0.3282
14528SOL    HW146477  10.072   9.182   2.057 -0.6647 -0.5270 -0.7131
14528SOL    HW246478  10.134   9.060   2.121  0.2808  0.3417  0.0553
14529SOL     OW46479   6.764   0.492   3.529  0.4545  0.2660  0.4288
14529SOL    HW146480   6.728   0.564   3.580  0.3298 -0.0345  0.7646
14529SOL    HW246481   6.757   0.522   3.438 -0.1322  0.4372  0.5240
14530SOL     OW46482   1.914   9.689   2.904  0.1671  0.4585 -0.5704
14530SOL    HW146483   1.960   9.664   2.824  0.3233  1.7460 -0.9057
14530SOL    HW246484   1.982   9.723   2.962  0.1478 -1.0257  0.3777
14531SOL     OW46485   1.371  10.632   3.944  0.0133 -0.2418  0.0659
14531SOL    HW146486   1.288  10.676   3.925  1.3024  2.0489 -0.5608
14531SOL    HW246487   1.408  10.681   4.018  0.6866 -1.4378  0.5506
14532SOL     OW46488   7.337   2.447   3.136  0.1139  0.2492  0.1761
14532SOL    HW146489   7.425   2.477   3.158  0.5586 -0.5709 -0.4142
14532SOL    HW246490   7.309   2.398   3.214  0.1992  0.4771  0.3505
14533SOL     OW46491  10.062   6.054   9.644  0.0050 -0.1835  0.3903
14533SOL    HW146492  10.075   5.970   9.688  0.2890 -1.2427 -1.5953
14533SOL    HW246493  10.151   6.086   9.628  0.0422 -1.1332 -1.6981
14534SOL     OW46494   7.241   7.165   3.519 -0.2472  0.7241  0.2580
14534SOL    HW146495   7.165   7.196   3.569  0.9516  1.3700  1.7394
14534SOL    HW246496   7.203   7.135   3.436 -1.9971  2.0852  0.4847
14535SOL     OW46497   9.572   9.573   8.678 -0.2167  0.3689 -0.3318
14535SOL    HW146498   9.624   9.531   8.609  1.9214  0.6776  0.9820
14535SOL    HW246499   9.506   9.509   8.701  0.3243 -0.5553 -1.2676
14536SOL     OW46500   6.021   7.867   2.907  0.5069 -0.2569 -0.7471
14536SOL    HW146501   6.003   7.948   2.956 -2.4296 -1.4043  0.2323
14536SOL    HW246502   6.117   7.859   2.911  0.6401  1.2577  2.2960
14537SOL     OW46503   5.367   8.607   2.107 -0.0867 -0.0650  0.3505
14537SOL    HW146504   5.395   8.516   2.093  2.4425  0.2102  2.7781
14537SOL    HW246505   5.313   8.627   2.030  1.0213 -2.9069 -1.3508
14538SOL     OW46506   2.942   7.842  10.712  0.3662  0.6193  0.3880
14538SOL    HW146507   3.023   7.821  10.759  1.5506  3.2532 -0.2992
14538SOL    HW246508   2.963   7.829  10.620 -0.4634 -0.0233  0.2760
14539SOL     OW46509   0.280   7.297   7.560  0.0827  0.1735  0.5062
14539SOL    HW146510   0.346   7.353   7.521 -0.7485  1.0143  0.2787
14539SOL    HW246511   0.211   7.357   7.589 -0.9810 -0.7433 -0.0493
14540SOL     OW46512   1.303   3.889   2.694 -0.0877 -0.4238 -0.8249
14540SOL    HW146513   1.358   3.830   2.745 -0.8407 -1.2489 -0.9452
14540SOL    HW246514   1.247   3.831   2.642 -0.7385  0.3903 -1.0527
14541SOL     OW46515   2.622   1.815   1.328  0.6987  0.7937 -0.0231
14541SOL    HW146516   2.683   1.767   1.385 -0.9687 -1.1504  0.2008
14541SOL    HW246517   2.537   1.806   1.371  0.1301  3.1858 -0.5028
14542SOL     OW46518   2.476   9.672   8.591 -0.3606 -0.0056 -0.7213
14542SOL    HW146519   2.435   9.757   8.609 -0.3432  0.2647 -1.8864
14542SOL    HW246520   2.560   9.694   8.551  0.6533 -0.5684  1.0098
14543SOL     OW46521   6.871   7.136   4.700  0.0236 -0.0510 -0.2317
14543SOL    HW146522   6.930   7.210   4.685  1.5299 -1.5603 -2.4418
14543SOL    HW246523   6.903   7.096   4.781  0.4060  0.6212 -0.0398
14544SOL     OW46524   5.202   1.257   5.402  0.3454 -0.5414 -0.4387
14544SOL    HW146525   5.135   1.246   5.470  1.5801 -0.9377  0.7778
14544SOL    HW246526   5.208   1.171   5.361  1.2686 -1.0302  0.6339
14545SOL     OW46527   6.835   5.125   6.698 -0.1997  0.1123  1.0309
14545SOL    HW146528   6.898   5.056   6.677 -1.6198 -0.9087 -0.0318
14545SOL    HW246529   6.844   5.189   6.627 -0.4900 -0.1380  0.7647
14546SOL     OW46530   2.319   8.431   4.652 -0.1823  0.4129 -0.1301
14546SOL    HW146531   2.360   8.351   4.684  1.3147  1.5400  0.8966
14546SOL    HW246532   2.370   8.455   4.574 -1.1237 -0.0183 -0.9095
14547SOL     OW46533   7.982   8.947   0.013  0.2899  0.9418 -0.0079
14547SOL    HW146534   8.018   8.929  -0.074 -0.0618 -0.7965  0.1864
14547SOL    HW246535   7.891   8.919   0.008  0.6029 -0.4149  1.2861
14548SOL     OW46536   0.071   4.040   7.663  0.3809 -0.5156  0.0144
14548SOL    HW146537   0.148   3.995   7.697 -0.7084 -1.4544  1.3524
14548SOL    HW246538   0.002   4.021   7.727 -0.6265  1.4290 -0.4174
14549SOL     OW46539   4.660   8.535   8.958 -0.0357  0.0755 -0.0966
14549SOL    HW146540   4.677   8.611   9.015 -1.4457  1.0193 -0.8666
14549SOL    HW246541   4.666   8.460   9.017  0.6052  0.8477  0.8687
14550SOL     OW46542   1.345   5.745   5.493  1.0562 -0.3470 -0.0462
14550SOL    HW146543   1.308   5.732   5.406 -0.2663  3.2222 -0.1542
14550SOL    HW246544   1.274   5.724   5.553  0.5511  1.3090 -0.0381
14551SOL     OW46545   7.303  10.553   2.239  0.3409 -0.2308 -0.2696
14551SOL    HW146546   7.237  10.487   2.215  1.2772 -1.8150  1.3164
14551SOL    HW246547   7.270  10.591   2.320  1.0172 -0.5345  0.1536
14552SOL     OW46548   9.834   2.646  10.379 -0.0933  0.3493 -0.4869
14552SOL    HW146549   9.889   2.699  10.321 -0.0094  1.7803  0.8386
14552SOL    HW246550   9.876   2.654  10.465 -0.5838 -1.1923 -0.0725
14553SOL     OW46551   5.669   8.571  10.332 -0.1029  0.5628 -0.2723
14553SOL    HW146552   5.633   8.653  10.364 -4.6491 -0.8206 -1.1547
14553SOL    HW246553   5.640   8.566  10.241  0.9828 -1.5533 -0.5762
14554SOL     OW46554   7.099   2.728   9.817 -0.5012  0.1271  0.0630
14554SOL    HW146555   7.087   2.823   9.816  1.0057  0.3638  1.0475
14554SOL    HW246556   7.138   2.710   9.902 -0.1913 -1.3104 -0.3562
14555SOL     OW46557   8.594   9.032   3.562  0.4341 -0.1672 -0.1425
14555SOL    HW146558   8.663   9.090   3.528 -0.4254  1.4788  0.7741
14555SOL    HW246559   8.562   9.077   3.641 -1.1404 -1.2785 -0.1020
14556SOL     OW46560   7.861   1.512   2.658 -0.0104  0.1379 -0.3678
14556SOL    HW146561   7.927   1.554   2.714  0.9727 -0.1303 -1.2964
14556SOL    HW246562   7.904   1.433   2.626  0.5954  1.6460 -3.7550
14557SOL     OW46563   7.083   1.179   2.016 -0.1136  0.0344  0.0192
14557SOL    HW146564   7.125   1.129   1.946 -2.4740 -0.9511 -0.7956
14557SOL    HW246565   7.098   1.128   2.095  1.7297  0.6522  0.1189
14558SOL     OW46566   6.757   7.970   4.927  0.0287  0.4260  0.1949
14558SOL    HW146567   6.806   7.901   4.881 -0.8407 -0.4061  0.4762
14558SOL    HW246568   6.700   7.922   4.987 -0.1492  1.4304  0.8512
14559SOL     OW46569   9.755   2.853   8.697  0.1428 -0.8970  0.3412
14559SOL    HW146570   9.821   2.912   8.661 -1.1638 -0.9876 -2.4511
14559SOL    HW246571   9.678   2.908   8.708 -0.3944 -1.5639 -0.0366
14560SOL     OW46572   8.974   5.559  10.581 -0.0336  0.2392  0.0815
14560SOL    HW146573   8.927   5.522  10.656  0.1858 -2.0771 -0.8446
14560SOL    HW246574   8.919   5.538  10.506  1.8161 -1.4978 -0.8880
14561SOL     OW46575   6.593   4.966   7.715  0.0023 -0.2274  0.0250
14561SOL    HW146576   6.584   5.057   7.687  0.0263 -0.4165 -0.6054
14561SOL    HW246577   6.506   4.942   7.748  0.0827  0.1189  0.5015
14562SOL     OW46578   6.487   4.056   7.702 -0.9235 -0.1591  0.0213
14562SOL    HW146579   6.462   4.024   7.615 -0.0731  0.4691 -0.4695
14562SOL    HW246580   6.555   4.121   7.685  0.8731 -1.6024  1.2841
14563SOL     OW46581   4.407   1.827   9.060  0.2466 -0.4343 -0.0468
14563SOL    HW146582   4.500   1.848   9.065  1.0437 -3.7614  1.9425
14563SOL    HW246583   4.370   1.859   9.142 -0.1092 -0.2195 -0.2892
14564SOL     OW46584  10.390   1.231   7.503 -0.5155  0.4602 -0.2003
14564SOL    HW146585  10.405   1.157   7.444 -2.2457 -0.9290  0.9616
14564SOL    HW246586  10.412   1.308   7.452  0.3030 -0.8072 -1.8433
14565SOL     OW46587   7.012   3.545   6.710 -0.0045  0.0451 -0.1161
14565SOL    HW146588   7.017   3.624   6.656  2.6721  0.7817  1.0672
14565SOL    HW246589   6.984   3.576   6.796  0.2619 -0.4272  0.1440
14566SOL     OW46590   3.970   5.327   0.641 -0.7287  0.0889 -0.5839
14566SOL    HW146591   3.909   5.401   0.645  0.2809  1.1103 -2.5015
14566SOL    HW246592   4.056   5.367   0.659 -0.1633 -0.5719 -1.7015
14567SOL     OW46593   6.775   9.749   9.360 -0.0914 -0.5295  0.2987
14567SOL    HW146594   6.788   9.655   9.347 -1.1242 -0.5661 -0.5916
14567SOL    HW246595   6.763   9.784   9.272 -1.0893  0.2189  0.7127
14568SOL     OW46596   1.091   9.118   6.389  0.0486  0.7615  0.1308
14568SOL    HW146597   1.179   9.141   6.419  1.6385 -1.2520 -2.5771
14568SOL    HW246598   1.070   9.036   6.433 -0.7978  1.5149  1.2020
14569SOL     OW46599   4.874   8.793   2.424  0.2229  0.1274  0.0059
14569SOL    HW146600   4.861   8.851   2.499  0.6612  1.0774 -0.6183
14569SOL    HW246601   4.851   8.847   2.348  0.4445 -0.5873 -0.5810
14570SOL     OW46602  10.603   1.692   6.646 -0.6640 -0.3445 -0.1074
14570SOL    HW146603  10.627   1.617   6.591  0.5935 -0.3850  0.4754
14570SOL    HW246604  10.629   1.769   6.596 -0.6382 -0.3370 -0.0818
14571SOL     OW46605   4.759   8.207   5.655 -0.4455 -0.4897 -0.1277
14571SOL    HW146606   4.843   8.183   5.694 -0.6791 -1.2663 -0.0785
14571SOL    HW246607   4.773   8.294   5.619  0.3657 -0.5859 -0.0666
14572SOL     OW46608  10.308   1.043   2.248  0.1459 -0.0196 -0.0917
14572SOL    HW146609  10.390   1.049   2.298 -0.1846 -0.4661  0.5283
14572SOL    HW246610  10.335   1.009   2.163  0.7329  0.8187 -0.2515
14573SOL     OW46611   4.887   5.851   7.650  0.4655 -0.1584 -0.0376
14573SOL    HW146612   4.842   5.880   7.729  1.2290  2.5462 -0.4957
14573SOL    HW246613   4.839   5.773   7.622 -2.4924  1.2360  0.7577
14574SOL     OW46614   3.780   7.697   6.323  0.1728  0.2606  0.4752
14574SOL    HW146615   3.846   7.766   6.324 -1.2299  1.6943 -0.9126
14574SOL    HW246616   3.756   7.686   6.415  1.0430  1.0109  0.8077
14575SOL     OW46617   4.770   0.562   2.317 -0.3375 -0.2304 -0.1189
14575SOL    HW146618   4.779   0.614   2.397 -0.4350 -1.3464  0.6421
14575SOL    HW246619   4.834   0.599   2.257 -0.8735  1.2068  0.1450
14576SOL     OW46620   8.673  10.227  10.615 -0.4956 -0.0183 -0.4260
14576SOL    HW146621   8.639  10.157  10.559  0.4386 -0.3174 -0.6321
14576SOL    HW246622   8.757  10.251  10.575 -0.0354  0.0888  0.5841
14577SOL     OW46623   8.982   3.567   1.678  0.3811 -0.0699  0.1639
14577SOL    HW146624   8.992   3.560   1.773 -0.8851  0.3398  0.3443
14577SOL    HW246625   9.072   3.572   1.645  0.8922  3.1164  1.6081
14578SOL     OW46626   6.466   1.491   9.490  0.1765  1.3239  0.3518
14578SOL    HW146627   6.470   1.395   9.499  0.6248  1.2538 -0.5657
14578SOL    HW246628   6.443   1.521   9.578 -0.3006  0.3559  0.5815
14579SOL     OW46629  10.011   6.356   7.635  0.0834  0.1594  0.3850
14579SOL    HW146630  10.046   6.385   7.551 -1.4614  2.5964  0.4877
14579SOL    HW246631   9.921   6.389   7.636 -0.3737 -0.9845  2.4609
14580SOL     OW46632   6.630   3.624   9.702 -0.1455  0.1339  0.2619
14580SOL    HW146633   6.679   3.691   9.654 -0.3218  0.0558 -0.0326
14580SOL    HW246634   6.578   3.673   9.765  1.8334  0.1159  2.0279
14581SOL     OW46635   1.193   9.238   7.944 -0.7744 -0.6406  0.0159
14581SOL    HW146636   1.113   9.284   7.919 -0.3574  0.1263  0.0592
14581SOL    HW246637   1.165   9.149   7.963 -1.6159 -0.3816  0.0180
14582SOL     OW46638   7.044   4.122   9.173  0.1264  0.6277 -0.5124
14582SOL    HW146639   7.070   4.048   9.117  1.3573 -0.0130  0.8532
14582SOL    HW246640   6.961   4.094   9.212  1.1118 -0.5614  0.8414
14583SOL     OW46641   2.146   2.439   5.569  0.2678 -0.1408 -0.1853
14583SOL    HW146642   2.073   2.470   5.622  1.9170 -0.7389  2.6297
14583SOL    HW246643   2.135   2.344   5.566  0.7102 -0.1970 -0.0776
14584SOL     OW46644   8.704   3.238   9.498  0.4469 -0.1080 -0.4977
14584SOL    HW146645   8.703   3.152   9.455 -2.6205 -1.8251  2.4338
14584SOL    HW246646   8.749   3.222   9.581  1.1339  1.5567 -0.5237
14585SOL     OW46647   6.269   5.917   6.240 -0.4266 -0.2918  0.2523
14585SOL    HW146648   6.344   5.872   6.201 -0.0870  2.1309 -2.1970
14585SOL    HW246649   6.196   5.896   6.182 -0.5313  1.1843 -0.1912
14586SOL     OW46650  10.099   5.819   3.007  0.4750  0.1415  0.0008
14586SOL    HW146651  10.172   5.813   2.946 -1.3828 -0.0480 -2.3792
14586SOL    HW246652  10.057   5.733   3.002  0.5655 -0.0611  2.0273
14587SOL     OW46653   4.540   5.466   6.528 -0.0982 -0.2041 -0.5819
14587SOL    HW146654   4.626   5.504   6.512 -0.9652  1.5948 -1.3088
14587SOL    HW246655   4.483   5.541   6.546 -1.3111 -1.4269  0.9923
14588SOL     OW46656   1.653   3.442   5.798 -0.2751  0.0102 -0.3595
14588SOL    HW146657   1.648   3.351   5.828  0.6960 -0.3771 -1.3146
14588SOL    HW246658   1.739   3.448   5.756 -0.9917  0.9211 -1.7418
14589SOL     OW46659   4.382   4.469   7.582  0.3810  0.0199  1.1564
14589SOL    HW146660   4.418   4.427   7.503 -1.9566 -2.8846  1.4787
14589SOL    HW246661   4.457   4.474   7.641  1.2078 -2.2072  0.4330
14590SOL     OW46662  10.290   3.826   1.484  0.5305 -0.7991  0.2749
14590SOL    HW146663  10.256   3.845   1.571 -2.6247 -0.7656 -0.8382
14590SOL    HW246664  10.307   3.731   1.485 -1.6498 -1.2340  0.3214
14591SOL     OW46665   6.214   5.272   0.790 -0.6492 -0.7908 -0.1701
14591SOL    HW146666   6.239   5.244   0.702 -1.1019 -0.8835 -0.2732
14591SOL    HW246667   6.138   5.329   0.776 -2.3591 -2.8202  0.3162
14592SOL     OW46668   9.494   3.183   4.944  0.1238  0.2223 -0.3590
14592SOL    HW146669   9.490   3.279   4.949  2.1518  0.3170  0.3062
14592SOL    HW246670   9.544   3.166   4.864 -1.9403 -0.4009 -1.6115
14593SOL     OW46671   2.794   0.665   3.254 -1.1984  0.1671 -0.0584
14593SOL    HW146672   2.733   0.611   3.305 -2.9422  0.3206 -1.8779
14593SOL    HW246673   2.741   0.739   3.225 -0.1482  0.2910 -1.7326
14594SOL     OW46674   3.012   4.157   8.919 -0.2434  0.4431 -0.4164
14594SOL    HW146675   2.954   4.226   8.949 -0.6083  1.3726 -3.0325
14594SOL    HW246676   3.077   4.202   8.866  0.6361 -1.0365 -0.6473
14595SOL     OW46677   6.746   4.231   1.934 -0.2127 -0.0461 -0.2251
14595SOL    HW146678   6.799   4.309   1.919  0.7924 -0.8381 -1.0068
14595SOL    HW246679   6.660   4.252   1.900  0.4706  0.2071 -1.8971
14596SOL     OW46680   3.728   6.660   8.035  0.1825 -0.1636 -0.4201
14596SOL    HW146681   3.815   6.641   8.070  0.7079  2.2747 -0.2111
14596SOL    HW246682   3.673   6.590   8.070  1.9688 -1.6134 -0.3178
14597SOL     OW46683   1.647   3.155   1.494 -0.7558 -0.2797  0.2148
14597SOL    HW146684   1.581   3.120   1.434 -1.1987  1.4796 -0.4086
14597SOL    HW246685   1.713   3.194   1.436  0.5637 -1.4916  0.8457
14598SOL     OW46686   2.964   7.666   1.515 -0.0387 -0.2775 -0.6533
14598SOL    HW146687   2.991   7.579   1.544 -0.2615 -0.0957  0.1221
14598SOL    HW246688   2.869   7.668   1.530 -0.0631  0.0274 -0.8492
14599SOL     OW46689   9.627   4.944   1.724 -0.4967 -0.1883  0.6850
14599SOL    HW146690   9.589   4.969   1.640  1.2861 -0.3547 -0.2351
14599SOL    HW246691   9.590   5.006   1.787 -3.0821 -1.0361  0.1147
14600SOL     OW46692   5.578   5.858   8.699  0.2843  0.1859  0.5170
14600SOL    HW146693   5.656   5.809   8.672  0.3968  0.3919  0.4670
14600SOL    HW246694   5.538   5.885   8.617  1.4187  2.0769  0.5318
14601SOL     OW46695   0.519   1.028   4.918  0.2870  0.6602  0.2087
14601SOL    HW146696   0.573   0.955   4.950  1.0092  1.0164 -0.1798
14601SOL    HW246697   0.563   1.106   4.953  1.2718  1.0846 -1.8474
14602SOL     OW46698   3.790   5.563   1.314 -0.7436  0.2046  0.5343
14602SOL    HW146699   3.813   5.473   1.335 -1.2598 -0.1308 -0.2916
14602SOL    HW246700   3.723   5.556   1.246  2.4107  1.1977 -3.0239
14603SOL     OW46701   3.450   5.342   3.840 -0.4855  0.4948  0.0325
14603SOL    HW146702   3.444   5.261   3.790 -0.9409 -0.1954  1.1693
14603SOL    HW246703   3.544   5.354   3.855 -0.4790 -0.3163  0.6497
14604SOL     OW46704   0.783   9.543   1.652  0.7452 -0.8612 -0.5208
14604SOL    HW146705   0.789   9.489   1.574  1.1277 -0.8052 -0.5301
14604SOL    HW246706   0.830   9.623   1.630 -1.7860  0.4917 -1.3567
14605SOL     OW46707  10.102   4.600   0.159 -0.2221 -0.2472  0.2301
14605SOL    HW146708  10.073   4.682   0.119 -1.3061 -0.6878  0.0719
14605SOL    HW246709  10.188   4.620   0.196 -0.0157  0.6783 -0.6973
14606SOL     OW46710  10.669   5.194   6.230  0.5952  0.0440 -0.2004
14606SOL    HW146711  10.730   5.138   6.182  0.5792  1.1750 -1.6104
14606SOL    HW246712  10.601   5.135   6.261  0.7588 -0.7707 -1.3506
14607SOL     OW46713   0.561   9.781   9.049  0.3177 -0.3796 -0.1109
14607SOL    HW146714   0.635   9.722   9.067  0.3680 -0.2871 -0.0117
14607SOL    HW246715   0.586   9.829   8.971  0.2899 -0.4682 -0.1748
14608SOL     OW46716   5.764   8.869  10.305 -0.3439 -0.3850  0.1476
14608SOL    HW146717   5.729   8.843  10.391  1.3653 -1.6002  0.5412
14608SOL    HW246718   5.834   8.931  10.326  0.7076 -1.3944 -0.2662
14609SOL     OW46719   2.329   3.531   2.896  0.1924  0.1173 -0.5913
14609SOL    HW146720   2.272   3.593   2.942 -0.2164  0.3080 -1.3464
14609SOL    HW246721   2.320   3.450   2.945 -0.2490  0.3136 -0.3439
14610SOL     OW46722   3.468  10.496   7.794 -0.4859 -0.1403 -0.2803
14610SOL    HW146723   3.391  10.553   7.789 -0.7205 -0.2339  1.5751
14610SOL    HW246724   3.511  10.522   7.875  0.6742 -1.0642 -0.5786
14611SOL     OW46725   1.376   9.793   5.691  0.0588  0.3596 -0.0702
14611SOL    HW146726   1.339   9.771   5.777 -0.8549 -0.6993 -0.7159
14611SOL    HW246727   1.381   9.889   5.692 -0.1338  0.3795  1.0808
14612SOL     OW46728   2.283   2.767   3.015 -0.1490 -0.6615 -0.2011
14612SOL    HW146729   2.350   2.780   2.948 -1.0606 -0.2183 -1.0587
14612SOL    HW246730   2.207   2.736   2.967  0.2867 -4.2909  1.1046
14613SOL     OW46731   9.184   6.362   6.608 -0.0609 -0.1116 -0.0054
14613SOL    HW146732   9.201   6.427   6.676 -1.3004  1.2477 -0.9345
14613SOL    HW246733   9.089   6.364   6.595 -0.1026 -1.9401 -0.2536
14614SOL     OW46734   5.151   2.095   6.236 -0.1971  0.5450  0.2206
14614SOL    HW146735   5.213   2.039   6.190 -0.8203  0.0438 -0.0302
14614SOL    HW246736   5.065   2.066   6.205 -0.5795  0.8876  0.9282
14615SOL     OW46737   8.271   4.977   8.601 -0.1821  0.3771 -0.2908
14615SOL    HW146738   8.348   5.006   8.553 -0.1345  0.2185 -0.3140
14615SOL    HW246739   8.204   5.043   8.583 -0.1594  0.3283 -0.5609
14616SOL     OW46740   6.690   4.575   5.593 -0.4681 -0.5200 -0.1452
14616SOL    HW146741   6.703   4.485   5.621 -0.1743  0.0276  1.6376
14616SOL    HW246742   6.685   4.571   5.498 -0.5326 -2.4129 -0.0892
14617SOL     OW46743   0.538   2.661   8.467 -0.2153  0.6903  0.1951
14617SOL    HW146744   0.549   2.572   8.431  0.0837  0.6202  0.4529
14617SOL    HW246745   0.537   2.718   8.390  1.8193  0.6854  0.1180
14618SOL     OW46746   1.757   4.771   1.358 -0.0946  0.1994 -0.1569
14618SOL    HW146747   1.699   4.829   1.308 -1.4241  1.6474  2.7872
14618SOL    HW246748   1.835   4.824   1.376  1.2981 -1.0102 -2.2793
14619SOL     OW46749   9.774   4.111   6.224 -0.0968 -0.3510  0.0026
14619SOL    HW146750   9.862   4.123   6.189  1.1403  0.1108  2.9650
14619SOL    HW246751   9.769   4.017   6.244  0.6888 -0.0216  1.9708
14620SOL     OW46752  10.412   2.280   8.096  0.4625  0.1010  0.0537
14620SOL    HW146753  10.466   2.215   8.141  0.4170  0.1613  0.1971
14620SOL    HW246754  10.325   2.271   8.135  0.2054 -0.4340 -0.6299
14621SOL     OW46755  10.298   1.922   5.189  0.0845  0.2017  0.3406
14621SOL    HW146756  10.240   1.864   5.140  0.3260 -0.0154  0.3065
14621SOL    HW246757  10.240   1.989   5.227 -0.2150 -0.1471  0.5024
14622SOL     OW46758   9.634   7.732   8.086  0.4048 -0.0834  0.5752
14622SOL    HW146759   9.675   7.812   8.118 -1.4195  1.2455 -0.2867
14622SOL    HW246760   9.658   7.666   8.151  0.3024  1.5788  2.3899
14623SOL     OW46761   3.593   9.418   0.806  0.6090  0.0607  0.4499
14623SOL    HW146762   3.524   9.388   0.865 -0.4925  0.9359 -0.3446
14623SOL    HW246763   3.546   9.463   0.735  1.8019 -1.4437 -1.4226
14624SOL     OW46764   1.506   1.820   8.517 -0.6092  0.1549 -0.5118
14624SOL    HW146765   1.590   1.855   8.488 -0.2494  0.2142  0.5756
14624SOL    HW246766   1.512   1.726   8.501 -0.1948  0.1096 -0.1092
14625SOL     OW46767   2.392   8.213   0.323  0.3044  0.0396 -0.1406
14625SOL    HW146768   2.419   8.122   0.313 -2.3648 -0.7150 -1.2161
14625SOL    HW246769   2.408   8.252   0.237 -2.0430 -0.4964 -0.8900
14626SOL     OW46770  10.759   6.110   6.763  0.2396 -0.8645 -0.1994
14626SOL    HW146771  10.840   6.071   6.797  2.3593  1.1814 -2.5625
14626SOL    HW246772  10.735   6.054   6.688 -0.4554 -1.3024  0.3267
14627SOL     OW46773   0.934   9.041   0.402  0.3568 -0.2712  0.0326
14627SOL    HW146774   0.905   8.963   0.356 -0.2577 -1.7126  2.6560
14627SOL    HW246775   0.982   9.009   0.478  1.6233  1.9641  0.2840
14628SOL     OW46776   7.166   9.665   2.438  0.1270  0.1815  0.2779
14628SOL    HW146777   7.242   9.685   2.492  0.5247  2.2238 -0.9446
14628SOL    HW246778   7.177   9.719   2.360 -1.0831 -1.6911 -1.2980
14629SOL     OW46779   9.366   9.762   1.924  0.1988 -0.4541  0.1022
14629SOL    HW146780   9.456   9.777   1.953  0.4358  2.4575 -1.6896
14629SOL    HW246781   9.318   9.839   1.954 -1.5087 -1.4824  0.1615
14630SOL     OW46782   9.364  10.734   0.611  0.0882  0.5309  0.0183
14630SOL    HW146783   9.356  10.649   0.654 -2.0310  0.5294 -0.3042
14630SOL    HW246784   9.405  10.790   0.677  1.5720 -0.7067  0.2211
14631SOL     OW46785   2.663   7.674   9.579  0.4113  0.3484 -0.0614
14631SOL    HW146786   2.741   7.729   9.582  0.6013  0.2694 -2.0763
14631SOL    HW246787   2.678   7.608   9.646  1.0540  1.6117  1.0865
14632SOL     OW46788   0.684   8.140   9.385  0.0700 -0.0783 -0.0349
14632SOL    HW146789   0.607   8.160   9.439  1.2323  2.7780  0.7611
14632SOL    HW246790   0.750   8.111   9.447  0.7384  1.0912 -0.1754
14633SOL     OW46791   5.672   3.098   5.862 -0.5021 -0.1479  0.0481
14633SOL    HW146792   5.593   3.061   5.902  0.0870 -0.8590  0.5565
14633SOL    HW246793   5.744   3.068   5.917 -0.0377  2.2257  0.8511
14634SOL     OW46794   0.399   8.533   4.560 -0.0801  0.5863  0.5779
14634SOL    HW146795   0.335   8.462   4.556 -2.4726  2.6450 -1.3493
14634SOL    HW246796   0.477   8.497   4.517 -0.1654 -1.6976  2.1467
14635SOL     OW46797   7.226   2.938   6.105 -0.3080  0.2835  0.2279
14635SOL    HW146798   7.211   2.850   6.071 -0.3398 -0.2157  1.5156
14635SOL    HW246799   7.255   2.988   6.028 -0.9052 -0.6769 -0.6437
14636SOL     OW46800   5.583   3.147   1.672  0.6248  0.5351 -0.2958
14636SOL    HW146801   5.639   3.202   1.616 -1.6278  1.3287 -1.8997
14636SOL    HW246802   5.518   3.111   1.612 -1.7280  1.1756  1.7400
14637SOL     OW46803   9.398   3.878   2.802  0.1560 -0.5701  0.6744
14637SOL    HW146804   9.369   3.966   2.826  1.1245  0.3240 -1.2054
14637SOL    HW246805   9.337   3.820   2.847 -0.3973  1.0425  2.1098
14638SOL     OW46806   7.452   3.601   8.312 -0.0495 -0.0736 -0.1195
14638SOL    HW146807   7.379   3.657   8.337 -0.2697 -0.0916 -0.6847
14638SOL    HW246808   7.416   3.546   8.242  1.0189  1.2051 -1.7406
14639SOL     OW46809   3.499  10.076   1.099  0.3943 -0.3047 -0.1012
14639SOL    HW146810   3.511  10.158   1.051 -0.0143 -1.3621 -2.1329
14639SOL    HW246811   3.577  10.025   1.080  0.0408 -0.9104  0.0293
14640SOL     OW46812   1.173   4.755   9.537  0.0679  0.0684  0.4012
14640SOL    HW146813   1.083   4.772   9.564  0.6291  1.4463  1.4889
14640SOL    HW246814   1.189   4.664   9.564 -0.6461  0.1668  1.1900
14641SOL     OW46815   0.095   1.458   4.134  0.3638  0.6541  0.9175
14641SOL    HW146816   0.098   1.365   4.155 -0.5908 -0.2214 -2.2726
14641SOL    HW246817   0.007   1.485   4.157  0.6528  0.8035  1.8785
14642SOL     OW46818   4.065   1.355   6.112 -0.1722 -0.6859 -0.0275
14642SOL    HW146819   4.019   1.330   6.192  0.4406 -1.5676  0.0615
14642SOL    HW246820   4.156   1.330   6.128  0.5147  1.6001  0.0550
14643SOL     OW46821   3.608  10.098   7.434 -0.8176  0.0788  0.1298
14643SOL    HW146822   3.542  10.081   7.366 -1.6855 -1.6995  1.3292
14643SOL    HW246823   3.557  10.127   7.510 -0.1384 -0.5338  0.8341
14644SOL     OW46824   4.464   0.187   8.832 -0.2762  0.0979 -0.0019
14644SOL    HW146825   4.513   0.197   8.914 -0.8876  1.1274  0.2518
14644SOL    HW246826   4.389   0.134   8.856 -0.5092  0.4835  0.1428
14645SOL     OW46827  10.719   2.540   5.897 -0.2313 -0.1226 -0.0421
14645SOL    HW146828  10.643   2.509   5.946 -1.0406  0.4529 -0.8899
14645SOL    HW246829  10.746   2.620   5.942 -0.5351  0.0215 -0.1125
14646SOL     OW46830   7.358   5.547   1.660  0.0325 -0.0344  0.8217
14646SOL    HW146831   7.301   5.537   1.736 -0.3153  0.7970  0.6860
14646SOL    HW246832   7.438   5.586   1.695  0.1913 -0.4127  0.8832
14647SOL     OW46833   2.302  10.348   3.125 -0.3566  0.2963 -0.3648
14647SOL    HW146834   2.268  10.334   3.214 -1.2580  0.7194 -0.6380
14647SOL    HW246835   2.241  10.300   3.069  1.1219 -1.3645 -0.6542
14648SOL     OW46836   3.321   9.619   9.863  0.7096 -0.3562 -0.1927
14648SOL    HW146837   3.410   9.590   9.844  1.7154  1.4707  1.4429
14648SOL    HW246838   3.287   9.555   9.925  1.1012 -0.7267 -0.3558
14649SOL     OW46839  10.567   9.746   7.754 -0.3467 -0.1139  0.3910
14649SOL    HW146840  10.583   9.670   7.697 -0.1980 -0.1031  0.4186
14649SOL    HW246841  10.622   9.815   7.718  0.4514 -0.3627  1.0819
14650SOL     OW46842   3.978   4.433   7.014 -0.5425 -0.2201 -0.0858
14650SOL    HW146843   3.939   4.406   6.931  2.4991  0.8718 -2.0357
14650SOL    HW246844   4.025   4.514   6.993  2.9543 -1.5405  1.8062
14651SOL     OW46845   8.701   9.140   4.623  0.3599 -0.0073 -0.1742
14651SOL    HW146846   8.781   9.099   4.589 -0.5417 -1.0313 -1.1576
14651SOL    HW246847   8.651   9.162   4.544 -0.9432 -0.6654  0.4511
14652SOL     OW46848   0.150   6.890   5.420  0.9301 -0.0948  0.6840
14652SOL    HW146849   0.099   6.941   5.356  0.8341  0.0842  0.9003
14652SOL    HW246850   0.189   6.819   5.369 -1.5193 -1.7113  0.9347
14653SOL     OW46851   6.524   4.440   4.913  0.0626  0.1452  0.2337
14653SOL    HW146852   6.521   4.360   4.860  1.8780 -0.0091  0.3220
14653SOL    HW246853   6.583   4.498   4.867  0.1079  0.7769  1.0666
14654SOL     OW46854   3.395   1.554  10.662  0.0426  0.0300 -0.3326
14654SOL    HW146855   3.325   1.525  10.721 -0.3654 -2.4934 -1.9376
14654SOL    HW246856   3.374   1.514  10.578  2.1811  1.1394 -1.4773
14655SOL     OW46857   7.092   1.724   3.606 -0.3081 -0.6537 -0.2032
14655SOL    HW146858   7.019   1.670   3.638 -0.8645  0.2309  0.0503
14655SOL    HW246859   7.124   1.677   3.529  0.2590 -2.1801  0.8955
14656SOL     OW46860   1.973   9.475   2.561 -0.4918  0.7257  0.1038
14656SOL    HW146861   1.967   9.568   2.539 -1.1910  0.4526 -0.8992
14656SOL    HW246862   1.922   9.466   2.641 -1.2971  1.0290 -0.3680
14657SOL     OW46863  10.675   3.495   8.558  0.0405 -0.3515 -0.2082
14657SOL    HW146864  10.745   3.527   8.616 -0.6722  0.2728  0.3225
14657SOL    HW246865  10.602   3.477   8.616 -1.0185  1.2018 -0.9825
14658SOL     OW46866   2.232   4.429   5.508  0.4816  0.3265  0.0781
14658SOL    HW146867   2.277   4.479   5.439  0.2149 -0.8146 -0.9675
14658SOL    HW246868   2.235   4.339   5.477  0.7326 -0.2914  1.7928
14659SOL     OW46869   2.305   8.017   7.496  0.0870 -0.0065  0.0777
14659SOL    HW146870   2.357   7.968   7.432 -0.3805  0.7168 -0.8754
14659SOL    HW246871   2.358   8.095   7.515  1.1803 -1.1792  2.1565
14660SOL     OW46872   4.404   6.850   7.115 -0.0397  0.0244  0.0538
14660SOL    HW146873   4.471   6.784   7.132  0.7091  0.1973 -1.9845
14660SOL    HW246874   4.408   6.865   7.020 -1.5814  1.5222  0.1751
14661SOL     OW46875   3.408   9.860   4.781  0.1831  0.6848 -0.3488
14661SOL    HW146876   3.405   9.817   4.695  0.4855  1.0376 -0.5414
14661SOL    HW246877   3.457   9.941   4.765 -1.2499  1.6093 -0.2023
14662SOL     OW46878   7.850  10.446   9.993  0.2574  0.2039  0.1848
14662SOL    HW146879   7.915  10.485   9.935 -0.6449  0.8053 -0.4623
14662SOL    HW246880   7.768  10.489   9.969 -0.4324 -0.7216  0.7926
14663SOL     OW46881   7.169   7.699   4.275  0.2752 -0.5008  0.7801
14663SOL    HW146882   7.091   7.755   4.275  0.6845  0.1032 -0.1571
14663SOL    HW246883   7.242   7.761   4.262  0.6987 -1.2827 -0.8247
14664SOL     OW46884   7.540   3.984   4.070 -0.4991 -0.0326  0.5910
14664SOL    HW146885   7.501   3.981   3.982 -0.0394  0.8861  0.3515
14664SOL    HW246886   7.601   3.910   4.071 -0.8339 -0.3232  0.3048
14665SOL     OW46887   7.083   1.253   4.200 -0.0854 -0.2382 -0.0367
14665SOL    HW146888   7.059   1.324   4.140  0.1072 -0.0863  0.0646
14665SOL    HW246889   7.120   1.185   4.144 -0.3179 -0.2791 -0.1405
14666SOL     OW46890   4.603   8.879   8.870 -0.5510  0.0775  0.3053
14666SOL    HW146891   4.563   8.812   8.814 -0.4273  1.2747 -1.3170
14666SOL    HW246892   4.614   8.837   8.955  1.7471 -2.8077 -1.2149
14667SOL     OW46893   2.780   9.997  10.144  0.3792 -0.1205  0.6240
14667SOL    HW146894   2.776  10.090  10.121  0.0381  0.1622  1.7852
14667SOL    HW246895   2.872   9.980  10.162  0.4939 -0.0971  0.0733
14668SOL     OW46896   0.638   3.622   3.677 -0.4302  0.1412 -0.0931
14668SOL    HW146897   0.555   3.594   3.639 -0.3390 -0.3152  0.0441
14668SOL    HW246898   0.704   3.578   3.625 -0.3080 -0.7739  0.8089
14669SOL     OW46899  10.718  10.099   6.165  0.2385  0.5492 -0.4176
14669SOL    HW146900  10.685  10.015   6.134  0.6861  1.1267 -2.6157
14669SOL    HW246901  10.773  10.077   6.240  0.6893 -1.1606 -1.2070
14670SOL     OW46902   7.436   8.829   8.864 -0.0408  0.4214 -0.3508
14670SOL    HW146903   7.380   8.895   8.823 -0.0248  0.8474  0.2992
14670SOL    HW246904   7.393   8.745   8.845  1.1830  0.3428 -3.2614
14671SOL     OW46905   1.187   0.523   6.145 -0.1479 -0.2565 -0.5760
14671SOL    HW146906   1.100   0.494   6.120 -0.2972  0.8873 -1.4535
14671SOL    HW246907   1.177   0.618   6.159  0.5943 -0.3719  0.9135
14672SOL     OW46908   7.899   4.480   6.818  0.2415  0.1901 -0.2488
14672SOL    HW146909   7.813   4.460   6.781 -0.1957  0.7118  0.4541
14672SOL    HW246910   7.891   4.569   6.851  1.1780  0.3772 -0.5063
14673SOL     OW46911   5.634  10.564   1.110  0.0452 -0.2530 -0.7041
14673SOL    HW146912   5.569  10.623   1.148  1.1691  1.2309 -1.0247
14673SOL    HW246913   5.592  10.530   1.031 -0.1109  1.2170 -1.2745
14674SOL     OW46914  10.088   8.994   4.061 -0.2208  0.1131  0.3075
14674SOL    HW146915  10.157   9.058   4.081 -0.5322  0.2120  1.0931
14674SOL    HW246916  10.040   8.984   4.143 -0.5378 -0.6945  0.0314
14675SOL     OW46917   0.501   2.443   6.904 -0.0941  0.0122  0.8683
14675SOL    HW146918   0.496   2.454   6.999 -0.2328  0.8665  0.7686
14675SOL    HW246919   0.579   2.491   6.877 -0.2563  0.0841  0.5109
14676SOL     OW46920   2.699  10.208   6.272  0.5851 -0.0464 -0.0145
14676SOL    HW146921   2.644  10.277   6.307 -1.3388 -0.8663 -1.2946
14676SOL    HW246922   2.767  10.254   6.222 -0.6471  0.9433 -0.8374
14677SOL     OW46923   9.320   4.525   7.432 -0.4560 -0.2846 -0.1683
14677SOL    HW146924   9.340   4.433   7.412  2.7437 -0.0411  1.2034
14677SOL    HW246925   9.349   4.536   7.522  0.1150  2.2791 -0.5880
14678SOL     OW46926   1.395   8.542   0.078 -0.0762  0.5860 -0.1691
14678SOL    HW146927   1.417   8.498   0.161 -1.0715 -1.9216 -1.1221
14678SOL    HW246928   1.470   8.599   0.061  1.0653 -0.3199  1.4788
14679SOL     OW46929   8.624   9.635   7.216 -0.1872 -0.3708 -0.4272
14679SOL    HW146930   8.590   9.575   7.281  0.1948  1.6893  1.8043
14679SOL    HW246931   8.608   9.722   7.252  2.7830  0.8157 -1.6051
14680SOL     OW46932   0.529   4.158   6.897  0.1466  0.5230 -0.7251
14680SOL    HW146933   0.578   4.081   6.927  1.1463  1.8192  1.1136
14680SOL    HW246934   0.574   4.184   6.816  1.6606  0.8700  0.1963
14681SOL     OW46935  10.303   7.398  10.773 -0.1542  0.0317 -0.5728
14681SOL    HW146936  10.378   7.355  10.732 -0.1497  0.0114 -0.5418
14681SOL    HW246937  10.283   7.472  10.715  0.1832  0.3190 -0.3288
14682SOL     OW46938   0.502   9.326   3.936 -0.2048  0.2039 -0.0099
14682SOL    HW146939   0.475   9.331   4.027 -2.2171 -0.1942 -0.5469
14682SOL    HW246940   0.540   9.239   3.927 -1.4929 -0.3835  0.0901
14683SOL     OW46941  10.776   5.644   1.097 -0.5391 -0.5756  0.1501
14683SOL    HW146942  10.850   5.594   1.062 -0.6584 -0.5124 -0.2048
14683SOL    HW246943  10.703   5.582   1.093 -0.1645 -1.2268  2.1381
14684SOL     OW46944   4.036  10.080   7.720 -0.4018 -0.2758  0.0826
14684SOL    HW146945   4.046  10.055   7.812 -1.3388 -2.2132 -0.2862
14684SOL    HW246946   4.123  10.066   7.682  0.2557  1.4818  0.8285
14685SOL     OW46947   6.140   0.674  10.320 -0.0993 -0.1455  0.2444
14685SOL    HW146948   6.103   0.687  10.233 -0.3440  0.0916  0.3838
14685SOL    HW246949   6.139   0.579  10.333 -1.5496 -0.0957  0.6330
14686SOL     OW46950   2.405   1.139   0.335  0.1084  0.3743 -0.2027
14686SOL    HW146951   2.382   1.051   0.366  1.8021  0.4812  1.5291
14686SOL    HW246952   2.474   1.125   0.271 -1.9454  0.2965 -2.5303
14687SOL     OW46953   6.380   7.702   2.023  0.9570 -0.4155  0.2688
14687SOL    HW146954   6.415   7.648   1.952 -0.1401  0.7397 -1.2280
14687SOL    HW246955   6.426   7.785   2.015 -0.1570  0.1950 -0.0063
14688SOL     OW46956   6.402   1.535   7.818  0.0032 -0.0161 -0.1762
14688SOL    HW146957   6.357   1.575   7.893 -0.4320 -0.1005 -0.3933
14688SOL    HW246958   6.463   1.473   7.858  0.2709  0.4453  0.1387
14689SOL     OW46959   0.972  10.746   9.790 -0.7795 -0.6015  0.0631
14689SOL    HW146960   0.942  10.733   9.880 -3.1643  1.3151 -0.3600
14689SOL    HW246961   0.977  10.841   9.779  0.3138 -0.8011 -1.5878
14690SOL     OW46962   9.277   7.031   4.407  0.4996  0.0630  0.4012
14690SOL    HW146963   9.259   7.021   4.501 -0.7999  0.6793  0.2367
14690SOL    HW246964   9.222   6.965   4.365 -0.0988  0.8234 -0.0179
14691SOL     OW46965   9.299   5.037   5.119  0.0664  0.0042  0.3015
14691SOL    HW146966   9.260   4.999   5.041  0.5706  0.0584  0.0192
14691SOL    HW246967   9.392   5.046   5.098  0.0871  0.6881  0.6400
14692SOL     OW46968   9.784   7.276   5.919  0.0550  0.0620 -0.2208
14692SOL    HW146969   9.733   7.302   5.842  0.6279 -0.3364 -0.7439
14692SOL    HW246970   9.875   7.296   5.895  0.1015  1.3734  0.9463
14693SOL     OW46971   1.611   0.678   4.505 -0.4559 -0.7761  0.0236
14693SOL    HW146972   1.597   0.764   4.544  2.7847  0.4187 -1.1262
14693SOL    HW246973   1.621   0.619   4.579  0.6925  0.5099  0.9414
14694SOL     OW46974   0.637   3.714   6.759 -0.7218  0.2472 -0.1802
14694SOL    HW146975   0.621   3.706   6.665  1.5118 -0.6575 -0.5417
14694SOL    HW246976   0.717   3.664   6.774 -0.2777  1.4999  1.9907
14695SOL     OW46977   7.129   7.378   3.903  0.1551  0.0893  0.1024
14695SOL    HW146978   7.176   7.383   3.986 -0.7001  0.9414  0.5619
14695SOL    HW246979   7.053   7.435   3.915 -1.8690 -2.3868 -0.0377
14696SOL     OW46980   5.472  10.584   6.345  0.3262 -0.1764  0.1406
14696SOL    HW146981   5.450  10.557   6.256 -0.2452  0.7671 -0.0150
14696SOL    HW246982   5.499  10.503   6.389  0.7751 -0.6219 -0.9317
14697SOL     OW46983   7.403   0.645   7.544  0.0955  0.3065 -0.7665
14697SOL    HW146984   7.365   0.654   7.632  1.2828  1.6873 -0.3521
14697SOL    HW246985   7.475   0.708   7.543  2.4972 -2.2552 -1.4692
14698SOL     OW46986   3.456   7.057  10.220  0.2820 -0.0911  0.5519
14698SOL    HW146987   3.503   6.989  10.172  0.3644  0.0049  0.4962
14698SOL    HW246988   3.488   7.139  10.182  0.8058  0.0049  1.1876
14699SOL     OW46989   5.026  10.655   2.426 -0.2627  0.3144 -0.1829
14699SOL    HW146990   4.934  10.633   2.442  0.0468 -0.6574  0.3070
14699SOL    HW246991   5.074  10.610   2.495  0.5332  1.3941 -0.0074
14700SOL     OW46992   1.426   0.907   4.165 -0.0881  0.4993  0.5796
14700SOL    HW146993   1.500   0.952   4.207 -0.3772  0.6119  0.9765
14700SOL    HW246994   1.400   0.840   4.228 -0.7873  0.9359  0.7690
14701SOL     OW46995   8.758   7.071   2.830 -0.4400 -0.1670 -0.2734
14701SOL    HW146996   8.848   7.105   2.827 -0.3645 -0.3382  0.0008
14701SOL    HW246997   8.766   6.987   2.876 -0.7433 -0.1697 -0.2252
14702SOL     OW46998   6.601   8.684   4.794  0.2899  0.6387  0.3089
14702SOL    HW146999   6.671   8.663   4.856  0.0502 -0.1388  0.3245
14702SOL    HW247000   6.612   8.621   4.723  0.5733  1.5406 -0.4500
14703SOL     OW47001   6.619   0.616   0.632 -0.1968  0.1360 -0.3127
14703SOL    HW147002   6.575   0.652   0.708 -2.2442 -3.0743  0.2278
14703SOL    HW247003   6.553   0.618   0.563  0.9164  0.9297 -1.4185
14704SOL     OW47004   9.014   5.397   7.683  0.5945  0.5270  0.1075
14704SOL    HW147005   9.083   5.363   7.739 -0.2233  1.1562  1.5396
14704SOL    HW247006   8.990   5.323   7.628  1.1280 -0.2320  0.8717
14705SOL     OW47007   2.882   3.657  10.607  0.0787  0.0234 -0.5083
14705SOL    HW147008   2.869   3.634  10.699 -0.7007  0.2908 -0.5469
14705SOL    HW247009   2.811   3.613  10.561  0.3225  0.0911 -0.9607
14706SOL     OW47010   4.916   4.082   7.810  0.0390 -0.0324  0.0336
14706SOL    HW147011   4.867   4.000   7.804 -0.2051  0.1540 -0.6870
14706SOL    HW247012   4.854   4.149   7.781  0.3331  0.3713  0.3185
14707SOL     OW47013   1.683   2.557   8.503  0.4672 -0.0166  0.2780
14707SOL    HW147014   1.670   2.463   8.514  3.4106 -0.5248  0.0359
14707SOL    HW247015   1.599   2.596   8.529 -0.9329 -2.6938  0.0721
14708SOL     OW47016   7.941   1.881   3.621  0.6811  0.1864 -0.3218
14708SOL    HW147017   8.020   1.936   3.630 -0.2108  1.4038  0.3823
14708SOL    HW247018   7.878   1.938   3.578  0.2428 -0.8616 -1.0926
14709SOL     OW47019   4.198   1.257   8.328  0.4011 -0.1502  0.0143
14709SOL    HW147020   4.191   1.195   8.256  0.1969  0.3336 -0.3871
14709SOL    HW247021   4.110   1.296   8.336  0.1280 -0.9515  1.2103
14710SOL     OW47022   8.202   1.860   8.616 -0.8646  0.2924 -0.0593
14710SOL    HW147023   8.165   1.789   8.669 -0.5775  0.8440  0.9001
14710SOL    HW247024   8.295   1.837   8.608 -0.8614  0.3283 -0.1328
14711SOL     OW47025   5.784   6.660   2.309 -0.1884  0.4611 -0.1454
14711SOL    HW147026   5.866   6.689   2.270  0.9032 -1.0795  0.8767
14711SOL    HW247027   5.789   6.688   2.400 -0.0718 -0.9261  0.3058
14712SOL     OW47028   2.387   8.936   5.084  0.3119 -0.0552  0.0661
14712SOL    HW147029   2.450   8.934   5.156  0.4714 -0.2596 -0.0803
14712SOL    HW247030   2.400   9.022   5.044  0.1955  0.0742  0.3042
14713SOL     OW47031   9.512   8.387   9.921 -0.7437 -0.0841 -0.7788
14713SOL    HW147032   9.467   8.328   9.981 -0.9631 -1.2948 -2.0870
14713SOL    HW247033   9.517   8.339   9.838  3.3349 -0.1724 -0.6569
14714SOL     OW47034  10.411   6.406   4.038  0.5228 -0.0272 -0.3190
14714SOL    HW147035  10.480   6.395   3.972  2.3877  0.6559  1.4061
14714SOL    HW247036  10.403   6.501   4.049  0.1493 -0.1267  0.3303
14715SOL     OW47037   2.238   5.981   9.213  0.1759 -0.0968 -0.2058
14715SOL    HW147038   2.219   6.068   9.177 -2.5414 -0.5346 -0.0860
14715SOL    HW247039   2.156   5.955   9.256  2.2784 -0.8587  3.7917
14716SOL     OW47040   2.428   5.679   7.777  0.7650  0.2536  0.0064
14716SOL    HW147041   2.379   5.682   7.694 -0.4774  0.4267  0.7205
14716SOL    HW247042   2.421   5.588   7.805 -2.1136  0.9025  1.7731
14717SOL     OW47043   8.554   7.114   3.639  0.0970 -0.2378  0.6054
14717SOL    HW147044   8.465   7.121   3.605 -0.3588 -2.8795  1.0837
14717SOL    HW247045   8.606   7.084   3.564 -0.0520 -1.6954  1.0523
14718SOL     OW47046   9.350   8.511   4.210  0.1737 -0.3662 -0.0940
14718SOL    HW147047   9.308   8.541   4.130  1.7851 -0.5498 -1.0436
14718SOL    HW247048   9.277   8.482   4.266 -1.0577  0.9254 -0.9690
14719SOL     OW47049   9.497   2.851   1.691  0.7054  0.7355  0.1201
14719SOL    HW147050   9.542   2.836   1.774 -1.5635  0.3550  1.3717
14719SOL    HW247051   9.436   2.777   1.684 -1.7587  2.6308  0.0170
14720SOL     OW47052   3.465   2.235   7.382  1.0369  0.0581 -0.4304
14720SOL    HW147053   3.372   2.248   7.365  1.2992  0.9364 -1.2386
14720SOL    HW247054   3.507   2.234   7.296  1.8928  0.6054 -0.0387
14721SOL     OW47055   9.323   0.715   5.238 -0.2642  0.0274  0.8982
14721SOL    HW147056   9.397   0.668   5.276  1.9350  1.1065 -1.6959
14721SOL    HW247057   9.337   0.806   5.261 -0.0104  0.4172 -0.6869
14722SOL     OW47058   8.566   5.566   4.776 -0.3329  0.6021 -0.1123
14722SOL    HW147059   8.538   5.599   4.861  1.7020 -0.0544  0.8820
14722SOL    HW247060   8.613   5.639   4.736  0.8398  0.1832  0.4364
14723SOL     OW47061   3.522   1.533   8.868 -0.0310 -0.5574 -0.0090
14723SOL    HW147062   3.496   1.555   8.957  0.9646  2.4800 -0.3674
14723SOL    HW247063   3.609   1.495   8.876  1.3391  2.3769  0.2289
14724SOL     OW47064   6.976   7.320   3.512 -0.3111 -0.2012 -0.2863
14724SOL    HW147065   7.048   7.379   3.536 -1.6035  0.2949  2.8069
14724SOL    HW247066   6.971   7.257   3.584 -3.3784  0.2432  0.0164
14725SOL     OW47067  10.529   1.024   4.853 -0.3987 -0.6056 -0.2539
14725SOL    HW147068  10.595   1.089   4.831  1.1440 -2.0825 -0.2040
14725SOL    HW247069  10.454   1.075   4.884  0.7539  1.1158 -0.1796
14726SOL     OW47070   4.531   5.932   2.866 -0.1666  0.0197 -0.1107
14726SOL    HW147071   4.607   5.936   2.925 -0.9417  3.1920  0.8783
14726SOL    HW247072   4.567   5.902   2.783  1.2213 -3.2947  1.4544
14727SOL     OW47073   2.366   0.404   6.386 -0.1078  0.9313  0.6276
14727SOL    HW147074   2.448   0.393   6.434  0.1484 -0.6219 -0.1116
14727SOL    HW247075   2.308   0.336   6.421 -0.0846  0.1065 -0.8509
14728SOL     OW47076   7.432   5.927   5.548 -0.1149  0.5499  1.2310
14728SOL    HW147077   7.364   5.994   5.536 -0.3297 -0.0828 -2.1963
14728SOL    HW247078   7.384   5.847   5.570 -0.2676  0.5808  1.0091
14729SOL     OW47079   2.897   4.322   0.037  0.1439 -0.1732  0.6654
14729SOL    HW147080   2.860   4.362   0.115 -1.6462 -0.5431  0.0401
14729SOL    HW247081   2.854   4.237   0.030 -2.8978  1.3745 -2.8494
14730SOL     OW47082   9.033   1.968   6.037  0.0228 -0.6484 -0.1379
14730SOL    HW147083   9.073   1.928   5.960  1.0072 -1.3342  0.7155
14730SOL    HW247084   9.007   1.894   6.092 -0.1955 -0.1498  0.4403
14731SOL     OW47085   9.346   4.680   1.870 -0.2509 -0.2629 -0.3182
14731SOL    HW147086   9.330   4.660   1.962 -0.2084 -1.7046 -0.5924
14731SOL    HW247087   9.284   4.750   1.849  0.7332  1.1295  1.1516
14732SOL     OW47088  10.423   5.187   7.248 -0.3055 -0.5427  0.1098
14732SOL    HW147089  10.468   5.130   7.186  1.4999  0.7274  0.1919
14732SOL    HW247090  10.492   5.221   7.305 -1.7537 -0.6708  2.0445
14733SOL     OW47091   8.362   7.468  10.417  0.0839 -0.3245  0.3845
14733SOL    HW147092   8.337   7.533  10.351 -0.5382 -0.9489 -0.0051
14733SOL    HW247093   8.345   7.511  10.501  3.1766  1.4382  0.2838
14734SOL     OW47094   7.089  10.133   6.351 -0.3036  0.2299  0.0175
14734SOL    HW147095   7.036  10.079   6.293  1.1433 -1.1796 -0.0420
14734SOL    HW247096   7.051  10.119   6.438 -0.1291 -0.6642 -0.0439
14735SOL     OW47097   8.729   7.054   6.321  0.6322  0.9586 -0.3943
14735SOL    HW147098   8.772   7.133   6.354  0.1919  1.3485 -0.7476
14735SOL    HW247099   8.778   6.982   6.362  0.6937  1.4146  0.3539
14736SOL     OW47100   3.029   0.351   6.995  0.2717  0.4418  0.2121
14736SOL    HW147101   3.090   0.422   7.015  0.4822  0.0080  1.1733
14736SOL    HW247102   2.949   0.374   7.043  0.6165 -0.3666  1.2060
14737SOL     OW47103   9.370   1.276   0.679 -0.4137 -0.4303  0.3277
14737SOL    HW147104   9.427   1.337   0.727  0.0508 -0.6604  0.0823
14737SOL    HW247105   9.392   1.190   0.715 -1.9092 -0.3593  1.5051
14738SOL     OW47106   7.871  10.300   6.993  0.4821 -0.2450  0.3090
14738SOL    HW147107   7.819  10.251   6.929 -0.4151  2.1309 -0.8893
14738SOL    HW247108   7.958  10.308   6.952 -0.1134  1.3419 -0.7235
14739SOL     OW47109   9.054   1.576   4.946 -0.9213 -0.2222  0.1327
14739SOL    HW147110   9.096   1.662   4.944 -1.2606 -0.0640 -0.8813
14739SOL    HW247111   9.087   1.535   5.026  0.6277  0.1515 -0.2826
14740SOL     OW47112   5.145   9.087   7.386  0.4191  0.4442 -0.6184
14740SOL    HW147113   5.096   9.134   7.318 -0.4217  2.1326  1.0610
14740SOL    HW247114   5.135   9.141   7.465  1.5099 -1.3341  0.8244
14741SOL     OW47115   2.583   4.790   9.118 -0.0644  0.0448 -1.0638
14741SOL    HW147116   2.652   4.814   9.057  0.0875  2.3252 -0.1075
14741SOL    HW247117   2.527   4.868   9.124 -0.3307 -0.2308  1.2968
14742SOL     OW47118   8.046   4.274   3.207 -0.3770 -0.4924  0.4496
14742SOL    HW147119   7.986   4.242   3.139 -1.7957  0.6703  1.0979
14742SOL    HW247120   8.128   4.226   3.191 -0.1068  0.8413 -3.0743
14743SOL     OW47121   0.995   1.631   8.345  0.3599  0.3529 -0.1414
14743SOL    HW147122   0.939   1.663   8.416  1.6533 -2.5423  2.4194
14743SOL    HW247123   1.062   1.699   8.335  0.2993  0.7377  1.6465
14744SOL     OW47124   7.518   7.824   3.008  0.6351 -0.0232 -0.0024
14744SOL    HW147125   7.543   7.733   2.990 -1.9682 -1.0249  0.9624
14744SOL    HW247126   7.601   7.868   3.026  1.9304 -2.4431  0.4556
14745SOL     OW47127   9.693   1.094   9.617  0.0095 -0.0759 -0.0268
14745SOL    HW147128   9.740   1.078   9.699  1.0604 -0.3137 -0.6595
14745SOL    HW247129   9.759   1.128   9.557 -0.8196  0.4181 -0.6863
14746SOL     OW47130   6.382   5.455   4.279 -0.0300 -0.5529  0.1418
14746SOL    HW147131   6.407   5.421   4.365 -0.5220  1.1179  0.9771
14746SOL    HW247132   6.394   5.549   4.286 -1.1685 -0.2693 -1.2618
14747SOL     OW47133   4.326   5.418   5.229 -0.7363  0.7222 -0.3909
14747SOL    HW147134   4.318   5.435   5.323 -0.6776  1.1902 -0.4668
14747SOL    HW247135   4.286   5.332   5.217  1.0171 -0.2577  0.3805
14748SOL     OW47136   3.392   6.795   7.337 -0.4024 -0.3396  0.4665
14748SOL    HW147137   3.329   6.724   7.325  0.8947 -1.2645 -1.3077
14748SOL    HW247138   3.439   6.800   7.253 -0.7913  2.9921  0.3065
14749SOL     OW47139   5.651   1.258   8.109 -0.0532  0.3338  0.0953
14749SOL    HW147140   5.615   1.346   8.097  1.4148  1.3576  2.5115
14749SOL    HW247141   5.746   1.271   8.115  0.1639 -1.3202  0.9757
14750SOL     OW47142   2.809   2.685   9.892  0.4998  0.3988  0.0161
14750SOL    HW147143   2.770   2.631   9.824 -2.0789  0.2388  1.4826
14750SOL    HW247144   2.820   2.771   9.851  2.6254 -0.6001 -1.6821
14751SOL     OW47145   5.224   4.654   5.711  0.1525  0.4240 -0.4379
14751SOL    HW147146   5.196   4.571   5.671  0.4595  0.1806 -0.1527
14751SOL    HW247147   5.232   4.715   5.637 -2.2838  0.8552 -0.4246
14752SOL     OW47148   3.679   0.473   1.584 -0.2906 -0.1439  1.0433
14752SOL    HW147149   3.736   0.465   1.507  0.1822  0.0728  1.3668
14752SOL    HW247150   3.739   0.482   1.658 -0.7345  1.6595  1.2289
14753SOL     OW47151  10.034   3.495   3.389  0.2572 -0.4135 -0.1721
14753SOL    HW147152  10.053   3.555   3.461  0.5471 -1.2400  0.4543
14753SOL    HW247153  10.119   3.475   3.351  0.0430  0.5564 -1.1977
14754SOL     OW47154   4.468   4.161   8.986 -0.0278  0.0796 -0.6002
14754SOL    HW147155   4.518   4.128   9.061  0.4790  0.5524 -0.7256
14754SOL    HW247156   4.436   4.082   8.943 -2.7939 -0.1918  1.7083
14755SOL     OW47157   4.308   7.328   0.415 -0.2972  0.8591  0.5536
14755SOL    HW147158   4.234   7.314   0.355  2.2942  0.5032 -2.8821
14755SOL    HW247159   4.338   7.417   0.394  1.4814  0.2286  0.2739
14756SOL     OW47160   6.317   4.314   1.098 -0.5611  0.5670  0.4793
14756SOL    HW147161   6.395   4.323   1.153 -0.0081  1.4682 -0.4080
14756SOL    HW247162   6.308   4.220   1.082 -0.8711  0.2548  2.2662
14757SOL     OW47163   9.308   9.774  10.112 -0.3686 -0.1998 -0.4629
14757SOL    HW147164   9.237   9.722  10.074 -0.9520 -0.2540  0.6557
14757SOL    HW247165   9.320   9.738  10.200  2.9415 -2.0744 -1.4666
14758SOL     OW47166   8.108   1.266   9.381  0.1695 -0.8397 -0.2100
14758SOL    HW147167   8.155   1.221   9.451 -1.0629 -2.4128 -0.3391
14758SOL    HW247168   8.071   1.344   9.423 -0.8361 -1.9256  1.0344
14759SOL     OW47169   4.361   4.941   7.416 -0.3747 -0.1464 -0.0861
14759SOL    HW147170   4.267   4.941   7.398 -0.0853 -1.8437 -1.9678
14759SOL    HW247171   4.401   4.904   7.337  1.7736 -0.5951  1.1198
14760SOL     OW47172   9.952   9.891   0.251  0.1988  0.2147  0.1469
14760SOL    HW147173   9.858   9.910   0.249 -0.0554 -0.5681  2.3858
14760SOL    HW247174   9.985   9.926   0.168 -2.1576 -0.0733 -0.9857
14761SOL     OW47175   3.256   6.385   0.840 -0.2270  0.4476 -0.3266
14761SOL    HW147176   3.262   6.300   0.797  1.9818  0.5874 -0.4382
14761SOL    HW247177   3.214   6.367   0.924 -0.5262 -0.6069 -0.6897
14762SOL     OW47178   1.564   5.009   0.132 -0.2078 -0.4494  0.0465
14762SOL    HW147179   1.645   4.957   0.130 -0.3334 -0.6814  0.6844
14762SOL    HW247180   1.510   4.971   0.062  0.2512 -0.2618 -0.4116
14763SOL     OW47181   1.140  10.525   1.192  0.0095  0.1085 -0.4852
14763SOL    HW147182   1.164  10.603   1.142 -0.8315 -0.0635 -1.1898
14763SOL    HW247183   1.056  10.498   1.155 -1.0669  0.4425  1.5914
14764SOL     OW47184   9.714   7.024   3.852  0.6455  0.1573  0.1820
14764SOL    HW147185   9.641   7.034   3.791  0.9373 -1.2061 -0.4134
14764SOL    HW247186   9.781   6.979   3.802  0.9945 -0.7550  1.4268
14765SOL     OW47187  10.441   4.978   6.579 -0.4013 -0.0074  0.5962
14765SOL    HW147188  10.353   4.941   6.583 -1.1563  0.9905 -2.7012
14765SOL    HW247189  10.427   5.073   6.589  0.4148  0.0744  1.0016
14766SOL     OW47190  10.111   0.853   2.411  0.5824  0.3432  0.2080
14766SOL    HW147191  10.105   0.851   2.506  0.2034 -1.0853  0.1800
14766SOL    HW247192  10.204   0.868   2.393  0.4068  2.3410  0.7707
14767SOL     OW47193   7.783   7.098   9.932  0.0597 -0.0552  0.2091
14767SOL    HW147194   7.844   7.100  10.005 -1.6742 -2.7744  1.9133
14767SOL    HW247195   7.746   7.186   9.929  0.3530  0.1973  2.4940
14768SOL     OW47196   2.168   6.986   2.482  0.4627 -0.4214 -0.4944
14768SOL    HW147197   2.106   6.962   2.413  1.5109  0.7119 -1.8771
14768SOL    HW247198   2.182   6.905   2.531 -0.9169 -1.0567 -1.1124
14769SOL     OW47199   4.447   2.784   6.226 -0.1164 -0.6201 -0.2327
14769SOL    HW147200   4.390   2.800   6.151 -0.0028  1.3022  0.0388
14769SOL    HW247201   4.535   2.781   6.189 -0.0418  0.5176 -0.1910
14770SOL     OW47202   3.285   1.135   6.226  0.3892  0.4446 -0.2417
14770SOL    HW147203   3.309   1.076   6.297 -2.4003 -0.8211 -0.2313
14770SOL    HW247204   3.304   1.086   6.146 -0.0049  0.3514 -0.2794
14771SOL     OW47205   1.642   3.805   4.141  0.2380  0.8740  0.5635
14771SOL    HW147206   1.699   3.848   4.205  0.1847  1.8502 -0.0291
14771SOL    HW247207   1.589   3.875   4.105 -0.2156  0.2200 -0.0647
14772SOL     OW47208   9.482   4.510   9.150 -0.1771  0.7136 -0.1086
14772SOL    HW147209   9.442   4.512   9.237  3.4022  1.3125  1.7391
14772SOL    HW247210   9.518   4.421   9.142 -0.4211  0.6851 -0.9534
14773SOL     OW47211   2.636   0.317   2.268  0.0035 -0.6418  0.1313
14773SOL    HW147212   2.603   0.290   2.353 -2.9782 -4.4115 -1.9398
14773SOL    HW247213   2.574   0.383   2.238  1.1462  0.8095  0.7875
14774SOL     OW47214   0.727   7.021   1.311  0.5083 -0.0200  0.0168
14774SOL    HW147215   0.681   7.049   1.232  0.9880 -0.4062 -0.4091
14774SOL    HW247216   0.706   7.087   1.377 -1.2406 -0.5583  0.0536
14775SOL     OW47217   9.047   7.063   6.905  0.3231  0.0368  0.3777
14775SOL    HW147218   8.991   7.141   6.904  1.0670  0.6159  1.5425
14775SOL    HW247219   9.116   7.082   6.842  0.7369  0.5227  0.9620
14776SOL     OW47220  10.024   0.160   4.083  0.0284 -0.2753  0.2437
14776SOL    HW147221   9.939   0.141   4.123 -0.5306  1.9444  0.2311
14776SOL    HW247222  10.019   0.123   3.995 -0.6373 -0.7903  0.4941
14777SOL     OW47223   2.840   8.895   7.877  0.0571  0.3038 -0.1931
14777SOL    HW147224   2.850   8.898   7.973  0.2716 -0.1547 -0.2011
14777SOL    HW247225   2.748   8.873   7.863  0.1829 -0.3008 -0.0865
14778SOL     OW47226  10.275   6.520   6.117  0.9469  0.5064 -0.0292
14778SOL    HW147227  10.363   6.557   6.124  0.6357  1.1786  0.4802
14778SOL    HW247228  10.236   6.566   6.043  0.9471  0.3771 -0.1084
14779SOL     OW47229   2.332   0.873   4.586  0.0195 -0.1194 -0.3142
14779SOL    HW147230   2.401   0.918   4.536 -0.3778 -1.1632 -1.8820
14779SOL    HW247231   2.348   0.780   4.571  0.2679 -0.5304  2.1149
14780SOL     OW47232   1.178   2.840   5.755 -0.5080  0.2966 -0.0233
14780SOL    HW147233   1.143   2.923   5.787  0.4623  0.5052  0.5231
14780SOL    HW247234   1.235   2.809   5.825 -0.4216 -0.5479 -0.4612
14781SOL     OW47235   7.916   9.844  10.499 -0.0166 -0.3008  0.1189
14781SOL    HW147236   7.956   9.930  10.498 -0.9033  0.1230 -0.0527
14781SOL    HW247237   7.912   9.820  10.592  0.4829 -0.2846  0.1469
14782SOL     OW47238   2.990  10.482   5.488  0.4003 -0.0492  0.1665
14782SOL    HW147239   3.059  10.416   5.494 -1.3743 -1.9815  0.8690
14782SOL    HW247240   2.938  10.470   5.568  0.0568  2.3228  0.3783
14783SOL     OW47241  10.039   3.124   3.693  0.8292 -0.4551 -0.6336
14783SOL    HW147242  10.122   3.086   3.722  0.5647 -1.9886 -1.7443
14783SOL    HW247243  10.044   3.122   3.598 -0.7476 -1.2732 -0.7364
14784SOL     OW47244   2.948   2.833   7.976 -0.1645 -0.9443 -0.2938
14784SOL    HW147245   2.899   2.910   8.004  0.5152 -1.2957  2.0790
14784SOL    HW247246   3.024   2.830   8.034 -1.4470 -4.7805  1.5900
14785SOL     OW47247   8.512   8.371   5.090 -0.8434  0.5225 -0.1510
14785SOL    HW147248   8.494   8.438   5.025 -3.1770 -0.6682 -0.8202
14785SOL    HW247249   8.468   8.402   5.169 -2.0369 -0.2308 -0.4970
14786SOL     OW47250   0.595   1.417   4.659  0.2293 -0.4369  0.4138
14786SOL    HW147251   0.622   1.343   4.605  0.8681  0.1104 -0.0297
14786SOL    HW247252   0.505   1.397   4.683  0.5853 -1.6454  0.7989
14787SOL     OW47253   8.659   7.413  10.779 -0.3180 -0.3448 -0.9475
14787SOL    HW147254   8.650   7.400  10.685 -1.1319 -0.2855 -0.8844
14787SOL    HW247255   8.570   7.434  10.809 -0.1205 -0.6382 -0.1270
14788SOL     OW47256   7.474   6.822   3.827 -0.1278 -0.5201  0.0053
14788SOL    HW147257   7.393   6.853   3.787  0.2639  0.3297 -0.1668
14788SOL    HW247258   7.447   6.751   3.886 -0.7858 -1.3512 -1.2594
14789SOL     OW47259   1.126   8.108   1.453  0.2516 -0.0545 -0.5236
14789SOL    HW147260   1.084   8.163   1.519 -2.0317 -0.5669 -1.4543
14789SOL    HW247261   1.092   8.020   1.470  1.8842 -0.7384 -0.6355
14790SOL     OW47262   1.184   7.039   6.482  0.0573  0.6691 -0.0561
14790SOL    HW147263   1.163   7.000   6.566 -0.8492 -0.2942 -0.6926
14790SOL    HW247264   1.155   7.130   6.490 -1.2841  0.2478  0.2560
14791SOL     OW47265   7.646   1.313   2.974  0.4881 -0.0771 -0.0897
14791SOL    HW147266   7.614   1.401   2.993  0.2979 -0.2474  0.3775
14791SOL    HW247267   7.617   1.296   2.884 -0.8236 -0.2585  0.3536
14792SOL     OW47268   1.959   1.679  10.790  0.7606  0.5258 -0.7918
14792SOL    HW147269   2.035   1.628  10.762 -0.7132 -1.8048 -0.8259
14792SOL    HW247270   1.942   1.648  10.880 -1.2435 -0.4578 -1.4557
14793SOL     OW47271   8.682   7.234  10.244 -0.3255 -0.1595  0.7205
14793SOL    HW147272   8.752   7.198  10.299  1.1807  1.5979  0.1079
14793SOL    HW247273   8.720   7.237  10.156 -0.9779  1.2261  0.4430
14794SOL     OW47274   9.381   6.178   6.653 -0.0584 -0.1154 -0.3710
14794SOL    HW147275   9.301   6.225   6.630  0.7726  1.2015 -0.7169
14794SOL    HW247276   9.387   6.187   6.748  0.6518  1.5127 -0.5293
14795SOL     OW47277   4.245   0.123   0.964 -0.5756  0.1513 -0.2756
14795SOL    HW147278   4.287   0.054   0.913  1.1441  0.7956  0.1890
14795SOL    HW247279   4.215   0.079   1.044  1.5796  0.0655  0.5752
14796SOL     OW47280   1.099   6.000   2.114  0.0981 -0.5761  0.4003
14796SOL    HW147281   1.156   6.010   2.190 -0.8620 -0.0852  1.0782
14796SOL    HW247282   1.079   6.089   2.087  0.0135 -0.7462 -0.1086
14797SOL     OW47283   4.585   0.886   2.609  0.1731 -0.4846 -0.5408
14797SOL    HW147284   4.564   0.884   2.516 -1.1424  1.1603 -0.3179
14797SOL    HW247285   4.676   0.856   2.613  0.8433  0.9961 -2.5518
14798SOL     OW47286   0.205   6.524   2.677  0.7111  0.0767  0.0479
14798SOL    HW147287   0.265   6.521   2.602 -0.4392 -0.8294 -0.8633
14798SOL    HW247288   0.128   6.570   2.645  0.0834 -0.5736  0.5761
14799SOL     OW47289   0.539   7.096  10.600  0.2266 -0.0388 -0.0235
14799SOL    HW147290   0.582   7.170  10.556 -0.8788  1.4944  1.3255
14799SOL    HW247291   0.556   7.111  10.693 -2.3747  0.1353  0.5021
14800SOL     OW47292   3.188   5.196   0.370 -0.2933 -0.6457  0.3667
14800SOL    HW147293   3.270   5.242   0.392 -0.1612 -0.8195  0.2423
14800SOL    HW247294   3.126   5.223   0.437  0.4254 -2.0718  1.6605
14801SOL     OW47295   3.593   3.202   1.320  0.7541  0.4015 -0.3090
14801SOL    HW147296   3.518   3.243   1.277  2.2332  3.7671 -0.0023
14801SOL    HW247297   3.559   3.174   1.405 -0.4717  0.3472 -0.7854
14802SOL     OW47298   6.476   0.539   8.006  0.3761 -0.3674  0.0978
14802SOL    HW147299   6.561   0.568   7.974 -0.2333  0.2970 -0.9594
14802SOL    HW247300   6.436   0.617   8.044 -0.4728 -0.2324 -1.0146
14803SOL     OW47301   8.468   6.993   4.356 -0.1626 -0.1051  0.1542
14803SOL    HW147302   8.562   7.012   4.362 -0.1336  0.0314 -0.6277
14803SOL    HW247303   8.450   6.939   4.433  0.2171  1.1760  1.1875
14804SOL     OW47304   8.916   6.358   3.395  0.0107 -0.2724  0.3881
14804SOL    HW147305   8.856   6.401   3.335  2.8095  1.3823 -1.4421
14804SOL    HW247306   8.902   6.401   3.479 -0.5186  0.9406 -0.2976
14805SOL     OW47307   8.281   2.493   6.750 -0.0565  0.4671  0.2787
14805SOL    HW147308   8.357   2.434   6.754 -0.7684 -0.4120  2.2764
14805SOL    HW247309   8.312   2.570   6.704  1.6724 -0.4152 -0.0992
14806SOL     OW47310   5.774   2.387   6.380  0.4001  0.1669  0.4662
14806SOL    HW147311   5.693   2.416   6.423  0.6372  0.2014  0.8967
14806SOL    HW247312   5.796   2.305   6.424 -0.7739 -1.2256 -1.3594
14807SOL     OW47313   5.983   5.289   5.548 -0.1105 -0.2307  0.3618
14807SOL    HW147314   6.070   5.272   5.511  0.7292  0.7930  1.7752
14807SOL    HW247315   5.924   5.286   5.472  1.1780 -0.7216 -0.6651
14808SOL     OW47316  10.652   9.644   7.503 -0.0194  0.2219  0.0339
14808SOL    HW147317  10.627   9.724   7.458 -0.0999  0.6565  0.8253
14808SOL    HW247318  10.672   9.582   7.433 -1.2701  0.5052 -0.6146
14809SOL     OW47319   5.890   1.329   5.584 -0.2068 -0.6542  0.2080
14809SOL    HW147320   5.862   1.248   5.625 -2.3169 -0.3757 -0.5518
14809SOL    HW247321   5.814   1.357   5.532  0.8813  1.1746 -0.4892
14810SOL     OW47322   0.154  10.535   6.633 -0.4382 -0.0942 -0.2444
14810SOL    HW147323   0.085  10.595   6.661 -0.0752  0.8123 -1.2151
14810SOL    HW247324   0.127  10.450   6.667 -2.5607  0.0271 -1.4702
14811SOL     OW47325   2.000   8.753   3.050 -0.6814  0.0840 -0.0347
14811SOL    HW147326   1.987   8.738   2.957  2.1161  0.2634 -0.5365
14811SOL    HW247327   2.038   8.671   3.083 -1.0109  0.2543  0.8026
14812SOL     OW47328  10.365   6.371   4.582 -0.2342  0.3602  0.3906
14812SOL    HW147329  10.417   6.451   4.581 -2.9306  2.2777  0.3213
14812SOL    HW247330  10.345   6.356   4.675  1.1333 -0.9459  0.5222
14813SOL     OW47331   7.034   6.034   4.134  0.2611  0.4359  0.1254
14813SOL    HW147332   7.129   6.047   4.130  0.3491 -0.4119 -1.6155
14813SOL    HW247333   7.019   5.955   4.082 -1.3384  0.1369  0.9877
14814SOL     OW47334   7.630   9.987   0.033  0.2334 -0.5410  0.0575
14814SOL    HW147335   7.547  10.010  -0.010  0.5752 -0.3088 -0.4877
14814SOL    HW247336   7.648  10.061   0.092  0.0698 -0.5789  0.1551
14815SOL     OW47337   4.971   0.839   0.511 -0.1272 -0.2312 -0.2851
14815SOL    HW147338   4.902   0.891   0.553 -0.1706  1.6789 -2.4706
14815SOL    HW247339   5.050   0.857   0.562 -0.5837  0.3255  0.2414
14816SOL     OW47340   7.073   1.498   6.555  0.2589 -0.3028 -0.5268
14816SOL    HW147341   7.128   1.577   6.557  0.4112 -0.4186  0.6927
14816SOL    HW247342   7.134   1.427   6.533  0.2413 -0.1661 -1.0143
14817SOL     OW47343   5.515   9.896   0.040  0.0660  0.0921  0.1074
14817SOL    HW147344   5.502   9.985   0.008  2.8772  0.4152 -0.4239
14817SOL    HW247345   5.427   9.858   0.042 -1.2131  2.8285  0.3139
14818SOL     OW47346   1.953   9.339   1.828 -0.4581 -0.1210  0.2058
14818SOL    HW147347   1.865   9.307   1.849 -0.1964 -0.9187  0.1160
14818SOL    HW247348   2.009   9.301   1.896 -0.3792  1.5814  1.1601
14819SOL     OW47349   6.970   4.348   3.363 -0.0130  0.3095  0.1846
14819SOL    HW147350   6.994   4.255   3.362 -0.7776  0.0320 -2.7955
14819SOL    HW247351   6.906   4.356   3.433  0.6958 -1.2070  1.0651
14820SOL     OW47352   8.480  10.358  10.364 -0.0355 -0.2920 -0.2209
14820SOL    HW147353   8.572  10.385  10.358 -0.0240  0.7686  3.0498
14820SOL    HW247354   8.431  10.433  10.330  0.2594 -0.2446 -0.5483
14821SOL     OW47355   9.110   9.944   7.868 -0.8680  0.9235  0.1354
14821SOL    HW147356   9.058   9.913   7.794 -0.2228  0.9803 -0.3402
14821SOL    HW247357   9.056  10.013   7.907 -0.9189  1.3444 -0.6716
14822SOL     OW47358   1.215   6.046   6.264  0.5884  0.3249 -0.3482
14822SOL    HW147359   1.205   6.043   6.359  0.6827 -0.2787 -0.3528
14822SOL    HW247360   1.309   6.057   6.250  0.5189  0.9229 -0.3684
14823SOL     OW47361   2.917   0.566   1.894  0.0743  0.0468  0.3886
14823SOL    HW147362   2.936   0.646   1.844 -1.5463 -1.2834 -2.6297
14823SOL    HW247363   2.831   0.581   1.932  0.2427  0.1319  0.7404
14824SOL     OW47364   5.994   7.832   8.493 -0.2450 -0.4952 -0.6847
14824SOL    HW147365   6.006   7.749   8.446  1.5775 -0.5327 -0.2508
14824SOL    HW247366   6.033   7.816   8.579  2.7066  1.5516 -1.4834
14825SOL     OW47367   1.603   3.201   0.235  0.4148 -0.4542 -0.6155
14825SOL    HW147368   1.698   3.207   0.241  0.3699  1.1663 -1.1023
14825SOL    HW247369   1.572   3.236   0.319  0.2335  0.4034 -1.0317
14826SOL     OW47370   2.571   9.062   4.183  0.0769  0.5126 -0.5539
14826SOL    HW147371   2.641   9.012   4.226  0.3618 -0.3670 -1.9698
14826SOL    HW247372   2.569   9.027   4.094 -0.7732  1.9918 -1.1351
14827SOL     OW47373   0.099  10.331   5.454  0.0246  0.2869 -0.5516
14827SOL    HW147374   0.011  10.295   5.460 -0.3897  1.3162 -0.1402
14827SOL    HW247375   0.094  10.413   5.504  0.7806  1.1787 -1.8940
14828SOL     OW47376   7.853   8.825   3.338  0.1313  0.0736 -0.0007
14828SOL    HW147377   7.848   8.895   3.404  0.3820  1.7500 -1.6931
14828SOL    HW247378   7.830   8.746   3.387  3.1388  0.7033  2.8368
14829SOL     OW47379   9.162   7.286   2.593  0.3748  0.4991 -0.1109
14829SOL    HW147380   9.193   7.196   2.603 -0.0841  0.2644 -0.7215
14829SOL    HW247381   9.242   7.338   2.587  0.6470  0.1768  0.5407
14830SOL     OW47382  10.100  10.332  10.204  0.2759  0.0356 -0.1645
14830SOL    HW147383  10.097  10.385  10.124  0.3783 -0.2487 -0.3575
14830SOL    HW247384  10.035  10.372  10.261 -0.7930 -0.5887 -0.9031
14831SOL     OW47385   0.741   6.086   7.506 -0.6810  0.3186  0.2532
14831SOL    HW147386   0.729   6.176   7.477 -1.7712  0.8148  2.0608
14831SOL    HW247387   0.768   6.038   7.427  0.3112  2.2692 -0.6606
14832SOL     OW47388  10.602   5.057   9.920  0.1395  0.2085  0.3189
14832SOL    HW147389  10.529   5.072   9.981  0.5828 -1.1020  1.2263
14832SOL    HW247390  10.641   4.975   9.950  1.1499  0.1789 -1.0002
14833SOL     OW47391   8.406   9.306   9.251 -0.0518 -0.3079  0.0039
14833SOL    HW147392   8.439   9.306   9.161 -1.7149 -0.4076 -0.6404
14833SOL    HW247393   8.448   9.381   9.292  1.5207 -0.8539 -0.5329
14834SOL     OW47394   4.350   2.727   1.242  0.3514 -0.4600  0.8292
14834SOL    HW147395   4.395   2.648   1.215  1.9570  0.5691  0.3314
14834SOL    HW247396   4.419   2.784   1.275 -0.8553  0.4482  1.9236
14835SOL     OW47397   8.761   8.354   8.457  0.2489 -0.1786  0.9990
14835SOL    HW147398   8.842   8.399   8.436 -0.1780 -0.3001 -1.1638
14835SOL    HW247399   8.692   8.418   8.439 -0.2324 -0.8029  0.5558
14836SOL     OW47400   7.297   0.130   5.666  0.3977  0.6145 -0.0121
14836SOL    HW147401   7.304   0.076   5.745  1.7969 -0.1851 -0.6514
14836SOL    HW247402   7.342   0.080   5.599 -1.1969  1.0573 -1.4714
14837SOL     OW47403   0.162   8.958   9.283 -0.6189 -0.0222 -0.2844
14837SOL    HW147404   0.247   8.935   9.246 -0.8824 -0.9487 -0.3473
14837SOL    HW247405   0.139   9.041   9.242  0.9415  1.0263  0.8679
14838SOL     OW47406   7.241   0.826   1.510  0.2366  0.4384  0.2010
14838SOL    HW147407   7.155   0.856   1.539 -0.7463 -1.3641 -0.6369
14838SOL    HW247408   7.282   0.902   1.470 -0.1116  1.8637  2.3925
14839SOL     OW47409   1.910   2.149   4.719  0.1465  0.6116 -0.0369
14839SOL    HW147410   1.937   2.136   4.628  0.7289 -0.1759  0.2401
14839SOL    HW247411   1.991   2.172   4.765 -0.1177  0.8453  0.3215
14840SOL     OW47412   5.886   3.097   5.307  0.5352 -0.1281  0.2939
14840SOL    HW147413   5.936   3.089   5.388 -0.3115 -0.0859  0.8290
14840SOL    HW247414   5.837   3.178   5.317 -1.8197 -1.5528  1.0320
14841SOL     OW47415   8.693   5.213   1.656  0.3334  0.3373 -0.1267
14841SOL    HW147416   8.679   5.281   1.723  2.7140  0.1076  0.7271
14841SOL    HW247417   8.708   5.133   1.707  0.8819 -0.1128 -0.9832
14842SOL     OW47418  10.578   2.145   4.619 -0.0418  0.0706 -0.9912
14842SOL    HW147419  10.584   2.051   4.637 -0.1344  0.0210 -1.2102
14842SOL    HW247420  10.489   2.157   4.587 -0.2466  0.3479 -0.3340
14843SOL     OW47421   6.374   1.194   8.188 -0.2825 -0.1683 -0.0451
14843SOL    HW147422   6.364   1.100   8.205  2.7515 -0.6147 -0.0433
14843SOL    HW247423   6.427   1.198   8.109  0.1429  1.5203  0.2918
14844SOL     OW47424   5.637   0.177   9.865  0.2760  0.4675 -0.6524
14844SOL    HW147425   5.615   0.089   9.894  0.1926  0.4578 -0.7439
14844SOL    HW247426   5.569   0.233   9.901  1.3766  0.7867  1.0555
14845SOL     OW47427   4.797   6.711   0.760 -0.0524  0.4158  0.2931
14845SOL    HW147428   4.888   6.739   0.750 -0.2903  0.7503 -1.1596
14845SOL    HW247429   4.748   6.766   0.699 -1.4347  1.1113  1.9499
14846SOL     OW47430   4.430   4.398  10.476 -0.1330  0.0282  0.0575
14846SOL    HW147431   4.353   4.365  10.429  0.4232 -1.5542  0.1868
14846SOL    HW247432   4.393   4.455  10.543 -1.5346 -2.7757  1.9050
14847SOL     OW47433   9.427   1.935   9.889  0.2421  0.2650 -0.0649
14847SOL    HW147434   9.487   1.862   9.902  1.4563  1.3623  0.7166
14847SOL    HW247435   9.376   1.939   9.969 -0.6443 -0.4390 -0.5812
14848SOL     OW47436   5.760   1.989   7.947  0.0852  0.6079 -0.0611
14848SOL    HW147437   5.753   1.905   7.902 -0.9004 -0.0038  1.1663
14848SOL    HW247438   5.703   2.048   7.897 -1.0976 -0.0935  0.4096
14849SOL     OW47439   2.890   1.058  10.308 -0.4296  0.2060  0.1441
14849SOL    HW147440   2.819   1.037  10.248 -0.0886 -1.0119  0.1435
14849SOL    HW247441   2.851   1.054  10.395 -0.2511 -1.0939  0.1886
14850SOL     OW47442   4.608   7.040   1.523  0.0252 -0.3984  0.1755
14850SOL    HW147443   4.514   7.028   1.519  0.2019 -1.8040 -0.2978
14850SOL    HW247444   4.621   7.109   1.588 -1.3947  0.9704 -0.9077
14851SOL     OW47445   0.204   6.839   7.857  0.1112  0.3235  0.4146
14851SOL    HW147446   0.261   6.796   7.793 -1.2468  0.6362 -1.0527
14851SOL    HW247447   0.217   6.932   7.840 -0.4492  0.4010  0.4016
14852SOL     OW47448   8.262   1.214   4.211 -0.4176 -0.1519 -0.7288
14852SOL    HW147449   8.289   1.281   4.148  2.8428 -0.4798  0.1423
14852SOL    HW247450   8.285   1.131   4.169 -1.8103 -0.6244 -0.6219
14853SOL     OW47451   9.767   6.046   1.612 -0.0041 -0.1631  0.3986
14853SOL    HW147452   9.717   6.027   1.534 -0.1388 -1.4634  0.7865
14853SOL    HW247453   9.717   6.006   1.684  1.5331 -1.4447  0.7983
14854SOL     OW47454   4.832  10.076   6.832 -0.2867  0.4961  0.0912
14854SOL    HW147455   4.920  10.085   6.868 -0.7593  0.8100  1.2162
14854SOL    HW247456   4.828  10.140   6.761 -0.2178  1.8851  1.2898
14855SOL     OW47457  10.435   3.743   2.133  0.1556 -0.0835  0.3790
14855SOL    HW147458  10.369   3.689   2.090 -0.9364  1.0981  0.5210
14855SOL    HW247459  10.441   3.706   2.222  0.8709 -1.1846 -0.1005
14856SOL     OW47460   4.004   4.552   8.559 -0.7120 -0.2520  0.4684
14856SOL    HW147461   4.097   4.532   8.573 -0.6136 -0.8854 -0.9574
14856SOL    HW247462   3.958   4.497   8.622 -0.2223 -1.8728 -0.5201
14857SOL     OW47463   0.525   9.973   4.053 -0.3704 -0.3409  0.3479
14857SOL    HW147464   0.549  10.065   4.046 -0.2271 -0.1900  2.3639
14857SOL    HW247465   0.492   9.950   3.966 -0.0874  1.5029 -0.2798
14858SOL     OW47466  10.035   9.223  10.574  0.0509  0.4584  0.2095
14858SOL    HW147467  10.090   9.145  10.574 -0.5573 -0.0403 -1.9101
14858SOL    HW247468  10.097   9.295  10.562  0.3935  0.0149 -0.8505
14859SOL     OW47469   3.669   5.602   5.500 -0.5079  0.3721 -0.3058
14859SOL    HW147470   3.592   5.659   5.497 -0.1795  0.8151 -0.6271
14859SOL    HW247471   3.742   5.661   5.480 -0.1886 -0.2129 -0.8936
14860SOL     OW47472   5.597   2.473   1.306 -0.3029 -0.1067 -0.2002
14860SOL    HW147473   5.593   2.455   1.400 -2.5286  1.2687  0.0412
14860SOL    HW247474   5.686   2.504   1.292  0.2550 -0.8654  1.3279
14861SOL     OW47475   9.623   3.135   7.599  0.4785 -0.5394 -0.0964
14861SOL    HW147476   9.668   3.051   7.587  1.5715 -0.0983  0.6983
14861SOL    HW247477   9.557   3.117   7.666  0.3839 -0.8766 -0.2788
14862SOL     OW47478   5.055   8.402   2.851  0.6440 -0.4887 -0.6429
14862SOL    HW147479   5.087   8.317   2.881 -3.4472 -2.0523  0.0161
14862SOL    HW247480   5.044   8.453   2.931 -0.1610 -0.6934 -0.6069
14863SOL     OW47481   5.397   6.352   0.907  0.4183  0.1378  0.3365
14863SOL    HW147482   5.392   6.270   0.956 -1.4898 -0.1484 -0.2516
14863SOL    HW247483   5.406   6.325   0.815 -0.4711  0.5522  0.1139
14864SOL     OW47484   9.743   3.857   3.250 -0.0112  0.0671  0.0600
14864SOL    HW147485   9.676   3.818   3.194  0.0651  1.7050 -1.2657
14864SOL    HW247486   9.823   3.852   3.199  0.1144  1.3769  0.0910
14865SOL     OW47487   1.712   2.301   1.385 -0.1879  0.5284  0.0351
14865SOL    HW147488   1.769   2.224   1.399  1.1101  1.4069 -0.2116
14865SOL    HW247489   1.751   2.345   1.310 -1.0821  1.2978  0.0123
14866SOL     OW47490   5.590   9.963   6.002  0.1713  0.1413 -0.0410
14866SOL    HW147491   5.616   9.985   6.092  0.4161  0.4602 -0.1871
14866SOL    HW247492   5.649   9.892   5.977 -0.3982 -0.4567  0.3141
14867SOL     OW47493   1.027   8.962   9.050 -0.0669 -0.1096 -0.4674
14867SOL    HW147494   1.032   9.044   9.001 -0.1863  0.7001  0.8428
14867SOL    HW247495   1.108   8.958   9.100 -0.5501 -0.2298  0.3290
14868SOL     OW47496   6.359   8.572   4.202 -0.4460  0.2200 -0.2817
14868SOL    HW147497   6.428   8.639   4.204 -0.1409 -0.0884 -0.4352
14868SOL    HW247498   6.397   8.497   4.247 -0.1098 -0.4882 -1.6649
14869SOL     OW47499   6.648   0.717   9.805  0.5096 -0.6419  0.2286
14869SOL    HW147500   6.607   0.803   9.799 -0.5562 -1.0829  1.0779
14869SOL    HW247501   6.742   0.736   9.799  0.2477  0.4549 -0.8471
14870SOL     OW47502   3.826   0.762   5.969  0.1069 -0.1019  0.1397
14870SOL    HW147503   3.784   0.769   6.054 -0.7197  0.1456 -0.2800
14870SOL    HW247504   3.804   0.673   5.939  0.8062 -0.3651  0.3906
14871SOL     OW47505   1.578   3.505   8.823  0.2521  0.0117 -0.1419
14871SOL    HW147506   1.606   3.501   8.914  2.9779 -0.9312 -0.9046
14871SOL    HW247507   1.511   3.437   8.815  0.5259 -0.4072  1.0004
14872SOL     OW47508   9.521   3.454   3.239  0.3414  0.1781  0.0163
14872SOL    HW147509   9.448   3.458   3.177  0.5313 -1.3904 -0.3613
14872SOL    HW247510   9.480   3.431   3.322  0.3400 -0.2291 -0.0931
14873SOL     OW47511   0.669   9.444   5.993 -0.1993  0.7835 -0.4845
14873SOL    HW147512   0.697   9.398   5.914 -1.6334  1.4780 -1.4248
14873SOL    HW247513   0.587   9.403   6.018  0.8291 -0.2745  1.4288
14874SOL     OW47514  10.695   5.459   5.361  0.4902 -0.0032  0.1088
14874SOL    HW147515  10.688   5.490   5.270  0.2659  0.3474  0.2436
14874SOL    HW247516  10.604   5.452   5.390  0.5881  0.7900  0.6104
14875SOL     OW47517   8.004   8.592   4.907  0.3197 -0.1008 -0.6080
14875SOL    HW147518   7.931   8.533   4.887  1.1715 -0.5062 -2.9053
14875SOL    HW247519   7.973   8.678   4.880  0.6304 -0.2632 -1.5233
14876SOL     OW47520   3.241   0.501   1.551  0.2430 -0.1948  0.1697
14876SOL    HW147521   3.312   0.564   1.565  2.6329 -2.8149  0.9335
14876SOL    HW247522   3.286   0.417   1.541 -2.7003 -1.7237 -1.5591
14877SOL     OW47523   6.376   8.074   9.220 -0.2547  0.3250  0.0479
14877SOL    HW147524   6.290   8.109   9.243 -0.3046 -0.9351  2.0120
14877SOL    HW247525   6.357   7.992   9.175 -0.0843  0.8066 -0.9171
14878SOL     OW47526   4.761   4.760   4.933 -0.1883 -0.1918 -0.3868
14878SOL    HW147527   4.755   4.681   4.987 -0.8494  0.6927  0.8948
14878SOL    HW247528   4.687   4.813   4.961  0.6008  1.1557 -0.7767
14879SOL     OW47529  10.787  10.257   4.834  0.3152  0.9237 -0.2289
14879SOL    HW147530  10.783  10.302   4.918  1.7906  0.6092  0.0440
14879SOL    HW247531  10.855  10.304   4.786  0.0166  0.6214 -0.9562
14880SOL     OW47532   3.240   2.528   4.099  0.5924 -0.2405  0.2159
14880SOL    HW147533   3.199   2.450   4.137 -1.4403 -0.6536 -2.5423
14880SOL    HW247534   3.172   2.594   4.101  0.5034 -0.1739 -2.1902
14881SOL     OW47535  10.070   5.496  10.592  0.3003  0.1649 -0.3846
14881SOL    HW147536  10.140   5.561  10.592  0.7721 -0.3363 -0.3391
14881SOL    HW247537  10.085   5.445  10.672  0.0151 -0.0860 -0.4890
14882SOL     OW47538   4.747   0.152   3.442 -0.0729 -0.0132  0.4967
14882SOL    HW147539   4.657   0.122   3.430  0.4503 -1.3256 -0.3243
14882SOL    HW247540   4.771   0.190   3.357  0.5841 -0.9112  0.2671
14883SOL     OW47541  10.424   1.035   8.161 -0.7436 -0.0439 -0.3320
14883SOL    HW147542  10.399   1.054   8.070 -1.3381  0.1072 -0.1355
14883SOL    HW247543  10.434   1.122   8.201 -2.3545 -0.1162  0.2619
14884SOL     OW47544   2.658   1.891   8.529  0.7127  0.1481 -0.0583
14884SOL    HW147545   2.668   1.820   8.593 -0.7590  0.4470  0.5484
14884SOL    HW247546   2.592   1.949   8.568  1.1409  1.3102 -1.0143
14885SOL     OW47547   4.453  10.378   8.891  0.5719 -0.1839 -0.6928
14885SOL    HW147548   4.426  10.428   8.968  0.2425  0.0018 -0.9266
14885SOL    HW247549   4.504  10.440   8.839  0.2154 -0.1043 -0.9538
14886SOL     OW47550   7.856   0.822   3.886  0.3350  0.5390  0.1694
14886SOL    HW147551   7.906   0.751   3.844  1.1942  1.4698 -0.4308
14886SOL    HW247552   7.889   0.901   3.844 -1.2542  1.2346  0.1970
14887SOL     OW47553   0.158  10.435   4.737 -0.2022  0.2341  0.1235
14887SOL    HW147554   0.216  10.490   4.790  0.3461 -0.0837 -0.1373
14887SOL    HW247555   0.119  10.495   4.674  0.7511  0.2659 -0.4648
14888SOL     OW47556   8.884   6.336   8.437  0.3984  0.5985  0.2575
14888SOL    HW147557   8.973   6.309   8.416 -0.3314 -1.5338 -0.2757
14888SOL    HW247558   8.840   6.340   8.353 -0.5042 -0.2469  0.6777
14889SOL     OW47559   0.112   6.794   7.224 -0.5663 -0.3428 -1.1738
14889SOL    HW147560   0.139   6.719   7.171 -0.3965 -1.8836  0.9343
14889SOL    HW247561   0.017   6.784   7.232 -0.2526 -2.5407  1.9480
14890SOL     OW47562   9.158   9.016   6.063  0.2220  0.0604  0.1952
14890SOL    HW147563   9.207   9.000   5.982 -0.3794 -2.2052  0.2062
14890SOL    HW247564   9.221   9.058   6.122  1.8873 -1.7921 -0.1456
14891SOL     OW47565   1.162   1.846   8.305 -0.3650  0.2874 -0.3362
14891SOL    HW147566   1.186   1.902   8.379 -2.7478 -0.8545  1.4046
14891SOL    HW247567   1.122   1.906   8.242 -0.9678  0.8907  0.5920
14892SOL     OW47568   9.302  10.720  10.536  0.4759 -0.2141  0.2447
14892SOL    HW147569   9.324  10.741  10.445  0.4842 -0.0272  0.2902
14892SOL    HW247570   9.357  10.645  10.557  0.0901 -0.5913 -0.0740
14893SOL     OW47571   0.824   3.559   2.149  0.8289  0.3262 -0.1559
14893SOL    HW147572   0.760   3.570   2.079 -1.0247 -0.3199  1.3417
14893SOL    HW247573   0.821   3.643   2.196  1.0762  0.2849 -0.0676
14894SOL     OW47574   5.015   4.268   6.239 -0.1856  0.1466  0.0387
14894SOL    HW147575   4.935   4.258   6.187  0.2392  0.5620 -0.7201
14894SOL    HW247576   5.084   4.230   6.184  0.4534  1.6129 -0.2024
14895SOL     OW47577   0.210   6.274   1.993 -0.2128  0.1972 -0.3441
14895SOL    HW147578   0.241   6.194   2.036  0.5910  0.5720 -0.2027
14895SOL    HW247579   0.189   6.333   2.066 -2.6417 -0.5206 -0.3950
14896SOL     OW47580   5.810  10.153   7.059 -0.0416  0.4828 -0.4384
14896SOL    HW147581   5.861  10.096   7.117 -1.2011  0.8049  0.9237
14896SOL    HW247582   5.789  10.229   7.112 -0.7024  1.0248 -1.4514
14897SOL     OW47583   1.682   2.035   4.689  0.4129  0.5341 -0.4147
14897SOL    HW147584   1.766   2.081   4.696 -0.1031  1.3980  0.4082
14897SOL    HW247585   1.704   1.942   4.698  1.2748  0.7479 -0.2416
14898SOL     OW47586   5.505   8.466   8.386  0.1562 -0.6409 -0.3513
14898SOL    HW147587   5.503   8.395   8.451 -1.2018  0.7572  1.2223
14898SOL    HW247588   5.413   8.484   8.368  0.4673  0.8897 -0.5247
14899SOL     OW47589   1.575   8.662   6.503 -0.2210  0.7928  0.5187
14899SOL    HW147590   1.546   8.573   6.482 -1.5103  1.1943  0.5014
14899SOL    HW247591   1.600   8.659   6.595  1.3087  0.0456  0.1101
14900SOL     OW47592   4.622   2.657  10.153 -0.2285 -0.0165  0.2766
14900SOL    HW147593   4.676   2.727  10.191  0.2197 -1.3348  2.2169
14900SOL    HW247594   4.604   2.687  10.064  0.4888  2.2530  0.8124
14901SOL     OW47595   9.394   7.144   1.988 -0.2713 -0.5566  0.2864
14901SOL    HW147596   9.348   7.204   2.045  2.3996  1.3946  0.5953
14901SOL    HW247597   9.436   7.081   2.048  0.3313 -0.1589  0.2872
14902SOL     OW47598   3.531   9.191   4.561  0.0118 -0.1737 -0.0876
14902SOL    HW147599   3.520   9.194   4.656 -1.3948  1.3805 -0.2579
14902SOL    HW247600   3.492   9.272   4.529  2.9807  0.7395 -1.7881
14903SOL     OW47601   7.474   5.433   4.641  0.5001  0.3639  0.3634
14903SOL    HW147602   7.469   5.525   4.616  2.2653  0.1999 -0.7695
14903SOL    HW247603   7.388   5.413   4.677 -0.3286  2.1295 -0.5227
14904SOL     OW47604   8.904   1.261   6.738 -0.1939 -0.1149 -0.8572
14904SOL    HW147605   8.980   1.228   6.785 -0.0120 -0.7198 -1.5608
14904SOL    HW247606   8.835   1.198   6.757 -0.9334  1.1609  0.9058
14905SOL     OW47607   5.690   2.026   4.616  0.2190  0.1503  0.1101
14905SOL    HW147608   5.748   2.033   4.692  0.0980  0.7602  0.1573
14905SOL    HW247609   5.615   2.082   4.639  0.5240  0.9457 -0.7609
14906SOL     OW47610  10.302   9.971   9.338 -0.3538 -0.0313  0.4806
14906SOL    HW147611  10.277   9.897   9.282  2.3499 -0.1682 -0.7258
14906SOL    HW247612  10.394   9.987   9.316 -0.6693  3.3457  1.1271
14907SOL     OW47613   5.701   9.638   1.441  0.1252  0.0269  0.1250
14907SOL    HW147614   5.729   9.635   1.532 -0.7321  0.2894  0.4154
14907SOL    HW247615   5.663   9.551   1.425  0.3514 -0.0469 -0.0023
14908SOL     OW47616   8.277   3.137   2.241 -0.4197  0.0287  0.0434
14908SOL    HW147617   8.303   3.229   2.249 -2.0124  0.4618  0.5528
14908SOL    HW247618   8.214   3.123   2.312 -0.1520 -1.4874  0.0165
14909SOL     OW47619   4.693   6.724   8.794 -0.1217  0.5417  0.0359
14909SOL    HW147620   4.723   6.758   8.878  1.0844 -0.4383  0.0306
14909SOL    HW247621   4.774   6.703   8.746 -0.7942  0.1832 -0.9841
14910SOL     OW47622   8.418   2.098   6.518  0.2911 -0.2035  0.3022
14910SOL    HW147623   8.395   2.020   6.469 -1.9961 -0.1285  1.1311
14910SOL    HW247624   8.378   2.086   6.604  1.1637  1.2160  0.9581
14911SOL     OW47625   6.667   9.457   2.701  0.3154 -0.2296 -0.3825
14911SOL    HW147626   6.687   9.446   2.794 -2.8601  1.8939  0.7089
14911SOL    HW247627   6.609   9.384   2.680  1.1149 -0.7687 -0.7772
14912SOL     OW47628   7.586   1.067   1.010 -0.0675 -0.3215 -0.4888
14912SOL    HW147629   7.609   1.158   1.024 -0.2905 -0.4900  1.1065
14912SOL    HW247630   7.496   1.069   0.978 -0.6607 -0.0378  1.1373
14913SOL     OW47631   8.632   8.557   9.759 -0.5742  0.1927 -0.7250
14913SOL    HW147632   8.556   8.554   9.701 -1.1012  0.8189 -0.0889
14913SOL    HW247633   8.646   8.650   9.775 -0.2405  0.0389 -0.0964
14914SOL     OW47634   3.419   4.435   0.735 -0.0227  0.2748  0.1662
14914SOL    HW147635   3.387   4.348   0.760 -2.5851  1.1949  0.3247
14914SOL    HW247636   3.402   4.490   0.811  0.5860  1.1623 -0.3152
14915SOL     OW47637   2.107   6.626   6.776 -0.6847  0.6746  0.0573
14915SOL    HW147638   2.075   6.578   6.700 -2.0611 -0.4915  1.2799
14915SOL    HW247639   2.193   6.588   6.794  0.4677  2.2008 -1.9022
14916SOL     OW47640   7.846   5.871   2.203 -0.1507 -0.0694  0.3383
14916SOL    HW147641   7.898   5.808   2.254  1.5755 -0.1489 -1.4097
14916SOL    HW247642   7.870   5.956   2.239  0.6350 -0.1623  0.0609
14917SOL     OW47643   8.428   2.115   8.340  0.8420  0.9093 -0.0943
14917SOL    HW147644   8.441   2.114   8.245 -0.6262 -1.2585 -0.3484
14917SOL    HW247645   8.338   2.145   8.352  0.8526  0.6866  0.5763
14918SOL     OW47646  10.542   6.271   6.761 -0.2133  0.3776 -0.0591
14918SOL    HW147647  10.563   6.359   6.729 -0.4719  0.2217 -0.6722
14918SOL    HW247648  10.627   6.227   6.766 -0.2221  0.2208 -1.1020
14919SOL     OW47649   0.465   9.769   9.778 -0.1379  0.1370 -0.2495
14919SOL    HW147650   0.400   9.703   9.801  0.2170  0.7431  3.0407
14919SOL    HW247651   0.415   9.851   9.770 -0.3419 -0.1610 -2.5692
14920SOL     OW47652   5.786   2.826   2.338  0.0209  0.0878 -0.2009
14920SOL    HW147653   5.833   2.821   2.421 -1.4513 -0.2801  0.6588
14920SOL    HW247654   5.768   2.919   2.326 -0.3580  0.0800  0.2636
14921SOL     OW47655  10.759   4.461   5.553  0.0070 -0.3728  0.4387
14921SOL    HW147656  10.805   4.534   5.595  0.2535 -1.2687  1.8089
14921SOL    HW247657  10.829   4.401   5.528 -0.2905 -0.8279  0.7021
14922SOL     OW47658   4.475   4.160  10.636  0.4595 -0.5920 -0.4395
14922SOL    HW147659   4.470   4.250  10.604  1.3776 -0.5644 -0.5190
14922SOL    HW247660   4.537   4.163  10.709 -0.6541 -0.8914  0.5552
14923SOL     OW47661   0.303   9.926   8.866  0.2329 -0.2386  0.0172
14923SOL    HW147662   0.299   9.834   8.840 -1.1523 -0.1044 -0.3169
14923SOL    HW247663   0.215   9.947   8.897  0.8752  0.6331  1.3480
14924SOL     OW47664   1.675   9.797   0.949 -0.1544 -0.1945  0.4295
14924SOL    HW147665   1.683   9.725   1.011  1.1091 -1.1730 -0.7760
14924SOL    HW247666   1.695   9.757   0.864 -1.4920  1.1538 -0.5800
14925SOL     OW47667   2.885   7.124  10.370  0.2844 -0.3897 -0.3636
14925SOL    HW147668   2.947   7.195  10.353 -2.6147  2.2744 -0.7029
14925SOL    HW247669   2.889   7.110  10.464  1.2093 -0.1106 -0.3515
14926SOL     OW47670   6.126   7.892   6.825 -0.9377  0.4014  0.1521
14926SOL    HW147671   6.219   7.873   6.820 -0.8707  1.0168 -1.9730
14926SOL    HW247672   6.083   7.808   6.807 -0.8773 -0.1673  2.3494
14927SOL     OW47673   4.040   8.519  10.435  0.3866  0.1471 -0.1436
14927SOL    HW147674   4.005   8.466  10.506 -2.4582  1.7424 -0.2236
14927SOL    HW247675   4.035   8.462  10.358  0.2018 -0.4425  0.2969
14928SOL     OW47676   4.912   8.925   8.473 -0.0466 -0.3950  0.2058
14928SOL    HW147677   4.990   8.871   8.469 -0.0613 -0.3761 -0.9215
14928SOL    HW247678   4.939   9.009   8.435 -0.1919  0.1828  1.3408
14929SOL     OW47679   0.935   9.990   1.953  0.0130 -0.0429  0.3043
14929SOL    HW147680   0.943   9.963   2.045 -0.6355 -0.4106  0.2576
14929SOL    HW247681   0.882   9.922   1.913 -0.6176  0.6665 -0.1000
14930SOL     OW47682   4.773  10.285   2.505 -0.2431  0.4162  0.3479
14930SOL    HW147683   4.832  10.210   2.495  0.0823  0.6138  0.7447
14930SOL    HW247684   4.709  10.256   2.569  0.6857  0.9428  1.5546
14931SOL     OW47685   0.617   6.385   9.282 -0.2219 -0.3156 -0.3623
14931SOL    HW147686   0.568   6.315   9.238 -0.2753  0.5458 -1.7264
14931SOL    HW247687   0.678   6.417   9.216  2.3104 -1.3857  1.2981
14932SOL     OW47688   3.982   8.795   5.715 -0.4769  0.1084 -0.1679
14932SOL    HW147689   4.015   8.872   5.668  1.5815  0.4060  1.5984
14932SOL    HW247690   3.907   8.828   5.765 -1.3438  0.2681 -1.5148
14933SOL     OW47691   0.830   2.058   6.566 -0.2713 -0.4741  0.1729
14933SOL    HW147692   0.897   2.001   6.529  1.1533  0.7084  0.8545
14933SOL    HW247693   0.778   2.086   6.491 -0.4624 -1.9477 -0.2817
14934SOL     OW47694   7.065   9.162   4.429  0.7286  0.2821  0.2220
14934SOL    HW147695   7.051   9.189   4.338  1.5857 -0.8373 -0.2618
14934SOL    HW247696   7.159   9.176   4.444  0.9114 -1.0468  0.4094
14935SOL     OW47697   7.305   3.094   3.026  0.1336  0.9576  0.0347
14935SOL    HW147698   7.333   3.038   2.953  1.6825  2.3671 -0.5240
14935SOL    HW247699   7.211   3.106   3.013  0.0472 -0.3275 -0.6507
14936SOL     OW47700   6.852   8.476   8.457 -0.2518 -0.0657 -0.7308
14936SOL    HW147701   6.777   8.533   8.441 -0.6914 -0.1319  0.9805
14936SOL    HW247702   6.839   8.402   8.397 -1.6665 -0.1634 -0.3467
14937SOL     OW47703  10.095   2.164   3.730  0.4738  0.0973 -0.0153
14937SOL    HW147704  10.051   2.249   3.732  1.3310  0.5466  0.7319
14937SOL    HW247705  10.184   2.185   3.702  0.1484 -0.8364 -1.8805
14938SOL     OW47706   8.313  10.731   2.887  0.0788 -0.2426 -0.2345
14938SOL    HW147707   8.328  10.681   2.968  1.3535  0.4220 -0.0471
14938SOL    HW247708   8.219  10.751   2.889 -0.3487 -2.0711 -0.0067
14939SOL     OW47709   6.739   7.397   7.879 -0.5642  0.7205  0.2647
14939SOL    HW147710   6.720   7.489   7.861  0.4222  1.5556  3.0132
14939SOL    HW247711   6.671   7.369   7.940 -0.8402 -0.3979 -0.5263
14940SOL     OW47712   4.314   2.258   8.569  0.1341  0.1182  0.0462
14940SOL    HW147713   4.345   2.219   8.651  1.0060  1.6133  0.4680
14940SOL    HW247714   4.258   2.191   8.531 -0.2570 -0.6527  1.8414
14941SOL     OW47715   6.825  10.141   4.165  0.5986 -0.7484  0.1914
14941SOL    HW147716   6.832  10.216   4.107 -0.1052 -0.5499  0.3443
14941SOL    HW247717   6.737  10.106   4.147  0.6009 -1.0311  0.7142
14942SOL     OW47718   2.080   4.964   0.462 -0.3257  0.2005  0.2460
14942SOL    HW147719   2.135   4.982   0.538 -0.8381  2.1110  0.2173
14942SOL    HW247720   2.067   4.869   0.463  1.5631 -0.0952  1.1982
14943SOL     OW47721   2.690   3.753   9.179 -0.1376  0.3637 -0.5340
14943SOL    HW147722   2.667   3.666   9.212 -1.0967  1.3492  1.6260
14943SOL    HW247723   2.774   3.773   9.221 -0.0602  0.5826 -0.7942
14944SOL     OW47724   8.092   1.594   4.604  0.4578 -0.0406 -0.4878
14944SOL    HW147725   8.149   1.669   4.590 -1.7516  2.2697  1.8231
14944SOL    HW247726   8.006   1.623   4.575 -0.2812 -2.1400 -0.6038
14945SOL     OW47727   1.717   3.577  10.549  0.5787  0.0603 -0.2058
14945SOL    HW147728   1.675   3.653  10.509  0.6549 -0.2249 -0.8329
14945SOL    HW247729   1.647   3.512  10.557  0.3955  0.3557  0.7847
14946SOL     OW47730   2.836   3.267   4.770  1.0301 -0.6021 -0.0674
14946SOL    HW147731   2.840   3.182   4.814  1.6880 -0.8953 -0.6821
14946SOL    HW247732   2.788   3.323   4.831 -0.0801 -1.6062  0.0285
14947SOL     OW47733   2.924   9.931   4.692 -0.5356  0.3329 -0.1148
14947SOL    HW147734   2.962   9.976   4.768 -3.6548  0.5071  1.5160
14947SOL    HW247735   2.997   9.917   4.633  1.7565  1.6768  2.2111
14948SOL     OW47736   7.840   5.284   2.843  0.0001  0.0225 -0.0197
14948SOL    HW147737   7.836   5.334   2.762  3.6171  1.3410  0.4190
14948SOL    HW247738   7.847   5.193   2.815 -0.3707  0.3161 -1.1072
14949SOL     OW47739   9.073   4.634   6.564 -0.0823 -0.1945  0.4699
14949SOL    HW147740   9.086   4.539   6.561 -1.0359 -0.3703  1.3121
14949SOL    HW247741   9.083   4.657   6.656 -1.5326  0.2477  0.5357
14950SOL     OW47742   2.894   7.538   5.908 -0.0916  0.2511 -0.2915
14950SOL    HW147743   2.987   7.558   5.916 -0.0627 -0.0831  0.2995
14950SOL    HW247744   2.889   7.444   5.926 -0.5832  0.3304 -0.0129
14951SOL     OW47745   1.139   4.107   9.893  0.0111  0.0153 -0.2171
14951SOL    HW147746   1.134   4.043   9.964 -0.7822 -0.4987 -0.7228
14951SOL    HW247747   1.057   4.157   9.899  0.6020  0.9711  0.1502
14952SOL     OW47748   6.218   8.768  10.331  0.1711  0.7911  0.1548
14952SOL    HW147749   6.216   8.674  10.312  3.4954  0.5882  0.3258
14952SOL    HW247750   6.310   8.791  10.328 -0.4922  3.9452  0.8679
14953SOL     OW47751   3.256   6.568   7.295 -0.1059  0.6441  0.4232
14953SOL    HW147752   3.274   6.494   7.238  0.8382 -0.5128  2.1256
14953SOL    HW247753   3.162   6.584   7.284 -0.1604 -0.2619 -0.6061
14954SOL     OW47754   2.742   1.636   8.681  0.0349  0.1570  0.1848
14954SOL    HW147755   2.814   1.697   8.664  0.0714 -0.2272 -1.1914
14954SOL    HW247756   2.709   1.661   8.767  2.0508  0.0920  1.0305
14955SOL     OW47757   4.424   8.160  10.197  0.0894  0.3911  0.4968
14955SOL    HW147758   4.465   8.097  10.138  0.1166  1.1859 -0.3472
14955SOL    HW247759   4.365   8.108  10.251 -0.0676 -0.3277 -0.3538
14956SOL     OW47760  10.468   4.041   5.533 -0.2242 -0.6692  0.8134
14956SOL    HW147761  10.407   4.046   5.459  0.2452 -0.8206  0.4082
14956SOL    HW247762  10.412   4.048   5.610 -0.6578  0.2848  0.4419
14957SOL     OW47763   8.461   3.649   1.932 -0.0747 -0.0282  0.2478
14957SOL    HW147764   8.440   3.556   1.928  0.7011 -0.1730 -2.3123
14957SOL    HW247765   8.541   3.653   1.985  0.5600 -0.9952 -0.5931
14958SOL     OW47766   5.243   5.275   2.281  0.4894 -0.4006 -0.2379
14958SOL    HW147767   5.338   5.284   2.277  0.7123 -2.3189 -0.0054
14958SOL    HW247768   5.228   5.205   2.344 -0.9683 -1.6376 -1.8669
14959SOL     OW47769   4.607   6.444   6.951 -0.0886 -0.1644  0.3738
14959SOL    HW147770   4.654   6.361   6.964 -0.6893 -0.5272  0.2618
14959SOL    HW247771   4.546   6.426   6.879 -0.5664  0.2303  0.6766
14960SOL     OW47772   6.201   9.632   4.962 -0.2901 -0.2664 -0.3825
14960SOL    HW147773   6.118   9.606   4.923  0.1534 -0.6109 -1.1307
14960SOL    HW247774   6.184   9.633   5.056 -0.4515 -2.9877 -0.2992
14961SOL     OW47775   6.579   2.667   1.834  0.1992  0.0415  0.6332
14961SOL    HW147776   6.672   2.648   1.850  0.3460  0.7747  0.6889
14961SOL    HW247777   6.543   2.685   1.921  0.3473  1.2040  0.4721
14962SOL     OW47778   2.962   7.021   5.274 -0.4652 -0.2980 -0.0052
14962SOL    HW147779   2.983   6.936   5.313 -2.0072 -0.0548  1.5138
14962SOL    HW247780   2.984   7.084   5.343  1.5607  0.6742 -1.4566
14963SOL     OW47781   7.919   9.275   0.444  0.3614 -0.6041  0.1086
14963SOL    HW147782   7.913   9.183   0.419  1.4743 -0.6528 -0.0186
14963SOL    HW247783   7.904   9.276   0.538  2.8516 -1.2477  0.5732
14964SOL     OW47784   2.419   5.123   0.142 -0.6166  0.1281 -0.0445
14964SOL    HW147785   2.493   5.064   0.126 -0.1556  1.0096 -1.3641
14964SOL    HW247786   2.407   5.121   0.237  1.6587  0.5749  0.3151
14965SOL     OW47787   4.698   9.642   9.993 -0.6109 -0.0373 -0.1769
14965SOL    HW147788   4.643   9.606  10.063 -0.4934  0.2322  0.0564
14965SOL    HW247789   4.656   9.612   9.912  0.2465 -1.8789 -0.0069
14966SOL     OW47790   8.552   7.217   7.743  0.5115 -0.1508  0.1664
14966SOL    HW147791   8.552   7.312   7.751 -0.1677  0.0627 -1.7512
14966SOL    HW247792   8.642   7.195   7.721  0.6233  0.0588  0.4028
14967SOL     OW47793   7.434   2.698   4.124 -0.7180  0.3386  0.6372
14967SOL    HW147794   7.490   2.775   4.113  0.7407 -0.8469 -0.8234
14967SOL    HW247795   7.479   2.646   4.190 -0.2107 -0.4735 -0.3190
14968SOL     OW47796   3.828   7.953   8.289 -0.2648  0.4341 -0.3719
14968SOL    HW147797   3.768   7.880   8.277  0.0959  0.1906 -0.7284
14968SOL    HW247798   3.782   8.030   8.255 -0.5870  0.3463 -0.1317
14969SOL     OW47799   2.831   3.416  10.349 -0.6442  0.0108 -0.0445
14969SOL    HW147800   2.845   3.471  10.271 -0.8002 -0.0320 -0.1022
14969SOL    HW247801   2.745   3.442  10.382 -1.4038 -1.2522 -0.9444
14970SOL     OW47802   5.393   6.427   5.933  0.1073  0.4088 -0.4832
14970SOL    HW147803   5.337   6.363   5.889  0.3180 -0.7002  0.8004
14970SOL    HW247804   5.340   6.506   5.937 -0.1651  0.3544 -2.0888
14971SOL     OW47805   8.632   5.973   5.084  0.6533  0.2887 -0.2547
14971SOL    HW147806   8.627   6.061   5.047 -1.9455 -0.1732 -1.1851
14971SOL    HW247807   8.638   5.988   5.179 -2.4561  1.5757 -0.1293
14972SOL     OW47808   1.035  10.531   2.325  0.4780 -0.1467 -0.0821
14972SOL    HW147809   1.013  10.542   2.417  1.3182 -2.2697  0.4443
14972SOL    HW247810   0.967  10.474   2.290  0.8978 -0.4592 -0.4099
14973SOL     OW47811   6.756   5.384   1.741  0.0669  0.8809  0.3043
14973SOL    HW147812   6.775   5.383   1.835  1.6513 -2.1996  0.0790
14973SOL    HW247813   6.687   5.320   1.730  0.5075  0.5567 -0.7155
14974SOL     OW47814   5.033   4.012   7.199 -0.0953  0.0696 -0.2673
14974SOL    HW147815   5.060   3.930   7.157  2.5219 -0.0739  1.4369
14974SOL    HW247816   4.985   4.059   7.131  0.3852 -1.8554 -2.0489
14975SOL     OW47817   6.424   4.165   0.759  0.1596 -0.3295  0.0033
14975SOL    HW147818   6.378   4.082   0.752  1.2641 -0.9480 -0.1982
14975SOL    HW247819   6.357   4.232   0.744 -1.0180 -1.1162  1.4767
14976SOL     OW47820   8.850   4.344   5.046 -0.3510 -0.0572  0.4257
14976SOL    HW147821   8.781   4.332   5.111 -0.4634  1.7215  0.6923
14976SOL    HW247822   8.804   4.341   4.962 -1.1555  2.9028  0.6431
14977SOL     OW47823   6.171   7.856   5.255 -0.0558  0.6434  0.2283
14977SOL    HW147824   6.259   7.819   5.252 -0.6178 -0.7924  0.3950
14977SOL    HW247825   6.123   7.810   5.186 -0.5355  1.8501 -0.2823
14978SOL     OW47826   4.490   1.701   3.545 -0.0622  0.6197 -0.7743
14978SOL    HW147827   4.474   1.710   3.452  0.9745 -0.7323 -1.1234
14978SOL    HW247828   4.568   1.645   3.551  0.4215  1.3842  0.8818
14979SOL     OW47829   5.193   9.629   5.275 -0.2019 -0.1585 -0.4559
14979SOL    HW147830   5.184   9.686   5.351  0.0324 -1.0210  0.2362
14979SOL    HW247831   5.252   9.676   5.216  1.0325 -0.2581  0.6783
14980SOL     OW47832   1.687  10.430  10.382 -0.3704 -0.4366 -0.7024
14980SOL    HW147833   1.735  10.353  10.353 -1.2736 -1.3356  0.0789
14980SOL    HW247834   1.618  10.394  10.439 -0.5063  0.9880  0.0728
14981SOL     OW47835   3.183   7.018   6.018  0.3753  0.1812 -0.2998
14981SOL    HW147836   3.119   7.077   5.979  1.0677  1.1675  0.0406
14981SOL    HW247837   3.201   6.954   5.949  0.1048  0.7382 -0.9019
14982SOL     OW47838   2.920   5.565   4.997 -0.7577 -0.8244  0.3718
14982SOL    HW147839   2.925   5.506   5.072  1.6280  0.1634  1.1006
14982SOL    HW247840   2.963   5.645   5.027 -1.1913  0.1886 -1.5508
14983SOL     OW47841  10.170   4.178   4.859  0.9920  0.0141  0.6924
14983SOL    HW147842  10.110   4.109   4.886 -0.5412  1.5833  1.4528
14983SOL    HW247843  10.179   4.166   4.765  0.8238 -1.2412  0.8132
14984SOL     OW47844   0.729   0.518   9.381 -0.3372  0.0376 -0.2225
14984SOL    HW147845   0.736   0.530   9.286 -0.9305 -0.4612 -0.3386
14984SOL    HW247846   0.656   0.573   9.407  0.3252  0.7989  0.0835
14985SOL     OW47847  10.311   5.944   2.582  0.0160 -0.1847 -0.2746
14985SOL    HW147848  10.362   6.004   2.636  1.4466 -0.2137 -1.5113
14985SOL    HW247849  10.321   5.859   2.625  0.9598 -0.1699 -0.4418
14986SOL     OW47850   3.916   3.817   9.498 -0.1386 -0.2221 -0.0513
14986SOL    HW147851   3.916   3.912   9.482  1.5936 -0.4903 -1.8932
14986SOL    HW247852   3.940   3.809   9.590  0.8478  1.1012 -0.1638
14987SOL     OW47853   1.230   7.704   1.732 -0.3656 -0.4562  0.1248
14987SOL    HW147854   1.162   7.638   1.731 -0.3851 -0.4583 -1.7081
14987SOL    HW247855   1.289   7.680   1.661 -1.1273  2.1962 -1.5571
14988SOL     OW47856   5.549   3.911   4.167  0.6080  0.0556 -0.3097
14988SOL    HW147857   5.483   3.981   4.167 -0.3842 -0.7909 -2.3082
14988SOL    HW247858   5.528   3.858   4.244  1.0383  1.6075  0.9186
14989SOL     OW47859   4.315  10.189   9.315 -0.0909  0.7091 -0.4553
14989SOL    HW147860   4.311  10.157   9.225  0.1520 -0.1134 -0.1827
14989SOL    HW247861   4.328  10.111   9.368  0.7459  1.2794  0.2176
14990SOL     OW47862   1.933   5.103   4.550  0.5066 -0.0469 -1.5388
14990SOL    HW147863   2.006   5.151   4.588 -1.0860  2.2393 -1.1416
14990SOL    HW247864   1.888   5.065   4.626  1.0921 -1.2445 -1.7626
14991SOL     OW47865   7.215   7.879   8.659  0.5709 -0.2060 -0.4521
14991SOL    HW147866   7.178   7.900   8.745  1.1278 -0.3067 -0.1844
14991SOL    HW247867   7.250   7.962   8.627  0.6359 -0.2304 -0.4446
14992SOL     OW47868   7.953   5.407   0.961 -0.2766 -0.2852  0.1072
14992SOL    HW147869   7.912   5.367   0.885  0.8481 -0.7696 -0.2771
14992SOL    HW247870   8.041   5.369   0.963  0.9432  2.3219 -0.3847
14993SOL     OW47871   9.115   5.717   6.296  0.2466 -0.1048  0.5295
14993SOL    HW147872   9.080   5.806   6.302  1.0336  0.2156  0.4097
14993SOL    HW247873   9.052   5.670   6.240 -0.2839  0.3108  0.7692
14994SOL     OW47874   1.231   3.329   5.539  0.4814 -0.8780  0.3337
14994SOL    HW147875   1.163   3.320   5.606  1.0566  0.9552  1.2293
14994SOL    HW247876   1.215   3.413   5.498  0.6998 -1.5671 -1.2407
14995SOL     OW47877   9.040   2.457   9.859  0.0559  0.5367 -0.3765
14995SOL    HW147878   9.111   2.512   9.827 -0.0568  0.3632 -0.9310
14995SOL    HW247879   9.062   2.440   9.950  2.1166 -1.6288 -1.1753
14996SOL     OW47880   7.143   9.059   1.493  0.5829  0.2166 -0.0693
14996SOL    HW147881   7.193   9.103   1.562 -1.2878  1.0119  0.8377
14996SOL    HW247882   7.193   9.076   1.413  2.6959 -0.5556  1.0192
14997SOL     OW47883   7.468   4.872   6.952  0.1796  0.3482 -0.1008
14997SOL    HW147884   7.535   4.909   7.010 -1.3419  0.1464  1.8796
14997SOL    HW247885   7.391   4.862   7.008 -0.6516 -2.1587 -1.5685
14998SOL     OW47886   7.753   2.779   3.480 -0.4031  0.1086 -0.2093
14998SOL    HW147887   7.701   2.768   3.400 -1.4899 -1.5720  0.6847
14998SOL    HW247888   7.691   2.769   3.551  0.6576  1.0061  0.8761
14999SOL     OW47889  10.479  10.349  10.048  0.0400  0.1481 -0.0250
14999SOL    HW147890  10.424  10.362  10.125  1.0050 -0.3912  0.7727
14999SOL    HW247891  10.454  10.263  10.015 -0.2228  0.2885 -0.1988
15000SOL     OW47892   8.309   9.061  10.618  0.2391  0.0723  0.3248
15000SOL    HW147893   8.372   9.127  10.589  0.8549 -1.3530 -1.9002
15000SOL    HW247894   8.229   9.110  10.636  0.7322  1.4679 -1.0482
15001SOL     OW47895   3.226   5.416   6.549  0.2380 -0.0609 -0.7332
15001SOL    HW147896   3.296   5.377   6.497  0.0065  0.5808 -1.5540
15001SOL    HW247897   3.258   5.504   6.568  0.7516 -0.6061  1.0873
15002SOL     OW47898   6.962  10.103   7.641  0.2932 -0.2756 -0.1404
15002SOL    HW147899   6.950  10.011   7.663 -0.7610 -0.6459 -2.0271
15002SOL    HW247900   6.961  10.105   7.545 -1.1173  1.8659 -0.1393
15003SOL     OW47901   5.331   8.138   2.800  0.4055  0.1048  0.4583
15003SOL    HW147902   5.291   8.120   2.885  0.0621  2.1782  0.7848
15003SOL    HW247903   5.293   8.072   2.742 -1.6112  0.4227  1.3098
15004SOL     OW47904   9.407   5.272   5.919 -0.2612 -0.3276 -0.6232
15004SOL    HW147905   9.390   5.184   5.886  0.1331 -0.4743 -0.4285
15004SOL    HW247906   9.342   5.326   5.873  0.4201 -0.4881 -1.8345
15005SOL     OW47907   3.059   4.908   1.953  0.1542  0.1672  0.0700
15005SOL    HW147908   3.004   4.852   2.008  0.2176 -0.1849 -0.2168
15005SOL    HW247909   3.092   4.976   2.012  0.8648 -0.6574  0.6406
15006SOL     OW47910  10.517   9.575  10.265 -0.3189 -0.4047 -0.1365
15006SOL    HW147911  10.535   9.646  10.203  0.0770  1.0323  1.5525
15006SOL    HW247912  10.586   9.511  10.249  2.4557  1.9208  1.6399
15007SOL     OW47913   2.233   5.504   0.188 -0.8953 -0.4416  0.0001
15007SOL    HW147914   2.148   5.468   0.215 -0.6133 -0.0194  1.4965
15007SOL    HW247915   2.247   5.579   0.245  0.3748 -0.3432 -0.4180
15008SOL     OW47916   7.947   8.586   8.566 -0.9095 -0.7211  0.1845
15008SOL    HW147917   7.949   8.666   8.619 -0.9879 -0.5346 -0.0945
15008SOL    HW247918   7.920   8.517   8.627  0.6324 -0.8151  0.7964
15009SOL     OW47919   7.668   9.288   4.990 -0.5414  0.2463  0.4561
15009SOL    HW147920   7.657   9.235   4.911 -0.8893  3.5910 -1.9914
15009SOL    HW247921   7.600   9.257   5.050 -1.1116 -1.5954 -1.0441
15010SOL     OW47922   8.722   8.257   9.496 -0.1456  0.1870 -0.1078
15010SOL    HW147923   8.761   8.285   9.413 -1.4116  1.9467 -0.1602
15010SOL    HW247924   8.680   8.173   9.475  2.7843 -1.3805 -0.2244
15011SOL     OW47925   9.892   9.006   0.372 -0.0415 -0.3333  0.2449
15011SOL    HW147926   9.953   9.042   0.307  0.5062 -1.0977  0.3234
15011SOL    HW247927   9.839   9.081   0.399  0.1445  0.1240 -0.6232
15012SOL     OW47928   2.567   3.608   2.890  0.0779  0.1419  0.4903
15012SOL    HW147929   2.589   3.536   2.949 -1.1006 -2.3818 -1.9425
15012SOL    HW247930   2.471   3.605   2.883  0.1663  0.5016 -1.3158
15013SOL     OW47931   7.900   4.079   6.746 -0.3609 -0.9246 -0.3302
15013SOL    HW147932   7.898   4.115   6.835  0.5609  1.6785 -1.2472
15013SOL    HW247933   7.813   4.041   6.733 -2.3039  2.8197  0.1851
15014SOL     OW47934   1.589   1.602   7.914 -0.0286  0.0758  0.5009
15014SOL    HW147935   1.612   1.668   7.979  0.5991  0.2026  0.1667
15014SOL    HW247936   1.618   1.519   7.953 -0.7482  0.0002  0.8880
15015SOL     OW47937   8.537   0.937   4.281 -0.3191 -0.1565  0.1021
15015SOL    HW147938   8.499   0.868   4.335  1.8748 -1.7371 -0.2294
15015SOL    HW247939   8.549   1.011   4.341  0.1589 -1.1481  1.2598
15016SOL     OW47940   9.098   9.748   1.436 -0.2670 -0.1590  0.2499
15016SOL    HW147941   9.172   9.734   1.376 -0.2036 -0.2052  0.3386
15016SOL    HW247942   9.100   9.672   1.495  0.0618  0.2027  0.7137
15017SOL     OW47943   2.237   5.880   4.857 -0.7056 -0.6960  0.0601
15017SOL    HW147944   2.149   5.915   4.872 -0.5173 -0.7486  1.4420
15017SOL    HW247945   2.286   5.952   4.818 -0.9202 -0.1247  0.8243
15018SOL     OW47946   0.321   1.182   3.529  0.5610 -0.5711  0.0336
15018SOL    HW147947   0.335   1.143   3.443  1.2816  1.5395 -0.8907
15018SOL    HW247948   0.232   1.217   3.525  0.5877 -0.4908  0.1256
15019SOL     OW47949   1.207   5.102   0.045  0.6802  0.2648  0.6564
15019SOL    HW147950   1.249   5.178   0.084  0.0987  1.1568 -0.3897
15019SOL    HW247951   1.204   5.036   0.115  1.1020  1.2362  1.6010
15020SOL     OW47952   2.854   4.093   0.597  0.0984 -0.1730  0.3775
15020SOL    HW147953   2.787   4.025   0.608 -0.8644  0.5611 -0.6241
15020SOL    HW247954   2.882   4.083   0.506 -0.6066  1.2246 -0.0170
15021SOL     OW47955  10.429   9.583   2.389  0.0548  0.1870  0.8521
15021SOL    HW147956  10.438   9.517   2.320  1.4198  1.6652 -0.4835
15021SOL    HW247957  10.343   9.567   2.428 -0.7742 -0.6831 -1.2261
15022SOL     OW47958   5.009   7.420   7.376 -0.0142  0.8638  0.1441
15022SOL    HW147959   5.003   7.324   7.367  1.1759  0.8701 -1.0661
15022SOL    HW247960   5.042   7.449   7.291  0.8878  2.2327  0.9411
15023SOL     OW47961   5.697   6.988   7.563  0.6381  0.0964  0.2849
15023SOL    HW147962   5.670   7.067   7.516  2.8371 -0.1454 -1.5831
15023SOL    HW247963   5.680   7.008   7.655  2.6184  3.4444  0.0897
15024SOL     OW47964  10.699   3.704   7.185  0.2064  0.5611  0.3892
15024SOL    HW147965  10.672   3.616   7.213  2.0209 -0.0331  0.4614
15024SOL    HW247966  10.692   3.702   7.089 -0.4837  0.5992  0.4396
15025SOL     OW47967   9.785   2.887   1.327  0.1715 -0.4294 -0.1737
15025SOL    HW147968   9.745   2.910   1.410  0.7273 -0.1854  0.0299
15025SOL    HW247969   9.877   2.870   1.348  0.3015 -0.4321 -0.7250
15026SOL     OW47970   5.284   0.631   4.486  0.3923  0.2225  0.1732
15026SOL    HW147971   5.359   0.692   4.489 -0.5155  1.5494 -2.0136
15026SOL    HW247972   5.303   0.574   4.412 -0.0384 -0.4759  0.5934
15027SOL     OW47973   2.145   4.041   6.970 -0.3655 -0.1047 -1.1697
15027SOL    HW147974   2.130   4.130   7.001  1.1018 -0.2276  0.0151
15027SOL    HW247975   2.211   4.049   6.902 -1.5608 -0.1389 -2.3887
15028SOL     OW47976   1.635   7.550   8.218 -0.0600  0.3792  0.3034
15028SOL    HW147977   1.541   7.559   8.231 -0.3610 -0.2660 -1.1389
15028SOL    HW247978   1.671   7.638   8.231 -0.7537  0.4790  1.5867
15029SOL     OW47979   4.421   3.412   7.081 -0.2073 -0.7879 -0.5950
15029SOL    HW147980   4.406   3.348   7.150 -0.3751  1.0591  1.1576
15029SOL    HW247981   4.514   3.435   7.088 -0.2407 -0.5331 -0.9422
15030SOL     OW47982   2.474   4.538   8.744 -0.6259  0.0793  0.5749
15030SOL    HW147983   2.451   4.563   8.833 -2.2761 -0.6018  0.3845
15030SOL    HW247984   2.458   4.616   8.691 -0.7300  0.1551  0.7190
15031SOL     OW47985   8.705   6.834   8.368  0.0568 -0.1851 -0.4629
15031SOL    HW147986   8.738   6.819   8.457  0.1012 -1.1651 -0.6349
15031SOL    HW247987   8.636   6.900   8.379 -0.2936 -0.6717  0.3718
15032SOL     OW47988  10.685   0.747  10.629 -0.5752 -0.4529  0.2642
15032SOL    HW147989  10.681   0.791  10.713 -0.5128  2.4408 -1.1274
15032SOL    HW247990  10.776   0.719  10.620  0.2348  2.1041 -0.1305
15033SOL     OW47991  10.006   7.497   3.236  0.0354  0.2478  0.0171
15033SOL    HW147992  10.028   7.507   3.329 -1.6394 -0.8553  0.5667
15033SOL    HW247993  10.023   7.405   3.217 -2.2426 -0.2061 -0.0041
15034SOL     OW47994   3.669   5.309   4.763  0.2616 -0.0797  0.0949
15034SOL    HW147995   3.577   5.325   4.739  0.6416  2.1274 -0.1413
15034SOL    HW247996   3.717   5.320   4.681  0.6520 -2.7589 -0.1100
15035SOL     OW47997   0.434   7.180   1.726  0.2063 -0.6858 -0.4486
15035SOL    HW147998   0.440   7.276   1.732  1.1133 -0.4722 -3.2325
15035SOL    HW247999   0.345   7.160   1.757  0.0915  0.9977  0.4600
15036SOL     OW48000   5.892   7.381   3.228 -0.6132 -0.1317  0.1564
15036SOL    HW148001   5.957   7.426   3.282  0.0976  0.4484 -1.1252
15036SOL    HW248002   5.922   7.290   3.224 -1.9825 -0.7754  2.6510
15037SOL     OW48003  10.672   4.990   8.905 -0.2052  0.0724  0.2868
15037SOL    HW148004  10.713   5.075   8.919 -1.1218  0.4606  0.7158
15037SOL    HW248005  10.736   4.940   8.855  0.2341  1.1124 -0.2120
15038SOL     OW48006   0.746   5.993   1.491  0.0657 -0.2256  0.0195
15038SOL    HW148007   0.656   5.996   1.521  0.9149 -0.5922  2.8767
15038SOL    HW248008   0.750   6.056   1.419 -1.9869  1.2964  1.1516
15039SOL     OW48009   6.600   6.079   2.734  0.2759  0.2123  0.6336
15039SOL    HW148010   6.633   6.071   2.823  0.1318  0.1617  0.6840
15039SOL    HW248011   6.507   6.101   2.745  0.6130  1.8185  0.4995
15040SOL     OW48012   0.742   3.637   4.706  0.6503  0.0263 -0.1792
15040SOL    HW148013   0.837   3.638   4.721  0.5541 -0.5815  0.5571
15040SOL    HW248014   0.730   3.678   4.621  1.5422  0.5133 -0.0786
15041SOL     OW48015  10.691   0.190  10.278 -0.6063  0.1089 -0.0984
15041SOL    HW148016  10.688   0.230  10.365 -0.1469 -0.1247  0.0246
15041SOL    HW248017  10.770   0.136  10.278  0.3071  1.3687 -1.1986
15042SOL     OW48018  10.240   2.886   8.149  0.0420 -0.8942 -0.2105
15042SOL    HW148019  10.319   2.873   8.097  0.3795  1.4170 -0.3684
15042SOL    HW248020  10.170   2.895   8.084  0.3190  1.0512 -0.2965
15043SOL     OW48021   1.982   3.824   7.795  0.1659  0.5602 -0.2778
15043SOL    HW148022   1.926   3.796   7.723  1.5410 -2.0362 -0.4471
15043SOL    HW248023   1.930   3.806   7.874  0.1770 -0.4488 -0.4907
15044SOL     OW48024   6.142   3.985   0.043 -0.0628  0.1691  0.2170
15044SOL    HW148025   6.233   3.997   0.016 -0.5415  1.7054 -0.8392
15044SOL    HW248026   6.146   3.925   0.117  1.6989 -0.7289 -0.5652
15045SOL     OW48027   8.382   2.345   8.895  0.3197 -0.3526  0.0637
15045SOL    HW148028   8.371   2.362   8.988  1.4128 -1.1141  0.3476
15045SOL    HW248029   8.347   2.256   8.882 -0.6786  0.0923 -0.4419
15046SOL     OW48030   4.314   4.776   4.809 -0.2051 -0.3520  0.1006
15046SOL    HW148031   4.279   4.769   4.898  1.6690 -2.4257  0.7779
15046SOL    HW248032   4.406   4.799   4.821  0.4399 -2.0180 -1.1806
15047SOL     OW48033   8.667   2.610   8.551  0.3283 -0.8931 -0.2047
15047SOL    HW148034   8.755   2.622   8.514  0.3088 -1.5901 -0.4961
15047SOL    HW248035   8.643   2.696   8.584  1.2494 -0.7674  0.1601
15048SOL     OW48036   7.339   4.598   1.871 -0.3290  0.6944 -0.3583
15048SOL    HW148037   7.391   4.656   1.814 -2.8433  2.2643 -1.2536
15048SOL    HW248038   7.298   4.537   1.810 -0.1221 -0.0382  0.2381
15049SOL     OW48039   7.508   4.689   4.540  0.4276 -0.3951 -0.2206
15049SOL    HW148040   7.583   4.648   4.496 -0.6973 -1.8814 -0.8228
15049SOL    HW248041   7.479   4.624   4.603  0.5825  0.8042  1.1369
15050SOL     OW48042   5.901   2.221   8.583  0.1656 -0.4563 -0.4498
15050SOL    HW148043   5.819   2.216   8.533  0.4536  0.5149 -1.0538
15050SOL    HW248044   5.937   2.133   8.579 -0.5060 -0.7240 -0.7768
15051SOL     OW48045   6.341   8.308   1.791  0.2989  0.0591  0.1747
15051SOL    HW148046   6.339   8.298   1.887 -0.8626  0.4238  0.2032
15051SOL    HW248047   6.346   8.219   1.757 -1.5657 -0.2182  0.5509
15052SOL     OW48048   1.049   5.403   8.908 -0.3272 -0.7243 -0.6785
15052SOL    HW148049   0.989   5.433   8.977 -1.6797  1.6361 -2.7195
15052SOL    HW248050   1.124   5.462   8.913 -0.4320 -0.5379 -1.2094
15053SOL     OW48051   3.314   3.620   9.462  0.2661 -0.2471 -0.5331
15053SOL    HW148052   3.366   3.604   9.541 -0.4451 -0.7662 -0.1724
15053SOL    HW248053   3.288   3.712   9.469  1.5178  0.1631 -0.9511
15054SOL     OW48054   9.637   2.640   7.747 -0.2590 -0.5767  0.2081
15054SOL    HW148055   9.708   2.699   7.773  0.2620 -1.3286  0.5189
15054SOL    HW248056   9.667   2.599   7.666 -1.0675  0.3391 -0.5856
15055SOL     OW48057   4.531   0.900   1.836  0.5638  0.7555 -0.1826
15055SOL    HW148058   4.435   0.908   1.839  0.6158  1.4513 -0.2030
15055SOL    HW248059   4.548   0.855   1.753  0.1648 -1.2313  0.7451
15056SOL     OW48060   2.422   1.881   0.450  0.1090  0.3536  0.0903
15056SOL    HW148061   2.354   1.830   0.406  0.0479  1.7184 -1.5057
15056SOL    HW248062   2.399   1.972   0.433  1.6749  0.8752  0.5434
15057SOL     OW48063   6.245   1.319  10.706  1.1318 -0.0806  0.4013
15057SOL    HW148064   6.259   1.228  10.732  3.0873 -0.4583 -1.6483
15057SOL    HW248065   6.300   1.370  10.766  1.8288 -0.4876  0.1219
15058SOL     OW48066   4.556   7.620   1.151 -0.4862  0.6475 -0.6473
15058SOL    HW148067   4.496   7.684   1.112 -0.2857  0.5804 -1.0748
15058SOL    HW248068   4.517   7.599   1.236 -0.7047  1.1192 -0.6287
15059SOL     OW48069   3.174   0.647   8.350 -0.4089  0.3312  0.0969
15059SOL    HW148070   3.178   0.729   8.301  0.0779 -0.7248 -1.7201
15059SOL    HW248071   3.114   0.592   8.300  2.0625 -1.6909 -0.8550
15060SOL     OW48072   7.631   8.772   6.590 -0.8272  0.1053 -0.1733
15060SOL    HW148073   7.685   8.842   6.553  1.1656 -0.6000  1.2087
15060SOL    HW248074   7.591   8.811   6.668  1.0747 -0.4759  1.1688
15061SOL     OW48075   6.158   0.984   8.572 -0.2387 -0.2213 -0.5819
15061SOL    HW148076   6.096   1.048   8.537 -1.0336 -1.0864 -0.7902
15061SOL    HW248077   6.103   0.922   8.620  0.5683 -0.4943 -0.0115
15062SOL     OW48078   5.602   2.005   2.387  0.3127 -0.3022  0.2957
15062SOL    HW148079   5.604   2.099   2.402 -0.6341 -0.6414  3.0830
15062SOL    HW248080   5.632   1.967   2.469 -0.4973 -2.4569 -0.3410
15063SOL     OW48081   3.055   5.301   6.996  0.0134 -0.1005 -0.5348
15063SOL    HW148082   3.054   5.361   6.921  2.1876  1.2013  0.3808
15063SOL    HW248083   2.986   5.333   7.053  0.3423  0.8168 -0.6255
15064SOL     OW48084   2.409   0.004   0.563 -0.1519  0.0836 -0.2035
15064SOL    HW148085   2.495   0.023   0.526 -0.8908 -0.9643 -2.6220
15064SOL    HW248086   2.348   0.009   0.489 -2.0611 -0.0637  1.2686
15065SOL     OW48087   1.566  10.200   4.830  0.2292  0.9476  0.4497
15065SOL    HW148088   1.549  10.279   4.882  1.0327  0.8250  0.9003
15065SOL    HW248089   1.556  10.229   4.739  0.4526  1.5537  0.6158
15066SOL     OW48090   9.563   4.191   6.993 -0.1134  1.0911 -0.1307
15066SOL    HW148091   9.541   4.185   7.085  0.7219  2.7393  0.2026
15066SOL    HW248092   9.487   4.156   6.947 -0.6390  0.5012  1.1585
15067SOL     OW48093   8.825   7.047  10.457  0.2505 -0.3116  0.5936
15067SOL    HW148094   8.803   6.959  10.429 -0.0350 -0.5242  1.4713
15067SOL    HW248095   8.835   7.041  10.552  0.6030  0.5176  0.6195
15068SOL     OW48096   1.714   5.826   1.833 -0.2842  0.4178  0.3773
15068SOL    HW148097   1.694   5.919   1.847  2.3100  1.1700 -0.2352
15068SOL    HW248098   1.790   5.827   1.775  0.1728 -2.0870  0.8263
15069SOL     OW48099   3.208   0.612   8.837  0.2744  0.2000 -0.0575
15069SOL    HW148100   3.224   0.544   8.902 -1.4901 -0.3740 -0.1650
15069SOL    HW248101   3.281   0.672   8.846 -0.7229  1.0860  3.6629
15070SOL     OW48102   2.303   3.997   2.040 -0.1706  0.1703 -1.1311
15070SOL    HW148103   2.244   3.933   2.000  0.7724 -1.3090 -0.2321
15070SOL    HW248104   2.302   3.976   2.133  0.1634  1.4866 -0.8087
15071SOL     OW48105   8.140   0.326   4.095  0.0175  0.2516 -0.1395
15071SOL    HW148106   8.101   0.239   4.091  1.3173 -0.3360 -0.6016
15071SOL    HW248107   8.066   0.385   4.108 -0.7755 -1.0195  1.4520
15072SOL     OW48108   5.815   1.505   0.900  0.0731  0.0387 -0.1556
15072SOL    HW148109   5.764   1.585   0.889  1.3092  0.7430 -1.0246
15072SOL    HW248110   5.776   1.443   0.839 -0.6983  0.0498  0.3062
15073SOL     OW48111   6.252   5.090  10.365  0.7218  0.2544 -0.5598
15073SOL    HW148112   6.189   5.018  10.358  0.2710  0.7152 -1.4550
15073SOL    HW248113   6.288   5.099  10.277  1.5278  0.4686 -0.2153
15074SOL     OW48114   2.766   8.896   4.269 -0.6349  0.0338  0.1906
15074SOL    HW148115   2.787   8.808   4.302 -0.2603 -0.1795 -0.5996
15074SOL    HW248116   2.831   8.913   4.202 -1.0754  0.6759 -0.0872
15075SOL     OW48117   8.188   8.246   3.841  0.3835  0.4148  0.5891
15075SOL    HW148118   8.178   8.277   3.751 -2.4231 -1.3669  0.1711
15075SOL    HW248119   8.193   8.326   3.893 -0.3452  1.5164 -0.9429
15076SOL     OW48120   1.651   0.561  10.609 -0.2887 -0.4534  0.3461
15076SOL    HW148121   1.592   0.637  10.614  0.7588  0.3119  1.9061
15076SOL    HW248122   1.650   0.525  10.698  3.9340  1.4802  1.4217
15077SOL     OW48123   5.468   6.833   0.129 -0.1577 -0.2843  0.2605
15077SOL    HW148124   5.530   6.893   0.086  0.2526  0.1373  1.3804
15077SOL    HW248125   5.448   6.767   0.063  0.5103  0.2884 -0.5393
15078SOL     OW48126   8.246   1.632   3.353 -0.3016 -0.1915  0.2786
15078SOL    HW148127   8.225   1.625   3.447  1.3745  1.7262  0.8602
15078SOL    HW248128   8.334   1.596   3.346  0.5611  1.8789 -0.0802
15079SOL     OW48129   2.544  10.705   4.016 -0.1345 -0.3216 -0.4698
15079SOL    HW148130   2.505  10.644   3.953 -0.1449 -0.2086 -0.5722
15079SOL    HW248131   2.628  10.665   4.039  0.0737 -0.1400 -0.8987
15080SOL     OW48132   7.405   9.208   3.258  0.0405  0.3480 -0.5748
15080SOL    HW148133   7.463   9.284   3.262  0.6015 -0.1195  0.5344
15080SOL    HW248134   7.337   9.225   3.324  0.7641 -0.5691  0.4404
15081SOL     OW48135   1.538   4.999   7.805  0.4898 -0.1049 -0.3215
15081SOL    HW148136   1.491   4.973   7.885  1.9877 -0.5560  0.4558
15081SOL    HW248137   1.523   4.926   7.745 -0.5856  0.2010 -0.4487
15082SOL     OW48138   3.471   8.102   7.332 -0.3925 -0.4358 -0.2373
15082SOL    HW148139   3.537   8.144   7.387  0.1967  0.3580 -1.4926
15082SOL    HW248140   3.456   8.017   7.372 -0.8928  0.5644  1.8418
15083SOL     OW48141   4.864   1.730   1.781  0.2176 -0.0928 -0.0637
15083SOL    HW148142   4.797   1.795   1.800  0.0014 -0.2231 -0.3815
15083SOL    HW248143   4.913   1.722   1.863 -0.6706 -0.6068  0.4195
15084SOL     OW48144   0.287   3.520   7.763 -0.3220 -0.3744 -0.1083
15084SOL    HW148145   0.298   3.596   7.705 -1.7687  0.3928  0.5786
15084SOL    HW248146   0.375   3.482   7.769  0.1304  0.3175 -1.7014
15085SOL     OW48147   0.458   2.941   6.183  0.4933 -0.0993 -0.3278
15085SOL    HW148148   0.410   2.987   6.116  0.3431 -1.2487 -1.0453
15085SOL    HW248149   0.458   3.000   6.259 -2.9152 -0.4316  0.0843
15086SOL     OW48150   1.957   9.327   9.322  0.5721 -0.2158  0.0070
15086SOL    HW148151   1.921   9.414   9.301  0.3752 -0.1004  0.8127
15086SOL    HW248152   2.049   9.343   9.341  1.0242 -0.4711 -1.7634
15087SOL     OW48153   7.671   2.097   2.599 -0.5528 -0.2061 -0.2718
15087SOL    HW148154   7.717   2.173   2.634 -0.2631  0.5145 -2.1336
15087SOL    HW248155   7.733   2.025   2.611  0.2636  0.3703 -0.9002
15088SOL     OW48156   5.729   0.784   6.257  0.8239  0.0367 -0.1987
15088SOL    HW148157   5.688   0.790   6.343 -0.0117  0.1882 -0.5970
15088SOL    HW248158   5.717   0.693   6.231 -2.1059  0.7140 -1.6454
15089SOL     OW48159   9.348   5.056   3.692 -0.2822 -0.3103  0.2652
15089SOL    HW148160   9.417   4.992   3.671  2.7672  2.6363  0.4451
15089SOL    HW248161   9.380   5.101   3.770 -2.3535  1.3431  0.2548
15090SOL     OW48162   0.625   1.088   2.402 -0.2358  0.6367  0.0477
15090SOL    HW148163   0.715   1.059   2.388 -1.1231 -1.7496 -1.1320
15090SOL    HW248164   0.634   1.177   2.438  2.5581  0.4280  0.0609
15091SOL     OW48165   4.252   4.318   8.800 -0.2447  0.0337 -0.7091
15091SOL    HW148166   4.340   4.349   8.782  0.1642 -0.4773  0.3393
15091SOL    HW248167   4.220   4.377   8.868  0.9116 -2.3192  2.0467
15092SOL     OW48168   4.482   0.446   2.456  0.1961 -0.5277 -0.7311
15092SOL    HW148169   4.477   0.355   2.486 -1.0862  0.3072  1.9149
15092SOL    HW248170   4.576   0.465   2.449  0.6603 -0.8808  2.9223
15093SOL     OW48171   4.928   6.239   8.844  0.5710  0.1813 -0.7795
15093SOL    HW148172   4.990   6.176   8.808  0.8091  0.7720 -1.4397
15093SOL    HW248173   4.981   6.315   8.867  0.2417  0.2761 -0.3218
15094SOL     OW48174   1.087   1.277   3.441  0.0685 -0.1903 -0.2420
15094SOL    HW148175   1.077   1.250   3.533  1.5012 -1.5221 -0.4278
15094SOL    HW248176   1.025   1.222   3.393  0.3192 -0.5045 -0.2117
15095SOL     OW48177   2.616   9.482   9.610  0.0470  0.5952  0.8183
15095SOL    HW148178   2.599   9.526   9.693 -0.4846  2.8200 -0.3805
15095SOL    HW248179   2.537   9.498   9.558  0.6529 -0.1208 -0.3655
15096SOL     OW48180   4.371   5.538   8.125 -0.1329 -0.5953  0.0639
15096SOL    HW148181   4.302   5.604   8.136 -1.1256 -1.4915 -0.5179
15096SOL    HW248182   4.451   5.588   8.112 -0.9028  0.5066 -0.6324
15097SOL     OW48183   6.814   0.671   4.553 -0.1862 -0.2399  0.0506
15097SOL    HW148184   6.826   0.655   4.459 -2.2290  1.9490 -0.6855
15097SOL    HW248185   6.839   0.589   4.595  2.9677 -0.5775 -2.1741
15098SOL     OW48186   9.185   3.484   7.501  0.6203  0.0958  0.2998
15098SOL    HW148187   9.135   3.456   7.424  1.4520  1.2248 -0.6955
15098SOL    HW248188   9.270   3.509   7.466  1.3875 -0.3949  1.7603
15099SOL     OW48189   2.351   8.813   6.088  0.3094 -0.3007 -0.1249
15099SOL    HW148190   2.420   8.878   6.097 -0.2044  0.2296  0.0089
15099SOL    HW248191   2.315   8.828   6.001  1.8645 -2.0767 -1.1513
15100SOL     OW48192  10.043   0.022   8.871  0.7907 -0.1500  0.0377
15100SOL    HW148193  10.078   0.053   8.788 -0.9340  0.3248 -0.5616
15100SOL    HW248194  10.094   0.067   8.938  0.1165  1.9830 -0.8056
15101SOL     OW48195   1.087   0.633   7.400  0.1273 -0.7841  0.5176
15101SOL    HW148196   1.064   0.607   7.310  2.5647  0.0389 -0.4197
15101SOL    HW248197   1.030   0.708   7.418  0.0759 -0.5212 -0.6217
15102SOL     OW48198   3.155   9.072   3.087  0.4933  0.6347 -0.4512
15102SOL    HW148199   3.197   9.052   3.003  1.0807  0.1792 -0.0541
15102SOL    HW248200   3.074   9.117   3.063  1.0109  1.1676 -1.2408
15103SOL     OW48201   4.950  10.693   3.263 -0.1461 -0.5226  0.0363
15103SOL    HW148202   4.869  10.647   3.241 -0.7658  1.2866 -1.7264
15103SOL    HW248203   4.920  10.775   3.304  0.8269 -0.3321  0.3820
15104SOL     OW48204   5.966   4.967   2.228 -0.0203 -0.1605  0.0059
15104SOL    HW148205   5.962   4.887   2.175  0.1009  0.1834 -0.5223
15104SOL    HW248206   6.052   5.004   2.210  0.0009 -0.0122  0.4032
15105SOL     OW48207   9.165   6.517   9.653 -0.6942 -0.5257  0.2611
15105SOL    HW148208   9.202   6.429   9.656  2.8760  0.7943 -0.1884
15105SOL    HW248209   9.139   6.535   9.743 -1.0112 -1.8102  0.4473
15106SOL     OW48210   2.911   3.540   4.012  0.2677 -0.1451 -0.2655
15106SOL    HW148211   2.827   3.553   4.057  0.2051 -0.0272 -0.4155
15106SOL    HW248212   2.935   3.450   4.032  0.8882  0.2994  1.0854
15107SOL     OW48213   2.971   2.727   3.892  1.0785  0.3502  0.4855
15107SOL    HW148214   2.972   2.780   3.812 -1.2589 -0.1400  0.0402
15107SOL    HW248215   3.008   2.643   3.866 -1.7782 -0.6295 -0.8399
15108SOL     OW48216   9.044   3.763  10.075  0.4111  0.0925 -0.3822
15108SOL    HW148217   8.956   3.745  10.041  0.2978  0.5753 -0.3514
15108SOL    HW248218   9.032   3.771  10.170  0.7549 -1.4159 -0.1801
15109SOL     OW48219   0.693   0.670   8.523 -0.3460  0.1725 -0.1279
15109SOL    HW148220   0.666   0.721   8.599  0.5089 -0.2575  0.4726
15109SOL    HW248221   0.647   0.587   8.530  0.4783 -0.2473  0.4617
15110SOL     OW48222   0.192   3.981   0.554  0.4075  0.0511  0.5294
15110SOL    HW148223   0.152   3.902   0.589 -0.5145  0.7222  1.0519
15110SOL    HW248224   0.217   4.032   0.631 -0.5885  1.0261  0.2327
15111SOL     OW48225   9.355   3.266   5.738 -0.3418  0.3019  0.3760
15111SOL    HW148226   9.260   3.259   5.727 -0.2231 -1.0950  0.0695
15111SOL    HW248227   9.391   3.193   5.688  0.9072  0.8359  0.4513
15112SOL     OW48228   2.748   8.164   8.295 -0.6248 -0.0844  0.2292
15112SOL    HW148229   2.732   8.157   8.201  0.2980 -1.5212  0.1512
15112SOL    HW248230   2.711   8.084   8.331 -0.2273  0.0709  0.9888
15113SOL     OW48231   1.966   8.231   4.532 -0.0380  0.4243 -0.4482
15113SOL    HW148232   2.052   8.202   4.501 -0.0546  0.5609 -0.6245
15113SOL    HW248233   1.938   8.163   4.593  0.8940  1.1677  0.8468
15114SOL     OW48234   7.439   4.211   2.738 -0.2714  0.0532  0.2294
15114SOL    HW148235   7.421   4.236   2.647  0.6092  0.7471  0.2426
15114SOL    HW248236   7.532   4.229   2.750 -0.3492 -0.1819  1.2282
15115SOL     OW48237   1.075  10.535   7.658 -0.4118 -0.0932 -0.7930
15115SOL    HW148238   1.139  10.546   7.588 -1.0529  0.1239 -1.3505
15115SOL    HW248239   1.128  10.513   7.735  0.2682 -0.8306 -1.4441
15116SOL     OW48240   6.229   9.356   1.117 -0.6046 -0.1272 -0.3674
15116SOL    HW148241   6.175   9.435   1.121 -0.4827  0.2154 -3.4612
15116SOL    HW248242   6.314   9.388   1.086 -0.8068 -1.5044 -2.5251
15117SOL     OW48243   7.366   2.239   9.444  1.1041  0.4801 -0.0978
15117SOL    HW148244   7.303   2.200   9.505 -0.1346  1.3714 -0.7666
15117SOL    HW248245   7.372   2.174   9.373 -0.4618  1.1505 -0.8965
15118SOL     OW48246   1.566   1.100  10.435 -0.0040  0.2658  0.1500
15118SOL    HW148247   1.581   1.172  10.496  3.5191  1.2819 -1.5929
15118SOL    HW248248   1.573   1.140  10.348  0.3562 -1.8860 -0.8969
15119SOL     OW48249  10.405   0.185  10.159  0.1866  0.4139 -0.0580
15119SOL    HW148250  10.324   0.208  10.206 -0.1330 -0.8906  0.0511
15119SOL    HW248251  10.474   0.233  10.206 -0.3270  0.3571  0.7763
15120SOL     OW48252   9.208   2.215   4.217  0.3890 -0.0744  0.6375
15120SOL    HW148253   9.198   2.127   4.253 -1.1284 -0.0796  0.3041
15120SOL    HW248254   9.298   2.240   4.237  1.1005 -1.9944  0.0712
15121SOL     OW48255   5.816   8.740   6.629 -0.2350 -0.1005  0.1865
15121SOL    HW148256   5.760   8.759   6.704  1.6759 -1.2735  2.0266
15121SOL    HW248257   5.863   8.822   6.613  0.3509 -0.2177  1.2159
15122SOL     OW48258   0.730   6.369   1.695  0.0267 -0.0934 -0.2807
15122SOL    HW148259   0.736   6.353   1.789  0.4839 -0.1942 -0.3266
15122SOL    HW248260   0.664   6.306   1.663  0.6629 -0.8104 -0.2056
15123SOL     OW48261  10.710  10.691   6.712 -0.4600 -0.0289 -0.4610
15123SOL    HW148262  10.735  10.676   6.803 -0.4071 -1.7262 -0.7169
15123SOL    HW248263  10.620  10.722   6.716 -0.5590 -0.3892  0.1585
15124SOL     OW48264   2.547   0.817   0.706  0.5305 -0.4195 -0.5680
15124SOL    HW148265   2.553   0.782   0.795  0.9183 -0.6852 -0.6948
15124SOL    HW248266   2.453   0.814   0.685  0.0613  2.0488  0.7707
15125SOL     OW48267   0.102   3.308   0.992  0.5316 -0.2341  0.0576
15125SOL    HW148268   0.069   3.260   0.916  0.9009  2.3228 -1.8272
15125SOL    HW248269   0.197   3.306   0.982  0.5814  0.1500  0.4239
15126SOL     OW48270   6.585  10.268   2.836 -0.0256  0.8061  0.0675
15126SOL    HW148271   6.553  10.281   2.924  0.4088  2.0987  0.0460
15126SOL    HW248272   6.669  10.313   2.834  1.0180 -1.0295 -0.3818
15127SOL     OW48273   9.274   3.780   7.290 -0.0003 -0.4451 -0.3302
15127SOL    HW148274   9.313   3.693   7.282  0.8436 -0.0595 -0.6305
15127SOL    HW248275   9.305   3.813   7.374 -2.5534 -1.4717  1.1062
15128SOL     OW48276   5.455   3.663   8.055  0.5194 -0.3193 -0.3733
15128SOL    HW148277   5.444   3.692   8.145  3.3319  0.7351 -0.2558
15128SOL    HW248278   5.467   3.743   8.004 -0.5077 -0.9210 -1.6351
15129SOL     OW48279   7.611   9.153   7.864 -0.7489  0.1909 -0.5700
15129SOL    HW148280   7.590   9.064   7.893  0.4677  0.3405  0.8518
15129SOL    HW248281   7.572   9.210   7.930  2.5138  0.5143  1.2920
15130SOL     OW48282   7.576  10.488   7.928  0.7390  0.2219  0.0705
15130SOL    HW148283   7.545  10.531   7.848 -0.2854  2.2306  1.4747
15130SOL    HW248284   7.575  10.394   7.907 -0.5292  0.6252 -1.9052
15131SOL     OW48285   0.622   4.953   1.236  0.4582  0.3931 -0.3272
15131SOL    HW148286   0.539   4.982   1.273  0.5767  0.3741 -0.0440
15131SOL    HW248287   0.598   4.883   1.176  0.2312  0.6550 -0.5504
15132SOL     OW48288   9.348   6.736   9.593  0.5045 -0.3205 -0.2133
15132SOL    HW148289   9.268   6.684   9.580 -1.6731  2.2372  1.9060
15132SOL    HW248290   9.373   6.719   9.683  1.3660  0.2398 -0.3381
15133SOL     OW48291   1.976  10.249   8.669 -0.5992 -0.1579  0.1787
15133SOL    HW148292   1.967  10.181   8.736 -0.9515 -1.3690 -1.0436
15133SOL    HW248293   1.895  10.243   8.618 -0.1096  0.3595 -0.6786
15134SOL     OW48294   8.468   6.830   2.867  0.0117  0.0996 -0.3232
15134SOL    HW148295   8.476   6.904   2.927  2.4963 -0.9394  0.7574
15134SOL    HW248296   8.429   6.760   2.920  0.8952 -0.3832 -0.2797
15135SOL     OW48297   5.110   8.142   6.042  0.7257 -0.1080 -0.1607
15135SOL    HW148298   5.183   8.081   6.043  1.9564  1.2562 -1.4574
15135SOL    HW248299   5.066   8.129   6.126  0.7255 -2.9468 -0.4998
15136SOL     OW48300   5.701   7.124   7.816  0.5091 -0.1413 -0.2332
15136SOL    HW148301   5.794   7.142   7.801  0.5070  0.1224  0.0584
15136SOL    HW248302   5.698   7.088   7.905  0.2290  0.7285  0.1208
15137SOL     OW48303   2.483   9.287   4.777 -0.1028 -0.2484  0.0107
15137SOL    HW148304   2.444   9.221   4.833  1.6196 -2.6751 -1.4162
15137SOL    HW248305   2.411   9.318   4.722 -1.1662 -0.0695  1.4480
15138SOL     OW48306   0.981   2.982   7.343  0.1097  0.6924  0.3495
15138SOL    HW148307   1.054   2.984   7.282  0.9084 -3.0255  0.9610
15138SOL    HW248308   1.014   3.024   7.422  0.9107  0.7796 -0.0270
15139SOL     OW48309   5.408   3.769   4.383 -0.3740 -0.1589  0.3683
15139SOL    HW148310   5.392   3.836   4.449 -0.8431 -0.7151  0.8375
15139SOL    HW248311   5.332   3.774   4.325  1.3633  2.3093 -1.9276
15140SOL     OW48312   4.199   0.664   7.209 -0.0843  0.3915  0.6424
15140SOL    HW148313   4.161   0.697   7.290 -2.5533  0.4351 -0.4641
15140SOL    HW248314   4.217   0.742   7.157  0.8458  0.3268  0.8506
15141SOL     OW48315   4.903   0.628   5.875  0.7032 -0.8064  0.3324
15141SOL    HW148316   4.992   0.657   5.856  0.1241  0.5598 -0.4268
15141SOL    HW248317   4.848   0.703   5.856 -0.8588 -2.2927 -1.4578
15142SOL     OW48318   4.248   1.929   5.374  0.0854 -0.2300  0.2185
15142SOL    HW148319   4.224   1.917   5.282  1.5919  0.1043 -0.2484
15142SOL    HW248320   4.177   1.981   5.411 -1.3099 -1.6561 -0.3450
15143SOL     OW48321   0.224   7.514   2.547 -0.3286 -0.2843 -0.4742
15143SOL    HW148322   0.290   7.552   2.489  0.0715  0.1902  0.2725
15143SOL    HW248323   0.270   7.501   2.630 -1.2153  0.2451  0.1195
15144SOL     OW48324   5.035   2.393   6.794  0.0910 -0.1590  0.2455
15144SOL    HW148325   5.001   2.458   6.855 -1.3411 -1.1219  0.5253
15144SOL    HW248326   4.971   2.321   6.796 -0.1577 -0.1446 -2.5355
15145SOL     OW48327   5.581   4.734   5.065 -0.1371  0.3546  0.6271
15145SOL    HW148328   5.583   4.643   5.093  0.4411  0.4331  0.8670
15145SOL    HW248329   5.670   4.766   5.082  0.4178  0.2768 -1.7599
15146SOL     OW48330   2.500   0.628   2.933 -0.5223  0.0505 -0.4366
15146SOL    HW148331   2.519   0.722   2.940 -2.2500  0.3755  0.4310
15146SOL    HW248332   2.584   0.585   2.949  0.2948  1.4336 -0.8399
15147SOL     OW48333   0.039   4.031   4.196  0.3831  0.5006 -0.1408
15147SOL    HW148334  -0.050   4.008   4.167  0.8221 -0.2219 -0.9862
15147SOL    HW248335   0.085   3.947   4.199  1.0073  0.8578  0.4182
15148SOL     OW48336   0.179   5.442   2.475 -0.8106  0.8389  0.3114
15148SOL    HW148337   0.258   5.440   2.421 -0.9143 -1.0858  0.1466
15148SOL    HW248338   0.205   5.484   2.556  0.2335  0.7612  0.0215
15149SOL     OW48339   7.142  10.197   9.352  0.0905  0.2623  0.5062
15149SOL    HW148340   7.177  10.266   9.295  0.0705 -0.0100  0.1587
15149SOL    HW248341   7.213  10.178   9.413  0.2852  0.2335  0.2748
15150SOL     OW48342   0.599   7.321   9.071 -0.2411 -0.1748 -0.2706
15150SOL    HW148343   0.657   7.303   9.145  0.1617 -2.0133 -0.9662
15150SOL    HW248344   0.512   7.296   9.103 -0.5087  1.4498  0.3769
15151SOL     OW48345   9.326   4.109   0.861  0.2510  0.3201  0.3973
15151SOL    HW148346   9.303   4.099   0.954 -3.4133  0.5833 -0.3628
15151SOL    HW248347   9.307   4.025   0.822  3.0891 -0.2285 -0.0018
15152SOL     OW48348   1.033  10.126   8.136  0.1069  0.0286 -0.2133
15152SOL    HW148349   1.065  10.206   8.177  1.9337 -0.2801 -0.9329
15152SOL    HW248350   1.022  10.149   8.043  1.6033 -0.7759 -0.6186
15153SOL     OW48351   7.422   9.930   6.176 -0.2911  0.2432 -0.2499
15153SOL    HW148352   7.406  10.024   6.180 -1.2573  0.0417  1.2304
15153SOL    HW248353   7.338   9.891   6.154 -0.0325 -0.3238 -0.2685
15154SOL     OW48354   0.258  10.753   3.717  0.5099  0.2790 -0.5633
15154SOL    HW148355   0.288  10.662   3.718 -1.5598 -0.5407  2.0527
15154SOL    HW248356   0.162  10.746   3.715  0.2485  2.3043  1.1583
15155SOL     OW48357   2.620   0.216   6.404 -0.1641 -0.3864 -0.1502
15155SOL    HW148358   2.646   0.142   6.459 -3.3088 -2.8922 -1.7004
15155SOL    HW248359   2.671   0.206   6.324 -0.5738 -0.8777 -0.3512
15156SOL     OW48360  10.390   0.293   2.992 -0.2415 -0.5436  0.5962
15156SOL    HW148361  10.331   0.302   2.917  0.5363 -1.5966 -0.1819
15156SOL    HW248362  10.444   0.217   2.970  2.7379  1.4749  0.3364
15157SOL     OW48363   8.583   5.050   6.158  0.2379 -0.2557  0.7332
15157SOL    HW148364   8.675   5.024   6.166  0.4388 -0.8794 -2.3821
15157SOL    HW248365   8.586   5.144   6.141  0.2666 -0.2046  1.0175
15158SOL     OW48366   8.101   8.081   5.852 -0.7531 -0.8672  0.4339
15158SOL    HW148367   8.190   8.110   5.832 -1.2322  1.4476  1.3079
15158SOL    HW248368   8.112   8.017   5.922  0.2621 -1.4698 -0.2419
15159SOL     OW48369   9.368   0.117   7.698  0.1583 -0.2879 -0.0209
15159SOL    HW148370   9.441   0.106   7.638  1.7993 -1.7619  2.1246
15159SOL    HW248371   9.403   0.168   7.771 -1.2245 -0.2546  0.6682
15160SOL     OW48372   2.358   9.249   2.333 -0.3531  0.1627  0.0373
15160SOL    HW148373   2.332   9.305   2.407 -2.8067 -2.1904  1.1487
15160SOL    HW248374   2.343   9.160   2.365 -0.7531 -0.9820 -3.0431
15161SOL     OW48375   5.824   3.406  10.720  0.0556  0.0654  0.4696
15161SOL    HW148376   5.783   3.333  10.767 -0.3078 -0.7949 -1.1045
15161SOL    HW248377   5.751   3.450  10.676  0.5543 -0.1307 -0.5799
15162SOL     OW48378   1.199   4.567   2.199 -0.4344 -0.2052  0.0004
15162SOL    HW148379   1.175   4.527   2.115 -1.0750  1.8931 -0.8831
15162SOL    HW248380   1.236   4.652   2.175  0.5212 -0.0749  1.8106
15163SOL     OW48381   4.324   6.332   7.619  0.0008  0.3038  0.8415
15163SOL    HW148382   4.299   6.290   7.701  2.5374 -0.2737  1.4059
15163SOL    HW248383   4.399   6.282   7.588  0.0238  1.4123 -1.1071
15164SOL     OW48384   0.635   1.699   3.858 -0.1619 -0.4221  0.3084
15164SOL    HW148385   0.685   1.628   3.897  0.7519  0.7783  1.3816
15164SOL    HW248386   0.543   1.671   3.867  0.0180 -0.4149  2.9674
15165SOL     OW48387   8.789   2.083   2.392 -0.4629 -0.1221 -0.0054
15165SOL    HW148388   8.796   2.018   2.322  1.3255  0.9891 -0.9369
15165SOL    HW248389   8.874   2.079   2.437 -0.5365  1.1340  0.2954
15166SOL     OW48390   0.265   7.424   0.101  0.3766 -0.4434  0.3243
15166SOL    HW148391   0.216   7.378   0.034  0.4410 -1.2708  0.8205
15166SOL    HW248392   0.357   7.409   0.078  0.4307 -2.1043  1.4486
15167SOL     OW48393   9.155  10.083   9.643 -0.1535  0.1982  0.4379
15167SOL    HW148394   9.070  10.114   9.611 -0.2547 -0.1707  0.3461
15167SOL    HW248395   9.141   9.990   9.664 -0.3059  0.6097  2.3106
15168SOL     OW48396   0.996   6.300   6.321  0.2122  0.2570 -0.4084
15168SOL    HW148397   1.000   6.330   6.412 -0.5382 -0.3925 -0.1509
15168SOL    HW248398   1.088   6.297   6.292  0.5518 -0.7066  0.7170
15169SOL     OW48399  10.449  10.150   1.704  0.1603 -0.0827 -0.2707
15169SOL    HW148400  10.402  10.189   1.630  0.2809 -0.3526 -0.4940
15169SOL    HW248401  10.507  10.220   1.735 -0.1621  0.1503 -0.1909
15170SOL     OW48402  10.519   7.793   8.193  0.0473  0.5158 -0.4635
15170SOL    HW148403  10.603   7.839   8.189  0.5449 -0.0384  1.7830
15170SOL    HW248404  10.473   7.818   8.113  1.5624  2.3773 -0.8169
15171SOL     OW48405   7.862   2.590   4.142 -0.4524  0.5425  0.4232
15171SOL    HW148406   7.955   2.594   4.117 -0.5208  0.2861  0.1191
15171SOL    HW248407   7.854   2.652   4.214 -0.2528  1.2821 -0.1829
15172SOL     OW48408   5.617  10.540   9.081 -0.6080 -0.3327  0.8336
15172SOL    HW148409   5.597  10.550   8.988 -3.1553 -1.9888  1.0975
15172SOL    HW248410   5.605  10.446   9.098 -1.3402  0.0960  3.0282
15173SOL     OW48411  10.317  10.033   6.516 -0.1266 -0.0058  0.1836
15173SOL    HW148412  10.380  10.012   6.447 -2.8206 -0.4668 -2.3311
15173SOL    HW248413  10.304   9.950   6.563  0.2353 -0.2183 -0.0878
15174SOL     OW48414   7.233   7.168   2.116 -0.2034  0.9833 -0.3272
15174SOL    HW148415   7.203   7.208   2.034  0.0538 -1.0503 -1.4710
15174SOL    HW248416   7.174   7.094   2.130 -0.0229  1.0886  1.1646
15175SOL     OW48417   9.414   9.192   9.833 -0.3093  0.0487 -0.6526
15175SOL    HW148418   9.437   9.204   9.741  3.1336  2.9042  0.3833
15175SOL    HW248419   9.463   9.114   9.859 -0.5355 -0.2068 -0.9698
15176SOL     OW48420   9.755   8.793   5.651  0.2261 -0.2435  0.1535
15176SOL    HW148421   9.733   8.836   5.734  0.9219 -1.0545  0.7716
15176SOL    HW248422   9.774   8.703   5.675 -1.8645 -1.1198 -1.2193
15177SOL     OW48423   8.633   4.398   4.602 -0.0488  0.9610 -0.6683
15177SOL    HW148424   8.557   4.414   4.656  0.1440  0.4596 -0.2381
15177SOL    HW248425   8.693   4.348   4.658  0.4304  1.0067 -1.1242
15178SOL     OW48426   5.144   4.840   4.260 -0.5537 -0.1570  0.7781
15178SOL    HW148427   5.103   4.846   4.174  1.3470 -0.1013 -0.1545
15178SOL    HW248428   5.139   4.747   4.282  1.7494 -0.7578 -0.8809
15179SOL     OW48429   9.179   2.201   6.118 -0.2685  0.1164  0.0448
15179SOL    HW148430   9.250   2.158   6.165 -0.0830  0.5215  0.1384
15179SOL    HW248431   9.133   2.130   6.073 -0.1252 -0.2073  0.4100
15180SOL     OW48432   1.245   5.644   6.270 -0.2433  0.3288  0.0165
15180SOL    HW148433   1.151   5.660   6.264 -0.3105 -0.5754 -2.1136
15180SOL    HW248434   1.285   5.731   6.264 -0.8964  0.5559 -1.8010
15181SOL     OW48435   4.918  10.251   2.176 -0.3097  0.3061 -0.5502
15181SOL    HW148436   4.999  10.239   2.224  0.9640 -1.4947 -2.9188
15181SOL    HW248437   4.942  10.306   2.101 -1.0420 -0.8329 -1.6689
15182SOL     OW48438   0.476   8.356   4.950  0.9628  0.1539 -0.4714
15182SOL    HW148439   0.410   8.343   4.883  2.0885 -1.7609 -1.3145
15182SOL    HW248440   0.486   8.451   4.956 -0.6924  0.4340 -1.4432
15183SOL     OW48441   2.598   3.224   4.480 -0.1090 -0.0012  0.2424
15183SOL    HW148442   2.599   3.172   4.560 -3.9037  0.2645  0.6706
15183SOL    HW248443   2.592   3.314   4.510  0.9387  0.3000 -0.4121
15184SOL     OW48444   3.692   0.837   3.141 -0.1802 -0.1670 -0.0596
15184SOL    HW148445   3.623   0.774   3.125  0.3604 -0.6468 -0.5444
15184SOL    HW248446   3.686   0.856   3.235  1.2403 -2.8622  0.6719
15185SOL     OW48447   1.252   4.611   9.930 -0.2712 -0.0891 -0.6539
15185SOL    HW148448   1.257   4.678   9.998  0.7880 -0.1634 -0.6393
15185SOL    HW248449   1.165   4.620   9.893 -1.1067 -0.4603  1.1277
15186SOL     OW48450   8.138   3.523   9.807 -0.1969 -0.1061  0.5113
15186SOL    HW148451   8.059   3.469   9.812 -1.0174  0.9802 -0.2861
15186SOL    HW248452   8.167   3.532   9.898 -0.2664 -1.5258  0.6998
15187SOL     OW48453   6.916   1.725   4.680  0.0891 -0.8020  0.2101
15187SOL    HW148454   6.936   1.646   4.729 -0.6335 -1.3010 -0.2660
15187SOL    HW248455   6.933   1.797   4.741  1.6819 -1.2548  0.3389
15188SOL     OW48456   3.738   0.266  10.751  0.1550 -0.1887  0.4125
15188SOL    HW148457   3.713   0.174  10.762 -0.6715 -0.0576 -0.2003
15188SOL    HW248458   3.791   0.267  10.671 -1.8827  0.1651 -1.0326
15189SOL     OW48459   5.558   0.403   1.048 -0.1015 -0.4642  0.1028
15189SOL    HW148460   5.590   0.432   1.133 -1.0687 -1.0870  0.6854
15189SOL    HW248461   5.631   0.422   0.988  0.8485 -0.6425  1.1716
15190SOL     OW48462   1.891   0.127   3.736 -0.3159 -0.2488  0.2095
15190SOL    HW148463   1.984   0.147   3.724 -0.8423  1.3489 -1.9254
15190SOL    HW248464   1.869   0.070   3.661 -1.2263  0.0844  0.2115
15191SOL     OW48465   5.561   4.364   7.385 -0.0048  0.3280  0.1459
15191SOL    HW148466   5.646   4.395   7.418  0.1346 -0.2438  0.3431
15191SOL    HW248467   5.536   4.294   7.446 -0.9888  1.0097  0.5394
15192SOL     OW48468   2.244   0.269   9.968  0.2245  0.5755  0.6453
15192SOL    HW148469   2.234   0.182   9.931 -2.5627  1.1573 -0.1590
15192SOL    HW248470   2.217   0.328   9.898  0.3453  2.0136  1.7681
15193SOL     OW48471   8.611   2.467   6.491  0.1045  0.0561 -0.3214
15193SOL    HW148472   8.519   2.491   6.484  0.0963 -0.3995 -2.0225
15193SOL    HW248473   8.650   2.496   6.409  1.9520  2.1238  1.1690
15194SOL     OW48474   1.592   4.856   9.266  0.1138  0.0156  0.3856
15194SOL    HW148475   1.589   4.862   9.361 -1.5642  0.1900  0.3629
15194SOL    HW248476   1.513   4.807   9.243  0.9081 -0.7416 -0.8825
15195SOL     OW48477   9.642   5.964   2.420 -0.0510  0.5584 -0.1846
15195SOL    HW148478   9.732   5.994   2.429  0.3919 -0.4029 -1.1586
15195SOL    HW248479   9.620   5.927   2.506  0.2926  1.2649  0.2145
15196SOL     OW48480   3.779   3.878   7.477 -0.3244  0.2098 -0.1416
15196SOL    HW148481   3.749   3.800   7.430  1.9594  0.6048 -2.4692
15196SOL    HW248482   3.812   3.844   7.561 -1.3375 -0.9899 -0.1974
15197SOL     OW48483   0.499   4.288   8.861 -0.4909 -0.4293  0.2445
15197SOL    HW148484   0.457   4.255   8.941 -1.0285  0.4548  0.3397
15197SOL    HW248485   0.572   4.341   8.893 -0.2623 -0.6684  0.1217
15198SOL     OW48486   0.097   0.770   8.837 -0.0804  0.5591 -0.3598
15198SOL    HW148487   0.061   0.753   8.924 -0.7281 -1.5097 -0.9551
15198SOL    HW248488   0.161   0.700   8.824 -0.7486  0.1887 -1.9086
15199SOL     OW48489   4.545   2.436   0.190  0.1787 -0.0402 -0.2007
15199SOL    HW148490   4.526   2.436   0.284 -1.3784  1.0127 -0.4834
15199SOL    HW248491   4.462   2.416   0.148  1.0291 -1.3229 -1.3680
15200SOL     OW48492   0.859  10.236   0.156 -0.7809 -0.2872 -0.1550
15200SOL    HW148493   0.931  10.297   0.143 -0.7394 -0.3604 -0.2702
15200SOL    HW248494   0.804  10.277   0.223  1.2017 -1.8446  2.6326
15201SOL     OW48495   8.317   1.208   8.142  0.2768  0.7771  0.4876
15201SOL    HW148496   8.326   1.269   8.069 -0.7353  0.3729  0.0090
15201SOL    HW248497   8.225   1.215   8.168 -0.4248 -1.9878 -0.9043
15202SOL     OW48498   6.652  10.699   7.428 -0.3042 -0.4235  0.6422
15202SOL    HW148499   6.687  10.786   7.449  1.4452 -0.8233 -0.4426
15202SOL    HW248500   6.726  10.652   7.390 -2.0230 -1.3236 -1.7940
15203SOL     OW48501   7.807   9.701   9.509  0.2291 -0.4653 -0.1692
15203SOL    HW148502   7.810   9.755   9.588  0.2244 -1.4534  0.5361
15203SOL    HW248503   7.787   9.613   9.542 -2.1167 -0.5039 -1.4840
15204SOL     OW48504  10.522   2.271   6.511  0.0758 -0.1713 -0.0976
15204SOL    HW148505  10.587   2.339   6.492 -0.4968  0.6967  0.9156
15204SOL    HW248506  10.447   2.320   6.545 -0.3088 -1.3345  0.7533
15205SOL     OW48507   3.025   5.448   1.075 -0.3243 -0.2103  0.0911
15205SOL    HW148508   3.012   5.523   1.134 -0.8811 -0.2619  0.0396
15205SOL    HW248509   3.098   5.475   1.019 -0.2786  0.1438  0.3102
15206SOL     OW48510   9.515   7.321   0.549  0.1278 -0.1420 -0.0072
15206SOL    HW148511   9.468   7.373   0.614  0.3176  1.9766 -1.4612
15206SOL    HW248512   9.447   7.271   0.504 -0.5188  1.2302 -0.6279
15207SOL     OW48513   9.772   5.094   9.641  0.4406  0.0026 -0.5840
15207SOL    HW148514   9.707   5.161   9.663  0.4134 -0.3162  0.3387
15207SOL    HW248515   9.758   5.025   9.706  0.6305 -0.7912 -1.3699
15208SOL     OW48516  10.086   1.082  10.448  0.2161 -0.8032  0.0535
15208SOL    HW148517  10.125   1.169  10.456  2.5415 -1.8618  1.1410
15208SOL    HW248518  10.140   1.038  10.381 -1.4680 -1.1573 -1.1245
15209SOL     OW48519   9.834   0.595   3.797  0.0109 -0.5669 -0.8018
15209SOL    HW148520   9.766   0.575   3.732 -0.3157  0.8512 -0.9254
15209SOL    HW248521   9.892   0.656   3.752 -0.3516  0.6342  0.3084
15210SOL     OW48522   7.662   5.804   4.658 -0.0070 -0.4489  0.2582
15210SOL    HW148523   7.669   5.733   4.721  1.0392  0.1624  0.8639
15210SOL    HW248524   7.696   5.881   4.704 -0.0674  0.2075 -0.7461
15211SOL     OW48525  10.241   9.370   5.814  0.2127  0.0311 -0.1077
15211SOL    HW148526  10.173   9.436   5.809  0.1293 -0.1493 -1.9058
15211SOL    HW248527  10.305   9.395   5.748  1.6107 -0.1473  1.1202
15212SOL     OW48528   4.413   6.566   1.307  0.3541 -0.0354  0.0318
15212SOL    HW148529   4.424   6.519   1.224 -0.9315  0.4697 -0.4520
15212SOL    HW248530   4.407   6.658   1.281  2.5367  0.4132  0.9373
15213SOL     OW48531   9.039   5.651   7.673 -0.1181 -0.4816  0.2782
15213SOL    HW148532   9.038   5.555   7.667 -0.3860 -0.4855  0.3877
15213SOL    HW248533   9.005   5.670   7.760  1.4804 -0.3379  0.8978
15214SOL     OW48534   0.780   9.193   1.712 -0.0592  0.0130  0.5202
15214SOL    HW148535   0.846   9.149   1.660  0.8317  1.9561 -0.0602
15214SOL    HW248536   0.703   9.198   1.655  0.2035  0.2074  0.1847
15215SOL     OW48537   1.823   0.835   2.629  0.2224  0.2881 -0.0944
15215SOL    HW148538   1.754   0.825   2.563  0.1572  1.1681 -0.1756
15215SOL    HW248539   1.841   0.746   2.659 -0.4298 -0.0239 -0.6050
15216SOL     OW48540   5.565   9.354   2.340 -0.1669 -0.0060 -0.0066
15216SOL    HW148541   5.644   9.320   2.382 -1.1040 -0.3265  1.5588
15216SOL    HW248542   5.546   9.291   2.270  0.7801 -0.0784 -0.2180
15217SOL     OW48543   6.007   2.832   1.721  0.3222 -0.5275 -0.0082
15217SOL    HW148544   5.975   2.859   1.808  0.5361  1.4763 -0.5064
15217SOL    HW248545   6.100   2.813   1.735  0.4682  0.2455  0.1273
15218SOL     OW48546   5.792   0.711   0.556  0.8327 -0.9134  0.5693
15218SOL    HW148547   5.704   0.697   0.593 -0.2666 -0.0114 -1.5386
15218SOL    HW248548   5.807   0.805   0.564  2.3697 -1.2450  2.3715
15219SOL     OW48549   7.346  10.705   5.505 -0.4062 -0.1978 -0.4035
15219SOL    HW148550   7.367  10.612   5.512 -0.8712 -0.4377 -1.9073
15219SOL    HW248551   7.251  10.708   5.495 -0.5320  0.5363  0.8285
15220SOL     OW48552   3.004   3.253   3.715 -0.3534 -0.5453  0.1084
15220SOL    HW148553   3.092   3.214   3.713  0.4244  1.1330  0.0106
15220SOL    HW248554   2.997   3.301   3.632 -0.9045  0.2735  0.6094
15221SOL     OW48555   2.505   4.719   6.298 -0.1447 -0.4204  0.2456
15221SOL    HW148556   2.584   4.769   6.319 -0.0125 -0.8317  0.7633
15221SOL    HW248557   2.503   4.650   6.364 -0.9954 -0.3534  0.2938
15222SOL     OW48558  10.029   5.251   5.144  0.7913 -0.5618 -0.2362
15222SOL    HW148559   9.970   5.190   5.188  0.5926 -0.5326 -0.4577
15222SOL    HW248560  10.071   5.300   5.214 -0.3149  0.2272 -0.1048
15223SOL     OW48561   0.170   4.951   4.397 -0.3574 -0.1734 -0.2251
15223SOL    HW148562   0.249   4.997   4.365 -0.2069  0.5253  1.0883
15223SOL    HW248563   0.191   4.858   4.388  0.3848  0.0086 -0.4393
15224SOL     OW48564   3.770   1.602   0.210 -0.1912 -0.0685 -0.0755
15224SOL    HW148565   3.736   1.545   0.280 -0.1295 -2.6786 -2.0070
15224SOL    HW248566   3.693   1.641   0.171 -0.2155  1.5866  1.4987
15225SOL     OW48567   9.189   2.872   0.967  0.1610  0.0996 -0.4898
15225SOL    HW148568   9.221   2.904   1.051 -3.9463  1.5133  0.7593
15225SOL    HW248569   9.214   2.780   0.965 -0.6319 -0.3246  2.9502
15226SOL     OW48570   0.373   3.819   2.075 -0.5890 -0.3486 -0.1347
15226SOL    HW148571   0.281   3.847   2.072 -0.2810  0.6266 -0.6952
15226SOL    HW248572   0.384   3.766   1.996 -0.6479 -0.3985 -0.1098
15227SOL     OW48573   2.269   6.249   0.645  0.3843  0.5587  0.8596
15227SOL    HW148574   2.362   6.271   0.637  0.8021 -0.9755  1.1901
15227SOL    HW248575   2.264   6.157   0.619 -1.3191  1.0467 -0.7443
15228SOL     OW48576   7.091   0.034   2.971 -0.3577  0.7839 -0.0566
15228SOL    HW148577   7.055  -0.040   3.019  0.4222  0.4548  0.0201
15228SOL    HW248578   7.066   0.111   3.023 -0.9232  0.5656  0.0071
15229SOL     OW48579   5.732   4.274   7.750  0.3179  0.0798  0.0816
15229SOL    HW148580   5.789   4.199   7.740  0.5096 -0.0655  1.8438
15229SOL    HW248581   5.786   4.349   7.725  0.1819 -0.3267 -1.5009
15230SOL     OW48582   9.886   9.372   3.484 -0.1400 -0.2089 -0.4666
15230SOL    HW148583   9.862   9.300   3.426 -1.0548 -1.1243  0.9615
15230SOL    HW248584   9.923   9.329   3.561 -0.3019  0.8770  0.2445
15231SOL     OW48585   4.496   6.395   7.248 -0.4215 -0.5703  0.2019
15231SOL    HW148586   4.574   6.411   7.301 -0.0935 -0.7035 -0.2431
15231SOL    HW248587   4.522   6.415   7.159 -0.4767 -1.9867 -0.1606
15232SOL     OW48588   1.059   6.951   8.771  0.0282  0.3939  0.2892
15232SOL    HW148589   1.152   6.954   8.794 -0.2193 -0.6091  1.5060
15232SOL    HW248590   1.052   7.006   8.693  1.7571 -0.0648 -0.2303
15233SOL     OW48591   0.071   7.457   6.132  1.1685 -0.2254 -0.1222
15233SOL    HW148592   0.008   7.497   6.071  0.0282  0.0643  1.2135
15233SOL    HW248593   0.152   7.505   6.116  0.5562  0.7103 -0.5361
15234SOL     OW48594   6.742  10.417   4.334  0.1588  0.0600 -0.5753
15234SOL    HW148595   6.730  10.505   4.371  0.3787 -1.2969  3.1780
15234SOL    HW248596   6.694  10.419   4.251 -3.9170  2.3916  1.5094
15235SOL     OW48597   3.591   8.104   1.831 -0.2474  0.3761 -0.6026
15235SOL    HW148598   3.540   8.138   1.904 -1.5267  1.1652 -1.8072
15235SOL    HW248599   3.547   8.023   1.806 -1.4160  1.4051 -2.0822
15236SOL     OW48600   2.017   1.391   3.807 -0.2499 -0.2162 -0.7824
15236SOL    HW148601   1.926   1.378   3.833 -0.4829  2.1888 -0.1705
15236SOL    HW248602   2.013   1.396   3.711 -0.5767 -1.1267 -0.8317
15237SOL     OW48603   7.604   7.211   9.510  0.1078 -0.7208 -0.4376
15237SOL    HW148604   7.662   7.176   9.578 -0.6304 -1.6737 -0.2815
15237SOL    HW248605   7.540   7.263   9.557 -0.6845 -1.7588 -0.3236
15238SOL     OW48606   1.185   5.852  10.274 -0.2485 -0.2201 -0.7658
15238SOL    HW148607   1.228   5.816  10.196  0.0745 -2.7329  0.4838
15238SOL    HW248608   1.255   5.900  10.319  0.0170 -0.2335 -1.1543
15239SOL     OW48609  10.514   2.833   0.659  0.4281 -0.7144  0.3246
15239SOL    HW148610  10.422   2.860   0.664  0.4772 -0.3053 -0.8287
15239SOL    HW248611  10.512   2.752   0.608  1.0042  1.1408 -2.9172
15240SOL     OW48612   1.383   9.938  10.176 -0.0195  0.2516 -0.7840
15240SOL    HW148613   1.468   9.949  10.134  0.4181  0.4162  0.1213
15240SOL    HW248614   1.393   9.860  10.231 -0.8727 -0.5130 -1.6755
15241SOL     OW48615   9.425   4.712   1.483  0.3535 -0.1179 -0.5021
15241SOL    HW148616   9.451   4.658   1.558 -0.3074 -0.9890 -0.8831
15241SOL    HW248617   9.330   4.720   1.491  0.4214  0.9133 -0.5245
15242SOL     OW48618   1.540   6.403   4.876  0.7060 -0.4178  0.1376
15242SOL    HW148619   1.554   6.495   4.899 -0.7969 -0.0642 -0.2590
15242SOL    HW248620   1.459   6.379   4.921 -0.7833 -0.5261 -2.4289
15243SOL     OW48621   5.352   2.772   1.866  0.1831  0.3633 -0.3218
15243SOL    HW148622   5.370   2.751   1.958 -0.3893 -0.9778 -0.4991
15243SOL    HW248623   5.401   2.707   1.816 -0.3687  0.4199 -0.9463
15244SOL     OW48624   4.544   1.518   0.729 -0.1365  0.0088  0.2006
15244SOL    HW148625   4.477   1.576   0.764 -0.5331 -0.1039 -0.3537
15244SOL    HW248626   4.533   1.437   0.779 -0.9302 -0.2697 -0.4013
15245SOL     OW48627   0.238   6.500   6.616  0.1557  0.1323  0.3903
15245SOL    HW148628   0.329   6.526   6.630  0.1120  0.3542  0.2538
15245SOL    HW248629   0.216   6.532   6.529  0.0602 -0.2427  0.2738
15246SOL     OW48630   0.068   9.885   2.626  0.1590 -0.3169 -0.4667
15246SOL    HW148631   0.082   9.818   2.559  0.6406 -2.3101  1.4862
15246SOL    HW248632   0.052   9.835   2.706  1.1845  1.9184  1.2352
15247SOL     OW48633   9.440   1.486   1.791  0.0535 -0.2558 -0.2651
15247SOL    HW148634   9.358   1.514   1.749 -0.3859 -0.4967  0.4310
15247SOL    HW248635   9.488   1.568   1.804 -1.7795  0.4536  2.9468
15248SOL     OW48636   1.152  10.160   7.129  0.0111  0.2500 -0.0926
15248SOL    HW148637   1.162  10.088   7.066  1.0801  0.5047 -0.2210
15248SOL    HW248638   1.240  10.178   7.159 -0.5911 -0.9294  2.7241
15249SOL     OW48639   5.272   2.144   1.909 -0.2281 -0.0954 -0.4167
15249SOL    HW148640   5.267   2.116   2.000  0.1024  0.2796 -0.2798
15249SOL    HW248641   5.181   2.149   1.880 -0.3131 -0.8631 -0.3128
15250SOL     OW48642   9.474   8.359   6.143 -0.3254 -0.0275  0.0121
15250SOL    HW148643   9.511   8.437   6.186 -0.5058  0.3529 -0.5102
15250SOL    HW248644   9.487   8.289   6.206  0.2526  0.3326  0.3047
15251SOL     OW48645   6.888   0.591   8.136  0.4578 -0.1732 -0.4296
15251SOL    HW148646   6.944   0.546   8.199 -0.2381  1.7817  1.7382
15251SOL    HW248647   6.799   0.579   8.169  0.2064  2.2317 -0.0556
15252SOL     OW48648   8.904   5.865  10.261 -0.5470  0.4147 -0.3872
15252SOL    HW148649   8.865   5.872  10.348 -0.9862  2.4801 -0.6999
15252SOL    HW248650   8.987   5.913  10.269  0.4236 -1.1601 -0.5903
15253SOL     OW48651   8.708   9.416   5.868 -0.0236  0.0304 -0.2053
15253SOL    HW148652   8.720   9.507   5.840  0.0465  0.2473  0.4922
15253SOL    HW248653   8.657   9.376   5.799  0.7731  0.3451 -0.9987
15254SOL     OW48654   9.979   5.422   3.660 -0.2588 -0.0425 -0.0805
15254SOL    HW148655   9.985   5.490   3.727 -2.0415  1.2147 -1.1388
15254SOL    HW248656  10.033   5.454   3.588  0.1468 -0.5071  0.0076
15255SOL     OW48657   0.293   0.115   0.919 -0.5145  0.6197  0.0297
15255SOL    HW148658   0.263   0.072   1.000 -0.8276  0.8418  0.0368
15255SOL    HW248659   0.289   0.209   0.939  0.7320  0.6396  0.2089
15256SOL     OW48660  10.670   9.153   2.774 -0.0746  0.8840  0.4113
15256SOL    HW148661  10.685   9.188   2.862  3.0536  0.7181  0.0409
15256SOL    HW248662  10.641   9.063   2.790  1.5664  0.4814  1.3050
15257SOL     OW48663  10.334   6.493   8.074 -0.0337 -0.0951  0.4009
15257SOL    HW148664  10.421   6.494   8.034 -0.4796  0.1186 -0.5787
15257SOL    HW248665  10.347   6.533   8.160  0.6488  0.8585 -0.1301
15258SOL     OW48666   8.636   6.934   5.579  0.5536  0.6049 -0.2964
15258SOL    HW148667   8.553   6.967   5.544  0.3176 -1.8816 -2.3814
15258SOL    HW248668   8.630   6.949   5.673 -2.2726  0.5254 -0.3795
15259SOL     OW48669   3.955   2.723   0.343  0.1205  0.3430  0.3137
15259SOL    HW148670   4.036   2.707   0.293 -1.6235 -2.7045 -1.8847
15259SOL    HW248671   3.896   2.764   0.281 -1.3561 -1.4103  0.4675
15260SOL     OW48672   3.007   5.416   8.152  0.4174 -0.1418  0.0461
15260SOL    HW148673   3.044   5.446   8.069  0.4947  0.1066  0.1691
15260SOL    HW248674   2.985   5.324   8.136 -0.6305  0.2069 -0.6094
15261SOL     OW48675   1.368  10.561   1.367 -0.0560 -0.1559  0.0557
15261SOL    HW148676   1.319  10.525   1.441  0.7571 -0.0595  0.6606
15261SOL    HW248677   1.312  10.546   1.291 -1.7779  1.4731  0.9426
15262SOL     OW48678  10.689   0.877   3.816  0.2357 -0.3960  0.6087
15262SOL    HW148679  10.606   0.830   3.823  0.4826 -0.9450 -0.0759
15262SOL    HW248680  10.686   0.917   3.729 -0.1954  1.3048  1.3720
15263SOL     OW48681   0.075   6.757   0.749  0.4175 -0.1800 -0.5575
15263SOL    HW148682   0.074   6.676   0.698  0.6952  0.5299 -1.7234
15263SOL    HW248683   0.046   6.824   0.688  1.8248  0.8855 -0.1011
15264SOL     OW48684   2.663   5.319   9.150  0.3806 -0.4460  0.4556
15264SOL    HW148685   2.572   5.290   9.153  0.2511 -0.1635 -0.3754
15264SOL    HW248686   2.715   5.238   9.147  0.1674 -0.6079  1.0619
15265SOL     OW48687   8.921   3.298   5.278 -0.0004 -0.2144  0.4476
15265SOL    HW148688   8.952   3.232   5.341  0.1927 -0.8463 -0.2907
15265SOL    HW248689   8.833   3.268   5.254  0.5718 -0.9218 -0.8425
15266SOL     OW48690   9.130   6.485   8.325  0.4234 -0.4021  0.5165
15266SOL    HW148691   9.071   6.532   8.383  1.2150  0.8580  0.3374
15266SOL    HW248692   9.112   6.521   8.238  0.8068 -0.6529  0.3280
15267SOL     OW48693   9.473   4.356   3.335  0.1764  0.1702  0.3361
15267SOL    HW148694   9.559   4.397   3.336 -0.6673  2.0272  0.6600
15267SOL    HW248695   9.424   4.401   3.403 -0.6674 -1.7969  1.1130
15268SOL     OW48696   8.193   6.509   5.074 -0.2251  0.2168 -0.8778
15268SOL    HW148697   8.148   6.425   5.078 -0.8956  0.5896 -0.3763
15268SOL    HW248698   8.275   6.494   5.120 -1.4696  0.4961  1.6089
15269SOL     OW48699   8.040   1.347   0.781  0.0861  0.0134  0.9675
15269SOL    HW148700   8.096   1.279   0.820  1.3792 -0.0772 -0.9231
15269SOL    HW248701   7.955   1.304   0.769  0.3239 -0.6521  1.5621
15270SOL     OW48702   5.121   0.761   2.876  0.0807 -0.0797 -0.2899
15270SOL    HW148703   5.213   0.752   2.903 -0.0897 -1.7631 -0.1974
15270SOL    HW248704   5.122   0.835   2.815  1.1043  1.4023  1.3811
15271SOL     OW48705   0.218   4.914   4.105  0.5700  0.1267 -0.1904
15271SOL    HW148706   0.269   4.833   4.099  1.1443  0.5761 -1.8295
15271SOL    HW248707   0.284   4.984   4.108  0.1170  0.7232 -2.3771
15272SOL     OW48708   1.431   5.538   2.278 -0.0791  0.5376  0.0253
15272SOL    HW148709   1.501   5.594   2.246  1.7893 -2.5455 -1.7494
15272SOL    HW248710   1.352   5.572   2.236  1.2738  0.7363 -2.5430
15273SOL     OW48711   8.550   9.947  10.496 -0.1504 -0.6617  0.0413
15273SOL    HW148712   8.610   9.985  10.431  2.7879 -3.3991  0.9152
15273SOL    HW248713   8.475   9.917  10.444  0.4004  0.5234 -1.5223
15274SOL     OW48714   0.040   6.926   1.198 -0.0936 -0.0515 -0.3037
15274SOL    HW148715   0.027   6.841   1.238  0.3575  0.0610  0.0923
15274SOL    HW248716   0.039   6.988   1.271  0.8876  0.1393 -0.4333
15275SOL     OW48717   3.321   3.216   5.428 -0.4608  0.3378  0.4607
15275SOL    HW148718   3.234   3.252   5.411 -1.2371 -1.6385 -0.0299
15275SOL    HW248719   3.337   3.234   5.520 -0.5518  2.3469  0.1330
15276SOL     OW48720   7.578   6.262   9.277 -0.0050 -0.2154 -0.2909
15276SOL    HW148721   7.530   6.276   9.359 -1.8421  0.1774 -1.3789
15276SOL    HW248722   7.565   6.170   9.257 -0.5736 -0.0513 -0.7193
15277SOL     OW48723   7.678   9.248   5.563 -0.2725  0.3866 -0.4361
15277SOL    HW148724   7.621   9.221   5.635 -0.4259  1.1175 -0.2856
15277SOL    HW248725   7.754   9.189   5.570 -0.5257  0.1077 -0.0035
15278SOL     OW48726   1.583   1.759   2.625 -0.3836 -0.1748 -0.0823
15278SOL    HW148727   1.558   1.851   2.627  4.2396  1.3514 -0.4776
15278SOL    HW248728   1.597   1.739   2.533  1.5879 -0.1936  0.1679
15279SOL     OW48729   7.054   8.739   8.789 -0.1191 -0.3145 -0.2700
15279SOL    HW148730   6.986   8.741   8.856 -0.1078  0.8808 -0.2618
15279SOL    HW248731   7.041   8.656   8.743 -1.2962 -0.3061  0.0191
15280SOL     OW48732   5.534   7.549   7.067  0.0753 -0.2199 -1.0737
15280SOL    HW148733   5.611   7.581   7.115 -0.6078 -0.3812  0.1767
15280SOL    HW248734   5.464   7.549   7.132 -0.4377 -2.3064 -1.5509
15281SOL     OW48735   1.722   2.050   4.137 -0.3915  0.4040  0.0656
15281SOL    HW148736   1.639   2.016   4.102 -0.9731 -0.9053  2.5232
15281SOL    HW248737   1.696   2.100   4.214  0.9970  1.5784 -0.1836
15282SOL     OW48738  10.110   8.473   1.233 -0.6849 -0.2841  0.2508
15282SOL    HW148739  10.049   8.531   1.277  0.1064  0.6361  0.1549
15282SOL    HW248740  10.065   8.445   1.153 -0.7366  0.8975 -0.1413
15283SOL     OW48741   9.698  10.778   0.881 -0.7081  1.1429 -0.2813
15283SOL    HW148742   9.656  10.699   0.848  0.4132  0.9923 -1.4380
15283SOL    HW248743   9.790  10.752   0.894 -0.8141  1.5861  1.7017
15284SOL     OW48744   4.758   0.961   2.013  0.2853 -0.1441  0.0262
15284SOL    HW148745   4.815   0.913   1.953 -0.2914 -0.8301  0.0227
15284SOL    HW248746   4.672   0.958   1.972 -0.8159 -3.1597  2.2121
15285SOL     OW48747   2.996   9.951   0.260  0.1100 -0.4319 -0.4181
15285SOL    HW148748   3.020   9.879   0.318 -0.6229  0.6361  1.3234
15285SOL    HW248749   2.913   9.925   0.221  0.4610 -1.0366 -0.7738
15286SOL     OW48750   1.627   8.884   6.153 -0.7477 -0.3687  0.5130
15286SOL    HW148751   1.655   8.892   6.244 -1.5919 -1.5313  0.9023
15286SOL    HW248752   1.566   8.810   6.153  1.1148 -2.0584 -1.4176
15287SOL     OW48753   3.824   2.483   3.461  0.7410  0.8625  0.8190
15287SOL    HW148754   3.914   2.496   3.430  0.3510 -1.4696 -1.6520
15287SOL    HW248755   3.814   2.388   3.465 -1.4987  1.0801  1.4046
15288SOL     OW48756  10.452   9.137   6.400 -0.1981  0.0168  0.5241
15288SOL    HW148757  10.358   9.147   6.381 -0.3902 -0.8398  0.9695
15288SOL    HW248758  10.478   9.221   6.437 -0.8444  0.1777  0.6323
15289SOL     OW48759   3.424   9.942   9.617 -0.3662  0.0076 -0.3248
15289SOL    HW148760   3.450   9.897   9.536 -0.5751 -0.9579  0.1279
15289SOL    HW248761   3.329   9.930   9.621 -0.5142  1.0508 -0.5174
15290SOL     OW48762   6.048   6.637   5.173  0.0798 -0.3417  0.3475
15290SOL    HW148763   6.060   6.658   5.080  2.1563  0.5166  0.7677
15290SOL    HW248764   5.993   6.558   5.172  0.5894 -0.7317 -1.6254
15291SOL     OW48765   3.700   9.187   7.822 -0.3990  0.1584  0.4379
15291SOL    HW148766   3.619   9.140   7.842 -1.2314  1.9364  1.4529
15291SOL    HW248767   3.765   9.118   7.807 -2.0155 -1.3044 -0.1312
15292SOL     OW48768   8.381   8.841   3.877  0.1368 -0.5197  0.3684
15292SOL    HW148769   8.374   8.774   3.945 -0.1349 -0.3786  0.4823
15292SOL    HW248770   8.441   8.804   3.813 -0.1328 -0.9411  0.3526
15293SOL     OW48771   2.374  10.156   5.817  0.4041 -0.2586  0.1026
15293SOL    HW148772   2.397  10.233   5.765  1.7537 -0.9437 -0.3788
15293SOL    HW248773   2.458  10.124   5.852  0.2970 -2.8130 -1.6313
15294SOL     OW48774   2.651  10.610   8.891 -0.5839 -0.2844 -0.0369
15294SOL    HW148775   2.585  10.642   8.953 -0.6077  2.0905 -1.1621
15294SOL    HW248776   2.611  10.621   8.805  0.5722 -0.5806 -0.6377
15295SOL     OW48777   6.663   7.607   1.232  0.4545 -0.3669  0.4657
15295SOL    HW148778   6.616   7.597   1.149 -1.0868  0.4428  1.1964
15295SOL    HW248779   6.681   7.700   1.239  2.0174 -0.6338  0.3150
15296SOL     OW48780   5.816   3.674   8.983  0.0540 -0.3837 -0.5461
15296SOL    HW148781   5.839   3.712   8.898  1.8938  0.0281  0.0924
15296SOL    HW248782   5.789   3.749   9.037 -2.6096 -0.8038 -1.1450
15297SOL     OW48783  10.123  10.045  10.205  0.1986 -0.6919 -0.2217
15297SOL    HW148784  10.082  10.023  10.289 -2.0074 -1.3474 -1.4091
15297SOL    HW248785  10.113  10.140  10.197 -0.6289 -0.7791 -0.2557
15298SOL     OW48786   9.408   2.329   8.967 -0.1774 -0.1949  0.1791
15298SOL    HW148787   9.499   2.302   8.974 -0.5044 -1.1188  1.3023
15298SOL    HW248788   9.369   2.301   9.050 -1.2832  0.9625  0.0776
15299SOL     OW48789   3.595   5.727   0.446 -0.6846  0.3800  0.2764
15299SOL    HW148790   3.563   5.817   0.458  0.7457  0.7322  1.6810
15299SOL    HW248791   3.612   5.721   0.352 -1.9711  1.1556 -0.0375
15300SOL     OW48792   7.711   4.464   7.545 -0.2099  0.3629  0.9578
15300SOL    HW148793   7.777   4.394   7.544 -0.7754 -0.1718  0.7522
15300SOL    HW248794   7.739   4.522   7.616  0.4030  0.0642  0.9682
15301SOL     OW48795   5.674   2.083   9.253  0.1538 -0.1784  0.1098
15301SOL    HW148796   5.734   2.016   9.283  0.4836  0.2287  0.3590
15301SOL    HW248797   5.724   2.134   9.189 -0.5180 -1.0098 -1.1366
15302SOL     OW48798   7.655   0.644   3.694 -0.0433 -0.3307 -0.7156
15302SOL    HW148799   7.584   0.675   3.639  0.6236  1.2242 -0.7610
15302SOL    HW248800   7.733   0.689   3.661  0.6247 -0.4983  0.5433
15303SOL     OW48801   4.183   8.193   0.175 -0.3445 -0.2125  0.0306
15303SOL    HW148802   4.122   8.249   0.223 -0.3705  0.4275 -0.7309
15303SOL    HW248803   4.158   8.104   0.200 -2.8339 -0.0893 -1.6077
15304SOL     OW48804   5.102  10.093   1.871 -0.4266 -0.5905 -0.3629
15304SOL    HW148805   5.010  10.117   1.879  0.0163  0.9498  0.4822
15304SOL    HW248806   5.114  10.080   1.777 -1.8194 -2.2651 -0.3523
15305SOL     OW48807   4.552   9.599   2.764  0.4640 -0.1351 -0.4651
15305SOL    HW148808   4.562   9.573   2.672 -0.5982  0.1755 -0.6920
15305SOL    HW248809   4.488   9.537   2.800 -0.4652  0.8043 -0.4380
15306SOL     OW48810   7.864   4.671   8.345 -0.1058 -0.4746 -0.3663
15306SOL    HW148811   7.770   4.689   8.352 -0.0920 -0.1905 -0.9051
15306SOL    HW248812   7.869   4.594   8.288  0.0661  0.4727 -1.6643
15307SOL     OW48813   0.354   5.638   7.715 -0.3196  0.2595 -0.0852
15307SOL    HW148814   0.331   5.718   7.762  2.6200  0.9287  0.4456
15307SOL    HW248815   0.332   5.655   7.624  2.0557  2.5630 -0.3297
15308SOL     OW48816   0.901   5.918   6.895  0.3517 -0.0334  0.2192
15308SOL    HW148817   0.820   5.869   6.912  0.7666 -0.4697  0.9810
15308SOL    HW248818   0.882   5.969   6.816 -0.7147 -0.0225  0.4681
15309SOL     OW48819   3.278   1.189   8.833 -0.1434  0.5147  0.2008
15309SOL    HW148820   3.289   1.275   8.873 -2.5570  0.5311  1.0028
15309SOL    HW248821   3.258   1.207   8.741 -0.7323  0.8254  0.3885
15310SOL     OW48822   8.810   1.779   9.979  0.4955 -0.2458 -0.2025
15310SOL    HW148823   8.783   1.840   9.911 -1.2281 -1.6824 -0.8782
15310SOL    HW248824   8.857   1.710   9.932  0.7094 -0.4378  0.2844
15311SOL     OW48825   4.659   6.296   6.189 -0.3636  0.1062 -0.2250
15311SOL    HW148826   4.635   6.265   6.102 -1.5850  4.1704 -1.5628
15311SOL    HW248827   4.716   6.372   6.173  0.0893  0.4625  2.5382
15312SOL     OW48828   3.779   6.965  10.094  0.0777  0.0763 -0.6512
15312SOL    HW148829   3.789   7.006  10.181 -1.4302 -0.0028 -0.4242
15312SOL    HW248830   3.867   6.971  10.056  0.8731 -0.2039  1.0150
15313SOL     OW48831   5.722  10.613  10.457  0.6578 -0.9219 -0.6383
15313SOL    HW148832   5.734  10.605  10.551  1.2103 -2.1885 -0.8044
15313SOL    HW248833   5.809  10.630  10.422  0.4677 -0.5281 -0.9335
15314SOL     OW48834   8.789   7.596   9.929 -0.2053  0.4529 -0.6037
15314SOL    HW148835   8.871   7.571   9.887 -0.4355  0.4558 -1.0699
15314SOL    HW248836   8.721   7.555   9.875 -0.5258  0.7794 -0.4545
15315SOL     OW48837   7.968   1.867   8.257  0.3175 -0.3075 -0.1302
15315SOL    HW148838   7.888   1.819   8.236  1.2462 -1.1346 -2.1076
15315SOL    HW248839   7.973   1.935   8.190  0.7937  0.3468  0.5544
15316SOL     OW48840   9.935   9.406   3.144 -0.4345  0.5872  0.1800
15316SOL    HW148841   9.892   9.406   3.058 -1.4057  0.5636  0.6501
15316SOL    HW248842   9.989   9.485   3.144  1.1466 -0.4165 -1.1943
15317SOL     OW48843   4.274   7.807   8.126 -0.6402 -0.2915 -0.3885
15317SOL    HW148844   4.228   7.774   8.203  1.1963  0.5315  1.1266
15317SOL    HW248845   4.235   7.893   8.110 -0.1376  0.1172  0.4843
15318SOL     OW48846   6.346   5.032   5.899  0.1198 -0.5877 -0.2027
15318SOL    HW148847   6.333   4.945   5.937 -0.1619 -0.0139  1.0567
15318SOL    HW248848   6.259   5.057   5.867 -0.7601  0.7747  2.8853
15319SOL     OW48849   8.898  10.507   4.916  0.0441 -0.3630  0.1450
15319SOL    HW148850   8.945  10.544   4.990  0.6215 -1.3391  0.2927
15319SOL    HW248851   8.828  10.455   4.954  0.3808 -0.9189  0.0194
15320SOL     OW48852   9.179   9.011   3.853 -0.2369 -0.0373 -0.0772
15320SOL    HW148853   9.180   9.043   3.943 -1.4846  1.0414 -0.4131
15320SOL    HW248854   9.230   9.076   3.804  0.5969 -0.7190 -0.1335
15321SOL     OW48855   2.241   4.643   8.280  0.1833  0.5407 -0.2725
15321SOL    HW148856   2.326   4.655   8.239  0.3705  1.4128  0.3341
15321SOL    HW248857   2.257   4.585   8.355  0.3193  0.9844  0.0478
15322SOL     OW48858   3.442   2.790   7.616  0.5280  0.1988  1.0718
15322SOL    HW148859   3.494   2.717   7.583 -0.1512  0.2694 -0.2450
15322SOL    HW248860   3.415   2.838   7.537 -3.3605 -1.0964  1.4071
15323SOL     OW48861   5.261   5.745   8.812  0.4863  0.3959 -0.4156
15323SOL    HW148862   5.333   5.683   8.804  0.7485  0.8520 -1.7892
15323SOL    HW248863   5.281   5.795   8.891  3.1612  2.3675 -2.1916
15324SOL     OW48864  10.634   9.985   6.738  0.0926  0.0087 -0.2683
15324SOL    HW148865  10.605  10.076   6.727 -0.0463 -0.0660 -0.5357
15324SOL    HW248866  10.730   9.991   6.739  0.1077  0.4497  2.2773
15325SOL     OW48867   2.413   7.341   7.430  0.4040  0.0202 -0.1469
15325SOL    HW148868   2.374   7.268   7.478 -0.7723  1.4858  1.2688
15325SOL    HW248869   2.358   7.351   7.353 -0.4244  0.3528  0.4626
15326SOL     OW48870  10.085   1.639   9.637 -0.4581 -0.1192 -0.3465
15326SOL    HW148871  10.077   1.578   9.564 -0.4706  1.3397 -1.6296
15326SOL    HW248872  10.025   1.710   9.615 -2.6529 -0.8902  2.5034
15327SOL     OW48873   1.864   4.661   0.700 -0.0365  0.4865  0.3439
15327SOL    HW148874   1.891   4.704   0.618  0.3216 -0.7025 -0.1876
15327SOL    HW248875   1.772   4.641   0.687 -0.2813  1.3243  0.7106
15328SOL     OW48876   8.934   1.544   5.625  0.0143  0.5360 -0.2350
15328SOL    HW148877   8.945   1.481   5.554  1.6166 -0.6427  0.9538
15328SOL    HW248878   8.982   1.621   5.596 -0.3756  0.5298 -0.9234
15329SOL     OW48879   1.234   1.982   4.449  0.0210 -0.3108  0.3638
15329SOL    HW148880   1.158   1.937   4.412 -0.0682  0.3410 -0.2801
15329SOL    HW248881   1.219   2.074   4.427  1.9191 -0.3816 -1.4785
15330SOL     OW48882   3.781   4.251   3.972 -0.1403  0.4096 -0.1960
15330SOL    HW148883   3.874   4.259   3.951 -0.1706  1.4850  0.0142
15330SOL    HW248884   3.778   4.240   4.067 -0.1364 -1.8475 -0.4150
15331SOL     OW48885   4.600   8.123   1.809 -0.3483  0.2814 -0.1591
15331SOL    HW148886   4.648   8.125   1.725 -0.3606  0.4244 -0.1625
15331SOL    HW248887   4.519   8.077   1.789  1.5861 -4.0675  0.7706
15332SOL     OW48888   2.890   2.362   5.828 -0.0270  0.3073 -0.3401
15332SOL    HW148889   2.871   2.443   5.876 -4.2934 -1.2026  1.0069
15332SOL    HW248890   2.914   2.299   5.896 -0.4518 -0.4530 -0.8737
15333SOL     OW48891   5.193   0.285   4.035  0.3895  0.2715 -0.3106
15333SOL    HW148892   5.183   0.230   3.958 -2.4037  2.1771 -1.4804
15333SOL    HW248893   5.251   0.355   4.008 -0.3215  0.7558 -0.6157
15334SOL     OW48894   9.611   8.738   5.021 -0.0711  0.0140  0.0499
15334SOL    HW148895   9.631   8.745   5.115 -0.0264 -3.2555  0.3937
15334SOL    HW248896   9.515   8.744   5.018 -0.0105  1.3610  0.1081
15335SOL     OW48897   3.385   4.643   6.053  0.1766  0.5709  0.1543
15335SOL    HW148898   3.440   4.684   5.986 -2.5243  0.4198 -2.3768
15335SOL    HW248899   3.386   4.550   6.031 -0.9477  0.5503  0.1189
15336SOL     OW48900   4.167   7.085   1.933  0.3612  0.4525 -0.4421
15336SOL    HW148901   4.220   7.163   1.948  2.1727 -0.8691  0.4304
15336SOL    HW248902   4.222   7.012   1.963 -1.5421 -1.1110 -0.5396
15337SOL     OW48903   2.453   3.935   8.005 -0.2388  0.2321 -0.0608
15337SOL    HW148904   2.491   3.849   8.020 -0.9314  0.0500  0.7066
15337SOL    HW248905   2.363   3.929   8.039 -1.4297  0.2675 -2.9214
15338SOL     OW48906   1.023   6.819   0.250 -0.1203 -0.3915  0.5196
15338SOL    HW148907   0.979   6.785   0.172  1.9900 -0.7156 -0.5948
15338SOL    HW248908   0.994   6.910   0.257  0.1797 -0.1569 -1.0541
15339SOL     OW48909   3.497   0.789   4.625  0.3961  0.2119  0.2461
15339SOL    HW148910   3.567   0.728   4.602  0.5511  0.9180 -1.2948
15339SOL    HW248911   3.446   0.798   4.544  0.0473  1.6911  0.5989
15340SOL     OW48912   6.484   0.508   3.597 -0.1665 -0.3222  0.2833
15340SOL    HW148913   6.406   0.453   3.601  0.8100 -1.9152 -1.2167
15340SOL    HW248914   6.529   0.480   3.517  1.0051  1.8600  0.0920
15341SOL     OW48915   1.276   9.028  10.419  0.3100 -0.3345  0.4988
15341SOL    HW148916   1.224   9.032  10.499 -1.9810  0.6053 -0.9341
15341SOL    HW248917   1.325   9.111  10.417  1.0040 -0.7185  1.2993
15342SOL     OW48918   2.581   8.382   8.119  0.6176 -0.8443 -0.2038
15342SOL    HW148919   2.549   8.334   8.195 -1.3996  0.6818 -0.0067
15342SOL    HW248920   2.581   8.317   8.048 -2.4675 -1.1377 -0.0564
15343SOL     OW48921  10.628   8.051   7.752 -0.1550  0.4877 -0.0121
15343SOL    HW148922  10.680   8.116   7.799 -1.7726  1.1460  0.9412
15343SOL    HW248923  10.562   8.102   7.706 -1.0174 -0.4414  0.1681
15344SOL     OW48924   6.978   1.362   9.975 -0.0436  0.6323  0.2644
15344SOL    HW148925   6.924   1.337   9.900 -0.7783 -1.9339  1.5082
15344SOL    HW248926   7.064   1.324   9.957  0.1229  1.0428  0.1875
15345SOL     OW48927   2.400   3.161   7.201  0.3434  0.0282  0.0529
15345SOL    HW148928   2.423   3.254   7.192 -0.5130  0.3833  1.2042
15345SOL    HW248929   2.400   3.127   7.112  0.3162  1.2296 -0.4225
15346SOL     OW48930   5.165   5.116   2.497  0.0831  0.4707  0.5096
15346SOL    HW148931   5.180   5.109   2.591 -0.7948  1.0759  0.7087
15346SOL    HW248932   5.121   5.035   2.473  0.2380  0.3503  0.6286
15347SOL     OW48933   5.376   7.244   5.860  0.5530  0.0316  0.2092
15347SOL    HW148934   5.393   7.302   5.934  1.1189  0.3214 -0.1339
15347SOL    HW248935   5.414   7.160   5.886  0.2657 -0.0191  0.4658
15348SOL     OW48936   8.497   3.363   9.104  0.2433 -0.1224  0.1076
15348SOL    HW148937   8.448   3.311   9.169  0.2513 -0.9970 -0.5721
15348SOL    HW248938   8.453   3.447   9.103 -1.6574 -1.0640 -0.8989
15349SOL     OW48939   7.116   6.720   1.349 -0.5950  0.0397 -0.6980
15349SOL    HW148940   7.180   6.714   1.419  0.2645 -0.8907 -1.5229
15349SOL    HW248941   7.055   6.647   1.365  1.0813 -1.8491 -2.2695
15350SOL     OW48942   3.821  10.448   3.720  0.7559  0.2652 -0.5026
15350SOL    HW148943   3.822  10.417   3.630  1.8998  0.4721 -0.5783
15350SOL    HW248944   3.914  10.459   3.743  0.5274 -0.4887  0.9368
15351SOL     OW48945   0.991   4.723   4.469 -0.0381 -0.4029  0.0927
15351SOL    HW148946   0.897   4.721   4.487 -0.3441  0.4339 -1.2472
15351SOL    HW248947   1.011   4.815   4.456  1.0034 -0.5642  0.4847
15352SOL     OW48948   6.569   7.477   2.834  0.2259  0.2431 -0.2741
15352SOL    HW148949   6.622   7.553   2.810  1.1870 -0.7609 -1.4408
15352SOL    HW248950   6.631   7.417   2.875 -0.6427  0.3007  1.1987
15353SOL     OW48951   3.290   5.079   3.966  0.1565 -0.4635 -0.0043
15353SOL    HW148952   3.269   5.000   4.017 -2.2550 -0.1950 -0.4639
15353SOL    HW248953   3.360   5.121   4.016  0.1687 -1.8989  1.2858
15354SOL     OW48954   5.824   9.173   0.474  0.0712 -0.4438  0.3256
15354SOL    HW148955   5.814   9.186   0.380 -1.9278 -0.3596  0.5136
15354SOL    HW248956   5.759   9.231   0.513 -0.1625 -1.6009  1.7120
15355SOL     OW48957   5.820   8.789   6.204  0.0367  0.1124 -0.3964
15355SOL    HW148958   5.893   8.844   6.231  1.4153 -0.9437 -1.8381
15355SOL    HW248959   5.838   8.767   6.113 -1.5621 -1.0070 -0.4861
15356SOL     OW48960   5.399   1.102   8.731  0.1493  0.1346 -0.2102
15356SOL    HW148961   5.331   1.084   8.666 -0.0778  0.9644 -0.2113
15356SOL    HW248962   5.449   1.020   8.736 -0.7476 -0.4426 -0.3213
15357SOL     OW48963   8.085   7.012   2.871  0.4517 -0.3543 -0.8309
15357SOL    HW148964   8.167   6.965   2.858  0.5746 -0.7878  1.1796
15357SOL    HW248965   8.109   7.088   2.924 -0.0856  0.8988 -2.2988
15358SOL     OW48966   3.272   8.550   8.164 -0.4267  0.5677 -0.2180
15358SOL    HW148967   3.339   8.589   8.220 -0.2794 -1.6247  1.2474
15358SOL    HW248968   3.218   8.499   8.224 -0.2234 -1.9368 -2.0301
15359SOL     OW48969   0.409   1.152   8.853  0.5036  0.1909 -0.4010
15359SOL    HW148970   0.409   1.086   8.784  1.1391 -1.0727  0.7553
15359SOL    HW248971   0.452   1.109   8.928  0.6170  1.7929  0.5093
15360SOL     OW48972   4.512   0.866   5.954 -0.1682 -0.0807  0.1779
15360SOL    HW148973   4.444   0.851   5.889 -1.5830 -0.4071  1.6494
15360SOL    HW248974   4.594   0.864   5.905 -1.2236  0.7322 -1.7350
15361SOL     OW48975   8.725   6.695   5.197  0.2987  0.0243  0.3340
15361SOL    HW148976   8.655   6.725   5.254  0.6308  0.1118  0.6985
15361SOL    HW248977   8.681   6.674   5.114 -0.5249 -2.0195  1.2125
15362SOL     OW48978   2.536   6.695   6.515  0.6825 -0.3129  0.1356
15362SOL    HW148979   2.600   6.669   6.582  1.9099 -0.1830 -0.9361
15362SOL    HW248980   2.512   6.613   6.473  0.8129 -0.2653 -0.0313
15363SOL     OW48981   1.174   0.409   9.578  0.3213 -0.2705 -0.6233
15363SOL    HW148982   1.149   0.480   9.637  2.4790 -0.4558  0.6618
15363SOL    HW248983   1.270   0.404   9.588  0.3459 -2.6067 -1.5178
15364SOL     OW48984   4.230   4.799   9.213 -0.4466  0.0427  0.0734
15364SOL    HW148985   4.309   4.768   9.170 -0.3790  1.2350 -0.6929
15364SOL    HW248986   4.248   4.788   9.307  0.8489  0.7948 -0.0656
15365SOL     OW48987   6.702   3.819   2.018  0.2084  0.6270 -0.3599
15365SOL    HW148988   6.751   3.836   2.098 -2.5637  1.1858  1.3339
15365SOL    HW248989   6.745   3.743   1.979  1.8126  0.5192  1.4890
15366SOL     OW48990   9.041   8.553  10.315  0.5318  0.1846 -0.3375
15366SOL    HW148991   9.076   8.474  10.275  0.0032 -0.2558  0.0493
15366SOL    HW248992   9.108   8.620  10.300  1.3341 -0.5254  0.0089
15367SOL     OW48993   0.883   1.199   3.963 -0.4558  0.4781 -0.2685
15367SOL    HW148994   0.812   1.149   4.003 -0.1582  0.3622  0.1265
15367SOL    HW248995   0.872   1.288   3.998 -0.7979  0.6206 -0.7260
15368SOL     OW48996   6.371   7.504   5.701  0.1376 -0.0075 -0.3272
15368SOL    HW148997   6.401   7.453   5.626 -0.6477  1.9686 -2.1025
15368SOL    HW248998   6.322   7.441   5.755  0.7865 -1.5074 -1.4238
15369SOL     OW48999   0.874   3.622   4.204  0.3786 -0.0720 -0.0277
15369SOL    HW149000   0.934   3.689   4.171 -1.3096  0.8546 -1.3151
15369SOL    HW249001   0.792   3.669   4.222 -0.3240 -1.4974  0.6878
15370SOL     OW49002   7.609   9.437   4.500 -0.3079  0.1854 -0.2368
15370SOL    HW149003   7.597   9.479   4.585  0.9817 -0.4462  0.2765
15370SOL    HW249004   7.687   9.478   4.463  0.5289 -1.1808 -0.0586
15371SOL     OW49005   0.030   7.562   2.973  0.2193  0.0048 -0.3674
15371SOL    HW149006   0.089   7.543   2.900  1.2283 -0.5185  0.5414
15371SOL    HW249007  -0.017   7.640   2.946  1.0411  0.2044 -1.3052
15372SOL     OW49008   1.363  10.154   8.265  0.3163  0.1157  0.0239
15372SOL    HW149009   1.322  10.221   8.210 -0.6955  0.4950  1.1827
15372SOL    HW249010   1.344  10.072   8.220 -0.1399  0.4464 -0.4142
15373SOL     OW49011   7.552   0.344   9.121  0.3752  0.3869 -0.4461
15373SOL    HW149012   7.461   0.363   9.101 -0.7662 -2.2516  1.6713
15373SOL    HW249013   7.579   0.415   9.180 -0.7505  0.4625 -0.0006
15374SOL     OW49014   0.810   1.949   5.476  0.3589 -0.1138  1.0014
15374SOL    HW149015   0.819   2.044   5.483  0.1175 -0.0233  0.2222
15374SOL    HW249016   0.869   1.926   5.404  0.1656 -0.5095  0.9703
15375SOL     OW49017   9.517   8.287   5.114 -0.0475  0.1883  0.6601
15375SOL    HW149018   9.437   8.240   5.090 -0.1605  1.5498 -1.9491
15375SOL    HW249019   9.587   8.240   5.069  0.2847  0.5278  0.8189
15376SOL     OW49020   9.617   8.484   5.365  0.0895 -0.2731 -0.0065
15376SOL    HW149021   9.572   8.460   5.284 -0.0625  1.1678 -0.3756
15376SOL    HW249022   9.657   8.402   5.395 -0.9208 -1.1099 -0.8388
15377SOL     OW49023   9.706   8.121  10.316  0.1465 -0.1105  0.1626
15377SOL    HW149024   9.654   8.042  10.300  0.1908 -0.2932  0.8765
15377SOL    HW249025   9.777   8.117  10.252 -1.4055  0.8136 -1.7450
15378SOL     OW49026   7.146   5.350   9.165  0.1579 -0.4121  0.3801
15378SOL    HW149027   7.106   5.376   9.247  1.7909  0.5696  0.9135
15378SOL    HW249028   7.124   5.420   9.104 -0.7887 -0.9866  0.0352
15379SOL     OW49029   7.956   0.371   2.646 -0.0887 -0.4913 -0.0836
15379SOL    HW149030   7.960   0.350   2.740 -0.7639 -1.7480 -0.3174
15379SOL    HW249031   7.985   0.462   2.641  1.4061 -0.8482  1.1769
15380SOL     OW49032   4.866   8.568   3.306  0.0012  0.1441  0.5026
15380SOL    HW149033   4.813   8.582   3.227  0.1083  0.8445  0.5557
15380SOL    HW249034   4.896   8.655   3.331 -0.3751 -0.0133  1.5591
15381SOL     OW49035   5.951   9.724   2.491  0.0799  0.5846 -0.1129
15381SOL    HW149036   6.018   9.698   2.555 -0.6861 -2.0232 -0.2477
15381SOL    HW249037   6.000   9.754   2.415  1.1698 -1.3562 -0.2431
15382SOL     OW49038   5.479  10.457   7.867 -0.0741  0.1017  0.2446
15382SOL    HW149039   5.387  10.432   7.859  0.1655 -0.4888 -0.9200
15382SOL    HW249040   5.501  10.493   7.781  0.6838  0.6034  0.6384
15383SOL     OW49041   9.086   0.333   6.061 -0.1913 -0.4763 -0.9644
15383SOL    HW149042   9.068   0.242   6.039  0.5104 -0.1813 -2.9043
15383SOL    HW249043   9.125   0.370   5.982 -1.8166  1.9180 -0.7503
15384SOL     OW49044   6.382  10.666   6.299  0.0118 -0.1030  0.6325
15384SOL    HW149045   6.330  10.716   6.361 -0.0721 -0.7335  1.0772
15384SOL    HW249046   6.319  10.611   6.252  0.0547  0.4767 -0.1228
15385SOL     OW49047   4.110   4.502   3.578 -0.2533 -0.5887 -0.2626
15385SOL    HW149048   4.090   4.556   3.501  1.2280  1.5990  0.7925
15385SOL    HW249049   4.030   4.451   3.593 -0.9991 -0.1878 -2.5061
15386SOL     OW49050   7.882   2.013   7.558  0.1008 -0.1451 -0.1903
15386SOL    HW149051   7.851   1.923   7.568 -2.4018  0.7257  0.6817
15386SOL    HW249052   7.837   2.045   7.480  0.0726  0.6782  0.1560
15387SOL     OW49053   2.841   6.048   7.274  0.4042 -0.2649  0.0319
15387SOL    HW149054   2.789   5.997   7.336  0.1797  0.4604  0.4540
15387SOL    HW249055   2.780   6.071   7.204  0.7571 -1.4283 -0.6809
15388SOL     OW49056   5.978   6.549   1.216  0.5046  0.5072  0.1012
15388SOL    HW149057   5.895   6.592   1.198  0.3079  1.2065  2.3869
15388SOL    HW249058   6.042   6.620   1.220  0.6771  0.3159  1.1051
15389SOL     OW49059   9.496   1.713   6.400  0.0183  0.2095  1.0789
15389SOL    HW149060   9.562   1.644   6.411 -0.8225 -0.5814  1.3091
15389SOL    HW249061   9.451   1.691   6.318 -0.3446  0.4035  1.2209
15390SOL     OW49062   8.147  10.675   1.087  0.6831  0.4139 -0.3010
15390SOL    HW149063   8.115  10.691   1.176 -0.0806 -0.8166 -0.3214
15390SOL    HW249064   8.068  10.660   1.036  1.1250  1.0864 -1.1973
15391SOL     OW49065   5.778   3.881   2.007  0.3900  0.3395  0.0804
15391SOL    HW149066   5.827   3.926   1.938 -0.4604  0.2190 -0.6235
15391SOL    HW249067   5.766   3.792   1.973  0.7466  0.0163  0.7868
15392SOL     OW49068   0.177   9.425   7.902 -0.3792  0.2179 -0.1046
15392SOL    HW149069   0.191   9.331   7.908  0.0442  0.3541  1.3737
15392SOL    HW249070   0.195   9.446   7.810  0.7692 -0.9474 -0.1721
15393SOL     OW49071   3.819   8.845   5.384 -0.2695 -0.4891 -0.0396
15393SOL    HW149072   3.848   8.775   5.444 -0.1285  0.1513  0.6534
15393SOL    HW249073   3.893   8.906   5.381 -1.3949  1.0685  1.5906
15394SOL     OW49074   4.914   5.114   4.331 -0.1859  0.0083 -0.5296
15394SOL    HW149075   4.983   5.178   4.351  1.2989 -1.1874 -1.6673
15394SOL    HW249076   4.952   5.029   4.353 -1.9319 -0.5808  0.4260
15395SOL     OW49077   7.989  10.760   6.001  0.3752 -0.4821  0.2256
15395SOL    HW149078   7.962  10.835   5.948 -0.2525 -0.7672  0.1303
15395SOL    HW249079   7.932  10.689   5.972  0.8277 -0.9403  0.4593
15396SOL     OW49080   7.756   7.176   1.216  0.4821  0.0500 -0.3042
15396SOL    HW149081   7.777   7.087   1.244  0.1101 -0.5790 -1.9347
15396SOL    HW249082   7.840   7.214   1.189  0.5175 -0.0922 -0.3911
15397SOL     OW49083   3.863   0.738   7.120  0.4063  0.4038  0.0897
15397SOL    HW149084   3.894   0.743   7.029 -0.0001 -2.7689 -0.3479
15397SOL    HW249085   3.798   0.807   7.127 -0.4835 -0.0384 -2.4778
15398SOL     OW49086   5.055  10.281   3.451 -0.3962 -0.1006  0.1539
15398SOL    HW149087   5.029  10.313   3.364  0.1533  0.4876  0.1959
15398SOL    HW249088   5.056  10.186   3.442  1.5320 -0.0252 -1.0682
15399SOL     OW49089   9.379   7.455   2.546 -0.0986 -0.5711 -0.2297
15399SOL    HW149090   9.474   7.456   2.556 -0.1679  0.7353  0.4129
15399SOL    HW249091   9.364   7.487   2.457  0.0251  0.3431  0.0727
15400SOL     OW49092   4.195   3.711   9.165 -0.1516  0.5859 -0.4395
15400SOL    HW149093   4.269   3.765   9.137 -1.1206  1.6433 -1.0617
15400SOL    HW249094   4.183   3.732   9.257  0.8629 -0.2649 -0.0992
15401SOL     OW49095   1.543  10.427   4.968  0.1525 -0.2994  0.2052
15401SOL    HW149096   1.572  10.517   4.955  2.0858 -0.6535  1.7348
15401SOL    HW249097   1.575  10.403   5.055 -0.0802 -2.5582 -0.2685
15402SOL     OW49098   4.430  10.350   7.488  0.1755 -0.3974  0.0646
15402SOL    HW149099   4.512  10.335   7.533 -0.4638  1.8637  2.1894
15402SOL    HW249100   4.438  10.437   7.449 -1.4848  0.2677  1.0849
15403SOL     OW49101   2.647   0.957   5.322  0.3834 -0.1884  0.3138
15403SOL    HW149102   2.623   1.049   5.306 -0.7940 -0.4920  0.2581
15403SOL    HW249103   2.659   0.951   5.416  0.7144  0.0745  0.2908
15404SOL     OW49104   0.293   9.132   2.906 -0.2672  0.0827 -0.2440
15404SOL    HW149105   0.315   9.199   2.841  1.2400 -1.7287 -1.7123
15404SOL    HW249106   0.375   9.083   2.919 -1.1852 -1.1713  1.1703
15405SOL     OW49107   1.824   8.133   2.722 -0.1917  0.0994 -0.5249
15405SOL    HW149108   1.793   8.082   2.647 -0.7168 -1.6961  0.8324
15405SOL    HW249109   1.785   8.219   2.710 -0.2299 -0.1262 -2.3158
15406SOL     OW49110   2.971   5.618   1.612  0.0048  0.1865  0.3058
15406SOL    HW149111   2.910   5.544   1.608 -0.8219  0.8509  0.3486
15406SOL    HW249112   3.046   5.584   1.662 -0.2881 -0.6633  0.1905
15407SOL     OW49113   6.765   0.447   1.468  0.6663 -0.5999 -0.0527
15407SOL    HW149114   6.683   0.494   1.456  0.4057 -0.8851  0.5543
15407SOL    HW249115   6.760   0.411   1.557  1.5770 -0.3640  0.1073
15408SOL     OW49116   2.835   9.500   6.227 -0.3388  0.1251  0.6444
15408SOL    HW149117   2.755   9.551   6.216 -0.4946 -0.2837 -0.1818
15408SOL    HW249118   2.804   9.414   6.257 -0.4159 -0.7105 -1.6479
15409SOL     OW49119   5.052   4.554   8.292  0.7505 -0.1162  0.3492
15409SOL    HW149120   5.083   4.571   8.203  1.3209 -1.1179  0.3403
15409SOL    HW249121   5.132   4.543   8.343  0.4648 -2.2763  0.4221
15410SOL     OW49122   5.384   8.278  10.134  0.1598  0.2036 -0.7417
15410SOL    HW149123   5.314   8.270  10.069 -0.2819  1.5960 -0.4521
15410SOL    HW249124   5.433   8.195  10.126 -1.6168 -0.8857 -0.8021
15411SOL     OW49125   8.299   9.297   5.144  0.3915 -0.1647  0.1573
15411SOL    HW149126   8.272   9.206   5.149 -0.2640 -0.0350 -0.7509
15411SOL    HW249127   8.234   9.339   5.088  0.0241  1.1226  1.4765
15412SOL     OW49128   8.858   2.589   8.770 -0.3353 -0.3710 -0.0674
15412SOL    HW149129   8.777   2.539   8.768 -0.8886  0.4947 -1.6848
15412SOL    HW249130   8.893   2.582   8.681  0.2585  0.9756  0.0240
15413SOL     OW49131   8.603   9.856  10.759 -0.4650  0.0556  0.1741
15413SOL    HW149132   8.601   9.761  10.746  0.6704 -0.0464  0.6729
15413SOL    HW249133   8.588   9.893  10.672 -1.9746 -0.5512  0.1345
15414SOL     OW49134   7.695   7.006   9.252 -0.1822 -0.0710  0.5011
15414SOL    HW149135   7.663   6.949   9.182  0.3952 -0.2787  0.3942
15414SOL    HW249136   7.652   6.973   9.331 -1.3125  0.5574  0.1623
15415SOL     OW49137  10.085   4.277   5.998 -0.5359  0.4652 -0.0553
15415SOL    HW149138   9.997   4.270   5.960 -1.0692  0.2458  1.1506
15415SOL    HW249139  10.143   4.284   5.923 -1.2890 -2.4349 -1.0296
15416SOL     OW49140   2.296   3.370   4.904  0.4020  0.1365 -0.4031
15416SOL    HW149141   2.205   3.399   4.894  0.7951  1.6318  0.1184
15416SOL    HW249142   2.297   3.324   4.988 -0.3794 -2.1260 -1.5540
15417SOL     OW49143   9.163   4.397   6.608 -0.1807 -0.2853  0.4607
15417SOL    HW149144   9.249   4.383   6.569 -0.5219 -0.4183 -0.2609
15417SOL    HW249145   9.114   4.318   6.586 -0.4719 -0.2363  0.9185
15418SOL     OW49146   8.291   8.294   9.768  0.3211 -0.2006 -0.3442
15418SOL    HW149147   8.263   8.365   9.826  0.4447  0.3835 -0.9986
15418SOL    HW249148   8.387   8.295   9.773  0.3326 -0.1480 -0.5576
15419SOL     OW49149   2.641   1.125   7.799 -0.5453  0.5173  0.3126
15419SOL    HW149150   2.680   1.074   7.871 -0.0171  0.5711  0.0729
15419SOL    HW249151   2.578   1.065   7.760 -2.7911  1.3604  2.4339
15420SOL     OW49152   9.130   1.307   5.704  0.2537  0.1749  0.6532
15420SOL    HW149153   9.056   1.360   5.673 -0.7588 -1.2371  0.5854
15420SOL    HW249154   9.089   1.235   5.753  1.3392 -2.4653 -2.0493
15421SOL     OW49155   1.294  10.624   7.112 -0.0914  0.2458  0.4362
15421SOL    HW149156   1.333  10.540   7.135  0.6670  0.3207 -0.5482
15421SOL    HW249157   1.330  10.686   7.177  1.3372  0.2868 -0.3627
15422SOL     OW49158   4.003   4.107   8.046  0.7192 -0.0630  0.0032
15422SOL    HW149159   3.988   4.202   8.045  0.3212 -0.0921  1.3027
15422SOL    HW249160   4.050   4.090   7.965  0.7676  1.2446 -0.2739
15423SOL     OW49161   7.451   4.624   0.212  0.5775  0.2327  0.2255
15423SOL    HW149162   7.530   4.659   0.170 -0.6301  0.9066 -1.6499
15423SOL    HW249163   7.385   4.691   0.197 -0.2324 -0.0587  2.2731
15424SOL     OW49164   6.580   3.564   2.310  0.4217  0.3063 -0.2925
15424SOL    HW149165   6.643   3.566   2.238  2.0821  0.7351  1.1163
15424SOL    HW249166   6.632   3.542   2.387 -1.3097 -0.1542  0.7937
15425SOL     OW49167   3.094  10.313   2.058 -0.2099  0.3044  0.1263
15425SOL    HW149168   3.167  10.372   2.071  0.2689 -0.3535  0.5119
15425SOL    HW249169   3.116  10.262   1.980  0.6007 -1.0923  1.2061
15426SOL     OW49170   9.827   9.021   1.650  0.0092 -0.3359  0.0048
15426SOL    HW149171   9.735   9.001   1.637  0.0552 -0.2582 -0.4509
15426SOL    HW249172   9.872   8.979   1.576  0.0923  1.4994 -1.0600
15427SOL     OW49173   4.201   2.151   8.131 -0.1244  0.3074  0.2904
15427SOL    HW149174   4.181   2.101   8.210  0.0338 -0.4961 -0.1630
15427SOL    HW249175   4.278   2.108   8.095 -0.3864  0.4576 -0.4704
15428SOL     OW49176   4.712   8.719   5.157 -0.1286 -0.1320  0.0536
15428SOL    HW149177   4.693   8.743   5.248 -0.1293  1.9532 -0.4384
15428SOL    HW249178   4.645   8.766   5.106 -0.8743 -2.2122 -0.9885
15429SOL     OW49179   9.080   5.260   6.202  0.1951  0.4323  0.2248
15429SOL    HW149180   9.175   5.268   6.213  0.1863  0.0360  0.6372
15429SOL    HW249181   9.048   5.241   6.291 -0.1642 -0.3883 -0.0669
15430SOL     OW49182   0.367   7.144   0.021 -0.7676 -0.1887  0.2236
15430SOL    HW149183   0.435   7.207   0.045 -0.0246 -1.3206  1.1396
15430SOL    HW249184   0.374   7.074   0.085 -3.5410  0.1682  1.0579
15431SOL     OW49185   1.610   9.782   2.657 -0.2501 -0.7257 -0.1020
15431SOL    HW149186   1.676   9.786   2.726 -0.0049 -1.4831 -0.2821
15431SOL    HW249187   1.652   9.823   2.581 -0.9204  1.1523  0.4790
15432SOL     OW49188   7.815   3.236  10.230 -0.2954 -0.0252  0.3898
15432SOL    HW149189   7.757   3.281  10.291  0.5753 -0.3415  1.4969
15432SOL    HW249190   7.868   3.178  10.286  0.9585  0.1327 -0.5847
15433SOL     OW49191   9.844   2.725   2.554 -0.0670  0.0973  0.4754
15433SOL    HW149192   9.776   2.759   2.496  0.0140  0.1262  0.3973
15433SOL    HW249193   9.851   2.632   2.532  0.2755  0.2015  0.1234
15434SOL     OW49194   6.454   9.092   3.464  0.5791  0.1642  0.5157
15434SOL    HW149195   6.369   9.062   3.432  0.0330  1.5719  0.5509
15434SOL    HW249196   6.439   9.116   3.555  0.5242  2.0967  0.0500
15435SOL     OW49197   8.154   9.875   1.861 -0.0223 -0.4575 -0.3459
15435SOL    HW149198   8.087   9.873   1.792  0.8089  0.2135 -1.1936
15435SOL    HW249199   8.144   9.791   1.906 -1.2172 -0.5076 -0.6661
15436SOL     OW49200   0.092   5.145   2.522  0.9136  0.0024 -0.2251
15436SOL    HW149201   0.086   5.236   2.550  0.8679  0.2071 -0.8723
15436SOL    HW249202   0.104   5.150   2.427  0.2826 -0.6739 -0.3519
15437SOL     OW49203   4.678   1.083   3.822 -0.2166  0.1508 -0.1174
15437SOL    HW149204   4.646   1.171   3.803 -1.0650 -0.0260  0.4341
15437SOL    HW249205   4.631   1.057   3.901  0.6783 -0.4573  0.2273
15438SOL     OW49206   7.307   6.754   2.168  0.1601  0.5460  0.6418
15438SOL    HW149207   7.334   6.700   2.242 -0.4144 -0.0687  0.4147
15438SOL    HW249208   7.239   6.811   2.204 -1.9047 -1.4191  0.0923
15439SOL     OW49209   3.737   8.862   6.919  0.4718 -0.1486 -0.2543
15439SOL    HW149210   3.725   8.888   6.828  0.8556 -0.4169 -0.3806
15439SOL    HW249211   3.655   8.886   6.962  1.1643  2.2856 -0.1327
15440SOL     OW49212   7.163   3.421   7.832 -0.1066 -0.5648  0.2144
15440SOL    HW149213   7.172   3.326   7.837  1.2326 -0.4515  0.2313
15440SOL    HW249214   7.253   3.455   7.833 -0.5831  0.8230  2.2763
15441SOL     OW49215   2.209   2.084   7.771 -0.0963  0.0976 -0.2715
15441SOL    HW149216   2.211   2.063   7.864  2.2727 -0.2108 -0.3466
15441SOL    HW249217   2.184   2.177   7.768  1.9284  0.7304  0.8471
15442SOL     OW49218   6.389   5.678   8.759  0.0319  0.2812 -0.1559
15442SOL    HW149219   6.443   5.699   8.683  1.2833 -2.2823 -0.0741
15442SOL    HW249220   6.357   5.590   8.743 -0.8143  0.2107  1.6661
15443SOL     OW49221   5.516   8.696   4.002  0.3668 -0.4851  0.0356
15443SOL    HW149222   5.528   8.607   4.033  0.6105 -0.3508  0.3382
15443SOL    HW249223   5.578   8.704   3.929  1.5073 -0.0851  1.0045
15444SOL     OW49224   0.497   7.942   6.447 -0.4676 -0.6347  0.0357
15444SOL    HW149225   0.462   7.997   6.518 -0.0829 -0.4055  0.0541
15444SOL    HW249226   0.531   7.865   6.492  2.7369  0.8967  0.5594
15445SOL     OW49227   5.438   9.618   7.245  0.5517 -0.0161  0.0762
15445SOL    HW149228   5.505   9.682   7.221  1.2192 -0.2830  1.1395
15445SOL    HW249229   5.433   9.624   7.340 -0.8585 -0.1004  0.0150
15446SOL     OW49230   1.999   1.913   8.239  0.2218 -0.4124  0.0663
15446SOL    HW149231   1.969   1.859   8.166 -0.0919  1.3227 -1.1681
15446SOL    HW249232   1.928   1.975   8.254  1.5790  1.3618 -0.4022
15447SOL     OW49233   0.995   2.567   1.901  0.6294  0.1124  0.3554
15447SOL    HW149234   1.062   2.629   1.873  1.6654 -0.5450  1.2714
15447SOL    HW249235   1.009   2.558   1.996 -1.1511  0.4060  0.6902
15448SOL     OW49236   1.208   0.172   4.053  0.2318  0.2022  0.4469
15448SOL    HW149237   1.190   0.227   4.129 -0.0961  1.8678 -0.7752
15448SOL    HW249238   1.276   0.111   4.083  0.9451  1.5757  1.7377
15449SOL     OW49239   1.375   5.908   8.325  0.5310 -0.1655 -0.6587
15449SOL    HW149240   1.354   5.985   8.377  1.1639 -0.0649 -0.5433
15449SOL    HW249241   1.343   5.834   8.377  0.7238 -0.0352 -0.3542
15450SOL     OW49242   7.283   6.018   2.303 -0.5920 -0.1019 -0.3620
15450SOL    HW149243   7.324   5.996   2.387  1.0569  0.0811 -1.0952
15450SOL    HW249244   7.211   6.077   2.327 -0.1490 -0.0549  0.9210
15451SOL     OW49245   0.144   2.462   0.751  0.5563 -0.5632  0.3286
15451SOL    HW149246   0.149   2.376   0.710 -1.3745 -0.6117  0.0659
15451SOL    HW249247   0.217   2.511   0.713  2.1304 -2.2577  1.0260
15452SOL     OW49248   0.468   0.164   6.100 -0.5873  0.8114 -0.7682
15452SOL    HW149249   0.402   0.112   6.053 -1.6819  0.2556  1.2685
15452SOL    HW249250   0.435   0.254   6.096 -1.7856  0.4647  0.6717
15453SOL     OW49251   1.025   3.443   7.923  0.3195 -0.2936 -0.0429
15453SOL    HW149252   0.985   3.365   7.883  1.1250 -0.5196 -0.4281
15453SOL    HW249253   0.950   3.499   7.944 -0.3645 -1.6575  1.3339
15454SOL     OW49254   1.322   2.561   3.890 -0.0794 -0.2601 -0.0920
15454SOL    HW149255   1.394   2.524   3.940  1.0354 -0.0252 -1.4587
15454SOL    HW249256   1.276   2.484   3.855  0.1913 -0.3924 -0.1567
15455SOL     OW49257   0.524  10.742   9.978  0.4979  0.0547 -0.3613
15455SOL    HW149258   0.478  10.658   9.973  1.2686 -0.3570 -0.9203
15455SOL    HW249259   0.532  10.770   9.886  2.5446 -0.5768 -0.4215
15456SOL     OW49260   0.760   8.265   3.273 -0.6827  0.0177 -0.1445
15456SOL    HW149261   0.737   8.270   3.366 -0.3030 -1.8358  0.0914
15456SOL    HW249262   0.755   8.355   3.242 -0.4154  0.7407  1.7726
15457SOL     OW49263   8.516   9.425   4.982  0.1120  0.0382  0.0144
15457SOL    HW149264   8.449   9.373   5.027  1.2126 -0.7104  0.8583
15457SOL    HW249265   8.574   9.360   4.942 -1.1249  0.6624 -3.0644
15458SOL     OW49266   1.384   2.024   2.660  0.1868 -0.3985 -0.8263
15458SOL    HW149267   1.315   1.996   2.600  0.1982 -1.9268 -0.1705
15458SOL    HW249268   1.356   2.110   2.691 -0.4487 -0.1522 -2.0349
15459SOL     OW49269  10.378   3.883   9.009 -0.7646  0.6211 -0.1424
15459SOL    HW149270  10.295   3.852   9.047 -1.0619  0.8580 -0.5896
15459SOL    HW249271  10.445   3.854   9.071 -0.9779 -1.3401 -0.7659
15460SOL     OW49272  10.514   1.470   6.791  0.1666  0.1105 -0.1989
15460SOL    HW149273  10.557   1.493   6.874  0.3769  1.1312 -0.5840
15460SOL    HW249274  10.537   1.541   6.731 -1.0922  0.0666 -0.7580
15461SOL     OW49275   3.238   8.633   7.911  0.2294 -0.3656  0.5406
15461SOL    HW149276   3.238   8.545   7.874  0.0856  0.2744 -1.0380
15461SOL    HW249277   3.232   8.619   8.006  0.0970 -2.0383  0.3124
15462SOL     OW49278   3.768   9.313   8.775  0.2746  0.3386 -0.2639
15462SOL    HW149279   3.845   9.295   8.829 -0.0918  1.0199  0.5207
15462SOL    HW249280   3.770   9.408   8.761 -0.9054  0.5130  0.5619
15463SOL     OW49281   8.111   6.781   2.450  0.5059 -0.8852  0.4677
15463SOL    HW149282   8.196   6.824   2.462 -0.0477  0.3625  0.1277
15463SOL    HW249283   8.117   6.739   2.364 -0.8833  3.5683 -2.1393
15464SOL     OW49284   0.839   8.230   7.156 -0.7278  1.1861  0.1213
15464SOL    HW149285   0.882   8.307   7.118  3.3183 -1.5534 -1.6640
15464SOL    HW249286   0.890   8.212   7.236  1.0756 -1.5315 -1.4513
15465SOL     OW49287   7.143   4.692   1.584  0.2470  0.4391  0.0541
15465SOL    HW149288   7.185   4.775   1.607  0.8997  1.1816 -3.3327
15465SOL    HW249289   7.087   4.713   1.510 -3.9354 -1.1648  2.4511
15466SOL     OW49290   1.120   0.993   8.386 -0.4696  0.4472 -0.3360
15466SOL    HW149291   1.165   0.994   8.302 -1.8197 -0.0120 -1.1031
15466SOL    HW249292   1.155   0.916   8.431  0.5839  0.9500 -0.2864
15467SOL     OW49293   4.796   1.074   4.672 -0.0860 -0.1169  0.9195
15467SOL    HW149294   4.823   1.002   4.729 -0.3057 -0.6533  0.3528
15467SOL    HW249295   4.864   1.078   4.605  0.5698  0.9975  1.6202
15468SOL     OW49296   7.500   4.690   2.625  0.0621  0.2870  0.1563
15468SOL    HW149297   7.457   4.695   2.539 -0.0039 -0.1313  0.1656
15468SOL    HW249298   7.588   4.725   2.610  0.5728 -1.1671 -0.4259
15469SOL     OW49299   7.737   2.796   6.228  0.1824  0.0633  0.1509
15469SOL    HW149300   7.707   2.712   6.194 -0.2648 -0.5936  2.0469
15469SOL    HW249301   7.734   2.855   6.152 -1.1248 -1.1997 -0.8442
15470SOL     OW49302   9.810   0.105   4.260 -0.6305 -0.0237 -0.1074
15470SOL    HW149303   9.808   0.199   4.279 -0.4859  0.1994 -1.1400
15470SOL    HW249304   9.821   0.063   4.346  0.1845  0.9424  0.2805
15471SOL     OW49305   0.413   6.356  10.710  0.0091 -0.0244  1.0273
15471SOL    HW149306   0.350   6.371  10.639  1.6692  0.1114 -0.5045
15471SOL    HW249307   0.360   6.326  10.784 -1.7454 -0.7300 -0.4468
15472SOL     OW49308   1.748   0.806   8.603  0.6763  0.0001  0.0618
15472SOL    HW149309   1.774   0.863   8.530 -2.0575 -0.4554 -1.3869
15472SOL    HW249310   1.771   0.718   8.575  1.7664  0.0353  0.8084
15473SOL     OW49311   5.814   9.408   8.381 -0.2243 -0.7444 -0.5585
15473SOL    HW149312   5.871   9.360   8.441 -1.4411 -1.6146 -0.0740
15473SOL    HW249313   5.804   9.350   8.306 -1.8108 -1.3462  0.0856
15474SOL     OW49314   5.423   1.765   4.590  0.3144  0.1602 -0.3196
15474SOL    HW149315   5.370   1.803   4.660 -1.5977  0.3315 -1.8000
15474SOL    HW249316   5.511   1.801   4.605 -0.7781  2.9260  0.0118
15475SOL     OW49317   0.908   2.543  10.740 -0.9340 -0.0560 -0.4211
15475SOL    HW149318   0.879   2.493  10.664 -0.3447 -0.9142 -0.0897
15475SOL    HW249319   0.840   2.610  10.751 -2.6384 -1.7935  0.1141
15476SOL     OW49320   7.320   8.320   4.697 -0.2300 -0.0452  0.0669
15476SOL    HW149321   7.226   8.310   4.681 -0.1113 -1.5516  0.1901
15476SOL    HW249322   7.349   8.386   4.633 -1.1126 -0.5917 -0.9142
15477SOL     OW49323   1.572   8.714   5.752 -0.3916 -0.0301 -0.6651
15477SOL    HW149324   1.503   8.734   5.815 -0.9799 -2.3330 -0.4701
15477SOL    HW249325   1.649   8.695   5.807  0.0877  1.3182 -0.8316
15478SOL     OW49326   5.654   8.088   4.302  0.0086  0.3668  0.3356
15478SOL    HW149327   5.738   8.052   4.275 -0.0186  1.2140 -0.9510
15478SOL    HW249328   5.599   8.083   4.224 -2.2351 -3.0257  1.8569
15479SOL     OW49329   0.136   6.387   3.857  0.2336 -0.5942  0.0167
15479SOL    HW149330   0.163   6.420   3.942 -0.2388  0.1845 -0.1256
15479SOL    HW249331   0.055   6.435   3.837 -0.0176 -1.2405 -0.5732
15480SOL     OW49332   9.661   2.806   4.277 -0.5783  0.0854  0.6321
15480SOL    HW149333   9.721   2.861   4.327  0.6938 -0.0451 -0.6612
15480SOL    HW249334   9.649   2.854   4.195  0.7134 -1.5761 -0.6071
15481SOL     OW49335   2.421   3.250   4.252 -0.0110  0.3208 -0.1773
15481SOL    HW149336   2.401   3.158   4.233 -0.3472  0.7419 -2.0628
15481SOL    HW249337   2.455   3.249   4.341 -2.5429 -1.2627  0.8791
15482SOL     OW49338   9.271   8.907   8.718 -0.1136  0.2967  0.2498
15482SOL    HW149339   9.263   8.945   8.631 -3.6775  1.4630  0.9121
15482SOL    HW249340   9.181   8.903   8.751  1.1329  0.8757  4.2772
15483SOL     OW49341   4.429   8.717   8.618  0.3554 -0.4220 -0.6438
15483SOL    HW149342   4.420   8.732   8.523 -0.0000  3.6476 -0.1414
15483SOL    HW249343   4.343   8.684   8.644 -0.0060 -0.2435 -1.5412
15484SOL     OW49344   5.895   6.577   9.494 -0.3647  0.1290 -0.0479
15484SOL    HW149345   5.970   6.542   9.542  0.9439  0.6744 -1.5775
15484SOL    HW249346   5.910   6.547   9.404 -2.5140 -0.5392 -0.2276
15485SOL     OW49347   6.916   7.102   2.573  0.3220  0.6937 -0.0177
15485SOL    HW149348   6.968   7.144   2.504  1.5455 -1.9505 -0.8240
15485SOL    HW249349   6.962   7.124   2.654  0.4648  1.5461 -0.3165
15486SOL     OW49350   9.560   6.306   8.853  0.0935 -0.1670 -0.3038
15486SOL    HW149351   9.486   6.366   8.843  1.6247  1.5066 -2.7114
15486SOL    HW249352   9.625   6.356   8.904  0.1102 -1.1021  0.6177
15487SOL     OW49353   9.973   8.838   9.544  0.1373 -0.4151 -0.9053
15487SOL    HW149354   9.889   8.881   9.559  0.1358 -0.8521  0.4965
15487SOL    HW249355  10.039   8.905   9.565  0.1285 -0.4949 -0.6108
15488SOL     OW49356   6.848   0.064   9.915  0.2575  0.1874 -0.0988
15488SOL    HW149357   6.863   0.048   9.821  1.3517 -0.9207  0.2433
15488SOL    HW249358   6.779   0.003   9.939  0.3663  0.0792 -0.0620
15489SOL     OW49359   2.503   5.579   1.917  0.2247  0.2781 -0.0939
15489SOL    HW149360   2.420   5.533   1.909  0.6228 -0.6800  1.0067
15489SOL    HW249361   2.483   5.658   1.967  0.3500 -1.1482  2.3625
15490SOL     OW49362   0.073   6.631   4.700 -0.4340  0.1297  0.5617
15490SOL    HW149363   0.130   6.562   4.733  1.7195  1.3511 -0.4059
15490SOL    HW249364   0.038   6.598   4.617  0.5791  0.1767  0.1095
15491SOL     OW49365   1.418   5.263   1.942 -0.0378 -0.4315 -0.0917
15491SOL    HW149366   1.473   5.277   1.865  0.6766 -0.1049  0.4699
15491SOL    HW249367   1.339   5.313   1.924  0.0041 -0.5863 -0.7376
15492SOL     OW49368   1.629   4.376   2.322  0.2116  0.2769 -0.4211
15492SOL    HW149369   1.682   4.438   2.271 -0.7301 -0.5752 -2.5556
15492SOL    HW249370   1.543   4.418   2.327 -0.6113 -0.9943 -2.4062
15493SOL     OW49371  10.617   2.421   1.351 -0.0052 -0.1769  0.0742
15493SOL    HW149372  10.555   2.401   1.280  0.5585 -1.6633 -0.0354
15493SOL    HW249373  10.563   2.419   1.430 -0.1892 -1.0419 -0.0631
15494SOL     OW49374   5.694   0.399   5.001 -0.2832  0.4327  0.4584
15494SOL    HW149375   5.744   0.336   5.053 -1.3220 -1.4408 -0.7058
15494SOL    HW249376   5.604   0.369   5.009 -0.8444  1.9383  0.0297
15495SOL     OW49377   7.987   2.701   1.299  0.4270 -0.0719  0.7724
15495SOL    HW149378   8.039   2.773   1.335  0.0720 -0.1642  1.4842
15495SOL    HW249379   7.923   2.744   1.243 -0.7509  0.3232  2.3489
15496SOL     OW49380   9.339   7.914   9.333  0.1598 -0.3335 -0.1560
15496SOL    HW149381   9.326   7.957   9.248 -1.4023 -0.6421 -0.1080
15496SOL    HW249382   9.273   7.845   9.334 -0.2287  0.0356  1.5568
15497SOL     OW49383   0.065   1.405   1.966 -0.0780  0.4915  0.4006
15497SOL    HW149384   0.047   1.364   1.881  1.4465 -0.6089  0.5627
15497SOL    HW249385   0.099   1.492   1.944  0.0190  0.3280 -0.0981
15498SOL     OW49386   1.652  10.284   2.181 -0.1983  0.1817  0.4696
15498SOL    HW149387   1.603  10.260   2.260  0.7886 -0.0923  1.0098
15498SOL    HW249388   1.743  10.286   2.208  0.1559  0.1720 -0.6499
15499SOL     OW49389   8.017   6.686   4.938  0.2806 -0.6701 -0.2695
15499SOL    HW149390   8.079   6.624   4.979  0.3092  0.3362  1.3019
15499SOL    HW249391   7.956   6.707   5.008  0.2362  1.0281 -0.7933
15500SOL     OW49392   1.321   5.211   9.832  0.1883  0.3409  0.1578
15500SOL    HW149393   1.279   5.126   9.846  0.2801  0.4216  0.9752
15500SOL    HW249394   1.290   5.239   9.746  0.3123 -0.6079 -0.2144
15501SOL     OW49395  10.360   6.277   1.237 -0.2258 -0.1481  0.0057
15501SOL    HW149396  10.407   6.223   1.173  0.6478 -0.9593  1.2950
15501SOL    HW249397  10.418   6.280   1.313  0.3789  3.6789 -0.4224
15502SOL     OW49398   2.131   3.622   2.255 -0.5726 -0.6831  0.1339
15502SOL    HW149399   2.052   3.584   2.217  0.0676 -1.8276 -0.0950
15502SOL    HW249400   2.196   3.618   2.185  0.0046 -0.8012  0.6708
15503SOL     OW49401   8.442   5.052   1.764 -0.1667 -0.1114  0.6433
15503SOL    HW149402   8.450   5.140   1.727  1.5290  0.5792  2.4656
15503SOL    HW249403   8.394   5.065   1.846 -0.5462 -1.0058  0.5753
15504SOL     OW49404   6.526   0.444   4.508 -0.1801  0.3614 -0.3126
15504SOL    HW149405   6.441   0.483   4.528 -0.0200  0.8664 -0.6155
15504SOL    HW249406   6.548   0.477   4.421  0.4774  0.4928 -0.1036
15505SOL     OW49407   7.783   9.600   6.921  0.3234  0.5429 -0.0663
15505SOL    HW149408   7.875   9.584   6.900  0.8396  2.3535  0.6308
15505SOL    HW249409   7.771   9.693   6.904 -1.0664  0.5870  1.0283
15506SOL     OW49410   1.328   7.008  10.195 -0.1216 -0.8080  0.2719
15506SOL    HW149411   1.286   6.925  10.219  1.7506 -1.7255  0.5114
15506SOL    HW249412   1.306   7.067  10.268 -0.3031 -1.5008  0.7949
15507SOL     OW49413  10.067   3.425   1.174  0.7751  0.6190  0.0184
15507SOL    HW149414  10.060   3.454   1.083  1.7558  0.5062 -0.1108
15507SOL    HW249415  10.154   3.384   1.178  0.1817 -0.6061  0.6572
15508SOL     OW49416  10.698   5.813   1.630 -0.2563  0.1591 -0.1295
15508SOL    HW149417  10.775   5.766   1.599  0.2020  0.8887 -0.1221
15508SOL    HW249418  10.711   5.820   1.725 -1.5867 -1.9475  0.2922
15509SOL     OW49419   4.900   7.814   4.592  0.4082  0.0678 -0.3329
15509SOL    HW149420   4.957   7.739   4.573  0.7012  0.3440 -0.5527
15509SOL    HW249421   4.811   7.778   4.590  0.6405 -0.9270  2.4646
15510SOL     OW49422   0.728   1.076   3.567  0.0812  0.7015  0.2449
15510SOL    HW149423   0.690   1.110   3.649 -0.5364  1.1221 -0.1983
15510SOL    HW249424   0.661   1.017   3.533  0.7027 -0.1421  0.4667
15511SOL     OW49425   9.544   2.821   3.371  0.1745 -0.2166 -0.3745
15511SOL    HW149426   9.546   2.837   3.277 -1.1720  0.1040 -0.3609
15511SOL    HW249427   9.496   2.895   3.408 -0.1035 -0.7946  0.4589
15512SOL     OW49428   2.401   2.878  10.568  0.4401 -0.0318 -0.2531
15512SOL    HW149429   2.475   2.822  10.543  0.1716 -0.6372  0.2602
15512SOL    HW249430   2.365   2.835  10.646  0.8598  1.4367  0.7771
15513SOL     OW49431   0.050   5.045   0.704 -0.1823  0.3808  0.4537
15513SOL    HW149432   0.115   5.102   0.662 -1.1524  1.4728  0.3857
15513SOL    HW249433   0.092   4.959   0.706  1.3811  1.1020  0.6657
15514SOL     OW49434   4.381   9.070   2.954 -0.1787  0.4113 -0.0923
15514SOL    HW149435   4.300   9.019   2.949 -0.7872  1.3290  0.3447
15514SOL    HW249436   4.373   9.122   3.033 -0.3699  2.5434 -1.4537
15515SOL     OW49437   2.869   5.300   4.648 -0.5614  0.3455  0.3462
15515SOL    HW149438   2.946   5.354   4.666  0.8495 -1.6654  0.5661
15515SOL    HW249439   2.846   5.321   4.558  0.9129  0.1890 -0.0846
15516SOL     OW49440  10.468   9.191   3.477  0.4563 -0.3271 -0.2793
15516SOL    HW149441  10.530   9.258   3.451 -0.9927  0.6979 -1.3071
15516SOL    HW249442  10.501   9.111   3.437  1.7013 -0.0481  0.1611
15517SOL     OW49443   6.953   9.534   5.625 -0.2328  0.0481  0.2929
15517SOL    HW149444   6.987   9.458   5.579 -0.7703  0.4288 -0.7593
15517SOL    HW249445   6.978   9.519   5.717 -1.3739 -2.0024  0.3403
15518SOL     OW49446   3.648   4.751   4.341 -0.7796 -0.1147 -0.2171
15518SOL    HW149447   3.629   4.748   4.435  0.8277  0.3758  0.1583
15518SOL    HW249448   3.715   4.685   4.327 -0.3001  0.4795 -0.8276
15519SOL     OW49449   3.907   3.795   6.902 -0.0119 -0.5120 -0.1821
15519SOL    HW149450   3.912   3.876   6.953  0.9269  0.2704 -1.4634
15519SOL    HW249451   3.955   3.814   6.821 -0.5104 -2.0735 -0.8884
15520SOL     OW49452   4.864   7.083   1.377 -0.5224  0.1299 -0.2824
15520SOL    HW149453   4.774   7.061   1.399 -0.9141  1.1318 -0.8530
15520SOL    HW249454   4.863   7.177   1.361  0.6412  0.1665 -0.2229
15521SOL     OW49455   4.058   1.182   5.670 -0.0643  0.0804 -0.1626
15521SOL    HW149456   3.981   1.161   5.616 -1.0778  0.3710  1.1223
15521SOL    HW249457   4.032   1.260   5.719  0.4450 -0.7139  1.4476
15522SOL     OW49458   0.711   6.484   9.829  0.7190 -0.0489 -0.4521
15522SOL    HW149459   0.665   6.434   9.896  2.6205  1.2565  1.9946
15522SOL    HW249460   0.800   6.449   9.830  0.5186 -0.8444 -3.2719
15523SOL     OW49461   7.788   8.266   0.907 -0.3966  0.3922 -0.5963
15523SOL    HW149462   7.762   8.173   0.910 -0.3896  0.4058 -0.0066
15523SOL    HW249463   7.758   8.296   0.821 -0.6610 -0.0818 -0.6755
15524SOL     OW49464   2.862   8.602   4.363  0.2783  0.1665 -0.0218
15524SOL    HW149465   2.853   8.507   4.377  1.8583 -0.3365 -1.9866
15524SOL    HW249466   2.817   8.641   4.438 -1.0875 -2.1149  0.4729
15525SOL     OW49467   1.481   0.689   1.301  0.0080  0.0777 -0.2678
15525SOL    HW149468   1.516   0.686   1.390 -1.8836  0.2160  0.5142
15525SOL    HW249469   1.545   0.641   1.249  1.2434  0.1347  1.1238
15526SOL     OW49470   8.050   9.067   1.689 -0.1592 -0.2204 -0.2972
15526SOL    HW149471   8.029   9.116   1.768  1.0693  1.9740 -1.2426
15526SOL    HW249472   8.146   9.074   1.682 -0.2821 -0.0036 -2.1563
15527SOL     OW49473  10.033   5.406   9.788 -0.7207  0.2889  0.1223
15527SOL    HW149474  10.122   5.430   9.812 -0.0305 -1.1191 -0.9099
15527SOL    HW249475  10.012   5.332   9.845 -1.4812  1.0099  0.7998
15528SOL     OW49476   9.629   5.815  10.171 -0.3635  0.4941 -0.1040
15528SOL    HW149477   9.578   5.888  10.134 -0.4584  1.1511  1.2553
15528SOL    HW249478   9.714   5.821  10.127 -1.2961 -0.4258 -2.1681
15529SOL     OW49479   5.461   6.248   9.296 -0.1914  0.6803  0.4852
15529SOL    HW149480   5.478   6.315   9.230  0.8246  1.4312  1.4568
15529SOL    HW249481   5.482   6.291   9.379  0.3679 -0.8008  1.1457
15530SOL     OW49482   4.363   3.786   1.181  0.6052  0.1452 -0.3372
15530SOL    HW149483   4.409   3.794   1.097 -0.5220 -0.9750 -1.1002
15530SOL    HW249484   4.396   3.704   1.219  1.6646  1.0109  0.7159
15531SOL     OW49485   0.099   5.867   2.170  0.6052  0.8638 -0.0819
15531SOL    HW149486   0.163   5.837   2.234  0.1193  0.1386  0.0771
15531SOL    HW249487   0.020   5.885   2.222  0.0353 -0.2512 -0.5163
15532SOL     OW49488   6.701   5.867   4.650  0.1844 -0.2245  0.0468
15532SOL    HW149489   6.626   5.890   4.595  0.3703  0.8950  0.2354
15532SOL    HW249490   6.723   5.948   4.696 -0.0734 -1.1766  1.9307
15533SOL     OW49491   8.675   2.403   6.002 -0.5737  0.8108  0.3907
15533SOL    HW149492   8.728   2.324   6.017  0.5924  1.5060  0.0378
15533SOL    HW249493   8.715   2.444   5.925 -0.5803  2.2306  1.1202
15534SOL     OW49494   7.722  10.142   6.075  0.4535  0.4521 -0.1259
15534SOL    HW149495   7.650  10.165   6.016  0.4333  2.7554  0.6815
15534SOL    HW249496   7.721  10.046   6.078 -2.2761  0.3820 -0.5144
15535SOL     OW49497   7.070   3.827   1.073  0.1930 -0.0947  0.1125
15535SOL    HW149498   7.033   3.831   0.985  2.4962  4.1723 -0.9256
15535SOL    HW249499   7.118   3.745   1.075  0.6361 -0.0155 -2.9324
15536SOL     OW49500   1.528   3.374   5.372  0.1481  0.2734 -0.8411
15536SOL    HW149501   1.569   3.306   5.319  1.6808  0.7054 -0.2676
15536SOL    HW249502   1.453   3.331   5.414  0.5788 -0.8095 -1.1738
15537SOL     OW49503   8.106   9.757   0.800 -0.1580  0.3094 -0.6435
15537SOL    HW149504   8.038   9.694   0.773 -0.5282 -0.5025  1.8816
15537SOL    HW249505   8.067   9.803   0.875  2.0241 -0.1678  0.8842
15538SOL     OW49506   2.870   2.919   4.641  0.1113 -0.4455  0.2437
15538SOL    HW149507   2.963   2.906   4.657  0.2325 -1.0014 -0.7803
15538SOL    HW249508   2.853   3.010   4.665  0.6313 -0.7067  1.6707
15539SOL     OW49509   7.728   6.906   4.899 -0.1970  0.5017  0.4622
15539SOL    HW149510   7.641   6.883   4.866  1.0501 -1.4165 -1.7351
15539SOL    HW249511   7.759   6.973   4.838 -0.0633  1.0969  1.1742
15540SOL     OW49512   9.339   0.368   0.866  0.0773 -0.3383  0.1863
15540SOL    HW149513   9.255   0.380   0.910 -0.6713 -2.4130 -0.5477
15540SOL    HW249514   9.372   0.457   0.853 -1.7515  0.5138  0.9572
15541SOL     OW49515   2.757   2.666   6.372  0.5953  0.1230 -0.5414
15541SOL    HW149516   2.709   2.604   6.426 -0.0591  1.3486  0.3175
15541SOL    HW249517   2.690   2.709   6.319  0.5153  2.4628  1.2756
15542SOL     OW49518   8.657   4.603   3.767 -0.1167 -0.1445  0.2801
15542SOL    HW149519   8.747   4.627   3.786  1.4467 -3.7225 -1.5472
15542SOL    HW249520   8.631   4.545   3.838 -0.0938 -0.9224 -0.3269
15543SOL     OW49521   8.666   8.173   0.593 -0.6937  0.6100 -0.1665
15543SOL    HW149522   8.718   8.170   0.513 -1.0556  0.9871 -0.4241
15543SOL    HW249523   8.716   8.228   0.653 -0.9684  1.2910 -0.5476
15544SOL     OW49524   3.053   9.364   3.652 -0.4052 -0.2907 -0.0749
15544SOL    HW149525   2.979   9.412   3.615  0.2493 -0.6162 -1.9094
15544SOL    HW249526   3.062   9.287   3.596  2.1433  0.4321 -0.8045
15545SOL     OW49527   4.451   1.619   5.826 -0.0723 -0.4170  0.5428
15545SOL    HW149528   4.408   1.703   5.838 -0.0235 -0.3270  0.1011
15545SOL    HW249529   4.529   1.623   5.882  0.9437  0.5631 -0.8560
15546SOL     OW49530  10.383   9.824   0.472  0.0728 -0.0163 -0.0761
15546SOL    HW149531  10.432   9.807   0.391 -0.7040  1.3177 -0.8613
15546SOL    HW249532  10.294   9.795   0.452  0.4272 -2.2499  1.2799
15547SOL     OW49533   9.408   8.356   9.379 -0.3485 -0.0233  0.0970
15547SOL    HW149534   9.392   8.264   9.401 -1.3801 -0.0043 -0.5296
15547SOL    HW249535   9.503   8.363   9.373 -0.2426 -0.9568  0.5349
15548SOL     OW49536   3.780   2.688   6.204 -0.0096  0.2316  0.2619
15548SOL    HW149537   3.699   2.666   6.157 -0.1802  0.2720  0.5346
15548SOL    HW249538   3.775   2.637   6.285 -0.0179  0.6476  0.5244
15549SOL     OW49539   4.048   5.383   7.184  0.1102 -0.3657 -0.3055
15549SOL    HW149540   4.076   5.440   7.113  3.2709  0.5119  1.4130
15549SOL    HW249541   3.955   5.368   7.169 -0.1062  2.5410 -2.6635
15550SOL     OW49542   8.811   4.869   8.524  0.0857  0.0074 -0.1070
15550SOL    HW149543   8.796   4.963   8.512  0.3772  0.0228 -0.3559
15550SOL    HW249544   8.727   4.828   8.503  0.4702  0.0586 -1.8942
15551SOL     OW49545   0.385   8.488   5.674 -0.0112 -0.5955 -0.1863
15551SOL    HW149546   0.472   8.507   5.638 -0.4966 -1.0162 -1.6436
15551SOL    HW249547   0.402   8.428   5.746  0.9977  0.3151  0.3727
15552SOL     OW49548   0.019   7.602   1.820 -0.1134 -0.0327 -0.1002
15552SOL    HW149549  -0.060   7.655   1.814 -1.5313 -1.8763  1.0539
15552SOL    HW249550   0.070   7.624   1.742 -1.8746  1.0188 -1.0017
15553SOL     OW49551   8.876   0.346   6.832 -0.2174 -0.7092 -0.3550
15553SOL    HW149552   8.806   0.332   6.768  0.8529  2.1566 -2.3321
15553SOL    HW249553   8.931   0.268   6.825 -0.4205 -0.7115 -2.5602
15554SOL     OW49554   4.374  10.187   1.177 -0.4525  0.2392  0.0482
15554SOL    HW149555   4.383  10.096   1.204  1.5575  0.2367 -0.4885
15554SOL    HW249556   4.435  10.235   1.233 -2.1492  1.4195  0.9524
15555SOL     OW49557   9.881   7.760   9.983  0.1014 -0.1703 -0.2626
15555SOL    HW149558   9.806   7.737   9.929 -0.0595  0.0325 -0.1288
15555SOL    HW249559   9.932   7.820   9.929  1.1490 -1.7595 -1.0717
15556SOL     OW49560   4.504   7.291   8.201  0.0942  0.4051  0.0459
15556SOL    HW149561   4.534   7.201   8.208  0.0188  0.3115 -0.7417
15556SOL    HW249562   4.519   7.329   8.288 -0.7049 -0.6145  0.6455
15557SOL     OW49563   3.547   4.028   9.285  0.0992 -0.4322  0.0610
15557SOL    HW149564   3.517   3.993   9.201  1.5395  0.5454 -0.9204
15557SOL    HW249565   3.642   4.025   9.279  0.2326 -0.3137  1.6766
15558SOL     OW49566   7.868   0.958   9.359  0.0602 -0.2994 -0.0853
15558SOL    HW149567   7.811   1.033   9.376  1.8162  0.8871  0.8326
15558SOL    HW249568   7.903   0.935   9.445 -0.1233 -1.9305 -0.4245
15559SOL     OW49569  10.080   0.852   4.527  0.5783 -0.2222 -0.3750
15559SOL    HW149570   9.988   0.831   4.514  0.5882  0.0855 -1.0171
15559SOL    HW249571  10.123   0.820   4.448  1.2295 -1.4948  0.4658
15560SOL     OW49572  10.391   8.194   7.612  0.3100  0.5901 -0.0447
15560SOL    HW149573  10.369   8.225   7.699 -1.4594 -0.0866 -0.2081
15560SOL    HW249574  10.311   8.207   7.561  0.7116 -0.7276 -1.0764
15561SOL     OW49575   7.388   3.439   4.169 -0.2806  0.2330 -0.2228
15561SOL    HW149576   7.463   3.397   4.126 -0.5797 -1.0925  0.4788
15561SOL    HW249577   7.400   3.419   4.262 -0.0380  2.4246  0.2576
15562SOL     OW49578   8.233   0.298   0.385  0.3750  0.3117  0.0187
15562SOL    HW149579   8.248   0.365   0.452  0.3692  1.2011 -0.8486
15562SOL    HW249580   8.261   0.216   0.427  0.7777  0.9058  0.9519
15563SOL     OW49581   8.986   0.675   0.775 -0.7051  0.1951 -0.3293
15563SOL    HW149582   9.076   0.701   0.756 -0.5531  1.0364  1.3366
15563SOL    HW249583   8.970   0.599   0.719  1.1637 -0.1970 -0.3798
15564SOL     OW49584   7.258   4.684   5.899  0.1639 -0.1271 -0.3764
15564SOL    HW149585   7.273   4.735   5.978  1.7469 -0.4840 -0.4202
15564SOL    HW249586   7.222   4.601   5.931 -1.4370  0.5905 -0.2342
15565SOL     OW49587   2.130   8.336   2.433  0.3184 -0.1401  0.1025
15565SOL    HW149588   2.093   8.422   2.456  0.5064  0.1530 -0.6597
15565SOL    HW249589   2.118   8.330   2.338 -0.0002 -1.1084  0.1984
15566SOL     OW49590   4.914   7.521   5.137 -0.0949  0.0556  0.4170
15566SOL    HW149591   4.999   7.517   5.093 -0.1406 -1.3170  0.4209
15566SOL    HW249592   4.857   7.566   5.075  0.2461 -0.4419 -0.2718
15567SOL     OW49593   4.846   7.872   6.214 -0.5590  0.0003 -0.3091
15567SOL    HW149594   4.900   7.870   6.294 -2.9777 -1.8065  1.4359
15567SOL    HW249595   4.909   7.864   6.143  1.7765  2.3958  1.2927
15568SOL     OW49596   4.797   5.605   0.410 -0.1609 -0.5635 -0.2580
15568SOL    HW149597   4.824   5.648   0.491 -0.1795  1.9842 -1.5115
15568SOL    HW249598   4.710   5.640   0.392 -0.3853 -1.5264 -1.0940
15569SOL     OW49599   5.704   0.070   5.052  0.0446 -0.2306 -0.4440
15569SOL    HW149600   5.737   0.055   5.140  1.9349  2.1984 -0.6341
15569SOL    HW249601   5.631   0.131   5.063 -1.1837 -1.6275 -0.4552
15570SOL     OW49602  10.043   4.990   0.351 -0.5464 -0.4368 -0.4387
15570SOL    HW149603   9.999   5.026   0.428 -1.8622  0.2516 -1.4681
15570SOL    HW249604  10.065   4.900   0.376 -0.9027 -0.2171  0.7449
15571SOL     OW49605   4.114   2.400   0.420 -0.3289 -0.3935 -0.3480
15571SOL    HW149606   4.040   2.341   0.434 -2.2299  1.5398 -1.6208
15571SOL    HW249607   4.088   2.456   0.347  2.3750  0.4576 -0.7958
15572SOL     OW49608   3.768   7.903   2.078  0.1453 -0.1117 -0.0033
15572SOL    HW149609   3.768   7.827   2.021  1.9641 -0.3955  0.3291
15572SOL    HW249610   3.723   7.873   2.158  0.6216 -0.7565  0.0266
15573SOL     OW49611   5.314   8.815   3.130  0.1098 -0.5495 -0.2254
15573SOL    HW149612   5.273   8.849   3.210 -1.2733 -3.0372  0.2174
15573SOL    HW249613   5.243   8.814   3.066  1.1449  1.1717 -1.4760
15574SOL     OW49614   7.188   8.084   3.720  0.1815 -0.2469 -0.2617
15574SOL    HW149615   7.196   8.175   3.749  0.4258  0.3505 -2.0765
15574SOL    HW249616   7.137   8.041   3.789  0.8404  1.0262  1.0798
15575SOL     OW49617   2.279   4.294   1.729  0.5797  0.2443 -0.1510
15575SOL    HW149618   2.322   4.258   1.807 -0.0346 -0.9868 -0.3595
15575SOL    HW249619   2.187   4.270   1.740  0.1408  1.7841 -0.3041
15576SOL     OW49620   5.690   2.362   0.383 -0.3332 -0.0160  0.6094
15576SOL    HW149621   5.613   2.386   0.332  1.0072  0.6760 -1.1702
15576SOL    HW249622   5.715   2.442   0.429  0.0065  0.0871  0.2497
15577SOL     OW49623   1.595   3.065   3.319 -0.3042 -0.1404 -0.0700
15577SOL    HW149624   1.560   2.992   3.268 -0.4504 -0.8232  0.9646
15577SOL    HW249625   1.592   3.034   3.410  0.4456  0.8275  0.3055
15578SOL     OW49626   9.701  10.097   2.526 -0.2856  0.1531  0.2325
15578SOL    HW149627   9.753  10.112   2.605 -0.1934 -0.7029  0.3508
15578SOL    HW249628   9.611  10.099   2.555 -0.2491 -0.2206  0.3756
15579SOL     OW49629   2.420   0.068   1.447 -0.6450 -0.3276 -0.3958
15579SOL    HW149630   2.345   0.118   1.415  0.8236  1.4140 -1.3255
15579SOL    HW249631   2.461   0.033   1.368 -0.6677 -1.5829  0.1305
15580SOL     OW49632   0.965   1.424   7.699 -0.4377  0.4673 -0.5626
15580SOL    HW149633   1.013   1.503   7.724 -0.3440 -0.0926  1.1862
15580SOL    HW249634   0.900   1.454   7.636 -3.0926  2.8168  2.8898
15581SOL     OW49635   6.930   6.619   7.570 -0.5380  0.5406  0.3090
15581SOL    HW149636   6.886   6.540   7.538  2.7768 -1.8962  1.1521
15581SOL    HW249637   6.984   6.647   7.496 -0.0438  0.6532  0.7064
15582SOL     OW49638   0.277   0.957   0.880  0.5578  0.1519 -0.3394
15582SOL    HW149639   0.256   0.973   0.972 -1.6015 -2.2672 -0.2860
15582SOL    HW249640   0.209   1.002   0.831  1.0697  0.5217 -0.7285
15583SOL     OW49641   9.489   4.369   8.207  0.1758  0.1090  0.7794
15583SOL    HW149642   9.437   4.360   8.287 -0.0172 -0.0378  0.6389
15583SOL    HW249643   9.476   4.460   8.180  1.2742  0.5429  1.6144
15584SOL     OW49644  10.260   6.528   6.753  0.1211 -0.1070  0.2399
15584SOL    HW149645  10.269   6.535   6.658 -1.9797 -0.0853  0.0071
15584SOL    HW249646  10.214   6.608   6.779  1.4620  0.3399  1.4422
15585SOL     OW49647   3.070   8.271   7.982 -0.4534 -0.1125  0.1273
15585SOL    HW149648   3.048   8.215   8.056  1.3533 -1.1459 -0.0702
15585SOL    HW249649   3.103   8.211   7.916  1.6491  1.1770 -0.0628
15586SOL     OW49650   1.433   8.475   2.976 -0.1217 -0.0281  0.0914
15586SOL    HW149651   1.411   8.559   3.017  3.0048  1.1177 -0.2704
15586SOL    HW249652   1.457   8.418   3.050 -0.5416 -0.0270  0.2294
15587SOL     OW49653   3.353   9.561   8.334 -0.1720 -0.0635 -0.5713
15587SOL    HW149654   3.385   9.486   8.384  1.0743 -0.0684 -1.3400
15587SOL    HW249655   3.258   9.549   8.332 -0.1149 -0.8707  0.4891
15588SOL     OW49656   2.863   4.738   8.699  0.0929 -0.5377  0.1541
15588SOL    HW149657   2.957   4.729   8.717  0.3068  1.7136  0.4148
15588SOL    HW249658   2.827   4.781   8.776 -0.9520 -0.4003 -0.3852
15589SOL     OW49659   5.951   8.820   5.503  0.1165 -0.2487 -0.3838
15589SOL    HW149660   5.990   8.873   5.572 -0.7777  0.7594 -0.6181
15589SOL    HW249661   5.856   8.827   5.518 -0.0634 -0.5691 -1.3145
15590SOL     OW49662   7.866   8.841   5.251 -0.4752 -0.1523 -0.5641
15590SOL    HW149663   7.880   8.916   5.309 -0.5784 -0.9683  0.5450
15590SOL    HW249664   7.948   8.792   5.254 -0.0914  0.3545 -1.9822
15591SOL     OW49665   2.068   0.458   0.539  0.1231  0.0971  0.4886
15591SOL    HW149666   2.131   0.396   0.577  1.7596  1.9197  0.9006
15591SOL    HW249667   2.023   0.407   0.471  0.1844 -2.0002  1.9278
15592SOL     OW49668   1.305  10.729  10.226  0.5382  0.1756  0.1787
15592SOL    HW149669   1.217  10.691  10.224  0.1291  0.8829  2.4003
15592SOL    HW249670   1.358  10.664  10.272  0.9939  0.1643 -0.3434
15593SOL     OW49671   3.127  10.313   5.861  0.2246 -0.4086  0.2525
15593SOL    HW149672   3.157  10.362   5.937 -0.0326  2.0024 -1.1125
15593SOL    HW249673   3.206  10.298   5.809  0.0647 -0.0424 -0.0958
15594SOL     OW49674   0.838  10.430   8.437  0.1750  0.0652 -0.6175
15594SOL    HW149675   0.772  10.381   8.485  0.0671  0.5359 -0.2785
15594SOL    HW249676   0.922  10.395   8.468  0.1183 -1.7507 -2.2996
15595SOL     OW49677   7.988   2.235   7.208 -0.2517  0.2269  0.0491
15595SOL    HW149678   8.044   2.160   7.229  0.1520  0.6490  0.5092
15595SOL    HW249679   7.939   2.208   7.131  0.1495 -0.3783  0.0034
15596SOL     OW49680   9.525   8.468   6.771  0.0148 -0.0739 -0.5625
15596SOL    HW149681   9.499   8.403   6.837 -1.2418  1.0084  0.0636
15596SOL    HW249682   9.453   8.531   6.771  1.4726  1.6577 -0.6845
15597SOL     OW49683   5.606   7.911   7.114 -0.2598 -0.2492  0.4208
15597SOL    HW149684   5.657   7.924   7.034  1.3479  0.7577  1.5307
15597SOL    HW249685   5.528   7.964   7.103  0.8530  1.4357  0.2446
15598SOL     OW49686   4.920   6.608   9.364 -0.5171 -0.2595  0.5396
15598SOL    HW149687   4.854   6.667   9.401  1.1481  1.0912  1.5279
15598SOL    HW249688   4.949   6.556   9.439 -0.1717 -0.5541  0.2033
15599SOL     OW49689   1.338   3.134   4.365  0.5485  0.3479 -0.2913
15599SOL    HW149690   1.329   3.226   4.342 -0.6986  0.0529 -1.0689
15599SOL    HW249691   1.249   3.105   4.385  0.9627 -0.6204  0.2067
15600SOL     OW49692  10.356   7.044   2.280  0.5429 -0.0567  0.1595
15600SOL    HW149693  10.320   7.001   2.358 -0.0129 -0.4010 -0.2850
15600SOL    HW249694  10.447   7.061   2.303  0.2988  0.1641  1.0221
15601SOL     OW49695   8.086   4.606   0.430 -0.1208 -0.0223  0.5680
15601SOL    HW149696   8.052   4.528   0.386 -2.5762  0.7865  0.8736
15601SOL    HW249697   8.180   4.604   0.414 -0.2691 -2.4413 -0.3638
15602SOL     OW49698   5.366   3.308   1.627 -0.4821  0.4036 -0.1685
15602SOL    HW149699   5.443   3.281   1.677 -1.9208 -1.4398  1.1841
15602SOL    HW249700   5.333   3.228   1.587 -1.1282  1.3395 -1.6143
15603SOL     OW49701   1.185   8.694   4.480  0.0627 -0.3235 -0.0139
15603SOL    HW149702   1.278   8.689   4.461  0.0624  0.2338 -0.1924
15603SOL    HW249703   1.143   8.705   4.394 -0.0531  0.7869  0.1722
15604SOL     OW49704   5.579   6.579   5.075 -0.3716  0.1180 -0.0747
15604SOL    HW149705   5.644   6.612   5.013 -2.3380  2.5407 -1.0085
15604SOL    HW249706   5.502   6.560   5.022 -2.0168  1.9756  1.5142
15605SOL     OW49707   4.822   7.750   6.707  0.4551 -0.4160  0.0498
15605SOL    HW149708   4.874   7.784   6.779 -0.5366 -0.8975  1.0234
15605SOL    HW249709   4.760   7.690   6.748 -0.8333  0.0892 -1.0561
15606SOL     OW49710   7.107   3.614   7.263  0.4281  0.4611  0.0749
15606SOL    HW149711   7.115   3.646   7.352  2.5654  2.6740 -0.8176
15606SOL    HW249712   7.164   3.537   7.259  1.3534  1.1298  0.3003
15607SOL     OW49713   8.195   5.600   5.761  0.2831 -0.4587 -0.2711
15607SOL    HW149714   8.159   5.512   5.770 -0.9601 -0.1916 -1.9657
15607SOL    HW249715   8.147   5.653   5.825  1.8629 -1.1852  1.5832
15608SOL     OW49716   1.892   2.471   0.436 -0.2855  0.5055 -0.0349
15608SOL    HW149717   1.859   2.417   0.509  0.1147  1.1764  0.6543
15608SOL    HW249718   1.823   2.465   0.370 -0.9192  0.3297  0.6184
15609SOL     OW49719   2.322   3.863   1.473 -0.0354 -0.4631  1.0342
15609SOL    HW149720   2.287   3.948   1.499 -0.5284 -0.6478  0.9978
15609SOL    HW249721   2.279   3.844   1.390  1.7707  0.2677 -0.1082
15610SOL     OW49722   2.237   0.535   4.325 -0.1986  0.6437  0.2305
15610SOL    HW149723   2.149   0.555   4.356 -0.2624 -0.0337  0.4831
15610SOL    HW249724   2.286   0.509   4.403 -0.4457 -1.3708 -0.2423
15611SOL     OW49725   4.112   9.564   7.302 -0.0179 -0.2280 -0.0604
15611SOL    HW149726   4.047   9.609   7.248  0.8743  1.3351  0.1052
15611SOL    HW249727   4.193   9.568   7.251  0.4713 -0.1300  0.7150
15612SOL     OW49728  10.080   1.659   8.744 -0.1930 -0.2798 -0.3964
15612SOL    HW149729  10.113   1.747   8.725 -1.2640  0.1105 -0.5294
15612SOL    HW249730  10.084   1.613   8.660  0.8845 -0.5413 -0.2096
15613SOL     OW49731   2.230   5.239   9.539  0.3543  0.2719  0.1610
15613SOL    HW149732   2.138   5.237   9.510  0.3100 -0.5184  0.3360
15613SOL    HW249733   2.225   5.233   9.634  0.5966 -0.1889  0.1479
15614SOL     OW49734   2.832   9.391   2.728  0.1004 -0.2324  0.0057
15614SOL    HW149735   2.744   9.401   2.764  0.1674  1.6843 -0.2670
15614SOL    HW249736   2.824   9.416   2.636  1.1998  1.7900  0.3778
15615SOL     OW49737   7.036   0.319   1.402 -0.7007  0.1387  0.4819
15615SOL    HW149738   6.956   0.371   1.404 -2.0935 -1.8883 -0.2163
15615SOL    HW249739   7.030   0.263   1.479  0.5439  0.6156  0.9571
15616SOL     OW49740   1.337   4.712   2.937  0.4731 -0.7810  0.0448
15616SOL    HW149741   1.350   4.635   2.992  1.1273 -1.0563 -0.4729
15616SOL    HW249742   1.245   4.707   2.910  0.1849 -0.7039  1.0015
15617SOL     OW49743   9.101   3.809   5.372  0.7387  0.2127  0.1045
15617SOL    HW149744   9.151   3.777   5.297 -0.2778  0.6148 -0.7738
15617SOL    HW249745   9.046   3.879   5.336 -0.4104 -0.1830  1.0340
15618SOL     OW49746   7.172   0.061   1.879  0.1013 -0.4183  0.5309
15618SOL    HW149747   7.169   0.143   1.929  0.1325 -1.3832  2.1965
15618SOL    HW249748   7.141  -0.005   1.940 -0.8835 -1.5244 -1.1037
15619SOL     OW49749   5.208   9.922   9.121 -0.3287 -0.1660 -0.1779
15619SOL    HW149750   5.147   9.849   9.135 -0.7311  0.4706  1.6313
15619SOL    HW249751   5.278   9.907   9.184 -0.2182  0.7837 -0.0643
15620SOL     OW49752  10.438   0.346   6.523  0.3048  0.5771 -0.2139
15620SOL    HW149753  10.384   0.340   6.444  2.7845  0.8057 -2.0673
15620SOL    HW249754  10.429   0.436   6.552 -1.5798  0.1815  0.5524
15621SOL     OW49755   1.712   1.742   8.982  0.0162  0.3227  0.2124
15621SOL    HW149756   1.630   1.763   8.937  0.7686  1.4939 -0.6427
15621SOL    HW249757   1.709   1.792   9.063 -0.2397  0.1145  0.3352
15622SOL     OW49758   0.377   2.497   4.092  0.1584 -0.1531 -0.0860
15622SOL    HW149759   0.469   2.484   4.115 -0.2270 -0.0953  1.6310
15622SOL    HW249760   0.333   2.419   4.127 -0.7000  0.7493  0.9063
15623SOL     OW49761   0.491   4.960   8.347  0.3125  0.1602 -0.4874
15623SOL    HW149762   0.559   4.918   8.294 -0.5088 -0.6603 -0.9335
15623SOL    HW249763   0.482   5.048   8.311  0.6924  0.0571 -0.8344
15624SOL     OW49764   5.317   9.463   4.792 -0.2179 -0.5995 -0.1297
15624SOL    HW149765   5.396   9.515   4.777 -0.2742 -0.1062  1.0886
15624SOL    HW249766   5.248   9.511   4.746 -0.2425  0.3649  0.8685
15625SOL     OW49767   8.804   8.747   8.578  0.3008 -0.4459 -0.0670
15625SOL    HW149768   8.827   8.791   8.659 -0.3403 -2.5583  1.3419
15625SOL    HW249769   8.709   8.747   8.576  0.2985  0.7218 -1.5125
15626SOL     OW49770  10.154   4.065   4.573  1.1610 -0.1861 -0.7707
15626SOL    HW149771  10.072   4.112   4.559  0.7794 -0.5098  0.2641
15626SOL    HW249772  10.135   3.975   4.549  0.6846 -0.6142  1.0433
15627SOL     OW49773   7.302   7.770   2.163 -0.0145 -0.1800  0.6512
15627SOL    HW149774   7.276   7.678   2.155  0.5600 -0.3013  0.0809
15627SOL    HW249775   7.299   7.788   2.257  0.5586 -0.9908  0.8365
15628SOL     OW49776   1.871   9.421   3.840 -0.1590 -0.8251  0.6160
15628SOL    HW149777   1.778   9.419   3.816  0.1848  1.1325 -1.1103
15628SOL    HW249778   1.880   9.348   3.901 -3.3016  0.3290  2.7330
15629SOL     OW49779   7.223   1.176   3.744  0.4965  0.5571  0.4727
15629SOL    HW149780   7.262   1.119   3.810  1.5694  0.5980 -0.0967
15629SOL    HW249781   7.174   1.117   3.687  1.4635  0.1932 -0.0128
15630SOL     OW49782   8.452   0.631   9.537  0.1185 -0.1013  0.3243
15630SOL    HW149783   8.435   0.542   9.569  0.7520  0.0271  1.0659
15630SOL    HW249784   8.547   0.636   9.530  0.0579  0.3557 -0.2006
15631SOL     OW49785   1.224   6.507   9.802 -0.1161 -0.3228 -0.3082
15631SOL    HW149786   1.162   6.465   9.743  0.2767 -1.2056 -0.1146
15631SOL    HW249787   1.310   6.475   9.772  0.1019 -0.5946  0.5964
15632SOL     OW49788   8.223   3.873   4.886 -0.4109 -0.3948  0.1142
15632SOL    HW149789   8.220   3.944   4.822 -1.2883  0.2955  0.8856
15632SOL    HW249790   8.308   3.885   4.930 -1.1663  1.1196  1.2351
15633SOL     OW49791   2.814   9.287   5.782  0.1014  0.7258  0.1802
15633SOL    HW149792   2.869   9.209   5.773 -2.7622 -1.4655 -0.1833
15633SOL    HW249793   2.775   9.299   5.695 -0.2756  1.9476  0.4957
15634SOL     OW49794   7.930   1.309  10.057  0.0453  0.7243 -0.9181
15634SOL    HW149795   7.987   1.378  10.093  2.0047 -0.8589 -0.8078
15634SOL    HW249796   7.843   1.331  10.091  1.2200  1.1317  2.1960
15635SOL     OW49797   5.922   4.816   8.803 -0.0908  0.9183  0.5915
15635SOL    HW149798   5.914   4.803   8.897  1.3994 -0.2944  0.6041
15635SOL    HW249799   5.998   4.872   8.793 -0.4179  1.2805  0.1154
15636SOL     OW49800   7.046   4.549   0.115  0.1799  0.3907  0.0914
15636SOL    HW149801   7.119   4.591   0.070  1.0397  0.5306  1.5706
15636SOL    HW249802   7.014   4.616   0.176  0.0481 -0.2952  0.7924
15637SOL     OW49803   8.098   2.455   0.785 -0.2884  0.4001 -0.3790
15637SOL    HW149804   8.051   2.532   0.752  0.8933  1.3440  0.0759
15637SOL    HW249805   8.170   2.491   0.837 -0.7326 -1.0195  1.3281
15638SOL     OW49806   3.996   5.486   2.030  0.3535  0.1682  0.0689
15638SOL    HW149807   4.012   5.536   1.950 -2.1253 -0.9645 -1.2632
15638SOL    HW249808   3.946   5.410   2.001 -0.6273 -0.3009  2.6916
15639SOL     OW49809   4.285   4.210   1.665 -0.0003  0.1179 -0.7885
15639SOL    HW149810   4.278   4.153   1.742 -1.7733  1.0684 -0.1960
15639SOL    HW249811   4.220   4.177   1.604 -0.4148  0.9338 -0.8027
15640SOL     OW49812   8.488   7.648   9.262  0.7120 -0.0048  0.2834
15640SOL    HW149813   8.472   7.682   9.351 -0.1124  0.1621  0.0822
15640SOL    HW249814   8.420   7.582   9.249  1.1963 -0.4533 -0.0081
15641SOL     OW49815   6.797   2.881   2.717  0.8452  0.3756 -0.6059
15641SOL    HW149816   6.709   2.848   2.701  0.8337 -0.6170  1.2517
15641SOL    HW249817   6.792   2.974   2.697 -1.0031  0.6174  0.7211
15642SOL     OW49818   5.557   8.248   6.578 -0.3406 -0.1414  0.1272
15642SOL    HW149819   5.611   8.216   6.506 -1.2146  3.0209 -2.1673
15642SOL    HW249820   5.472   8.267   6.538 -0.8154  1.9104  1.9048
15643SOL     OW49821   4.611   2.884   4.162 -0.0779 -0.1266  0.6944
15643SOL    HW149822   4.672   2.846   4.226  0.5897  0.0432  0.1723
15643SOL    HW249823   4.593   2.813   4.100  0.4537  0.1329  0.2343
15644SOL     OW49824   6.759   9.511   6.690 -0.0230  0.4355  0.3412
15644SOL    HW149825   6.666   9.489   6.687 -0.3254  1.5702  0.7389
15644SOL    HW249826   6.775   9.554   6.606  0.1967  0.0347  0.1790
15645SOL     OW49827   2.517   3.406   7.190 -0.7199  0.3372  0.3671
15645SOL    HW149828   2.566   3.474   7.144  2.3143 -1.6459  0.4176
15645SOL    HW249829   2.515   3.436   7.281  0.6790  0.3455  0.4117
15646SOL     OW49830   8.141   3.822   8.697  0.3437  0.0972  0.0614
15646SOL    HW149831   8.192   3.879   8.641 -1.5669  1.4094 -0.4287
15646SOL    HW249832   8.175   3.839   8.785  0.7258  0.9519 -0.2410
15647SOL     OW49833   4.150   8.573   4.547 -0.4916 -0.2802  0.2006
15647SOL    HW149834   4.102   8.550   4.626 -0.6288 -1.4717 -0.1943
15647SOL    HW249835   4.216   8.503   4.538 -0.3460 -0.0495 -0.6140
15648SOL     OW49836   0.810   1.347   5.885  0.4334  0.4574 -0.1939
15648SOL    HW149837   0.842   1.411   5.948 -0.9001  0.2764  0.7094
15648SOL    HW249838   0.889   1.310   5.845  1.2766  0.9836  0.9513
15649SOL     OW49839   2.137   0.578   6.087  0.2063  0.0538 -0.1326
15649SOL    HW149840   2.074   0.639   6.050  0.5047 -0.9348 -2.4922
15649SOL    HW249841   2.189   0.630   6.148 -0.3893  1.8184 -1.0710
15650SOL     OW49842   7.211   5.840   0.724  0.6934  0.3872 -0.1735
15650SOL    HW149843   7.145   5.774   0.700 -1.6838  2.3991  0.4971
15650SOL    HW249844   7.161   5.916   0.753  3.3152  1.2253  2.7718
15651SOL     OW49845   3.049   3.868  10.658  0.4279 -0.3862  0.1687
15651SOL    HW149846   3.007   3.784  10.643  0.2268 -0.2458 -0.0559
15651SOL    HW249847   3.036   3.917  10.577 -0.4674  0.2930  0.7005
15652SOL     OW49848   2.058   8.177   5.598 -0.1414 -0.3446  0.0758
15652SOL    HW149849   1.999   8.251   5.613 -0.4828 -0.5023 -0.4408
15652SOL    HW249850   2.002   8.100   5.605  0.3101 -0.5923  1.1144
15653SOL     OW49851   8.266   6.596   0.388 -0.2606  1.1665  0.0119
15653SOL    HW149852   8.279   6.646   0.468 -0.7622  0.5400  0.5016
15653SOL    HW249853   8.171   6.599   0.373 -0.7174 -1.8005  1.5517
15654SOL     OW49854   0.087  10.437   1.059  0.6278 -0.6354  0.2182
15654SOL    HW149855   0.182  10.450   1.067  0.7645  0.7223 -2.4046
15654SOL    HW249856   0.072  10.431   0.965 -2.0562  0.5079  0.4880
15655SOL     OW49857   5.592   9.238   2.097 -0.5262  0.5383 -0.2919
15655SOL    HW149858   5.518   9.183   2.072  0.9322 -1.6568 -0.1255
15655SOL    HW249859   5.630   9.266   2.013 -0.3564 -0.0985 -0.4405
15656SOL     OW49860   1.862   4.943   6.353  0.3183  0.1079  0.1817
15656SOL    HW149861   1.769   4.956   6.340  0.1804 -2.2774 -1.9690
15656SOL    HW249862   1.868   4.884   6.428  0.1561  0.7027  0.6697
15657SOL     OW49863   1.299   6.667   5.147 -1.0165 -0.2473 -0.3180
15657SOL    HW149864   1.273   6.695   5.059  0.4254  0.9186 -0.4111
15657SOL    HW249865   1.227   6.695   5.204 -1.4035  0.0687 -0.9526
15658SOL     OW49866  10.731   8.053   5.659  0.1580  0.1242  0.0781
15658SOL    HW149867  10.648   8.068   5.615  0.6169 -0.6400 -1.1140
15658SOL    HW249868  10.735   7.957   5.670  0.3612  0.2450  1.1992
15659SOL     OW49869   4.919   4.996   9.609  0.3808 -0.6302 -0.1352
15659SOL    HW149870   4.846   5.050   9.580 -1.8541 -2.1961  2.0897
15659SOL    HW249871   4.937   4.937   9.535  0.0773  0.4150 -1.0598
15660SOL     OW49872   7.383   1.965   9.068 -0.1723 -0.3043  0.2928
15660SOL    HW149873   7.288   1.977   9.058 -0.2933 -0.5132  1.1470
15660SOL    HW249874   7.411   2.038   9.124 -0.3122 -1.7981  2.4306
15661SOL     OW49875   8.626   9.060   0.529  0.2068  0.0306  0.0332
15661SOL    HW149876   8.677   9.105   0.461 -1.2631  0.5472 -0.7904
15661SOL    HW249877   8.602   8.976   0.489  0.5538 -0.2833  0.4799
15662SOL     OW49878   2.329   2.458   0.086 -0.0627  0.5017 -0.4960
15662SOL    HW149879   2.270   2.454   0.161 -1.1831  0.6417 -1.3426
15662SOL    HW249880   2.339   2.366   0.060 -0.6474  0.5386 -0.8879
15663SOL     OW49881   4.819   8.785   3.713 -0.2808  0.4295 -0.2495
15663SOL    HW149882   4.792   8.773   3.804  1.7104 -0.7358  0.2671
15663SOL    HW249883   4.818   8.696   3.677 -2.3885  1.0304 -1.8344
15664SOL     OW49884   5.033   4.517   0.003  0.4536 -0.2006  0.3818
15664SOL    HW149885   5.068   4.557  -0.076  2.5820 -1.1051  0.7774
15664SOL    HW249886   4.984   4.441  -0.027 -0.2689  0.4712 -0.1496
15665SOL     OW49887   7.092   4.228   7.759 -0.1419  0.5715 -0.6939
15665SOL    HW149888   7.128   4.205   7.844 -1.3063  1.9485  0.2113
15665SOL    HW249889   7.008   4.182   7.755 -0.1993  0.6974 -1.0012
15666SOL     OW49890   4.644   6.214   1.331  0.2459  0.3653  0.5373
15666SOL    HW149891   4.717   6.153   1.345 -0.7139 -0.5868  1.5479
15666SOL    HW249892   4.684   6.301   1.338  2.0774 -0.0129 -3.1279
15667SOL     OW49893   1.557   4.156   7.248  0.3446 -0.1760  0.5752
15667SOL    HW149894   1.606   4.237   7.261 -0.9215  0.8105 -0.4449
15667SOL    HW249895   1.623   4.087   7.249  1.8966  1.1561 -1.6087
15668SOL     OW49896   8.953   9.559   9.467 -0.2643 -0.0274  0.2832
15668SOL    HW149897   9.042   9.595   9.475 -0.5195  0.3073  2.4015
15668SOL    HW249898   8.964   9.477   9.420  0.6410  1.6702 -2.7441
15669SOL     OW49899   7.689  10.720   6.870 -0.0161  0.1580 -0.7726
15669SOL    HW149900   7.668  10.665   6.945  0.2277  0.0006 -0.8184
15669SOL    HW249901   7.717  10.659   6.802 -0.8469  0.2501 -1.2084
15670SOL     OW49902   1.287   4.680   5.729 -0.0607 -0.0174 -0.2499
15670SOL    HW149903   1.260   4.695   5.638 -0.7036 -0.0070 -0.0610
15670SOL    HW249904   1.382   4.697   5.729  0.1578 -1.1164 -1.1472
15671SOL     OW49905   3.960   4.525   4.677 -0.0273  0.0499  0.3426
15671SOL    HW149906   3.951   4.611   4.638  2.8243 -0.1948 -1.0416
15671SOL    HW249907   3.870   4.491   4.681 -1.3815  3.3597  1.8560
15672SOL     OW49908  10.253   9.812   3.297  0.4040  0.0412 -0.2161
15672SOL    HW149909  10.167   9.852   3.308 -0.7365 -2.0777 -0.7920
15672SOL    HW249910  10.306   9.848   3.367 -0.9949  1.3020  0.2307
15673SOL     OW49911   7.997   1.834   9.326 -0.2238  0.0544 -0.3162
15673SOL    HW149912   7.966   1.826   9.416 -0.6655 -1.4163 -0.5677
15673SOL    HW249913   8.071   1.773   9.322 -0.1378  0.1983 -0.9175
15674SOL     OW49914   2.918   4.069   7.285 -0.5834  0.1374  0.1043
15674SOL    HW149915   3.009   4.048   7.263 -0.1633  1.6857  0.2616
15674SOL    HW249916   2.874   3.984   7.287  0.7687 -0.6077 -0.3570
15675SOL     OW49917   3.619   8.924   2.106 -0.3745 -0.3620  0.4483
15675SOL    HW149918   3.603   8.865   2.180 -0.7834  1.1159  1.5952
15675SOL    HW249919   3.706   8.900   2.075 -0.4884 -1.4886  0.9514
15676SOL     OW49920  10.085   8.947  10.170 -0.1412  0.2318  0.7874
15676SOL    HW149921  10.123   8.987  10.248  0.5930 -0.9273  1.0504
15676SOL    HW249922  10.114   8.856  10.173  1.4402  0.5450 -1.7999
15677SOL     OW49923   0.946   3.531   5.173 -0.3149  0.0856 -0.1274
15677SOL    HW149924   0.935   3.582   5.253 -1.0015  0.2700 -0.3226
15677SOL    HW249925   0.877   3.565   5.114 -0.3238 -0.5798 -0.5113
15678SOL     OW49926   2.804  10.146   3.544  0.3909 -0.2382 -0.0154
15678SOL    HW149927   2.764  10.203   3.611  0.8085  0.7352 -0.5790
15678SOL    HW249928   2.889  10.122   3.581  0.1965 -0.5333  0.2428
15679SOL     OW49929   5.535  10.757   6.758 -0.5941 -0.1715  0.1846
15679SOL    HW149930   5.492  10.724   6.837 -1.6211 -3.3625 -1.5186
15679SOL    HW249931   5.469  10.747   6.689  1.1163  0.0119 -1.5573
15680SOL     OW49932   7.681   9.445   2.929 -0.1305  0.3489 -0.3115
15680SOL    HW149933   7.665   9.383   2.858 -2.2048 -0.5869  0.8972
15680SOL    HW249934   7.599   9.494   2.937  0.2882  0.8764  1.0237
15681SOL     OW49935   3.297   6.450   8.680  0.2523  0.7060  0.3298
15681SOL    HW149936   3.245   6.490   8.609  1.4812  0.3662 -0.7996
15681SOL    HW249937   3.243   6.462   8.758 -2.9084 -2.1525 -1.1568
15682SOL     OW49938   4.125   8.211   1.170 -1.4379  0.3814  0.4492
15682SOL    HW149939   4.149   8.287   1.223  1.1292  0.4762 -0.6818
15682SOL    HW249940   4.169   8.138   1.213 -0.7384  0.1888 -0.5602
15683SOL     OW49941   6.208   5.601   6.878 -0.3882 -0.3610 -0.4153
15683SOL    HW149942   6.119   5.595   6.912  0.8065 -1.2676  2.9466
15683SOL    HW249943   6.255   5.528   6.920  1.9947  0.2183 -1.8807
15684SOL     OW49944   9.446   6.945   3.264 -0.1084  0.4963 -0.1763
15684SOL    HW149945   9.357   6.972   3.240  0.4008  1.5871 -0.9193
15684SOL    HW249946   9.435   6.894   3.344 -1.6366 -1.3063 -1.4548
15685SOL     OW49947   5.496   2.325   6.489 -0.2338  0.3478 -0.1582
15685SOL    HW149948   5.416   2.273   6.496  0.2132 -0.4424 -0.8351
15685SOL    HW249949   5.478   2.388   6.419 -1.1074  1.7601  1.2560
15686SOL     OW49950   0.185   9.988   2.089 -0.5942  0.0173  0.4242
15686SOL    HW149951   0.194  10.080   2.114  0.1961  0.1843 -0.4154
15686SOL    HW249952   0.163   9.991   1.995  0.3138 -0.6613  0.1816
15687SOL     OW49953   6.730   9.587   0.723 -0.0981 -0.4938 -0.2045
15687SOL    HW149954   6.761   9.606   0.811 -0.2608  0.9479 -0.4219
15687SOL    HW249955   6.767   9.501   0.702  1.9347  0.1714  0.3847
15688SOL     OW49956   1.643  10.543   2.263  0.8763 -0.0114  0.8267
15688SOL    HW149957   1.631  10.449   2.245 -0.0232  0.0735  0.9455
15688SOL    HW249958   1.704  10.573   2.196 -1.0353 -0.0757 -1.0266
15689SOL     OW49959  10.435   3.277   7.921 -0.2941  0.0492 -0.2368
15689SOL    HW149960  10.345   3.303   7.899 -0.6673 -0.6995  0.3362
15689SOL    HW249961  10.430   3.250   8.013 -0.2017 -2.9075 -0.9891
15690SOL     OW49962  10.132   1.570  10.759 -0.6894  0.4370  0.1611
15690SOL    HW149963  10.224   1.595  10.762 -0.0759 -1.6887  3.1456
15690SOL    HW249964  10.089   1.633  10.817 -1.1201  1.2111 -0.9587
15691SOL     OW49965   8.453   1.569   2.351 -0.8202  0.0834 -0.5145
15691SOL    HW149966   8.501   1.583   2.432  0.5584 -0.2539 -1.2356
15691SOL    HW249967   8.375   1.522   2.377 -0.3931 -0.0284  0.6197
15692SOL     OW49968  10.197   2.661   0.904  0.3018 -0.2452  0.4134
15692SOL    HW149969  10.190   2.582   0.851 -0.0146  0.9560 -1.4082
15692SOL    HW249970  10.109   2.673   0.941 -0.2190  0.3145 -0.9434
15693SOL     OW49971   3.336   8.127   0.619 -0.2846  0.1088 -0.4107
15693SOL    HW149972   3.281   8.194   0.579 -1.0615  0.5648  1.3110
15693SOL    HW249973   3.283   8.092   0.691  1.7189  0.7817  1.5288
15694SOL     OW49974   2.836   3.570   7.435  0.0844 -0.0993 -0.0321
15694SOL    HW149975   2.850   3.551   7.342  1.3020 -1.7612  0.4352
15694SOL    HW249976   2.923   3.594   7.468 -0.3659  0.6575  0.6439
15695SOL     OW49977   3.723   5.501  10.382 -0.0626 -0.1351 -0.5007
15695SOL    HW149978   3.715   5.542  10.296 -0.6235  2.4653  0.6887
15695SOL    HW249979   3.792   5.551  10.426 -0.4629 -0.7563  0.9002
15696SOL     OW49980   7.260   0.244   5.230 -0.2819 -0.3810  0.1800
15696SOL    HW149981   7.265   0.235   5.135 -0.5513 -0.3694  0.1636
15696SOL    HW249982   7.345   0.215   5.262  0.6660  1.7795 -0.2234
15697SOL     OW49983   7.582   7.394   5.201  0.4664 -0.2887  0.2850
15697SOL    HW149984   7.537   7.331   5.145  0.9792 -1.0647  0.7399
15697SOL    HW249985   7.635   7.341   5.260  0.5955  0.5520  0.9449
15698SOL     OW49986   2.664   8.875   8.412 -0.6858  0.5270 -0.5478
15698SOL    HW149987   2.741   8.844   8.364 -1.2240 -1.8880 -0.0180
15698SOL    HW249988   2.670   8.970   8.410  1.4647  0.4186 -1.8584
15699SOL     OW49989   2.321   2.102   4.222  0.5352  0.0059  0.2728
15699SOL    HW149990   2.360   2.110   4.135  2.9152 -1.0941  1.1565
15699SOL    HW249991   2.318   2.191   4.256  0.4158  0.3304 -0.5762
15700SOL     OW49992  10.711   5.574   0.322 -0.3938  0.1921  0.1178
15700SOL    HW149993  10.618   5.555   0.317 -0.6679  1.3204  0.7304
15700SOL    HW249994  10.749   5.528   0.247 -1.5056  0.1477 -0.4356
15701SOL     OW49995  10.517  10.630   9.294 -0.2974 -0.5776 -0.5317
15701SOL    HW149996  10.443  10.663   9.344  0.6292  0.9843 -0.1349
15701SOL    HW249997  10.492  10.540   9.270 -2.5822  0.1288 -0.9969
15702SOL     OW49998   3.033   2.951   9.231 -0.1925 -0.0813  0.5739
15702SOL    HW149999   2.940   2.927   9.239  0.2252 -1.7329  0.8048
15702SOL    HW250000   3.033   3.027   9.173 -1.5922 -0.9976 -0.7205
15703SOL     OW50001   6.537   7.387   8.620 -0.0576  0.3261 -0.3424
15703SOL    HW150002   6.595   7.312   8.607  0.5073  0.9666 -1.6969
15703SOL    HW250003   6.553   7.443   8.544  0.4666  2.4557  1.2461
15704SOL     OW50004   1.145   9.956   6.973 -0.6108  0.1385 -0.4598
15704SOL    HW150005   1.218   9.931   6.917 -0.6995 -0.7741 -0.1754
15704SOL    HW250006   1.069   9.911   6.936 -0.8859  0.4667 -0.2981
15705SOL     OW50007   5.771   5.008   1.400 -0.3041 -0.2975 -0.1883
15705SOL    HW150008   5.712   4.964   1.461  0.4390 -0.1800  0.6327
15705SOL    HW250009   5.716   5.074   1.357 -1.0190 -0.8926 -0.2199
15706SOL     OW50010   2.163  10.005   8.484  0.7580  0.1318 -0.8903
15706SOL    HW150011   2.150  10.098   8.466  1.7733  0.1002 -1.8770
15706SOL    HW250012   2.163   9.963   8.398  2.2640 -0.5138 -0.6103
15707SOL     OW50013   8.653   0.521   0.987 -0.1108 -0.1851 -0.1112
15707SOL    HW150014   8.681   0.521   1.079  0.4665  2.0000 -0.2146
15707SOL    HW250015   8.558   0.520   0.992 -0.1974  2.3868  0.7089
15708SOL     OW50016   4.912   1.674   4.060 -0.4288  0.4519 -0.1860
15708SOL    HW150017   5.005   1.672   4.083  0.5688 -1.9741 -3.7087
15708SOL    HW250018   4.881   1.585   4.077 -1.5813  0.6813 -0.9935
15709SOL     OW50019   9.445   2.742   5.223  0.4750  0.0875  0.3999
15709SOL    HW150020   9.509   2.686   5.179  0.1826 -0.0296  0.1220
15709SOL    HW250021   9.418   2.806   5.157 -0.9405 -0.8971 -0.0213
15710SOL     OW50022   8.013   3.413   8.146  0.1456  0.0338 -0.0866
15710SOL    HW150023   8.067   3.390   8.070  1.3229  1.0366  0.4190
15710SOL    HW250024   8.035   3.504   8.164 -1.4802  0.3705  0.3660
15711SOL     OW50025   3.789   3.924   4.840  0.9602  0.3189  0.3990
15711SOL    HW150026   3.864   3.974   4.875  0.9557 -0.0899  1.0046
15711SOL    HW250027   3.784   3.846   4.895 -0.0413  0.4352  0.4923
15712SOL     OW50028   8.939   5.603   0.741  0.5459  0.2139 -0.2560
15712SOL    HW150029   8.957   5.530   0.683  0.3009  1.3707 -1.8723
15712SOL    HW250030   8.935   5.565   0.828  0.7120 -1.6303 -1.0160
15713SOL     OW50031   2.692   0.600   4.698 -0.4791 -0.3736  0.0465
15713SOL    HW150032   2.719   0.544   4.771  0.5104 -0.9944 -0.7802
15713SOL    HW250033   2.773   0.621   4.652 -1.1372 -0.4013 -1.1662
15714SOL     OW50034   3.486   0.989   8.739  0.1341 -0.0508 -0.6486
15714SOL    HW150035   3.437   0.999   8.657  0.5626  0.5105 -0.8447
15714SOL    HW250036   3.466   1.067   8.789  2.7029  1.4646 -1.7508
15715SOL     OW50037   5.316   1.098   5.032  0.2956  0.0489 -0.5206
15715SOL    HW150038   5.353   1.031   4.975  2.3606 -0.7239  1.5676
15715SOL    HW250039   5.380   1.169   5.030 -0.2646  0.5741 -0.1757
15716SOL     OW50040   7.571   7.021  10.094 -0.0962 -0.4901  0.5661
15716SOL    HW150041   7.648   7.058  10.051  0.7739 -1.1304  1.5190
15716SOL    HW250042   7.499   7.080  10.070  0.8804  0.7112  0.5153
15717SOL     OW50043   9.876   9.350   5.330  0.4470 -0.0999 -0.2529
15717SOL    HW150044   9.855   9.325   5.240  1.2788 -0.2997 -0.4045
15717SOL    HW250045   9.893   9.444   5.325  0.4668 -0.1062 -0.3020
15718SOL     OW50046  10.170   1.220  10.730  0.4024 -0.0318 -0.0962
15718SOL    HW150047  10.256   1.187  10.759  0.6618  0.2257 -0.5704
15718SOL    HW250048  10.174   1.314  10.745 -0.0476 -0.1040  0.5054
15719SOL     OW50049   0.365   2.468   2.810 -0.0960 -0.3682 -0.4234
15719SOL    HW150050   0.451   2.465   2.851 -0.1494 -0.3885 -0.3127
15719SOL    HW250051   0.304   2.475   2.883 -0.2791 -1.8252 -0.4046
15720SOL     OW50052   6.073   1.950   2.986  0.0735  0.1664  0.5143
15720SOL    HW150053   6.011   2.017   2.955  0.9886  1.0223  0.4926
15720SOL    HW250054   6.056   1.874   2.930 -0.2603  0.7331 -0.1738
15721SOL     OW50055   7.166   1.006   5.611  0.3734 -0.3845  0.0630
15721SOL    HW150056   7.211   0.970   5.688 -0.6047 -0.5049  0.5867
15721SOL    HW250057   7.157   1.100   5.630  0.8125 -0.2762 -0.2503
15722SOL     OW50058   7.119  10.187   0.248  0.7724  0.2227 -0.0649
15722SOL    HW150059   7.142  10.137   0.169  1.8623  0.5182  0.0560
15722SOL    HW250060   7.092  10.120   0.311  1.0826 -0.1227 -0.2905
15723SOL     OW50061   1.057   6.370   3.533 -0.1872 -0.3032 -0.0383
15723SOL    HW150062   1.095   6.404   3.452  0.5202  3.2927  1.5808
15723SOL    HW250063   1.133   6.340   3.583 -0.3526 -0.3602  0.1752
15724SOL     OW50064   6.340   4.786   6.846 -0.2972  0.1498 -0.6599
15724SOL    HW150065   6.406   4.736   6.893 -1.1235 -0.5036 -0.1570
15724SOL    HW250066   6.271   4.802   6.911 -0.0536  1.9738 -0.7951
15725SOL     OW50067   7.136   8.892   4.045 -0.2866 -0.0728 -0.0962
15725SOL    HW150068   7.057   8.886   4.099 -0.1510  2.6857  0.5493
15725SOL    HW250069   7.195   8.949   4.095  2.5380 -2.6304 -0.1715
15726SOL     OW50070   8.736   0.967  10.301 -0.1656  0.0165 -0.5752
15726SOL    HW150071   8.701   0.926  10.222 -0.7140  0.9640 -0.8377
15726SOL    HW250072   8.751   0.894  10.361 -2.8638 -0.4426 -0.3315
15727SOL     OW50073   2.521   2.957   3.417 -0.2924  0.2266 -0.2975
15727SOL    HW150074   2.587   2.895   3.385  0.4707  1.2066 -0.6736
15727SOL    HW250075   2.471   2.981   3.340  0.8717  1.7806 -0.6205
15728SOL     OW50076   8.666   4.263   6.168 -0.4775 -0.3763 -0.3980
15728SOL    HW150077   8.731   4.311   6.117 -0.4564  0.0927  0.0577
15728SOL    HW250078   8.589   4.261   6.112 -0.4800  0.2008 -0.4295
15729SOL     OW50079  10.198   9.417  10.532 -0.4153 -0.2815  0.0093
15729SOL    HW150080  10.213   9.446  10.621 -0.2378  2.4365 -0.8129
15729SOL    HW250081  10.255   9.473  10.478 -2.5845  0.1787 -1.9948
15730SOL     OW50082   1.656   6.938  10.537 -0.8424  0.2018  0.6842
15730SOL    HW150083   1.748   6.957  10.524 -0.3863 -1.2430  1.5763
15730SOL    HW250084   1.633   6.879  10.465 -0.3145 -1.6235  1.9305
15731SOL     OW50085   0.019   9.655   3.782  0.6571  0.4472  0.0662
15731SOL    HW150086  -0.043   9.704   3.836  0.4310 -0.7027  0.8801
15731SOL    HW250087   0.041   9.578   3.834  0.8602 -0.4229 -1.2479
15732SOL     OW50088   8.337   8.095   5.505  0.2695 -0.3589  0.2376
15732SOL    HW150089   8.411   8.143   5.468 -0.3857  1.1910  0.8708
15732SOL    HW250090   8.268   8.101   5.439  0.4698 -1.2359 -0.0673
15733SOL     OW50091  10.412   8.579   1.446  0.3508  0.2990 -0.2791
15733SOL    HW150092  10.434   8.641   1.377 -1.0276  1.0539 -0.0773
15733SOL    HW250093  10.333   8.615   1.487  0.7759 -0.4505  1.2882
15734SOL     OW50094   3.950   0.773   0.353 -0.2071 -0.2255 -0.6634
15734SOL    HW150095   3.876   0.715   0.337  0.6408 -1.3916 -0.4982
15734SOL    HW250096   3.997   0.776   0.270 -0.2382  0.2229 -0.6676
15735SOL     OW50097  10.675   2.392   5.027 -0.0942 -0.5859 -0.1043
15735SOL    HW150098  10.708   2.365   5.113  0.6713  0.6398  0.0060
15735SOL    HW250099  10.693   2.318   4.970  1.0997 -0.7020  0.3888
15736SOL     OW50100   8.159   8.796  10.562  0.0778  0.1896  0.1924
15736SOL    HW150101   8.123   8.839  10.484 -0.5583 -1.0446 -0.2104
15736SOL    HW250102   8.253   8.817  10.558  0.0417  0.2366 -0.8478
15737SOL     OW50103   5.260   8.743   9.944 -0.2601  0.0398  0.9090
15737SOL    HW150104   5.191   8.738  10.010  0.7944 -0.9039  1.9953
15737SOL    HW250105   5.299   8.656   9.945  0.0127  0.1130 -0.7398
15738SOL     OW50106   8.565   3.436   4.469 -0.3539 -0.1366 -0.4228
15738SOL    HW150107   8.522   3.522   4.464 -0.4079 -0.2163 -1.5393
15738SOL    HW250108   8.504   3.382   4.519 -0.7566  0.2215 -0.5218
15739SOL     OW50109   8.676   4.257   8.247 -0.5061  0.1476  0.1829
15739SOL    HW150110   8.673   4.228   8.156 -0.2038 -0.4197  0.3499
15739SOL    HW250111   8.614   4.330   8.251 -2.6227 -1.5690  0.1493
15740SOL     OW50112   8.937   8.516   2.668 -0.4932 -0.5038  0.7121
15740SOL    HW150113   8.871   8.573   2.628  1.8748  1.1913 -1.0802
15740SOL    HW250114   8.926   8.530   2.762 -0.4470  2.4827  0.3655
15741SOL     OW50115   5.109  10.603   7.280 -0.3287  0.2786  0.2623
15741SOL    HW150116   5.125  10.677   7.338 -1.2474 -1.9383  3.6653
15741SOL    HW250117   5.196  10.571   7.258  0.1835 -0.5457  3.0205
15742SOL     OW50118   4.887   2.849   0.480 -0.2353  0.3174  0.2982
15742SOL    HW150119   4.832   2.921   0.511 -0.4341  0.3778 -0.1916
15742SOL    HW250120   4.949   2.890   0.420  0.8837  0.3833  1.4516
15743SOL     OW50121   5.931   1.402   6.681 -0.4328  0.5027  0.1534
15743SOL    HW150122   5.983   1.439   6.752 -0.3019 -0.0518  0.3507
15743SOL    HW250123   5.971   1.317   6.664 -0.2108  0.7952 -0.8585
15744SOL     OW50124   4.377   9.476   2.926 -0.5156  0.4696  0.0296
15744SOL    HW150125   4.416   9.503   3.009  0.9421  0.9781 -0.7867
15744SOL    HW250126   4.293   9.438   2.951 -0.0298  0.4213  1.7518
15745SOL     OW50127   9.658   6.918   8.414 -0.1150 -0.3839 -0.0538
15745SOL    HW150128   9.591   6.979   8.383  0.2055  0.8211  1.4792
15745SOL    HW250129   9.729   6.928   8.350 -0.5636 -0.0892 -0.5199
15746SOL     OW50130   2.527   7.906   7.666  0.3337  0.5581  0.0590
15746SOL    HW150131   2.578   7.984   7.687  0.5697  0.4600 -0.1474
15746SOL    HW250132   2.435   7.933   7.678  0.4289  0.7437  0.3954
15747SOL     OW50133   7.123   4.112   5.370 -0.5758  0.0234  0.1817
15747SOL    HW150134   7.144   4.034   5.421 -1.5973 -0.0879  0.4517
15747SOL    HW250135   7.071   4.080   5.296 -0.3147  0.3528 -0.1476
15748SOL     OW50136   5.282   8.620   0.337 -0.6958  0.0384 -0.1831
15748SOL    HW150137   5.335   8.572   0.273  0.6903 -1.1734  1.7620
15748SOL    HW250138   5.248   8.552   0.396 -0.5031  1.2386  1.3786
15749SOL     OW50139   4.829   3.538   8.826  0.6516 -0.1033  0.1881
15749SOL    HW150140   4.876   3.550   8.909 -1.2425 -0.3859  1.3877
15749SOL    HW250141   4.801   3.446   8.828  1.8453 -0.5445 -1.5157
15750SOL     OW50142  10.145  10.452   7.160  0.2845  0.1618 -0.0670
15750SOL    HW150143  10.190  10.372   7.189 -0.9209  0.3122  2.4838
15750SOL    HW250144  10.084  10.472   7.231 -1.1283  2.0620 -1.7087
15751SOL     OW50145   0.885  10.376   1.178  0.6800  0.5233  0.0788
15751SOL    HW150146   0.851  10.288   1.196 -1.1611  1.0208 -0.6620
15751SOL    HW250147   0.807  10.432   1.177  1.3455  1.5796 -2.8522
15752SOL     OW50148   6.072   3.876   0.980  0.3859 -0.0797 -0.2828
15752SOL    HW150149   5.981   3.864   1.004  0.7866 -1.5228  0.5886
15752SOL    HW250150   6.087   3.970   0.988 -0.8842  0.1052  0.0186
15753SOL     OW50151   2.015   2.788   7.008  0.2840 -0.3604  0.5272
15753SOL    HW150152   1.962   2.787   6.928  1.6414 -0.4052 -0.4017
15753SOL    HW250153   2.006   2.700   7.044  0.7416 -0.7650 -0.3253
15754SOL     OW50154   7.728   4.204   8.719 -0.0361  0.1158  0.2659
15754SOL    HW150155   7.786   4.169   8.787  1.6875  2.2111 -0.0301
15754SOL    HW250156   7.720   4.297   8.740 -2.8422  0.0459 -0.0868
15755SOL     OW50157   9.408   4.036   2.447 -0.1190  0.3150 -0.6131
15755SOL    HW150158   9.313   4.025   2.450 -0.4530  2.7526  0.1808
15755SOL    HW250159   9.443   3.952   2.476 -2.0361 -0.4051 -0.2249
15756SOL     OW50160   0.531   9.250   1.507 -0.2832 -0.0537  0.4756
15756SOL    HW150161   0.518   9.195   1.429  1.0255  2.0185 -1.3185
15756SOL    HW250162   0.447   9.293   1.520 -0.9718 -1.5309  1.2007
15757SOL     OW50163   9.888   8.646   1.115  0.0312 -1.0260  0.2630
15757SOL    HW150164   9.795   8.643   1.137 -0.0641 -1.2851 -0.1461
15757SOL    HW250165   9.889   8.650   1.019  0.4292  0.2144  0.3040
15758SOL     OW50166   0.071   1.002   8.306 -0.2098  0.3277  0.0210
15758SOL    HW150167   0.037   1.050   8.230 -2.4334 -1.0945  0.0519
15758SOL    HW250168   0.004   1.012   8.373  1.8300  1.7782  2.0048
15759SOL     OW50169   7.966   7.676   4.384  0.0846 -0.3347 -0.0627
15759SOL    HW150170   8.016   7.728   4.446  0.7892 -0.2920 -0.6519
15759SOL    HW250171   7.992   7.586   4.402 -3.2056 -0.9237  2.8826
15760SOL     OW50172   7.033   4.917   1.140 -0.1833  0.6935  0.2421
15760SOL    HW150173   7.006   4.826   1.132 -0.0877  0.6449  0.4618
15760SOL    HW250174   7.120   4.913   1.180 -0.0759  0.8702  0.0294
15761SOL     OW50175   7.359  10.414   6.757  0.1896  0.0726  0.2463
15761SOL    HW150176   7.432  10.355   6.741  0.2475  0.2156 -0.0124
15761SOL    HW250177   7.358  10.473   6.682  0.0288  0.2961  0.4226
15762SOL     OW50178   6.896   4.263   4.175 -0.1733  0.0453  0.5668
15762SOL    HW150179   6.922   4.349   4.143  0.5189 -0.1516  0.5816
15762SOL    HW250180   6.820   4.240   4.122  0.2900  0.2011 -0.1860
15763SOL     OW50181   8.136   6.170   5.335 -0.3149  0.3610  0.0805
15763SOL    HW150182   8.124   6.259   5.369  0.8221  0.1481  1.1383
15763SOL    HW250183   8.089   6.114   5.397  3.0882 -0.1824  2.4483
15764SOL     OW50184   9.621   0.945   8.143  0.1670 -0.5350 -0.4140
15764SOL    HW150185   9.707   0.904   8.133 -0.1303 -0.7255 -2.4449
15764SOL    HW250186   9.640   1.039   8.145  0.4871 -0.6033  0.0525
15765SOL     OW50187   3.059   5.383   7.652  0.2150 -0.0975  0.3504
15765SOL    HW150188   3.118   5.447   7.613 -1.1345  1.1910  0.3280
15765SOL    HW250189   3.067   5.399   7.747 -1.4231  1.3939  0.2915
15766SOL     OW50190   2.668   7.426   6.201  1.0396  0.1986  0.0815
15766SOL    HW150191   2.642   7.518   6.201  0.1939 -0.0199 -0.7715
15766SOL    HW250192   2.643   7.394   6.288  3.7816  1.3789  1.4371
15767SOL     OW50193   2.839   1.609   9.936  0.8427 -0.4493  0.2913
15767SOL    HW150194   2.853   1.702   9.955 -1.7199  0.5702 -2.0123
15767SOL    HW250195   2.878   1.597   9.849  0.2046 -1.2344  0.1035
15768SOL     OW50196   7.593   4.776   8.914  0.5654  0.1939 -0.1431
15768SOL    HW150197   7.519   4.775   8.975  0.6294 -0.1978 -0.0733
15768SOL    HW250198   7.564   4.724   8.839  1.5670 -1.8650  0.8283
15769SOL     OW50199   6.350   1.745   2.931 -0.5305 -0.2413  0.2130
15769SOL    HW150200   6.433   1.760   2.977 -1.1944  0.3358  1.2689
15769SOL    HW250201   6.340   1.822   2.876  0.1547 -0.8255 -0.7559
15770SOL     OW50202   6.058   4.181   0.642  0.3320  0.3582 -0.3763
15770SOL    HW150203   5.986   4.130   0.679  0.8910  0.5330  1.0027
15770SOL    HW250204   6.127   4.116   0.626  0.5911  0.4857  0.2058
15771SOL     OW50205   8.748   5.006   5.144  0.4589  0.3417 -0.0010
15771SOL    HW150206   8.798   5.036   5.068  0.4323 -1.5588 -0.8293
15771SOL    HW250207   8.662   4.983   5.109 -0.2057  1.2626  0.9749
15772SOL     OW50208   4.907   1.375   9.531 -0.4589 -0.3645 -0.6250
15772SOL    HW150209   4.868   1.416   9.608 -2.1929  0.6935 -1.9874
15772SOL    HW250210   4.993   1.346   9.560 -1.0766 -0.0524  1.7050
15773SOL     OW50211  10.280   5.101   4.701  0.2582 -0.1743 -0.4510
15773SOL    HW150212  10.218   5.152   4.648  0.0633  1.0068  0.8538
15773SOL    HW250213  10.259   5.124   4.791  1.3653 -1.2177  0.0980
15774SOL     OW50214   8.199   9.023   3.191 -0.3471 -0.0942  0.0243
15774SOL    HW150215   8.243   9.029   3.106  0.6073 -2.0682  0.3107
15774SOL    HW250216   8.270   9.033   3.255 -0.8454  0.0448  0.5631
15775SOL     OW50217   1.716   0.293   2.877 -0.4820 -0.1024  0.0943
15775SOL    HW150218   1.776   0.366   2.871 -0.4204 -0.2012 -0.5493
15775SOL    HW250219   1.689   0.291   2.969  1.9101 -1.1896  0.8448
15776SOL     OW50220   1.280  10.523   8.842  1.0117  0.3300  0.2528
15776SOL    HW150221   1.342  10.590   8.815  1.9243 -0.1839  0.9903
15776SOL    HW250222   1.235  10.497   8.762  0.1225  2.3027  0.0568
15777SOL     OW50223   6.551   2.195   9.814 -0.3729  0.1477 -0.0473
15777SOL    HW150224   6.473   2.139   9.810 -1.2656  1.2852  0.7942
15777SOL    HW250225   6.555   2.223   9.905  0.8792  0.3377 -0.1453
15778SOL     OW50226   9.759   8.778   9.913 -0.3959  0.1639 -0.0203
15778SOL    HW150227   9.804   8.821   9.986 -0.7714 -0.0077  0.3190
15778SOL    HW250228   9.805   8.808   9.835 -0.2620  0.6898  0.2576
15779SOL     OW50229   0.401   9.639   5.737  0.2484 -0.4302  0.4877
15779SOL    HW150230   0.486   9.677   5.718 -0.0607 -0.3187 -0.7865
15779SOL    HW250231   0.403   9.553   5.696 -0.3832 -0.2594  0.0695
15780SOL     OW50232   1.715   9.644   6.505  0.7805 -0.3492 -0.7865
15780SOL    HW150233   1.755   9.560   6.485  2.5956  0.0481  0.8336
15780SOL    HW250234   1.620   9.628   6.501  1.0740 -1.9589 -2.3311
15781SOL     OW50235   6.284   2.160   6.553  0.0632  0.3404 -0.2491
15781SOL    HW150236   6.355   2.219   6.528  0.3724  0.6130  1.1677
15781SOL    HW250237   6.275   2.100   6.479  1.9629  0.1226 -0.3501
15782SOL     OW50238  10.141  10.588  10.099  0.4494 -0.1830 -0.0801
15782SOL    HW150239  10.140  10.588  10.195 -0.0869  0.3871 -0.0839
15782SOL    HW250240  10.227  10.622  10.076  1.2477 -1.9241  0.1931
15783SOL     OW50241   4.565  10.005   7.225 -0.3404  0.2257  0.0818
15783SOL    HW150242   4.653  10.021   7.261  0.4722  0.1948 -1.8050
15783SOL    HW250243   4.576  10.013   7.131 -1.9635 -1.8049 -0.3354
15784SOL     OW50244   4.451   1.107   8.958  0.2309  0.0829 -0.4799
15784SOL    HW150245   4.376   1.055   8.986 -1.5371  3.3296  1.4019
15784SOL    HW250246   4.413   1.190   8.928  2.9975  1.4471 -0.5215
15785SOL     OW50247   9.411  10.466   1.888  0.0979 -0.0877  0.0813
15785SOL    HW150248   9.488  10.479   1.832  1.1265 -0.9466  1.2605
15785SOL    HW250249   9.383  10.555   1.910  0.6476  0.2352 -0.4871
15786SOL     OW50250   4.242   7.582   4.803 -0.0894  0.5499  0.7468
15786SOL    HW150251   4.241   7.523   4.728  1.2193  2.3561 -0.7832
15786SOL    HW250252   4.199   7.532   4.873 -2.9046 -0.6409 -1.5904
15787SOL     OW50253   3.001   9.270   7.449 -0.4014  0.0166 -0.1460
15787SOL    HW150254   3.076   9.321   7.418 -0.8754  1.2006  0.5715
15787SOL    HW250255   3.033   9.226   7.528 -0.0866 -0.5620 -0.5858
15788SOL     OW50256   0.403   4.906   6.802 -0.4495  0.3180  0.0971
15788SOL    HW150257   0.425   4.929   6.712 -2.1537  2.4562  0.1418
15788SOL    HW250258   0.341   4.833   6.793  2.9476 -2.8253 -0.1558
15789SOL     OW50259   5.484   7.921   9.830  0.0297 -0.0721 -0.5063
15789SOL    HW150260   5.578   7.906   9.827 -0.0286 -0.5199 -0.1602
15789SOL    HW250261   5.473   8.012   9.800  0.6753  0.3648  0.5365
15790SOL     OW50262  10.413   9.506   4.889  0.0806 -0.3111  0.3442
15790SOL    HW150263  10.328   9.477   4.924 -0.2502 -1.5028 -1.3487
15790SOL    HW250264  10.398   9.596   4.860 -0.2760 -0.1202  1.1005
15791SOL     OW50265   8.207   9.183   3.611 -0.4137  0.4975  0.1888
15791SOL    HW150266   8.175   9.211   3.697  1.7682  1.9372  0.6148
15791SOL    HW250267   8.232   9.092   3.624  1.9984  1.2916  1.8164
15792SOL     OW50268   0.196   3.805   9.605 -0.5124 -0.1995  0.3347
15792SOL    HW150269   0.207   3.757   9.687  1.3011 -0.4489 -0.0021
15792SOL    HW250270   0.278   3.790   9.558 -1.1843  0.6270 -1.1660
15793SOL     OW50271   5.440   5.806   2.927  0.3257 -0.4444 -0.0043
15793SOL    HW150272   5.378   5.849   2.869 -0.1055 -0.1359  0.6701
15793SOL    HW250273   5.465   5.874   2.990  2.1370 -0.2598 -0.8577
15794SOL     OW50274   1.728  10.146   3.899  0.3219  0.2361  0.1656
15794SOL    HW150275   1.645  10.161   3.855  1.1505  1.3017 -1.1320
15794SOL    HW250276   1.741  10.223   3.954  1.4797  1.2192 -1.3996
15795SOL     OW50277   1.085   9.567   1.199 -0.0209  0.1388 -0.1659
15795SOL    HW150278   1.125   9.640   1.153 -0.0355  0.5025  0.3906
15795SOL    HW250279   1.063   9.504   1.130 -1.6009  1.3870 -0.8630
15796SOL     OW50280   4.324   5.272   6.617 -0.0254  0.0786  0.4383
15796SOL    HW150281   4.311   5.301   6.707  2.4532  2.4706  0.1469
15796SOL    HW250282   4.402   5.317   6.588 -0.7897 -0.5190 -2.9965
15797SOL     OW50283  10.303   1.057  10.266  0.2404  0.2549  0.3642
15797SOL    HW150284  10.326   1.117  10.195 -0.8351 -0.2878 -0.4853
15797SOL    HW250285  10.232   1.004  10.229  0.2103 -0.5786  1.5822
15798SOL     OW50286   6.775   1.559   6.033  0.3250 -0.3756  0.0349
15798SOL    HW150287   6.750   1.468   6.046  1.1332 -0.7556 -0.9404
15798SOL    HW250288   6.841   1.575   6.101 -0.3056 -0.2936  0.6433
15799SOL     OW50289   0.037   2.231   1.092 -0.3919  0.1891 -0.5120
15799SOL    HW150290   0.112   2.242   1.034  0.2903  0.9720  0.4841
15799SOL    HW250291  -0.027   2.296   1.060  0.4440  1.4675  0.3007
15800SOL     OW50292   1.570   6.210   6.920 -0.3122 -0.0932  0.4038
15800SOL    HW150293   1.652   6.170   6.948 -0.0010  2.1916  3.3303
15800SOL    HW250294   1.588   6.244   6.833  0.9905 -1.7878 -0.0377
15801SOL     OW50295   7.567   3.809   1.701  0.6397 -0.7547  0.2275
15801SOL    HW150296   7.487   3.860   1.688  0.0822 -1.6299  0.1558
15801SOL    HW250297   7.568   3.788   1.794  1.6249  0.6018  0.5379
15802SOL     OW50298   2.473   2.297  10.432  0.5018  0.2227 -0.5009
15802SOL    HW150299   2.407   2.257  10.376 -0.1873 -0.3018  0.6475
15802SOL    HW250300   2.483   2.386  10.398 -0.1556  0.0302 -1.2242
15803SOL     OW50301   6.566   2.205   8.695  0.1982  0.2740 -0.1298
15803SOL    HW150302   6.578   2.111   8.713  0.4041  0.1452 -0.9333
15803SOL    HW250303   6.621   2.223   8.620 -1.3286  0.6113 -1.2155
15804SOL     OW50304   1.779   7.681  10.166  0.3561  0.4162 -0.1118
15804SOL    HW150305   1.772   7.591  10.196  1.5000  0.4149  0.2109
15804SOL    HW250306   1.689   7.714  10.165 -0.4577 -1.5497 -2.9256
15805SOL     OW50307   3.521   4.875   0.917 -0.1129  0.1294 -0.4564
15805SOL    HW150308   3.575   4.900   0.992 -0.2970 -1.2656  0.1610
15805SOL    HW250309   3.563   4.918   0.842  3.0614 -2.3880 -0.3295
15806SOL     OW50310  10.115   7.602   8.959 -0.6713 -0.1801  0.4272
15806SOL    HW150311  10.075   7.515   8.952  1.9354 -1.6140  2.0474
15806SOL    HW250312  10.150   7.606   9.047  0.0570  2.1991  0.0967
15807SOL     OW50313   9.496   3.991   1.406 -0.0914 -0.4478 -0.1634
15807SOL    HW150314   9.471   4.082   1.392  2.1687  0.0731 -1.1796
15807SOL    HW250315   9.437   3.941   1.349  0.3094  0.6167 -1.5546
15808SOL     OW50316   8.061   9.181   8.761 -0.1842 -0.6598  0.6764
15808SOL    HW150317   8.068   9.272   8.791  1.3253 -0.4524 -0.2320
15808SOL    HW250318   8.040   9.132   8.841  2.0513  0.1054  1.8369
15809SOL     OW50319   1.313   4.954   5.253 -0.6726  0.4207  0.6290
15809SOL    HW150320   1.365   4.902   5.313  0.7469 -0.1274 -1.0136
15809SOL    HW250321   1.263   5.014   5.310 -1.1487 -1.5913  2.4532
15810SOL     OW50322   5.430   1.563   3.830 -0.1421  0.3265 -0.1385
15810SOL    HW150323   5.390   1.645   3.859 -2.3561 -0.1875 -1.4960
15810SOL    HW250324   5.511   1.556   3.880 -1.3330  1.8855  2.1473
15811SOL     OW50325   0.463   4.993   0.220  0.2034  0.4274 -0.4385
15811SOL    HW150326   0.410   5.070   0.201  1.5343  1.4625 -0.1347
15811SOL    HW250327   0.467   4.945   0.137 -0.1196  1.0150 -0.7977
15812SOL     OW50328   7.870   6.780   3.977  0.0347  0.2105  0.2717
15812SOL    HW150329   7.883   6.687   3.960  0.1161  0.0273  1.2389
15812SOL    HW250330   7.828   6.814   3.899 -1.6618 -1.0035  0.6049
15813SOL     OW50331   9.822   7.850   6.824 -0.2231 -0.2203 -0.5099
15813SOL    HW150332   9.800   7.908   6.751  2.0070  0.0335 -1.0299
15813SOL    HW250333   9.917   7.838   6.818 -0.5510 -4.1675 -0.6076
15814SOL     OW50334   2.735   7.586   8.906 -0.2886 -0.3517  0.3491
15814SOL    HW150335   2.767   7.624   8.988  1.7091  2.4721 -1.5782
15814SOL    HW250336   2.654   7.633   8.887 -0.2909 -0.3985  0.2409
15815SOL     OW50337   0.427   3.664   4.739  0.2444 -0.1149  0.0206
15815SOL    HW150338   0.474   3.581   4.743  1.1647  0.4096  0.2432
15815SOL    HW250339   0.450   3.709   4.820 -2.6318 -0.8641  1.4003
15816SOL     OW50340  10.056   7.351   0.324 -0.2254 -0.2466  0.3124
15816SOL    HW150341   9.978   7.296   0.329  0.9622 -1.9520  1.3681
15816SOL    HW250342  10.113   7.306   0.261  0.2431  0.4879  0.2088
15817SOL     OW50343   5.235   4.243   3.000  0.0115  0.6574  0.1129
15817SOL    HW150344   5.217   4.337   3.001  0.9333  0.8915  2.9389
15817SOL    HW250345   5.324   4.235   2.968  0.1012  0.7872  0.3311
15818SOL     OW50346   0.188  10.267   0.361 -0.0927 -0.0779  0.6996
15818SOL    HW150347   0.172  10.181   0.322  1.1314  0.1959 -0.4732
15818SOL    HW250348   0.252  10.308   0.303 -0.2447  1.4202  1.5424
15819SOL     OW50349   9.935   3.884   1.884 -0.0808  0.7593  0.7618
15819SOL    HW150350   9.882   3.805   1.877  0.5327  0.3206  0.9565
15819SOL    HW250351   9.884   3.952   1.841  0.3313 -0.2168 -1.3892
15820SOL     OW50352   4.083   0.609   3.476 -0.2792  0.1773  0.2920
15820SOL    HW150353   4.178   0.604   3.479 -0.3337 -0.8245  1.3277
15820SOL    HW250354   4.063   0.701   3.492  0.5199  0.4114 -0.0340
15821SOL     OW50355   0.533   1.336  10.597 -0.6704  0.0301  0.1193
15821SOL    HW150356   0.606   1.386  10.561 -0.9122 -0.8224 -1.6400
15821SOL    HW250357   0.506   1.278  10.526 -1.1865 -1.7282  1.6808
15822SOL     OW50358  10.447   8.354  10.572 -0.1527 -0.3125 -0.2064
15822SOL    HW150359  10.449   8.312  10.658  0.9317 -2.2333 -1.1105
15822SOL    HW250360  10.492   8.438  10.586  0.7291 -0.9379  0.9279
15823SOL     OW50361   7.453   9.884   3.815  0.5316 -0.2023  0.2765
15823SOL    HW150362   7.386   9.816   3.807  1.0796 -0.7753  0.5293
15823SOL    HW250363   7.536   9.840   3.796  1.3218 -0.4229  3.5752
15824SOL     OW50364   9.969   7.767   1.507  0.4400 -0.2253  0.0542
15824SOL    HW150365  10.015   7.729   1.582 -0.0643 -0.7267  0.1162
15824SOL    HW250366  10.035   7.821   1.463  0.8155 -0.1562  0.6944
15825SOL     OW50367   5.270   9.976   5.284 -0.0608  0.1695  0.1171
15825SOL    HW150368   5.298   9.958   5.194 -1.5264  1.5001 -0.6491
15825SOL    HW250369   5.294   9.897   5.333 -0.1160 -0.9870 -1.6344
15826SOL     OW50370   7.783   5.639   9.232 -0.4968 -0.2943  0.1851
15826SOL    HW150371   7.843   5.711   9.253  0.9141 -1.5078  0.4723
15826SOL    HW250372   7.715   5.644   9.299 -1.1631  1.5388 -0.5560
15827SOL     OW50373   2.404   0.001  10.323  0.0402  0.3700 -0.0800
15827SOL    HW150374   2.439   0.019  10.411 -1.3039 -0.1822  0.5955
15827SOL    HW250375   2.479   0.014  10.265  1.1814 -0.0288  1.2303
15828SOL     OW50376   0.476   0.465   3.558  0.5868 -0.1337 -0.2271
15828SOL    HW150377   0.471   0.537   3.621 -1.2325 -0.2956 -0.1451
15828SOL    HW250378   0.518   0.394   3.607  0.7836  0.2976  0.2445
15829SOL     OW50379   8.321   3.987   7.236 -0.4013 -0.4880 -0.6392
15829SOL    HW150380   8.240   3.944   7.207 -1.0577  1.1696 -1.4153
15829SOL    HW250381   8.374   3.994   7.156  1.0727 -2.5808  0.0636
15830SOL     OW50382   6.880   7.519   1.381 -0.1960 -0.2768  0.1444
15830SOL    HW150383   6.874   7.428   1.409 -0.5595 -1.0701 -2.2846
15830SOL    HW250384   6.808   7.529   1.318 -0.5049  1.8642  0.7613
15831SOL     OW50385   0.220   6.908   0.972  0.7943 -0.0117 -0.5439
15831SOL    HW150386   0.153   6.942   1.031 -0.0103 -3.2703  0.6282
15831SOL    HW250387   0.171   6.863   0.903  1.7770  0.6841 -1.7292
15832SOL     OW50388   2.650   4.659   3.578  0.2369  0.0590  0.2039
15832SOL    HW150389   2.744   4.661   3.595  0.0226  2.0561  1.4499
15832SOL    HW250390   2.618   4.584   3.629  0.9224  0.4180  1.1761
15833SOL     OW50391  10.188   4.528   4.656 -0.3978  0.0811 -0.0072
15833SOL    HW150392  10.170   4.509   4.748 -1.6289  0.3041 -0.1767
15833SOL    HW250393  10.227   4.615   4.657 -0.8240  0.2755  0.2846
15834SOL     OW50394   7.380   2.667   9.204 -0.3042 -0.3365 -0.8052
15834SOL    HW150395   7.461   2.705   9.170 -0.6741  0.3949 -0.8801
15834SOL    HW250396   7.382   2.686   9.298  0.1379 -1.3025 -0.6034
15835SOL     OW50397   4.258   2.411   9.045  0.7571 -0.3601 -0.0299
15835SOL    HW150398   4.191   2.478   9.056  0.0713 -1.2013  1.1258
15835SOL    HW250399   4.310   2.441   8.970 -0.3923  0.7267 -0.4262
15836SOL     OW50400   5.953   7.356   4.493 -0.1578  0.0901 -0.4249
15836SOL    HW150401   6.032   7.302   4.506 -0.7209 -1.1343 -1.7743
15836SOL    HW250402   5.921   7.372   4.582  0.3299 -1.3965  0.0613
15837SOL     OW50403   6.445   6.416   9.928  0.3089 -0.1640  0.4368
15837SOL    HW150404   6.463   6.332   9.887  1.5198 -0.3105  1.2340
15837SOL    HW250405   6.390   6.395  10.003  0.7883 -0.2721  0.7591
15838SOL     OW50406   1.533   1.819   4.969  0.2215  0.2173  0.0226
15838SOL    HW150407   1.583   1.877   5.026  1.0657  1.2402 -1.7082
15838SOL    HW250408   1.539   1.858   4.882 -1.2138 -1.1816 -0.7645
15839SOL     OW50409   7.589   5.158   0.131 -0.0409  0.4463  0.4596
15839SOL    HW150410   7.547   5.242   0.111  1.2978  0.4511 -2.9891
15839SOL    HW250411   7.526   5.092   0.103  0.7353  0.4347 -1.4385
15840SOL     OW50412   1.129  10.095   4.605  0.8064 -0.2957 -0.0077
15840SOL    HW150413   1.195  10.072   4.670 -0.5786 -2.7861  0.6512
15840SOL    HW250414   1.125  10.019   4.547 -0.6581  0.2751 -0.7182
15841SOL     OW50415   0.062   6.610   6.193 -0.0468 -0.3571  0.1284
15841SOL    HW150416  -0.001   6.583   6.127 -0.4542 -1.1629  0.8305
15841SOL    HW250417   0.095   6.694   6.162 -1.6632  0.2155 -0.1043
15842SOL     OW50418   4.549   5.236   9.689  0.5228 -0.0074 -0.5971
15842SOL    HW150419   4.571   5.149   9.657  0.9643 -0.3409  0.5306
15842SOL    HW250420   4.570   5.233   9.783 -1.0054  0.7993 -0.1897
15843SOL     OW50421   0.001   3.337  10.254  0.4604  0.2525  0.2194
15843SOL    HW150422   0.014   3.257  10.203  3.0139  1.0407 -0.4928
15843SOL    HW250423   0.000   3.307  10.345 -0.0283 -0.7110 -0.0829
15844SOL     OW50424   7.878  10.578   2.870 -0.2342  0.0263  0.0710
15844SOL    HW150425   7.790  10.576   2.834  0.5182 -1.4624 -1.8646
15844SOL    HW250426   7.876  10.516   2.943 -1.0604  0.9243  0.8389
15845SOL     OW50427   5.070   9.741   6.892  0.0886 -0.4227  0.2143
15845SOL    HW150428   5.120   9.740   6.810 -0.7088 -0.8312 -0.2791
15845SOL    HW250429   5.136   9.757   6.959  0.9452 -1.2802 -0.3826
15846SOL     OW50430   4.217   0.100   2.701 -0.3564 -0.3639  0.3878
15846SOL    HW150431   4.269   0.180   2.700 -0.2055 -0.3644 -3.0719
15846SOL    HW250432   4.129   0.129   2.727  0.0344  0.6669  0.6037
15847SOL     OW50433   6.614   3.502   4.288  0.0137 -0.4844 -0.0244
15847SOL    HW150434   6.534   3.554   4.296  0.9440  1.0860 -0.5236
15847SOL    HW250435   6.608   3.462   4.201 -0.3582 -0.6053  0.0551
15848SOL     OW50436   5.606   3.876   7.837 -0.1350 -0.8314  0.3271
15848SOL    HW150437   5.605   3.830   7.921 -0.8992  1.4725  1.6575
15848SOL    HW250438   5.523   3.922   7.834 -0.7581 -1.9242 -2.4016
15849SOL     OW50439   7.236   2.426   9.182  0.2971 -0.5938  0.7721
15849SOL    HW150440   7.269   2.515   9.172 -3.3213  0.6850 -2.4199
15849SOL    HW250441   7.156   2.436   9.235 -0.2966 -1.8705  0.1550
15850SOL     OW50442   3.339   2.228   5.202  0.5165  0.7804  0.4830
15850SOL    HW150443   3.387   2.157   5.245 -0.0721 -0.2561 -0.5110
15850SOL    HW250444   3.403   2.299   5.193  1.1322  0.3688  1.4441
15851SOL     OW50445   4.818   2.484   8.287 -0.2032 -0.2851 -0.5022
15851SOL    HW150446   4.736   2.529   8.308  0.0140  0.1833 -0.6559
15851SOL    HW250447   4.869   2.486   8.368 -0.3681 -0.6430 -0.3846
15852SOL     OW50448   5.099   5.233  10.322  0.0990  0.5292  0.1466
15852SOL    HW150449   5.104   5.296  10.250 -2.0933 -0.3305 -0.8586
15852SOL    HW250450   5.135   5.280  10.397  0.2534  2.3085 -0.9775
15853SOL     OW50451   2.380   3.003   3.178  0.0861 -0.1564  0.0893
15853SOL    HW150452   2.295   3.005   3.222 -0.3728  0.7343 -0.7935
15853SOL    HW250453   2.366   2.945   3.103 -0.5410  1.9209 -1.5117
15854SOL     OW50454   0.109   0.307   7.826  0.5219 -0.3050  0.1210
15854SOL    HW150455   0.051   0.346   7.761 -0.1071  0.2964  1.0141
15854SOL    HW250456   0.060   0.231   7.858 -0.7707  1.3299  2.3334
15855SOL     OW50457  10.015   3.200   2.956  0.1936 -0.3974  0.3678
15855SOL    HW150458   9.947   3.264   2.936 -0.1172 -0.5864  0.8030
15855SOL    HW250459   9.987   3.120   2.910  1.6416  0.3096 -1.9282
15856SOL     OW50460   6.867   7.836  10.475  0.0396  0.6791 -0.3814
15856SOL    HW150461   6.874   7.843  10.570 -0.5446 -2.0371 -0.0485
15856SOL    HW250462   6.790   7.888  10.452 -0.4660  0.4768  0.7946
15857SOL     OW50463   4.060   1.129   9.253 -0.1403 -0.4980 -0.3473
15857SOL    HW150464   4.004   1.183   9.309  0.9988 -1.4449  1.8463
15857SOL    HW250465   3.999   1.081   9.197 -1.8371 -2.9655  3.2334
15858SOL     OW50466   1.730   3.560   5.322  0.1091 -0.6720 -0.1293
15858SOL    HW150467   1.663   3.498   5.349 -0.4713 -0.1771 -0.3887
15858SOL    HW250468   1.701   3.590   5.236  0.3362  0.0147  0.0274
15859SOL     OW50469   9.813   7.737   0.117 -0.3693 -0.2498 -0.2974
15859SOL    HW150470   9.780   7.809   0.063 -0.8030  0.5679  1.0056
15859SOL    HW250471   9.901   7.765   0.143 -1.0574  0.5039  1.3590
15860SOL     OW50472   0.236   6.333   5.485  0.4140 -0.3813 -0.0450
15860SOL    HW150473   0.143   6.311   5.483  0.9439 -2.9648  0.4730
15860SOL    HW250474   0.260   6.327   5.578  1.3087 -0.7345 -0.2927
15861SOL     OW50475   7.451   0.654   4.513  0.6913  0.0090  0.2851
15861SOL    HW150476   7.468   0.711   4.438  0.5230 -0.3315 -0.0157
15861SOL    HW250477   7.538   0.631   4.546  0.7908 -0.5566 -0.3543
15862SOL     OW50478   8.393   3.160   7.885 -0.6609 -0.1561 -0.3014
15862SOL    HW150479   8.436   3.245   7.883  0.7029 -0.5952  3.0337
15862SOL    HW250480   8.301   3.179   7.873 -0.4561  1.9188  0.9616
15863SOL     OW50481  10.032   6.144   1.324  0.2743  0.3830  0.1950
15863SOL    HW150482  10.049   6.078   1.390  2.2520  0.7709  0.1627
15863SOL    HW250483  10.060   6.226   1.365 -1.0879  1.0399 -0.1555
15864SOL     OW50484   2.501   5.479   0.123  0.4625 -0.7565  0.5007
15864SOL    HW150485   2.408   5.467   0.139  0.4913 -1.0159  0.4807
15864SOL    HW250486   2.511   5.571   0.101  0.1845 -0.7737  0.3110
15865SOL     OW50487   6.105   5.984   4.297  0.7048  0.1538  0.3745
15865SOL    HW150488   6.035   5.972   4.361 -0.9872 -0.2699 -1.4684
15865SOL    HW250489   6.107   5.902   4.247  0.7207  1.1198 -1.2837
15866SOL     OW50490   1.045   3.917   8.089 -0.1180 -0.0495  0.1516
15866SOL    HW150491   1.122   3.885   8.043 -0.4484  0.5589 -0.8721
15866SOL    HW250492   1.019   3.844   8.146  1.1962 -0.2544  0.5175
15867SOL     OW50493   7.732   3.743   9.416 -0.1460  0.4491  0.2195
15867SOL    HW150494   7.766   3.729   9.328 -0.9085  0.5323 -0.1008
15867SOL    HW250495   7.794   3.700   9.474 -0.4241 -0.9202 -0.4732
15868SOL     OW50496   9.930   4.952   8.724 -0.1754  0.3674 -0.4680
15868SOL    HW150497   9.984   5.015   8.676  3.5619 -2.0560  0.1367
15868SOL    HW250498   9.943   4.975   8.816 -0.0263 -0.3227 -0.3130
15869SOL     OW50499   9.407   7.199   4.208 -0.1653 -0.1544 -0.1167
15869SOL    HW150500   9.357   7.280   4.200 -0.7774 -0.5064  0.0847
15869SOL    HW250501   9.362   7.149   4.276  0.9852 -0.1033  0.7065
15870SOL     OW50502  10.230   0.485   2.814  0.2239  0.1621 -0.6377
15870SOL    HW150503  10.197   0.538   2.887  2.0544 -1.7861  1.7739
15870SOL    HW250504  10.321   0.511   2.804  0.0125  0.3989 -2.3122
15871SOL     OW50505   7.793   4.160   1.272  0.5494  0.2884  0.4001
15871SOL    HW150506   7.756   4.244   1.243  0.6567  0.7912  1.6663
15871SOL    HW250507   7.848   4.133   1.198 -1.9423 -0.2967 -1.3774
15872SOL     OW50508   1.715   2.526   9.058 -0.2798  0.2187  0.1096
15872SOL    HW150509   1.697   2.619   9.050  1.7399  0.6058 -0.5267
15872SOL    HW250510   1.672   2.487   8.981 -3.5060  0.1420  1.7940
15873SOL     OW50511   4.589   8.308   6.707 -1.1053  0.2215 -0.2057
15873SOL    HW150512   4.584   8.403   6.696  1.3710  0.4562  0.0543
15873SOL    HW250513   4.581   8.295   6.802 -3.1802 -0.0206 -0.3888
15874SOL     OW50514   3.320   8.646   5.416  0.1055  0.0300 -0.0102
15874SOL    HW150515   3.235   8.617   5.449 -0.1280 -0.0946 -0.6929
15874SOL    HW250516   3.338   8.727   5.463 -1.1432  0.9048 -0.9675
15875SOL     OW50517   1.460   2.398   1.746  0.0019 -0.3174 -0.0699
15875SOL    HW150518   1.414   2.325   1.705 -2.8756  1.5709 -0.5151
15875SOL    HW250519   1.538   2.410   1.693  0.0224 -2.3689 -0.5999
15876SOL     OW50520   6.734   2.415   2.669 -0.3049  0.0935 -0.4700
15876SOL    HW150521   6.761   2.504   2.691 -0.7625 -0.0927  0.9385
15876SOL    HW250522   6.681   2.387   2.744  1.1245 -1.9153 -0.1371
15877SOL     OW50523   8.800   2.623   2.135 -0.5335 -0.0071  0.1523
15877SOL    HW150524   8.773   2.710   2.106  2.1852  1.4395  1.5431
15877SOL    HW250525   8.788   2.567   2.059 -0.8363  1.9502 -1.3084
15878SOL     OW50526   2.399   3.627   1.587  0.3186 -0.5976 -0.1777
15878SOL    HW150527   2.409   3.553   1.526 -0.3365 -1.9779  1.3169
15878SOL    HW250528   2.392   3.704   1.530 -1.0810 -1.8949 -1.8842
15879SOL     OW50529   8.550   5.661   6.404 -0.3479  0.3137 -0.4815
15879SOL    HW150530   8.630   5.655   6.457 -0.3891  0.3745 -0.4127
15879SOL    HW250531   8.577   5.633   6.316 -0.6588 -1.4445 -0.0528
15880SOL     OW50532   4.242   7.537   1.188  0.2387  0.1540 -0.2096
15880SOL    HW150533   4.270   7.451   1.221  0.8822 -0.0023 -1.1277
15880SOL    HW250534   4.151   7.545   1.218 -0.1135 -1.2172 -0.8246
15881SOL     OW50535   8.729   2.590  10.098 -0.3603  0.2655  0.3423
15881SOL    HW150536   8.770   2.510  10.066 -0.5972 -0.2175  1.2080
15881SOL    HW250537   8.784   2.617  10.172 -1.7821 -0.6173  1.7766
15882SOL     OW50538   8.297   8.014   1.192  0.3492  0.5479 -0.2087
15882SOL    HW150539   8.309   7.944   1.128 -2.4926  0.4834 -0.8141
15882SOL    HW250540   8.367   8.001   1.256  0.4019 -2.3325 -0.7439
15883SOL     OW50541   8.422   9.350   3.949  0.3417  0.2936  0.1900
15883SOL    HW150542   8.417   9.422   3.885  0.9616  1.0156  0.9313
15883SOL    HW250543   8.512   9.354   3.982  0.6563 -1.4079 -0.3918
15884SOL     OW50544   8.374   9.665   7.570 -0.6682 -0.0358  0.1967
15884SOL    HW150545   8.308   9.712   7.520  0.3785  1.2726 -0.0027
15884SOL    HW250546   8.415   9.731   7.625 -1.3946 -1.3426  2.4236
15885SOL     OW50547  10.778   6.351   5.151 -0.7821 -0.5550  0.1146
15885SOL    HW150548  10.786   6.417   5.220 -1.2495  0.2896 -0.6186
15885SOL    HW250549  10.711   6.385   5.092 -0.9462 -1.6342 -0.3535
15886SOL     OW50550   3.712   1.023   1.953 -0.3780 -0.5406  0.4357
15886SOL    HW150551   3.783   1.077   1.988  0.2701  0.2587 -1.9352
15886SOL    HW250552   3.752   0.938   1.937  1.0992  0.6858 -3.6853
15887SOL     OW50553   8.277   9.411   8.521 -0.0540 -0.1755 -0.0880
15887SOL    HW150554   8.257   9.480   8.584 -0.9889 -0.3608 -0.1648
15887SOL    HW250555   8.367   9.384   8.542 -0.4772 -0.5170  1.4340
15888SOL     OW50556   6.645   4.460   3.412  0.3319 -0.1577  0.1816
15888SOL    HW150557   6.635   4.550   3.442  0.2571  0.2194 -0.9387
15888SOL    HW250558   6.614   4.407   3.486  2.5083  0.6306  1.7437
15889SOL     OW50559   6.785   2.599   2.076  0.0698 -0.2437  0.1279
15889SOL    HW150560   6.859   2.647   2.114  0.0970 -0.7016  0.6623
15889SOL    HW250561   6.712   2.660   2.081  0.8685  1.0769 -2.4633
15890SOL     OW50562   4.450   2.573   2.343 -0.2635 -0.1765 -0.3413
15890SOL    HW150563   4.368   2.565   2.295 -0.4335 -0.2020 -0.0443
15890SOL    HW250564   4.425   2.609   2.428  0.0304 -0.2022 -0.2441
15891SOL     OW50565   4.655   7.910   4.214 -0.3071 -0.0918  0.8456
15891SOL    HW150566   4.650   7.954   4.299 -3.6750  0.1526  0.6490
15891SOL    HW250567   4.612   7.825   4.229 -0.3636 -0.3029 -0.4488
15892SOL     OW50568   3.905   0.469   1.366 -0.1332  0.0830  0.4940
15892SOL    HW150569   3.946   0.383   1.358 -1.1457 -0.4534  0.8168
15892SOL    HW250570   3.971   0.524   1.409  1.4387  0.1697 -1.8671
15893SOL     OW50571   3.249   3.339   4.835 -0.5243  0.3833  0.6701
15893SOL    HW150572   3.193   3.404   4.879 -0.1708  1.0651  0.1192
15893SOL    HW250573   3.187   3.281   4.790 -0.7997  1.8493 -0.9465
15894SOL     OW50574   5.277   1.910   6.059  0.0004 -0.5085  0.0049
15894SOL    HW150575   5.362   1.950   6.041  0.0856 -0.7918 -0.2343
15894SOL    HW250576   5.238   1.899   5.972 -0.4790  0.0441  0.1396
15895SOL     OW50577   5.143   7.798   0.790 -0.2723  0.2663  0.2456
15895SOL    HW150578   5.193   7.871   0.827 -0.2888  0.0959  0.6041
15895SOL    HW250579   5.106   7.833   0.709 -2.5344  1.5553  1.7202
15896SOL     OW50580   2.788   4.606   3.906 -0.7593 -0.1384  0.2589
15896SOL    HW150581   2.704   4.576   3.870  0.0794 -1.0093 -1.0589
15896SOL    HW250582   2.844   4.529   3.903  0.6114  0.8437 -0.5363
15897SOL     OW50583   5.753  10.698   3.139 -0.2104  0.1722 -0.1662
15897SOL    HW150584   5.747  10.680   3.045 -2.0640 -0.3524  0.0200
15897SOL    HW250585   5.727  10.789   3.147  0.4886  0.3821 -0.1980
15898SOL     OW50586   2.541   5.855   5.064  0.1206  0.0653  0.2434
15898SOL    HW150587   2.580   5.938   5.093 -0.4966  0.4153  0.0863
15898SOL    HW250588   2.464   5.881   5.014  0.2454 -0.5917 -0.3017
15899SOL     OW50589   0.843   1.647   3.642 -0.7558  0.2905  0.4062
15899SOL    HW150590   0.827   1.635   3.735 -1.4262  3.9438  0.9126
15899SOL    HW250591   0.757   1.664   3.604 -0.1968  1.9030 -0.2487
15900SOL     OW50592   0.231   4.605   1.363  0.9197 -0.4799  0.2603
15900SOL    HW150593   0.275   4.521   1.352 -0.7004 -1.1550 -1.8489
15900SOL    HW250594   0.143   4.591   1.327 -0.6781  1.1149  3.1391
15901SOL     OW50595   6.863   8.522   3.875  0.4630 -0.5980 -0.1168
15901SOL    HW150596   6.831   8.603   3.914 -0.7503 -1.2055  0.2201
15901SOL    HW250597   6.898   8.548   3.790 -3.0874 -0.0763 -1.6112
15902SOL     OW50598   8.909   8.096   8.497 -0.0047 -0.4858  0.0807
15902SOL    HW150599   8.951   8.160   8.556  1.5102 -0.9697 -0.4211
15902SOL    HW250600   8.816   8.118   8.501  0.3008  0.8037  1.0632
15903SOL     OW50601   9.720   2.085   5.774  0.1210  0.2660 -0.1574
15903SOL    HW150602   9.630   2.056   5.757  0.4805 -0.6921 -0.5114
15903SOL    HW250603   9.720   2.110   5.866 -0.7654  1.3091 -0.4105
15904SOL     OW50604   3.467   0.075   8.876 -0.2000  0.5135  0.5460
15904SOL    HW150605   3.459   0.110   8.787 -0.2374  2.0223  1.1114
15904SOL    HW250606   3.511   0.144   8.925 -2.8407  1.0160  2.4044
15905SOL     OW50607   2.274   7.794  10.369 -0.2825  0.6380  0.4720
15905SOL    HW150608   2.226   7.730  10.316  1.3624 -0.0608 -0.2782
15905SOL    HW250609   2.271   7.875  10.318 -0.1577  0.4287  0.1240
15906SOL     OW50610   5.990   6.481   7.817  0.1684  0.4180  0.6438
15906SOL    HW150611   6.047   6.549   7.781  0.0227  0.5417  0.6460
15906SOL    HW250612   6.050   6.422   7.862  0.5663 -0.7848 -1.3787
15907SOL     OW50613   3.890   8.624   5.523  0.5649  0.4801  0.2807
15907SOL    HW150614   3.923   8.653   5.608  2.0129 -0.4322  0.0627
15907SOL    HW250615   3.931   8.539   5.509  1.0610  0.9881 -1.7093
15908SOL     OW50616   7.628   1.646   2.719  0.4476 -0.6833 -0.2525
15908SOL    HW150617   7.705   1.592   2.703  0.3857 -0.4821 -1.2838
15908SOL    HW250618   7.554   1.586   2.712  0.4425 -0.6727 -0.2862
15909SOL     OW50619   1.293   5.075   2.450 -0.2444 -0.2464  0.2554
15909SOL    HW150620   1.292   5.092   2.544 -1.6353 -1.4744  0.4968
15909SOL    HW250621   1.341   5.149   2.413 -2.2252  1.8735  1.6343
15910SOL     OW50622   6.778   1.017   3.679  0.2908 -0.3872  0.4326
15910SOL    HW150623   6.683   1.035   3.678  0.4685  0.7025 -1.2205
15910SOL    HW250624   6.814   1.085   3.736  0.1068 -0.6884  0.9145
15911SOL     OW50625   3.041  10.055   5.466 -0.4255 -0.2493 -0.2752
15911SOL    HW150626   3.100  10.084   5.397 -2.1325 -0.3443 -1.8411
15911SOL    HW250627   3.087  10.078   5.547  1.9638 -0.7796 -1.3676
15912SOL     OW50628   2.883  10.167   8.944 -0.1194  0.1842 -0.0370
15912SOL    HW150629   2.859  10.254   8.974  2.5949  1.2155 -0.5718
15912SOL    HW250630   2.924  10.180   8.859  0.5216 -1.5707 -0.0550
15913SOL     OW50631   0.599   8.198   8.673  0.7921  0.2023 -0.0899
15913SOL    HW150632   0.681   8.201   8.625  1.5030  0.4258  1.0808
15913SOL    HW250633   0.538   8.250   8.621  1.1802 -0.5562 -1.3334
15914SOL     OW50634   5.524   3.825   5.886  0.0271 -0.3583  0.6826
15914SOL    HW150635   5.436   3.792   5.903 -0.3822  0.3874  0.0411
15914SOL    HW250636   5.559   3.845   5.973  0.0087 -1.7498  1.0267
15915SOL     OW50637   9.013  10.113   1.031  0.0568 -0.0540  0.2272
15915SOL    HW150638   9.014  10.031   1.081 -0.2591  0.4577  1.0921
15915SOL    HW250639   8.922  10.141   1.031  0.0969  0.0964 -0.4140
15916SOL     OW50640   5.696  10.296   7.335 -0.4267 -0.7612  0.7331
15916SOL    HW150641   5.686  10.338   7.250  1.3873  0.1590  0.9144
15916SOL    HW250642   5.625  10.332   7.389 -1.5087 -1.2609 -0.3241
15917SOL     OW50643   1.008   3.319   1.451  0.2099 -0.2698  0.0909
15917SOL    HW150644   1.077   3.252   1.454 -1.3226 -1.9543 -0.6204
15917SOL    HW250645   0.927   3.270   1.446 -1.2387  1.6375  2.6152
15918SOL     OW50646  10.614   4.044   2.358 -0.1573 -0.7158  0.5346
15918SOL    HW150647  10.524   4.028   2.385 -0.7379 -2.0592 -1.8695
15918SOL    HW250648  10.663   3.967   2.387 -0.3302 -1.1333 -0.2387
15919SOL     OW50649   0.440   4.595   8.772 -0.0424  0.0957 -0.1875
15919SOL    HW150650   0.526   4.560   8.749  0.0257  1.4403 -2.1988
15919SOL    HW250651   0.448   4.689   8.761 -2.3612  0.1184 -2.7577
15920SOL     OW50652   8.720   6.821   3.512 -0.5180 -0.0022 -0.7751
15920SOL    HW150653   8.757   6.882   3.448 -1.0555 -0.3077 -1.3876
15920SOL    HW250654   8.625   6.832   3.503 -0.7423  2.7212  2.5934
15921SOL     OW50655   1.310   4.559   3.148 -0.4302  0.4233  0.6746
15921SOL    HW150656   1.288   4.468   3.128  1.3098  0.0450  0.3632
15921SOL    HW250657   1.226   4.599   3.172 -1.6627 -0.5891 -1.6433
15922SOL     OW50658   4.099   8.115   4.079  0.6611 -0.5622 -0.5620
15922SOL    HW150659   4.057   8.031   4.059 -0.5596 -0.1287  0.1201
15922SOL    HW250660   4.094   8.164   3.996 -0.3307 -0.4684 -0.4645
15923SOL     OW50661   7.867   4.060   2.054 -0.5160 -0.0416  0.7073
15923SOL    HW150662   7.814   4.105   1.989 -0.0325 -0.8652 -0.2788
15923SOL    HW250663   7.952   4.048   2.012  0.1600  0.3952  1.9037
15924SOL     OW50664   1.096   2.656   1.506 -0.4704 -0.0033 -0.8781
15924SOL    HW150665   1.074   2.563   1.499 -1.9321  0.4042 -2.9093
15924SOL    HW250666   1.014   2.701   1.482  0.2199  1.8102  0.0011
15925SOL     OW50667   7.980   8.646   8.308  0.5291  0.2455 -0.2251
15925SOL    HW150668   7.967   8.631   8.401  0.9470 -2.2346 -0.5006
15925SOL    HW250669   8.054   8.706   8.303  0.0502  0.9721  1.0232
15926SOL     OW50670  10.709   8.456   6.458  0.0863 -0.4140 -0.3141
15926SOL    HW150671  10.799   8.432   6.436 -0.4033 -0.6953 -2.1942
15926SOL    HW250672  10.675   8.497   6.378 -0.2877  3.3058  1.5631
15927SOL     OW50673   1.548   3.736   1.972 -0.2793 -0.6011  0.2863
15927SOL    HW150674   1.510   3.779   1.895 -1.0253 -0.6849  0.5938
15927SOL    HW250675   1.513   3.647   1.969 -0.6389 -0.4892  0.9349
15928SOL     OW50676   2.018   9.811   8.626 -0.0570 -0.4801 -0.0642
15928SOL    HW150677   2.061   9.895   8.617  0.5453 -0.8085 -0.3010
15928SOL    HW250678   1.989   9.788   8.537 -1.1456 -0.0503  0.1574
15929SOL     OW50679   3.551   2.063   5.251 -0.7752  0.3515  0.2654
15929SOL    HW150680   3.519   1.982   5.210 -0.9941 -1.0830  3.0769
15929SOL    HW250681   3.644   2.065   5.228 -1.1267  0.2860 -1.2967
15930SOL     OW50682   7.645   3.446   2.796 -0.3944 -0.2657  0.2724
15930SOL    HW150683   7.549   3.439   2.793 -0.4873  0.6772  0.6274
15930SOL    HW250684   7.676   3.365   2.757 -1.3417 -1.3208  1.5784
15931SOL     OW50685   9.670   6.376   8.076  0.6104  0.5104  0.4973
15931SOL    HW150686   9.700   6.330   8.155  0.0023 -0.0917  0.3952
15931SOL    HW250687   9.577   6.394   8.093  0.7729  1.4829  0.4202
15932SOL     OW50688   0.635   0.489   4.279 -0.1391 -0.4609 -0.2214
15932SOL    HW150689   0.702   0.556   4.264 -0.1120 -0.4105  0.1308
15932SOL    HW250690   0.556   0.526   4.240 -0.1490 -0.1766  0.0620
15933SOL     OW50691   4.470   9.904  10.650 -0.0256  0.2298 -0.4516
15933SOL    HW150692   4.559   9.871  10.638  0.3155 -0.1916  2.5123
15933SOL    HW250693   4.481   9.996  10.670 -0.2426  0.1593  0.0006
15934SOL     OW50694   6.632   8.592   5.862  0.6423  0.0739  0.0203
15934SOL    HW150695   6.622   8.645   5.941  0.2172 -2.1152  1.5340
15934SOL    HW250696   6.583   8.639   5.794 -0.4070  1.1694  1.4894
15935SOL     OW50697   4.912  10.134   1.059 -0.4923 -0.1584 -0.6120
15935SOL    HW150698   4.856  10.114   0.984  0.6181 -0.1084 -1.4664
15935SOL    HW250699   4.910  10.055   1.112 -1.6202 -0.0490 -0.4652
15936SOL     OW50700   4.013   6.886   9.931  0.7925  0.1649  0.0689
15936SOL    HW150701   4.046   6.967   9.893  1.2443  0.3231  0.7668
15936SOL    HW250702   3.981   6.835   9.857 -0.1410  1.2685 -0.2975
15937SOL     OW50703   9.048   5.879   7.007 -0.2974  0.3930 -0.0986
15937SOL    HW150704   9.048   5.870   7.102 -0.8089  1.1382 -0.0248
15937SOL    HW250705   8.956   5.887   6.983 -0.2617 -0.9837 -0.7862
15938SOL     OW50706   3.913   6.124   4.055  0.6864  0.1264 -0.3667
15938SOL    HW150707   3.927   6.115   4.149  1.6772  0.1649 -0.5061
15938SOL    HW250708   3.818   6.112   4.044  0.7347 -1.2031  0.4719
15939SOL     OW50709   9.607   1.564   1.273  0.1158 -0.0609  0.2885
15939SOL    HW150710   9.620   1.516   1.191 -1.7941  0.9838 -0.6925
15939SOL    HW250711   9.515   1.551   1.294 -0.7606  3.7425 -0.5159
15940SOL     OW50712   7.898   6.544   9.605  0.2081  0.3537  0.3923
15940SOL    HW150713   7.957   6.490   9.552 -1.5040 -0.4410 -0.7516
15940SOL    HW250714   7.881   6.491   9.683 -0.2842 -0.1192 -0.0343
15941SOL     OW50715   6.365  10.632  10.394  0.0894 -0.3693  0.4272
15941SOL    HW150716   6.311  10.663  10.467  0.2740 -2.9099  1.7386
15941SOL    HW250717   6.450  10.616  10.433  0.5984 -0.4554 -0.6910
15942SOL     OW50718   1.665   9.153   4.965 -0.2215  0.4305 -0.1757
15942SOL    HW150719   1.718   9.158   5.045 -0.0078 -0.3793 -0.2613
15942SOL    HW250720   1.591   9.210   4.983 -2.0753 -2.3981  2.0706
15943SOL     OW50721   4.418   3.258   6.335 -0.2225 -0.5572 -0.1532
15943SOL    HW150722   4.466   3.175   6.336 -0.3864 -0.6596 -0.7372
15943SOL    HW250723   4.440   3.298   6.251 -3.5009 -1.9765 -1.8298
15944SOL     OW50724   8.835   2.331   0.083 -0.1051 -0.4038 -0.5300
15944SOL    HW150725   8.809   2.310  -0.007 -0.3930 -0.0887 -0.5241
15944SOL    HW250726   8.813   2.254   0.133  1.2801 -1.1048 -0.9484
15945SOL     OW50727   9.021   1.849   5.164 -0.0613 -0.1229 -0.0579
15945SOL    HW150728   9.082   1.854   5.091  1.2885  1.8996  1.1021
15945SOL    HW250729   9.027   1.935   5.206 -0.0917 -1.4694  2.9364
15946SOL     OW50730   8.163   3.161   3.403 -0.0099 -0.1210 -0.3065
15946SOL    HW150731   8.104   3.101   3.357  0.9228 -0.3718 -1.2349
15946SOL    HW250732   8.117   3.245   3.403 -0.6565 -0.4701 -0.4070
15947SOL     OW50733   6.380   6.150   2.459  0.3271 -0.3791 -0.0125
15947SOL    HW150734   6.393   6.174   2.367 -1.7489 -1.4455 -0.6568
15947SOL    HW250735   6.417   6.223   2.508  0.5779  0.7090 -1.7092
15948SOL     OW50736   8.025   3.386   3.466 -0.2680  0.6114 -0.1491
15948SOL    HW150737   8.038   3.433   3.548 -0.7750  1.0755 -0.3308
15948SOL    HW250738   7.959   3.320   3.486 -2.2011  2.2571 -0.7386
15949SOL     OW50739   3.075   0.741   8.646  0.2560  0.3042 -0.1116
15949SOL    HW150740   3.091   0.705   8.734 -0.8135  1.8768  0.7750
15949SOL    HW250741   3.099   0.670   8.587  0.4229 -1.0246  1.4671
15950SOL     OW50742  10.752   2.575   9.629 -0.0629  0.0061  0.5003
15950SOL    HW150743  10.720   2.492   9.665  0.6877  0.1784  1.6142
15950SOL    HW250744  10.682   2.638   9.647  0.5866  0.2623  2.4436
15951SOL     OW50745   7.666   3.538   6.137  0.4246  0.3122 -0.4756
15951SOL    HW150746   7.603   3.604   6.107 -0.1236 -0.2417 -0.5815
15951SOL    HW250747   7.751   3.576   6.120  0.1913  2.2302  2.1455
15952SOL     OW50748   4.347   6.044   9.515 -0.4655 -0.2461  0.2459
15952SOL    HW150749   4.439   6.064   9.495 -0.4818 -0.1157  0.2972
15952SOL    HW250750   4.302   6.128   9.506 -0.2282  0.1414  2.2563
15953SOL     OW50751   7.691   7.985   2.018 -0.2037 -0.1565  0.3696
15953SOL    HW150752   7.743   8.023   1.947 -0.7173  3.2918  1.6265
15953SOL    HW250753   7.617   7.944   1.975  0.9406 -0.6808 -1.1812
15954SOL     OW50754   7.190   8.700   2.691  0.2461 -0.5353  0.1357
15954SOL    HW150755   7.213   8.676   2.602  3.0271  0.4423  0.5075
15954SOL    HW250756   7.214   8.624   2.744  3.0652  0.4961  0.5274
15955SOL     OW50757   3.606   1.340   2.623  0.1924 -0.2267  0.1729
15955SOL    HW150758   3.622   1.348   2.717 -1.6113 -0.1052  0.5113
15955SOL    HW250759   3.670   1.276   2.593  1.0370  0.0091  1.4135
15956SOL     OW50760   7.658   8.890   7.824  0.0635  0.6434  0.1368
15956SOL    HW150761   7.702   8.898   7.740  0.6671  0.0502  0.3833
15956SOL    HW250762   7.592   8.822   7.810  0.6159  0.0602  0.3138
15957SOL     OW50763   4.238   8.156   5.494  0.1752  0.3715 -0.2144
15957SOL    HW150764   4.232   8.089   5.561 -0.3728  1.3942  0.7997
15957SOL    HW250765   4.277   8.112   5.418 -1.1811 -1.3418  0.0429
15958SOL     OW50766   4.883   6.689   8.609  0.1475 -0.7634  0.0521
15958SOL    HW150767   4.926   6.772   8.626 -1.4505  0.3120 -0.9015
15958SOL    HW250768   4.953   6.624   8.614  1.6308  0.7525 -0.2361
15959SOL     OW50769   4.186   9.676   0.976  0.3707 -0.2567  0.0805
15959SOL    HW150770   4.127   9.747   0.949 -0.1354 -1.2741 -1.6838
15959SOL    HW250771   4.201   9.626   0.896  2.4847 -0.8968  0.8127
15960SOL     OW50772  10.526   3.022  10.100  0.0551  0.0070 -0.1825
15960SOL    HW150773  10.611   2.990  10.069  0.0549 -1.3612  1.1201
15960SOL    HW250774  10.492   2.951  10.154 -1.8577  0.5987 -0.5318
15961SOL     OW50775   3.343   3.250   3.957  0.1985  0.2057  0.1486
15961SOL    HW150776   3.427   3.213   3.984  0.5730  0.4203 -0.7066
15961SOL    HW250777   3.361   3.343   3.944 -0.3032  0.3541  0.4719
15962SOL     OW50778   9.094   1.296   0.734 -0.0946 -0.2292 -0.3738
15962SOL    HW150779   9.087   1.335   0.821  0.7136 -3.5351  1.3196
15962SOL    HW250780   9.188   1.300   0.714 -0.3245  0.8570 -1.3055
15963SOL     OW50781   2.217  10.485   1.752  0.0064 -0.5863 -0.6675
15963SOL    HW150782   2.146  10.495   1.689  0.0379  0.2134 -0.5921
15963SOL    HW250783   2.234  10.574   1.782  0.2960 -0.9101  0.1386
15964SOL     OW50784   9.771   8.828   2.770  0.1952 -0.1055  0.0266
15964SOL    HW150785   9.791   8.801   2.859 -1.4424 -1.4004  0.0507
15964SOL    HW250786   9.688   8.785   2.749 -0.8405  2.2693 -1.1963
15965SOL     OW50787   5.388   8.993   1.177 -0.1357 -0.0465  0.0115
15965SOL    HW150788   5.296   8.988   1.149  0.0128  0.8765 -0.6704
15965SOL    HW250789   5.436   9.018   1.098  0.6520 -0.1481  0.4536
15966SOL     OW50790   2.771   4.122  10.678  0.6992  0.0562  0.2905
15966SOL    HW150791   2.828   4.134  10.602 -0.0567  0.5233 -0.2054
15966SOL    HW250792   2.700   4.184  10.666 -0.6028 -1.3914  0.2468
15967SOL     OW50793   0.249   4.476   3.759  0.0739  0.2554  0.3850
15967SOL    HW150794   0.309   4.551   3.752  0.2714  0.0899  0.2755
15967SOL    HW250795   0.168   4.513   3.792  0.1780  0.5156  0.3531
15968SOL     OW50796   8.567   2.846   0.879  0.1453 -0.4938  0.4241
15968SOL    HW150797   8.659   2.851   0.908  0.8875  1.2795 -1.9133
15968SOL    HW250798   8.550   2.933   0.843 -1.8374 -1.4299 -1.0042
15969SOL     OW50799   0.962   4.414   5.262  0.0490  0.1764 -0.4058
15969SOL    HW150800   0.984   4.502   5.293 -0.2979 -0.3653  1.4920
15969SOL    HW250801   0.868   4.407   5.275  0.0696 -0.4752 -0.5778
15970SOL     OW50802   2.161   4.158   6.431  0.1833 -0.2843  0.4034
15970SOL    HW150803   2.077   4.186   6.394  0.0423 -0.9663  0.1967
15970SOL    HW250804   2.145   4.068   6.461  0.3280  0.1728  1.9812
15971SOL     OW50805   3.308  10.336  10.325 -0.1601 -0.1745  0.1656
15971SOL    HW150806   3.348  10.421  10.304  1.9852 -0.9223  0.9504
15971SOL    HW250807   3.284  10.300  10.239  1.1155  0.2294 -0.3943
15972SOL     OW50808   0.742   7.560   1.220 -0.4491  0.9791 -0.8072
15972SOL    HW150809   0.803   7.627   1.188 -0.2738  0.5174 -1.4531
15972SOL    HW250810   0.767   7.481   1.173 -0.3901  0.3528  0.2655
15973SOL     OW50811   0.193   8.382   8.332  0.0425  0.6642  0.0752
15973SOL    HW150812   0.116   8.422   8.371 -0.3260  0.5087 -0.4700
15973SOL    HW250813   0.202   8.298   8.377  0.0229  0.7803  0.2951
15974SOL     OW50814   0.650   3.906   6.939  0.7719  0.3004  0.0231
15974SOL    HW150815   0.631   3.837   6.875 -1.5978  1.7438 -0.9477
15974SOL    HW250816   0.720   3.869   6.993  1.2146 -1.9221 -1.8930
15975SOL     OW50817   3.049   8.707   2.328  0.3460 -0.2192  0.3069
15975SOL    HW150818   2.970   8.760   2.340  0.7526  0.1706  1.4220
15975SOL    HW250819   3.113   8.768   2.291  0.3613 -0.3225  0.1650
15976SOL     OW50820   6.303   6.370   6.153 -0.1986  0.0643 -0.2201
15976SOL    HW150821   6.317   6.460   6.183 -1.1675 -0.6652  2.7179
15976SOL    HW250822   6.374   6.321   6.192  0.8232 -0.4068 -2.5109
15977SOL     OW50823   3.475   3.341   9.964  0.0039 -0.0568  0.3479
15977SOL    HW150824   3.527   3.389  10.029  1.5743 -1.8748  0.5031
15977SOL    HW250825   3.538   3.315   9.897 -1.0397 -0.7891 -0.3783
15978SOL     OW50826   7.069   5.100   2.740 -0.7306  0.4821  0.1642
15978SOL    HW150827   7.125   5.171   2.708 -0.0375  0.4930  1.3249
15978SOL    HW250828   6.986   5.143   2.761 -0.0921  1.1155  1.5108
15979SOL     OW50829   7.165   0.293   7.300  0.0653  0.2630 -0.5034
15979SOL    HW150830   7.209   0.348   7.235 -0.1707 -0.9422 -1.7337
15979SOL    HW250831   7.072   0.305   7.281 -0.0550  0.7146  0.3268
15980SOL     OW50832   9.604  10.230   8.215 -0.1490 -0.0927 -0.0651
15980SOL    HW150833   9.665  10.169   8.172  1.2592  0.6140  0.8372
15980SOL    HW250834   9.542  10.173   8.260  0.8415 -0.8928  0.3577
15981SOL     OW50835   0.661   8.746   2.280  0.1999 -0.0507  0.1955
15981SOL    HW150836   0.636   8.838   2.288  0.0190 -0.1701  1.1301
15981SOL    HW250837   0.747   8.741   2.323  0.3457 -0.2620 -0.1200
15982SOL     OW50838   4.430   5.964   5.707  0.0211 -0.8616 -0.0063
15982SOL    HW150839   4.519   5.937   5.683 -0.1630 -1.7990  0.3209
15982SOL    HW250840   4.376   5.939   5.632  0.1009  0.2262 -0.4507
15983SOL     OW50841   6.526   3.336   8.483 -0.2199  0.2772 -0.2377
15983SOL    HW150842   6.508   3.292   8.566  0.1499  2.7214  1.2268
15983SOL    HW250843   6.471   3.289   8.419 -2.6680  0.0457  1.8809
15984SOL     OW50844   6.159   9.250   9.786 -0.1979  0.0186  0.2719
15984SOL    HW150845   6.234   9.247   9.845 -0.6284 -1.5240  0.8072
15984SOL    HW250846   6.085   9.223   9.840 -0.7059 -0.8551 -0.8126
15985SOL     OW50847   2.868   1.297   9.999 -0.2170 -0.4125  0.1034
15985SOL    HW150848   2.933   1.358  10.036  0.2203 -0.2158 -0.9508
15985SOL    HW250849   2.910   1.211  10.005 -0.3043 -0.4353  0.4058
15986SOL     OW50850   0.492   7.458   2.034 -0.0923 -0.0050  0.0204
15986SOL    HW150851   0.441   7.383   2.064  0.3572 -0.2451  0.1949
15986SOL    HW250852   0.567   7.420   1.989 -0.1341  0.3451 -0.3501
15987SOL     OW50853   0.315   1.065   9.522 -0.4540 -0.3164  0.5476
15987SOL    HW150854   0.306   1.003   9.594 -3.1288 -0.7020 -0.0351
15987SOL    HW250855   0.301   1.151   9.562 -3.8070 -0.6495  0.3004
15988SOL     OW50856   9.167   6.885  10.791  0.1062  0.1699 -0.0991
15988SOL    HW150857   9.136   6.975  10.805  0.6305  0.3400 -0.0381
15988SOL    HW250858   9.087   6.836  10.771 -0.2132  0.6038  0.0819
15989SOL     OW50859   6.963   1.250   5.276 -0.3631 -0.5330 -0.4330
15989SOL    HW150860   6.981   1.157   5.288 -0.4043 -0.9164 -2.8765
15989SOL    HW250861   6.901   1.253   5.203 -1.7829  1.3492  0.7430
15990SOL     OW50862   3.687   2.858   6.869 -0.0898 -0.2069 -0.5640
15990SOL    HW150863   3.762   2.798   6.874 -0.1582 -0.2411  0.4329
15990SOL    HW250864   3.611   2.800   6.862 -0.0414 -0.1767 -1.4162
15991SOL     OW50865   6.437   1.259   7.618 -0.0259  0.6714 -0.8843
15991SOL    HW150866   6.478   1.329   7.566  0.9055  0.1585 -0.8599
15991SOL    HW250867   6.483   1.179   7.591 -1.5218 -0.0576 -1.4030
15992SOL     OW50868   3.307   3.920   9.467  0.5120 -0.2789  0.5155
15992SOL    HW150869   3.313   3.967   9.550 -1.5937 -0.5671  0.8778
15992SOL    HW250870   3.297   3.988   9.401  0.4977 -0.1123  0.6891
15993SOL     OW50871   6.896   9.739   3.851 -0.2948 -0.0302 -0.0745
15993SOL    HW150872   6.836   9.721   3.923  0.4233 -0.0778  0.5327
15993SOL    HW250873   6.949   9.659   3.845  1.3097  0.8954  1.0324
15994SOL     OW50874   7.484   4.636   4.110 -0.4885 -0.9425 -0.0676
15994SOL    HW150875   7.420   4.673   4.171  1.7654  1.4165  1.0918
15994SOL    HW250876   7.544   4.586   4.165  1.5619  1.1888 -0.1937
15995SOL     OW50877   7.558   3.779   3.782  0.5432  0.0535  0.2789
15995SOL    HW150878   7.529   3.837   3.711  1.0308  2.0759  1.6364
15995SOL    HW250879   7.605   3.708   3.738 -0.2108  0.5991 -1.4796
15996SOL     OW50880   8.660   9.941   9.021 -0.1736  0.6591  0.2127
15996SOL    HW150881   8.754   9.932   9.035 -0.2017  0.1823  0.1045
15996SOL    HW250882   8.622   9.929   9.109 -0.1761  0.1974  0.1512
15997SOL     OW50883   1.019   9.760   6.708 -0.2556  0.3153 -0.3824
15997SOL    HW150884   0.993   9.845   6.673  0.1484  0.1376 -1.1299
15997SOL    HW250885   1.089   9.730   6.650 -0.0460 -0.2999  0.1731
15998SOL     OW50886   2.573   5.777   0.085  0.1512 -0.6573 -0.3793
15998SOL    HW150887   2.572   5.836   0.160  1.5425 -1.0759  0.0035
15998SOL    HW250888   2.639   5.814   0.026 -2.1543  0.6754 -2.2984
15999SOL     OW50889   4.283   2.939   8.808 -0.5609 -0.4663  0.1671
15999SOL    HW150890   4.208   2.999   8.804  0.4104  0.7831 -0.0298
15999SOL    HW250891   4.281   2.903   8.896  0.3330  1.9325  1.2539
16000SOL     OW50892   5.612   8.024   2.529 -0.2993 -0.4118  0.2004
16000SOL    HW150893   5.550   8.083   2.487 -1.6761 -1.7398  0.2852
16000SOL    HW250894   5.684   8.015   2.466  0.0923  1.5556  0.3231
16001SOL     OW50895   2.831   6.129   5.838  0.4474  0.1858 -0.4294
16001SOL    HW150896   2.890   6.193   5.797  0.5376  0.5296  0.2113
16001SOL    HW250897   2.749   6.177   5.850  0.9717  0.7248  1.4600
16002SOL     OW50898   1.771   9.752   6.795 -0.4191 -0.3813 -0.0601
16002SOL    HW150899   1.719   9.681   6.831  0.1773 -0.2729  1.0824
16002SOL    HW250900   1.736   9.766   6.707  0.0075 -2.6374 -0.6480
16003SOL     OW50901   2.131   6.424   2.612  0.1657  0.3005  0.3179
16003SOL    HW150902   2.158   6.502   2.563 -1.1703  0.6365  0.0535
16003SOL    HW250903   2.035   6.431   2.617 -0.5108 -3.0692 -2.8810
16004SOL     OW50904   2.158   3.999   5.864 -0.2762  0.3892 -0.0126
16004SOL    HW150905   2.144   4.092   5.843 -3.1746 -0.2862 -1.6672
16004SOL    HW250906   2.189   3.960   5.783 -0.5951 -0.3289  0.1998
16005SOL     OW50907   3.251   1.066   5.506 -0.0585  0.1326  0.4038
16005SOL    HW150908   3.322   1.124   5.534 -0.1112 -0.1717  1.1859
16005SOL    HW250909   3.288   0.978   5.509 -0.7217 -0.1202  1.6943
16006SOL     OW50910   4.852   4.247   3.708  0.3002 -0.3418  0.2551
16006SOL    HW150911   4.825   4.161   3.677  0.3049 -0.2456 -0.0174
16006SOL    HW250912   4.800   4.308   3.656  0.0423 -0.1867  0.6882
16007SOL     OW50913   8.619   5.732   7.532 -0.5958 -0.1309  0.2614
16007SOL    HW150914   8.593   5.784   7.607  0.5218  2.6437 -1.1444
16007SOL    HW250915   8.556   5.755   7.464 -0.2621 -0.8736 -0.3131
16008SOL     OW50916   9.900   2.230   7.481 -0.5728  0.5506 -0.1844
16008SOL    HW150917   9.933   2.148   7.444 -0.5405  0.0900  0.8195
16008SOL    HW250918   9.979   2.276   7.510 -0.6739  0.2950  0.5191
16009SOL     OW50919   9.437   8.868   2.365  0.0682  0.3931  0.3729
16009SOL    HW150920   9.507   8.921   2.328  1.1186 -2.0610 -1.4362
16009SOL    HW250921   9.481   8.806   2.423 -0.1246 -2.5996 -2.4137
16010SOL     OW50922   8.372   6.748   9.462  0.2765 -0.0863  0.8678
16010SOL    HW150923   8.279   6.738   9.481  0.4743 -1.7608  1.0940
16010SOL    HW250924   8.394   6.835   9.496 -1.5977  1.1862 -0.9678
16011SOL     OW50925   0.566   8.628   2.952 -0.1983 -0.1117  0.8810
16011SOL    HW150926   0.513   8.707   2.968 -0.5629 -0.3700  0.9650
16011SOL    HW250927   0.565   8.617   2.857  0.2711  0.2681  0.8296
16012SOL     OW50928   9.090   2.410   1.105  0.2147 -0.5989  0.2153
16012SOL    HW150929   9.079   2.318   1.081 -0.0691 -0.8896  1.4062
16012SOL    HW250930   9.064   2.414   1.197 -1.3878  0.9757 -0.2475
16013SOL     OW50931   7.191   8.729   6.285  0.1587 -0.2742  0.5216
16013SOL    HW150932   7.261   8.709   6.347  0.8485  1.9421  0.5537
16013SOL    HW250933   7.234   8.727   6.199  0.1644  0.5555  0.4950
16014SOL     OW50934   0.030   2.596   1.431 -0.3084  0.2025  0.0242
16014SOL    HW150935  -0.033   2.566   1.366  1.6176 -1.8129 -1.0215
16014SOL    HW250936   0.033   2.525   1.496  0.3305  0.6408  0.4842
16015SOL     OW50937   6.731   8.139   6.523  0.1277  0.2361 -0.1399
16015SOL    HW150938   6.643   8.103   6.512  0.9085 -2.1719  0.8808
16015SOL    HW250939   6.720   8.208   6.588 -0.8475 -0.9583  1.0325
16016SOL     OW50940   4.114   9.349   8.263 -0.6148  0.6283  0.3062
16016SOL    HW150941   4.120   9.360   8.168  3.4420 -1.5074  0.0644
16016SOL    HW250942   4.087   9.258   8.274  2.8181 -0.4655  0.8952
16017SOL     OW50943   9.042   9.580   2.442 -0.3979  0.1594  0.0697
16017SOL    HW150944   9.082   9.534   2.516 -2.7841  2.3935  3.0124
16017SOL    HW250945   9.111   9.635   2.407  0.5434 -0.2024  1.2979
16018SOL     OW50946   8.703  10.504  10.297  0.3563  0.3495 -0.3985
16018SOL    HW150947   8.749  10.493  10.214  0.2581 -1.4470 -0.2650
16018SOL    HW250948   8.701  10.598  10.312 -0.2037  0.7536 -2.7400
16019SOL     OW50949   6.809   1.738   0.608 -0.0586  0.1638 -0.0498
16019SOL    HW150950   6.826   1.752   0.701 -0.1991 -0.2506  0.0405
16019SOL    HW250951   6.723   1.777   0.593  0.4392  1.2193 -0.2524
16020SOL     OW50952   7.103   7.956   6.976 -0.5169  0.0842 -0.5488
16020SOL    HW150953   7.105   7.877   6.923 -0.9630 -0.6731  0.5183
16020SOL    HW250954   7.169   8.013   6.937  1.0518 -1.4899 -0.3168
16021SOL     OW50955   6.148   9.368   8.190 -0.0633 -0.1544  0.0867
16021SOL    HW150956   6.063   9.323   8.192 -0.8515  1.2721 -0.0767
16021SOL    HW250957   6.182   9.357   8.278  1.7825 -4.6079 -0.8648
16022SOL     OW50958  10.302   5.654  10.606  0.3957  0.4265  0.3428
16022SOL    HW150959  10.375   5.639  10.544  0.2906 -1.0583  0.5328
16022SOL    HW250960  10.300   5.748  10.618  2.4471  0.5110  0.4895
16023SOL     OW50961   7.638  10.531   2.363 -0.0075  0.1645  0.5086
16023SOL    HW150962   7.545  10.532   2.389 -0.7792  0.2921 -2.0257
16023SOL    HW250963   7.662  10.624   2.360 -0.5488  0.2836 -1.1404
16024SOL     OW50964   3.807   1.711   2.504 -0.4219  0.6168 -0.8820
16024SOL    HW150965   3.811   1.773   2.577  1.6832 -1.7166  1.2045
16024SOL    HW250966   3.861   1.751   2.436  0.1954  1.4927  0.0695
16025SOL     OW50967   7.652   0.127   3.721  0.0399 -0.3099  0.2260
16025SOL    HW150968   7.648   0.222   3.732  0.3475 -0.1768 -0.7244
16025SOL    HW250969   7.585   0.108   3.656 -1.2181 -0.9744  1.6677
16026SOL     OW50970   2.837   0.731   1.488  0.1235  0.1423  0.3645
16026SOL    HW150971   2.873   0.650   1.451  0.0800  0.9535 -1.5784
16026SOL    HW250972   2.752   0.706   1.524  0.6054 -0.8777  0.8342
16027SOL     OW50973   6.715   3.696   6.668 -0.4145 -0.1999  0.3004
16027SOL    HW150974   6.765   3.775   6.647  0.6800 -0.6767  1.0099
16027SOL    HW250975   6.679   3.711   6.755 -1.0125 -0.1029  0.0409
16028SOL     OW50976   3.827   6.254   8.137 -0.0085 -0.1694  0.1085
16028SOL    HW150977   3.738   6.229   8.161  0.1993 -0.3724  0.6812
16028SOL    HW250978   3.816   6.319   8.067 -0.7112  1.8916  1.9880
16029SOL     OW50979  10.070   3.564   3.105  0.2837 -1.0799 -0.5747
16029SOL    HW150980   9.976   3.547   3.114  0.0692  0.4750  0.5199
16029SOL    HW250981  10.111   3.504   3.168 -0.1641 -0.3735  0.4314
16030SOL     OW50982   3.256   8.407   6.574  0.6285  0.0170  0.0922
16030SOL    HW150983   3.245   8.447   6.488  1.2397 -2.1305 -1.0704
16030SOL    HW250984   3.192   8.335   6.575  1.8677 -1.1147  0.6684
16031SOL     OW50985   3.445   8.749   2.603 -0.3048 -0.2226  0.0799
16031SOL    HW150986   3.486   8.674   2.558 -0.7134  0.1963 -1.0331
16031SOL    HW250987   3.511   8.777   2.666  1.5601  0.9369 -2.1967
16032SOL     OW50988   6.247   4.421   9.643 -0.3194 -0.5959  0.2157
16032SOL    HW150989   6.245   4.516   9.638  0.9866 -0.6026 -0.7597
16032SOL    HW250990   6.286   4.402   9.728  0.6602 -0.2425 -0.1483
16033SOL     OW50991   1.543   0.079   9.464 -0.2925 -0.8524 -0.6025
16033SOL    HW150992   1.494   0.154   9.432  0.3445 -0.6283 -1.0653
16033SOL    HW250993   1.489   0.043   9.534  0.1109  0.9739  0.7230
16034SOL     OW50994  10.027   6.234  10.142  0.0022  0.2600  0.0254
16034SOL    HW150995   9.972   6.214  10.218 -0.9022 -3.0727 -1.3111
16034SOL    HW250996   9.968   6.277  10.080 -0.2653 -0.3617 -0.1610
16035SOL     OW50997   7.559   1.400   7.594  0.1137  0.0328  0.3888
16035SOL    HW150998   7.577   1.337   7.664 -0.9243 -0.9423 -0.1890
16035SOL    HW250999   7.510   1.350   7.529 -1.1789  1.5703  0.1317
16036SOL     OW51000   5.949  10.225   1.954 -0.5426 -0.5540  0.3817
16036SOL    HW151001   5.906  10.308   1.931  0.9721  0.0021 -0.5361
16036SOL    HW251002   5.903  10.159   1.902  0.4722  0.1991 -1.5187
16037SOL     OW51003   5.360   4.323   5.641  0.5181 -0.4977 -0.4185
16037SOL    HW151004   5.420   4.346   5.569  1.7801 -0.3744  0.6358
16037SOL    HW251005   5.418   4.301   5.714 -0.7327 -1.6524  0.2620
16038SOL     OW51006   6.743   5.291   5.985  0.1947 -0.4513 -0.6180
16038SOL    HW151007   6.794   5.260   6.060 -0.0686 -0.9653 -0.6542
16038SOL    HW251008   6.652   5.279   6.011  0.1035 -0.6888 -1.0509
16039SOL     OW51009   9.990   9.872   8.178 -0.1242  0.2026 -0.0708
16039SOL    HW151010  10.039   9.866   8.096 -0.0796  0.3456 -0.0543
16039SOL    HW251011  10.056   9.892   8.244 -0.2027  0.3795 -0.0456
16040SOL     OW51012   4.170   4.028   6.486 -0.4310 -0.4111 -0.4923
16040SOL    HW151013   4.129   3.941   6.486 -0.3671 -0.4533 -1.7726
16040SOL    HW251014   4.263   4.010   6.500 -0.3765 -0.5774 -1.0438
16041SOL     OW51015   5.504   6.536   4.642 -0.0512 -0.2910  0.5506
16041SOL    HW151016   5.429   6.502   4.593  0.2546 -1.6782  0.9932
16041SOL    HW251017   5.478   6.527   4.734  0.4308 -0.2557  0.6929
16042SOL     OW51018   6.320   7.859   9.070  0.2646  1.3769 -0.3856
16042SOL    HW151019   6.323   7.775   9.116  0.7125  1.7158  0.2184
16042SOL    HW251020   6.404   7.864   9.025 -0.5394  0.6034 -2.0874
16043SOL     OW51021  10.484   0.008   2.041 -0.1988 -0.4743 -0.0074
16043SOL    HW151022  10.444   0.023   2.127 -0.2517 -1.0550  0.0785
16043SOL    HW251023  10.522  -0.080   2.048  0.1758 -0.3496 -0.4374
16044SOL     OW51024  10.222   5.560   1.821 -0.1338  0.1671 -0.2670
16044SOL    HW151025  10.180   5.643   1.800  1.3578  1.4465  1.5939
16044SOL    HW251026  10.307   5.583   1.857  1.6746 -2.2817 -2.4918
16045SOL     OW51027  10.147   4.335   8.957 -0.1324 -0.1117 -0.2162
16045SOL    HW151028  10.240   4.357   8.962 -0.3263  0.5975  0.5284
16045SOL    HW251029  10.137   4.260   9.016  0.6077 -2.6441 -3.0660
16046SOL     OW51030   5.273   2.582   5.111 -0.0887  0.5210  0.3981
16046SOL    HW151031   5.282   2.625   5.196 -0.6446 -1.6280  1.6207
16046SOL    HW251032   5.179   2.579   5.095  0.0623  2.6358 -1.3020
16047SOL     OW51033   6.115   2.054   1.180 -0.1395 -0.4449  0.6004
16047SOL    HW151034   6.025   2.044   1.212 -0.1687  0.0283  0.6847
16047SOL    HW251035   6.128   2.149   1.178 -0.2192 -0.4396 -1.0259
16048SOL     OW51036  10.002   8.580   1.863 -0.3167  0.0652  0.0503
16048SOL    HW151037  10.021   8.566   1.955  0.4123  1.4243  0.1313
16048SOL    HW251038  10.082   8.618   1.827 -0.0730 -1.7561 -1.4937
16049SOL     OW51039   3.827   0.847  10.478  0.8098  0.5525  0.0741
16049SOL    HW151040   3.808   0.853  10.572 -1.8463  0.3760 -0.3580
16049SOL    HW251041   3.782   0.923  10.440 -0.3768 -0.7546 -1.2786
16050SOL     OW51042   4.652   3.492  10.631 -0.3002  0.5220 -0.2603
16050SOL    HW151043   4.565   3.464  10.603  0.2105 -0.8633 -0.5400
16050SOL    HW251044   4.711   3.455  10.565  0.5606  0.8929  0.2830
16051SOL     OW51045   3.810   3.256   6.698 -0.0958 -0.3345 -0.1785
16051SOL    HW151046   3.814   3.227   6.607  3.8184  0.9702 -0.6361
16051SOL    HW251047   3.799   3.351   6.693 -0.3253 -0.2963  0.7266
16052SOL     OW51048   1.451   7.911   7.059  0.0675  1.0858  0.0076
16052SOL    HW151049   1.506   7.837   7.035  0.0857  0.4216  1.9427
16052SOL    HW251050   1.507   7.988   7.048  0.9290  0.5499  0.6202
16053SOL     OW51051   5.789   6.971   2.790 -0.4195 -0.4021 -0.0186
16053SOL    HW151052   5.783   6.877   2.773 -0.5388 -0.8999  2.3897
16053SOL    HW251053   5.882   6.991   2.784 -0.2539 -0.9442  0.6062
16054SOL     OW51054   6.289   6.760   1.737  0.1685 -0.6997 -0.0761
16054SOL    HW151055   6.282   6.698   1.809 -0.3668  0.1619  0.6343
16054SOL    HW251056   6.227   6.829   1.759  0.6095 -0.0079 -0.9440
16055SOL     OW51057  10.681   3.801   2.018  0.0163  0.2997 -0.0329
16055SOL    HW151058  10.688   3.713   1.980  0.0849  0.7768 -1.1666
16055SOL    HW251059  10.601   3.798   2.070 -1.9347  0.5217 -2.8137
16056SOL     OW51060   6.351   2.372   7.394 -1.0692 -0.5644  0.9633
16056SOL    HW151061   6.293   2.348   7.466  1.0344 -0.1459  2.9270
16056SOL    HW251062   6.439   2.347   7.425 -0.0269  0.1220 -1.2465
16057SOL     OW51063   9.908   2.073  10.328  0.0649  0.7111  0.7869
16057SOL    HW151064   9.989   2.021  10.321 -1.0621 -0.9465 -1.0376
16057SOL    HW251065   9.863   2.037  10.404 -0.9575 -1.5040 -0.7654
16058SOL     OW51066   1.390   6.255   1.225 -0.5415  0.3014  0.8061
16058SOL    HW151067   1.336   6.210   1.161  1.2143 -1.4290  0.4616
16058SOL    HW251068   1.477   6.255   1.187  0.7770 -1.6561  3.5233
16059SOL     OW51069   2.178   6.910   9.113  0.1835  0.2600  0.2163
16059SOL    HW151070   2.192   6.879   9.024  2.4670  0.5003  0.4200
16059SOL    HW251071   2.132   6.839   9.157  0.8421 -0.7218 -0.6345
16060SOL     OW51072   7.751   6.091   2.911 -0.3686  0.4032  0.1107
16060SOL    HW151073   7.707   6.092   2.826  0.5565 -1.5036 -0.4300
16060SOL    HW251074   7.812   6.165   2.907  0.8321 -0.6125 -1.5473
16061SOL     OW51075   7.616   8.347   8.927 -0.5441 -0.5409 -0.1731
16061SOL    HW151076   7.612   8.284   9.000  0.3730 -0.5905 -0.1515
16061SOL    HW251077   7.576   8.300   8.853 -0.5556 -0.8706  0.0378
16062SOL     OW51078   4.212   5.998   1.118 -0.2526  0.3575  0.3230
16062SOL    HW151079   4.131   6.047   1.134  0.1492  1.0458  0.2831
16062SOL    HW251080   4.210   5.927   1.183 -1.2934 -0.1546 -0.2365
16063SOL     OW51081   9.049   9.286  10.038 -0.9748  1.0162  0.0138
16063SOL    HW151082   9.075   9.195  10.046  0.4114  1.1959 -1.8683
16063SOL    HW251083   9.107   9.334  10.097 -0.8576  0.8001  0.0728
16064SOL     OW51084   7.465   7.271   4.839  0.1426 -0.0959  0.1651
16064SOL    HW151085   7.392   7.223   4.800 -0.9526 -0.1983  2.1781
16064SOL    HW251086   7.497   7.328   4.769 -2.4009  0.5315 -0.6174
16065SOL     OW51087   5.855   8.155   8.704 -0.2371 -0.4728  0.1748
16065SOL    HW151088   5.768   8.190   8.722 -0.0048  0.7899 -1.0143
16065SOL    HW251089   5.912   8.232   8.704  0.5079 -0.9965 -1.1957
16066SOL     OW51090   8.513   0.949   6.854  0.6543 -0.4384 -0.0136
16066SOL    HW151091   8.533   0.877   6.915  1.0296 -0.0707  0.3052
16066SOL    HW251092   8.594   1.000   6.851  0.6738 -0.5194 -0.9237
16067SOL     OW51093   9.291  10.045   4.361  0.3223  0.2460  0.0077
16067SOL    HW151094   9.200  10.043   4.331 -0.4757  0.7175  2.1759
16067SOL    HW251095   9.324   9.956   4.344 -1.1979 -0.5367  0.9290
16068SOL     OW51096   6.820   8.133   9.918  0.4046  0.3850  0.0885
16068SOL    HW151097   6.855   8.097  10.000 -0.0648  1.7045  0.8943
16068SOL    HW251098   6.842   8.226   9.922  1.0490  0.3456 -1.6555
16069SOL     OW51099   4.232   1.935   2.197 -0.5078 -0.2507  0.4087
16069SOL    HW151100   4.259   1.908   2.110  0.0123 -0.2177  0.5582
16069SOL    HW251101   4.277   1.876   2.257  0.7682  1.0066  0.7481
16070SOL     OW51102   6.558   6.276  10.626  0.2136 -0.1506  0.3082
16070SOL    HW151103   6.593   6.321  10.703  0.4425  1.0431 -0.4518
16070SOL    HW251104   6.463   6.287  10.633  0.2844  0.8831 -0.0823
16071SOL     OW51105  10.487   1.537   1.585 -0.1440 -0.4608  0.1121
16071SOL    HW151106  10.476   1.473   1.516 -0.8790  1.4089 -1.5951
16071SOL    HW251107  10.416   1.518   1.647 -1.0389 -0.6257 -0.9312
16072SOL     OW51108   1.077   5.119   9.006  0.7196 -0.5115 -0.1780
16072SOL    HW151109   1.084   5.066   8.927 -1.0284  0.9719 -1.4096
16072SOL    HW251110   1.096   5.208   8.978 -1.7706  0.3607  0.5786
16073SOL     OW51111   2.524   2.055   5.590  0.5986 -0.5117  0.1060
16073SOL    HW151112   2.500   2.107   5.666  2.3035  2.0069 -0.9499
16073SOL    HW251113   2.619   2.047   5.595  0.7275 -0.5137 -1.5821
16074SOL     OW51114   8.557   3.666   7.708 -0.2276  0.8643  0.1512
16074SOL    HW151115   8.526   3.751   7.738 -0.0311  1.5764 -1.5798
16074SOL    HW251116   8.651   3.677   7.698 -0.0849  0.1892  0.6564
16075SOL     OW51117   3.472   0.605   0.406  0.1741  0.5240 -0.1580
16075SOL    HW151118   3.460   0.593   0.501 -0.4522  2.4781  0.0548
16075SOL    HW251119   3.476   0.516   0.371 -2.0635 -0.2876  1.4057
16076SOL     OW51120  10.337   5.186   1.294 -0.0172  0.4018 -0.1465
16076SOL    HW151121  10.261   5.240   1.276  0.0527  0.3375 -0.6451
16076SOL    HW251122  10.389   5.190   1.214  0.0521 -0.3015 -0.1430
16077SOL     OW51123   5.101   2.653   4.821  0.0880  0.2325  0.3938
16077SOL    HW151124   5.051   2.586   4.774 -0.2052 -0.1711  1.2635
16077SOL    HW251125   5.192   2.637   4.797  0.0132 -0.4373  0.5445
16078SOL     OW51126   7.362   5.031   2.847 -0.2369  0.1910 -0.0452
16078SOL    HW151127   7.324   5.118   2.858  0.1496  0.1704  1.7499
16078SOL    HW251128   7.289   4.976   2.819 -1.2789  0.4334  2.0429
16079SOL     OW51129   5.690   1.624   2.910 -0.5098 -0.3496 -0.3518
16079SOL    HW151130   5.623   1.661   2.852 -1.2256 -1.3434 -0.2001
16079SOL    HW251131   5.706   1.692   2.975  1.6639  1.5593 -2.6742
16080SOL     OW51132   1.293   2.883   7.879 -0.5285 -0.1613 -0.3969
16080SOL    HW151133   1.236   2.958   7.894  0.8111  0.6436  0.8895
16080SOL    HW251134   1.251   2.811   7.925 -0.5026  0.4311  0.5617
16081SOL     OW51135   8.061   0.019  10.479  0.0978 -0.3204  0.0417
16081SOL    HW151136   8.105   0.046  10.399  1.1516 -1.0327  0.3521
16081SOL    HW251137   8.058   0.098  10.533 -0.9140  0.2409 -0.8121
16082SOL     OW51138   5.312   4.143   8.928 -0.0494 -0.7284  0.5371
16082SOL    HW151139   5.229   4.098   8.915 -0.0121 -0.4076 -1.0512
16082SOL    HW251140   5.375   4.073   8.946 -0.1594 -1.2676 -1.0380
16083SOL     OW51141   9.394   2.227   9.532 -0.0269 -0.2704 -0.1532
16083SOL    HW151142   9.483   2.258   9.513 -0.4024  0.1109 -1.4331
16083SOL    HW251143   9.389   2.142   9.488 -0.4647 -0.0281 -0.5850
16084SOL     OW51144   5.076  10.768   7.832 -0.4668  0.8618 -0.6610
16084SOL    HW151145   5.036  10.696   7.784 -1.1387  1.4323 -0.9712
16084SOL    HW251146   5.106  10.728   7.914 -1.7062  0.4082 -0.3972
16085SOL     OW51147   4.998   5.273   9.750 -0.1113  0.5705 -0.2739
16085SOL    HW151148   4.993   5.185   9.712 -1.0778  0.2445  0.5723
16085SOL    HW251149   4.937   5.325   9.697 -0.6771  0.3660  0.1749
16086SOL     OW51150   6.920  10.513   5.087 -0.4371 -0.5263  0.2845
16086SOL    HW151151   6.869  10.580   5.042  1.4452  0.9773  0.2304
16086SOL    HW251152   6.931  10.547   5.176  0.1208 -1.0182  0.4120
16087SOL     OW51153   9.791   9.565   2.637  0.6922  0.8286  0.5671
16087SOL    HW151154   9.816   9.651   2.672  1.1846  0.0335  2.2438
16087SOL    HW251155   9.842   9.502   2.687  0.8262 -0.4445 -1.0870
16088SOL     OW51156   7.703   6.498   1.328  0.5921  0.9835 -0.0231
16088SOL    HW151157   7.714   6.408   1.360  0.3755  1.3034  0.9572
16088SOL    HW251158   7.640   6.490   1.256  0.1889  0.4186  0.3864
16089SOL     OW51159   6.774   3.775   0.387 -0.8488  0.4883 -0.8308
16089SOL    HW151160   6.741   3.859   0.418 -1.5480  0.3420 -1.1602
16089SOL    HW251161   6.696   3.726   0.362 -0.5148 -0.5761  0.1320
16090SOL     OW51162   8.119   7.240   7.484 -0.0342  0.3409  0.8556
16090SOL    HW151163   8.086   7.321   7.522  0.0081  0.6003  0.3591
16090SOL    HW251164   8.173   7.200   7.552 -0.7934  0.2719  1.4207
16091SOL     OW51165  10.099  10.590   7.548 -0.1344  0.0160 -0.4298
16091SOL    HW151166  10.022  10.555   7.593 -0.5074 -0.3491 -1.3405
16091SOL    HW251167  10.069  10.673   7.511  0.4852  0.8763  0.9183
16092SOL     OW51168   8.047   3.455   9.216 -0.2992  0.2030  0.2993
16092SOL    HW151169   7.972   3.515   9.217 -0.9040 -0.4897  2.4784
16092SOL    HW251170   8.010   3.370   9.242  1.1749 -0.2284  1.0973
16093SOL     OW51171   2.541   5.374   1.388 -0.2563 -0.0447 -0.1502
16093SOL    HW151172   2.505   5.424   1.461 -0.9859  0.3598 -0.7767
16093SOL    HW251173   2.500   5.288   1.397  0.4623 -0.3319  0.5180
16094SOL     OW51174   7.093   7.735   9.965  0.3931  0.3212  0.2165
16094SOL    HW151175   7.085   7.797   9.892  0.2326 -1.1705 -1.0729
16094SOL    HW251176   7.010   7.743  10.012 -0.6623 -0.6584 -1.3952
16095SOL     OW51177   6.316   7.287   6.454 -0.4396  0.2341 -0.7999
16095SOL    HW151178   6.261   7.293   6.532 -1.3739  0.4395 -1.4442
16095SOL    HW251179   6.393   7.237   6.482 -0.2882  1.1506  0.4896
16096SOL     OW51180   6.183   8.583   0.543  0.8519 -0.0839 -0.0986
16096SOL    HW151181   6.208   8.675   0.552  1.5942 -0.3127  0.3217
16096SOL    HW251182   6.102   8.585   0.493 -0.1750  0.9188  1.4797
16097SOL     OW51183   1.843   2.646   0.736 -0.0024 -0.4315 -0.2218
16097SOL    HW151184   1.806   2.564   0.703  1.4223 -1.5628  0.8459
16097SOL    HW251185   1.771   2.690   0.780 -0.5655 -1.5729  0.0150
16098SOL     OW51186  10.386   1.947   2.811 -0.2513  0.4715 -0.3253
16098SOL    HW151187  10.386   1.948   2.715  0.4500  0.0195 -0.3368
16098SOL    HW251188  10.309   1.896   2.834  0.8378 -1.4360 -0.7057
16099SOL     OW51189   6.746   9.034   8.565 -0.2378 -0.3684  0.0974
16099SOL    HW151190   6.693   9.011   8.488 -1.3622  0.9392  0.4307
16099SOL    HW251191   6.764   9.128   8.554  2.1272 -0.7860 -0.0421
16100SOL     OW51192   5.655   7.734  10.506  0.6937  0.2095 -0.8466
16100SOL    HW151193   5.622   7.682  10.433 -0.7361  1.0148 -0.8160
16100SOL    HW251194   5.672   7.821  10.468 -2.3912  1.3940  0.1516
16101SOL     OW51195   9.773   0.088   8.336 -0.1400  0.0966  0.1853
16101SOL    HW151196   9.827   0.140   8.397  0.4664  0.3908 -0.5825
16101SOL    HW251197   9.724   0.028   8.392 -1.8687  2.3426  1.2561
16102SOL     OW51198   8.782   1.189   9.425  0.4848  0.0089 -0.1801
16102SOL    HW151199   8.850   1.244   9.465  0.8475 -1.7496  1.7976
16102SOL    HW251200   8.700   1.228   9.454  0.5295  2.1596 -2.5994
16103SOL     OW51201   4.656   9.966   7.977 -0.3294 -0.4743 -0.3352
16103SOL    HW151202   4.653   9.882   8.023  0.3539 -1.4654 -2.0031
16103SOL    HW251203   4.740   9.965   7.931  0.1991  1.6464  0.4781
16104SOL     OW51204   7.578   0.813   3.161 -0.2532 -0.0555  0.1449
16104SOL    HW151205   7.658   0.833   3.111  0.3152 -1.9835  0.2145
16104SOL    HW251206   7.591   0.857   3.245 -0.3291  1.5593 -0.6465
16105SOL     OW51207   9.605   1.482   3.514  0.1402  0.1427 -0.5600
16105SOL    HW151208   9.541   1.533   3.563 -0.4817 -1.5871  0.5311
16105SOL    HW251209   9.556   1.443   3.442  0.4069  0.3591 -0.8639
16106SOL     OW51210   3.668   5.218  10.398  0.3979 -0.1820 -0.1647
16106SOL    HW151211   3.703   5.303  10.374  0.7678 -0.6273 -1.2443
16106SOL    HW251212   3.732   5.182  10.459  0.0820  0.4295  0.5495
16107SOL     OW51213   0.115   6.026  10.666  0.3339  0.6330 -0.0093
16107SOL    HW151214   0.051   6.092  10.693  0.2985  1.1067 -1.2119
16107SOL    HW251215   0.094   6.008  10.574  1.1813 -0.0811 -0.0747
16108SOL     OW51216   3.362   4.161  10.075 -0.4620  0.1509  0.0669
16108SOL    HW151217   3.338   4.070  10.059  0.3062 -0.0098 -0.1708
16108SOL    HW251218   3.320   4.182  10.158 -0.8879 -0.3253 -0.0211
16109SOL     OW51219   9.369   5.863   6.088  0.1622  0.2607  0.2518
16109SOL    HW151220   9.403   5.941   6.133 -0.0481  0.7829 -0.4738
16109SOL    HW251221   9.357   5.799   6.158 -1.2977  1.4342  1.1461
16110SOL     OW51222   1.009   7.614   2.332 -0.0421  0.3231 -0.5460
16110SOL    HW151223   0.927   7.645   2.293 -0.9517  0.0389  1.0696
16110SOL    HW251224   1.001   7.519   2.331 -0.2010  0.3174  0.5599
16111SOL     OW51225   6.901   8.878   2.341  0.0731  0.1377 -0.1027
16111SOL    HW151226   6.893   8.971   2.325  1.4488  0.3588  0.3584
16111SOL    HW251227   6.995   8.863   2.353 -0.0233 -1.4490 -1.0083
16112SOL     OW51228   1.099   3.070   5.878  0.0970 -0.0341 -0.2655
16112SOL    HW151229   1.044   3.058   5.955  0.5136 -2.2051 -0.2591
16112SOL    HW251230   1.148   3.150   5.896 -1.9695  1.1846  0.3514
16113SOL     OW51231   6.258   6.723   8.424 -0.3627  0.0447 -0.1757
16113SOL    HW151232   6.319   6.708   8.351 -1.7301  2.0337 -1.8430
16113SOL    HW251233   6.256   6.640   8.471  3.5125 -0.1796 -0.0670
16114SOL     OW51234   1.014   2.290  10.158  0.0954  0.0129  0.1512
16114SOL    HW151235   1.100   2.318  10.128  0.1005  1.0980  1.1075
16114SOL    HW251236   0.982   2.363  10.212 -1.2885 -0.4958  0.0630
16115SOL     OW51237   2.413   8.307   6.942 -0.5189  0.1981  0.6503
16115SOL    HW151238   2.358   8.238   6.979  0.6430 -0.0370  2.0490
16115SOL    HW251239   2.443   8.271   6.858  1.0778 -1.6031  1.9096
16116SOL     OW51240   3.939   9.149   1.124 -0.2820  0.2569 -0.1863
16116SOL    HW151241   3.990   9.214   1.173 -0.0417 -0.0053 -0.0831
16116SOL    HW251242   3.993   9.070   1.126  0.4742  0.6421 -2.1856
16117SOL     OW51243   0.555   7.958   4.548  0.3111  0.0049  0.3616
16117SOL    HW151244   0.580   7.979   4.638  2.1591 -0.4544 -0.0180
16117SOL    HW251245   0.575   8.038   4.499 -2.5289  0.9876  0.6022
16118SOL     OW51246   4.237   1.745   0.442 -0.8255 -0.2409  0.2929
16118SOL    HW151247   4.150   1.717   0.412 -0.4630 -0.6058 -0.4279
16118SOL    HW251248   4.291   1.746   0.363  0.0654 -0.9057  0.8738
16119SOL     OW51249   5.980   7.581   0.594  0.1050  0.3928 -0.2691
16119SOL    HW151250   5.909   7.568   0.532 -1.8344  1.7839  1.5413
16119SOL    HW251251   6.023   7.496   0.599  0.4827  0.2557 -3.5631
16120SOL     OW51252   5.565   6.490   0.373  0.2327  0.0291 -0.5069
16120SOL    HW151253   5.471   6.491   0.355 -0.1463 -0.2604  1.2346
16120SOL    HW251254   5.600   6.562   0.320 -1.2700  1.3533  0.1898
16121SOL     OW51255   6.562   4.397   0.554  0.4331  0.4983 -0.9660
16121SOL    HW151256   6.537   4.306   0.572 -0.9388  0.8200 -1.1096
16121SOL    HW251257   6.617   4.421   0.629 -0.8258  0.1535  0.1185
16122SOL     OW51258   0.395   7.303   5.790  0.2535 -0.0791  0.1602
16122SOL    HW151259   0.421   7.263   5.873  0.9445  0.3695  0.1699
16122SOL    HW251260   0.462   7.369   5.774 -0.0245  0.0170 -0.6252
16123SOL     OW51261   6.990   0.314   1.758  0.8309 -0.1634  0.5398
16123SOL    HW151262   7.031   0.395   1.729 -0.7028 -0.0387 -1.5518
16123SOL    HW251263   6.896   0.335   1.761  0.3188 -2.0011 -0.7863
16124SOL     OW51264   1.932   3.097   6.628 -0.5906 -0.2517  0.0582
16124SOL    HW151265   1.855   3.150   6.610 -1.3483 -1.4226 -0.2683
16124SOL    HW251266   1.897   3.010   6.649  0.4681 -0.1580  2.6355
16125SOL     OW51267   6.638   4.427   3.071  0.3376 -0.1033  0.1538
16125SOL    HW151268   6.544   4.442   3.065  0.5013  0.6610 -0.9355
16125SOL    HW251269   6.664   4.404   2.982  0.9396 -1.9999  0.7656
16126SOL     OW51270   4.884   1.848   6.709 -0.2185 -0.1034 -0.1389
16126SOL    HW151271   4.913   1.757   6.698 -0.3773 -0.1105 -0.5232
16126SOL    HW251272   4.810   1.842   6.770  1.2729  0.0377  1.7831
16127SOL     OW51273   9.877   2.852   4.608 -0.3306 -0.3639 -0.0986
16127SOL    HW151274   9.783   2.864   4.620 -0.3503 -0.8200  0.2210
16127SOL    HW251275   9.891   2.865   4.514 -0.9259 -1.6706 -0.3875
16128SOL     OW51276   8.875   6.968   1.454 -0.3459  0.1955  0.5203
16128SOL    HW151277   8.958   6.938   1.419 -0.4500  0.6039 -0.0948
16128SOL    HW251278   8.865   7.057   1.419 -0.3966  0.6645  1.6855
16129SOL     OW51279   9.734   6.272   7.332  0.8903 -0.0744 -0.1503
16129SOL    HW151280   9.762   6.309   7.248  1.3933  0.7006  0.3493
16129SOL    HW251281   9.650   6.314   7.351  0.3278 -0.9300 -0.6974
16130SOL     OW51282   6.420   2.927   9.808 -0.6064  0.2862  0.5788
16130SOL    HW151283   6.444   2.850   9.860 -1.6107  1.1575  2.4395
16130SOL    HW251284   6.389   2.990   9.873 -0.6184  1.9528 -0.9845
16131SOL     OW51285   9.695   5.244   6.755 -0.1885  0.1891  0.2609
16131SOL    HW151286   9.719   5.336   6.752  1.1921 -0.1316  0.3759
16131SOL    HW251287   9.669   5.229   6.846 -0.2740  0.4411  0.2783
16132SOL     OW51288   7.349   9.585   3.340 -0.0356  0.2871 -0.6721
16132SOL    HW151289   7.402   9.639   3.399 -0.7531  1.6658 -1.2364
16132SOL    HW251290   7.273   9.559   3.392  1.6419 -2.7110  0.5300
16133SOL     OW51291   1.100   4.193   1.193  0.0822 -0.0542 -0.2423
16133SOL    HW151292   1.151   4.268   1.161 -2.2211  1.4749 -0.5901
16133SOL    HW251293   1.054   4.161   1.116 -1.9006  0.6792  0.5669
16134SOL     OW51294   9.485   9.096   3.438 -0.3554 -0.1939  0.1941
16134SOL    HW151295   9.420   9.083   3.370 -1.0791  1.5843  0.4780
16134SOL    HW251296   9.513   9.187   3.428  0.0680 -0.1013  1.7939
16135SOL     OW51297   1.986   0.871  10.264 -0.3482 -0.4206 -0.6807
16135SOL    HW151298   1.922   0.817  10.217  0.9691 -0.1238 -2.9336
16135SOL    HW251299   2.071   0.837  10.238  0.4781  1.1821 -0.2163
16136SOL     OW51300   6.922   8.685   7.598 -0.1143 -0.0993  0.5530
16136SOL    HW151301   6.984   8.612   7.594  0.0347 -0.0763  2.0989
16136SOL    HW251302   6.843   8.648   7.636 -0.7643  0.0893 -0.5661
16137SOL     OW51303   6.432   5.584   3.453 -0.2545 -0.1373  0.1617
16137SOL    HW151304   6.380   5.507   3.476 -0.0090 -0.3236  0.1039
16137SOL    HW251305   6.521   5.549   3.440 -0.0038  0.2572  0.7970
16138SOL     OW51306   2.064   7.210   8.024 -0.3035 -0.8214 -0.6801
16138SOL    HW151307   2.040   7.301   8.042  0.6456 -0.8586  1.0496
16138SOL    HW251308   1.996   7.158   8.067  0.9911 -0.8948  1.4680
16139SOL     OW51309   4.803   7.279   6.382  0.2617 -0.0299 -0.0359
16139SOL    HW151310   4.801   7.216   6.454 -1.6973  2.1452  1.9892
16139SOL    HW251311   4.851   7.235   6.313  2.8931 -2.0589  2.7899
16140SOL     OW51312   2.402   4.165   7.838  0.7161  0.0864 -0.1613
16140SOL    HW151313   2.489   4.189   7.806  2.3126 -1.8145  2.3312
16140SOL    HW251314   2.404   4.069   7.842 -1.6580 -0.0194 -0.3683
16141SOL     OW51315   7.109   7.705   5.441  0.4260  0.5330 -0.1711
16141SOL    HW151316   7.165   7.644   5.488 -1.0123 -2.2245 -1.7973
16141SOL    HW251317   7.122   7.683   5.349 -1.3031  1.6356 -0.7328
16142SOL     OW51318   1.220   1.457   3.925  0.4261 -0.0267 -0.6896
16142SOL    HW151319   1.127   1.466   3.906  0.7361 -0.0544 -2.3397
16142SOL    HW251320   1.230   1.497   4.012 -1.2391 -0.7623 -0.1160
16143SOL     OW51321   5.189   4.872   2.174 -0.4239  0.2263 -0.1131
16143SOL    HW151322   5.220   4.789   2.210  1.7062  0.5454 -1.0606
16143SOL    HW251323   5.197   4.862   2.079 -1.4762  1.0546 -0.3216
16144SOL     OW51324   6.828   1.645   4.243  0.4600  0.1590 -0.3996
16144SOL    HW151325   6.829   1.605   4.156 -0.5625  1.9799 -1.3133
16144SOL    HW251326   6.900   1.708   4.242  0.5823  0.0331  0.1522
16145SOL     OW51327   4.864   8.205   7.873 -0.1557  0.5368  0.1106
16145SOL    HW151328   4.831   8.201   7.784  2.1559  1.3214 -0.8388
16145SOL    HW251329   4.882   8.113   7.896  0.5246  0.4308 -0.7749
16146SOL     OW51330   0.485   0.422   6.942  0.0334  0.1899  0.7773
16146SOL    HW151331   0.425   0.489   6.976 -0.0701 -0.3625  1.7332
16146SOL    HW251332   0.494   0.360   7.015  0.8031 -0.3769  0.2071
16147SOL     OW51333   6.957   5.774   6.832 -0.0255 -0.3179 -0.2020
16147SOL    HW151334   6.931   5.688   6.801  0.1916 -0.0618 -1.1222
16147SOL    HW251335   6.984   5.821   6.753  1.7256 -0.0468  0.5099
16148SOL     OW51336   6.157   1.123   3.472  0.4181 -0.4419  0.4437
16148SOL    HW151337   6.148   1.044   3.419 -1.1985  0.4017 -0.6116
16148SOL    HW251338   6.224   1.174   3.427  0.2245 -0.4515  0.1418
16149SOL     OW51339   6.814   9.793   0.472  0.6569  0.1242 -0.4182
16149SOL    HW151340   6.749   9.859   0.495 -0.1491 -0.9916  0.6356
16149SOL    HW251341   6.767   9.709   0.479  1.2332 -0.5284 -3.0912
16150SOL     OW51342   6.304   9.845   9.801  0.4382  0.2025  0.5708
16150SOL    HW151343   6.345   9.926   9.832  0.7886  0.1773  0.1807
16150SOL    HW251344   6.298   9.856   9.706  0.2161 -0.1069  0.5487
16151SOL     OW51345   9.132   3.713   6.040  0.1239 -0.4941  0.0031
16151SOL    HW151346   9.215   3.666   6.029  0.5115  0.6230 -2.3494
16151SOL    HW251347   9.142   3.760   6.123  1.6329 -0.7805  0.0189
16152SOL     OW51348   5.150   7.474   1.431  0.2051  0.2839 -0.1766
16152SOL    HW151349   5.124   7.529   1.504  1.5231 -0.9594  1.3107
16152SOL    HW251350   5.228   7.428   1.462 -0.2142 -1.6259 -1.7193
16153SOL     OW51351   2.475   8.250   7.596 -0.1172 -0.3995  0.0186
16153SOL    HW151352   2.502   8.328   7.548  1.8405 -1.2370 -0.3243
16153SOL    HW251353   2.391   8.274   7.636  0.1824  1.6809 -0.5043
16154SOL     OW51354   7.404   6.558   2.363  0.9939  0.1066 -0.1339
16154SOL    HW151355   7.491   6.539   2.326  1.8774  1.2562  1.2331
16154SOL    HW251356   7.350   6.484   2.337  2.1178 -0.1601 -1.8766
16155SOL     OW51357   9.323   6.102   8.230  0.3867 -0.1112  0.0133
16155SOL    HW151358   9.241   6.137   8.267  1.3779  0.5600  1.7308
16155SOL    HW251359   9.375   6.180   8.211  0.6385 -0.5354 -1.0886
16156SOL     OW51360   9.234   9.301   4.780 -0.1711 -0.8022  0.0225
16156SOL    HW151361   9.253   9.354   4.702 -0.8360 -2.2271 -1.1736
16156SOL    HW251362   9.188   9.359   4.839  0.5070  0.3747 -0.5784
16157SOL     OW51363   1.708  10.337   1.190  0.2219  0.7320 -0.4992
16157SOL    HW151364   1.657  10.418   1.184 -0.8206  0.2499  1.2215
16157SOL    HW251365   1.687  10.290   1.110  0.5401  1.9691 -1.3441
16158SOL     OW51366   9.753   5.860   7.215  0.0631 -0.3387 -0.0125
16158SOL    HW151367   9.783   5.877   7.125  0.2173 -2.7168 -0.4910
16158SOL    HW251368   9.832   5.867   7.268  0.2518 -0.3152 -0.2938
16159SOL     OW51369   4.727   3.309   8.934  0.0394 -0.2407 -0.3113
16159SOL    HW151370   4.812   3.269   8.950  0.3671 -0.9305 -3.2401
16159SOL    HW251371   4.664   3.240   8.956  0.4901 -1.4403 -2.5500
16160SOL     OW51372   3.100   8.812   7.777 -0.0763  0.2817 -0.0413
16160SOL    HW151373   3.020   8.829   7.827 -3.0181 -1.3823 -3.6930
16160SOL    HW251374   3.145   8.742   7.825 -2.5937 -1.0640  0.4896
16161SOL     OW51375   1.794   4.059   0.272  0.5066 -0.4247 -0.4240
16161SOL    HW151376   1.816   3.973   0.308  0.3440 -0.4110 -0.2913
16161SOL    HW251377   1.849   4.067   0.194  2.9278  0.6678  1.2448
16162SOL     OW51378   7.233  10.719  10.048  0.2866 -0.3185 -0.4811
16162SOL    HW151379   7.221  10.647   9.986 -0.4820 -0.6199  0.0119
16162SOL    HW251380   7.207  10.684  10.133  0.2032  0.4411 -0.1782
16163SOL     OW51381   4.095   4.239   6.799  0.1618  0.1875 -0.1245
16163SOL    HW151382   4.176   4.290   6.796  0.3248 -0.1097 -2.4699
16163SOL    HW251383   4.120   4.158   6.842  1.1378  0.1163 -0.7796
16164SOL     OW51384   9.367   5.593   3.526  0.3037 -0.2374  0.7555
16164SOL    HW151385   9.320   5.552   3.598 -0.1868  0.2962  0.7424
16164SOL    HW251386   9.394   5.679   3.560 -0.1443  0.1154  0.2245
16165SOL     OW51387   5.919   3.997   1.784 -0.1983 -0.2318  0.8750
16165SOL    HW151388   5.861   3.984   1.709 -1.6212  0.5960  1.7948
16165SOL    HW251389   5.983   3.926   1.777  0.2888  0.3407 -1.6235
16166SOL     OW51390   0.628   7.035   6.338 -0.7083  0.1480 -0.2901
16166SOL    HW151391   0.611   6.987   6.258 -1.7741 -1.1364  0.6551
16166SOL    HW251392   0.720   7.017   6.358 -0.3885  0.6145 -1.2766
16167SOL     OW51393  10.195   2.567   7.212  0.3566  0.5780  0.2523
16167SOL    HW151394  10.237   2.600   7.133 -0.8685  0.6940 -0.3760
16167SOL    HW251395  10.105   2.546   7.185 -0.5061  1.8965  1.9064
16168SOL     OW51396   6.436   3.277   1.695  0.4990  0.2011  0.2767
16168SOL    HW151397   6.411   3.369   1.696 -1.8249 -0.3748  0.0128
16168SOL    HW251398   6.468   3.260   1.784 -0.7955  0.8260  0.8787
16169SOL     OW51399   5.928   7.168   6.980 -0.4432  0.1754  0.2037
16169SOL    HW151400   5.933   7.228   6.906  0.9875 -0.3603 -0.1751
16169SOL    HW251401   5.997   7.198   7.040 -2.6604  1.6627  2.2003
16170SOL     OW51402   7.393   1.117   2.383  0.6089 -0.0964 -0.3847
16170SOL    HW151403   7.369   1.034   2.341  0.0174  0.3399 -0.9341
16170SOL    HW251404   7.367   1.184   2.320 -1.0904  0.6385  1.0223
16171SOL     OW51405   3.656   0.190   8.053 -0.3783  0.0751 -0.6777
16171SOL    HW151406   3.741   0.197   8.097  0.1727 -0.2034 -1.6624
16171SOL    HW251407   3.593   0.179   8.124 -0.0059  3.2824  0.2910
16172SOL     OW51408   6.462   2.064   2.111  0.5003  0.1477 -0.3701
16172SOL    HW151409   6.514   2.008   2.168  1.2824  0.2020 -1.0190
16172SOL    HW251410   6.379   2.075   2.157 -0.5620 -3.2922 -1.1696
16173SOL     OW51411   6.834   5.787   0.822 -1.1963  0.3874 -0.6108
16173SOL    HW151412   6.873   5.736   0.752 -2.0663  0.7969 -1.4153
16173SOL    HW251413   6.861   5.877   0.805  1.3904  0.1560  1.5096
16174SOL     OW51414   6.002   6.454  10.236 -0.0404 -0.5655  0.4656
16174SOL    HW151415   5.942   6.413  10.298 -0.9484  0.2115  0.1358
16174SOL    HW251416   6.034   6.382  10.182 -1.5953 -0.8588 -0.1104
16175SOL     OW51417   9.622   1.580   3.179  0.1869 -0.2685 -0.3455
16175SOL    HW151418   9.662   1.615   3.099 -0.2856  0.7514 -0.1488
16175SOL    HW251419   9.636   1.647   3.245 -1.4765 -0.0367 -0.1668
16176SOL     OW51420   3.110   0.856   7.087  0.1300 -0.4686 -0.3633
16176SOL    HW151421   3.144   0.797   7.020  0.4641 -0.7121  0.0209
16176SOL    HW251422   3.110   0.942   7.045 -1.0376 -0.8300 -1.1752
16177SOL     OW51423   8.407   6.478   7.885 -0.3237 -0.2343  0.4089
16177SOL    HW151424   8.467   6.408   7.911  0.4958  1.0094  2.0867
16177SOL    HW251425   8.397   6.467   7.790  3.4140  0.0698 -0.1845
16178SOL     OW51426   7.556   3.371   1.867  0.1498 -0.1531 -0.0699
16178SOL    HW151427   7.544   3.278   1.850 -0.9162 -0.4580  1.9704
16178SOL    HW251428   7.622   3.374   1.937  1.7484  0.7810 -1.5431
16179SOL     OW51429   5.055   4.910   7.394  0.1720  0.6021  0.8710
16179SOL    HW151430   5.076   4.871   7.479 -0.6234  0.8314  1.1847
16179SOL    HW251431   5.001   4.844   7.350  2.6301 -0.6147 -0.5273
16180SOL     OW51432   0.412   4.815  10.285  0.5119  0.2636  0.2275
16180SOL    HW151433   0.496   4.829  10.329  0.3547 -2.0067  1.4073
16180SOL    HW251434   0.353   4.878  10.326  1.7027  2.3212 -1.0507
16181SOL     OW51435   2.856   4.183   4.800  0.3295  0.5021 -0.1686
16181SOL    HW151436   2.875   4.207   4.709 -2.2124  1.4946 -0.5468
16181SOL    HW251437   2.784   4.120   4.793 -0.0355  0.7435  1.1431
16182SOL     OW51438   7.280   3.742   3.406 -0.0042  0.2092 -0.1627
16182SOL    HW151439   7.243   3.758   3.319  1.4726  0.3206 -0.7984
16182SOL    HW251440   7.337   3.666   3.393  0.0499  0.0863  0.7739
16183SOL     OW51441   8.163   8.478   3.951  0.1316  0.0820  0.0956
16183SOL    HW151442   8.084   8.528   3.970  0.4119  1.3831 -1.8290
16183SOL    HW251443   8.222   8.498   4.023 -1.0065 -0.2965  1.1533
16184SOL     OW51444   3.311   2.034   5.745  0.2010  0.5016 -0.1693
16184SOL    HW151445   3.371   2.019   5.819  0.1085  0.1746 -0.1589
16184SOL    HW251446   3.322   2.126   5.724 -2.5501  1.6618  2.7401
16185SOL     OW51447  10.430   2.493   6.223  0.2493 -0.2066 -0.0868
16185SOL    HW151448  10.366   2.553   6.184  0.3396  1.2744  1.9051
16185SOL    HW251449  10.382   2.447   6.291  1.1875  0.7534  1.2766
16186SOL     OW51450   2.906   4.566   5.286 -0.5609  0.5872  0.6316
16186SOL    HW151451   2.931   4.609   5.204 -0.3721  0.2216  0.4931
16186SOL    HW251452   2.819   4.530   5.269 -0.9166  1.2989  0.8982
16187SOL     OW51453   1.643   8.682   6.760  0.5080  0.4351 -0.4567
16187SOL    HW151454   1.714   8.741   6.787 -0.1162  0.6409  0.7977
16187SOL    HW251455   1.575   8.696   6.825  0.2725 -1.5734 -0.2246
16188SOL     OW51456   3.273   2.631   1.024  0.0847 -0.8358 -0.1227
16188SOL    HW151457   3.306   2.576   1.095  0.2317  0.4807  0.8659
16188SOL    HW251458   3.337   2.703   1.018 -0.3385 -0.5257 -1.0718
16189SOL     OW51459   3.301   6.282   7.851  0.7476  0.1547  0.5923
16189SOL    HW151460   3.235   6.311   7.913 -2.3142 -2.7499 -0.9876
16189SOL    HW251461   3.275   6.320   7.768  1.9152  0.0672  0.1585
16190SOL     OW51462   5.932   9.020   5.687 -0.2498  0.1923  0.2902
16190SOL    HW151463   6.013   9.065   5.713  0.2319  0.2210 -1.1899
16190SOL    HW251464   5.862   9.073   5.726  0.4362 -0.5875  2.7330
16191SOL     OW51465   4.266   9.970   1.435  0.3933 -0.4433 -0.1027
16191SOL    HW151466   4.244   9.909   1.364  0.3493 -0.5810  0.0274
16191SOL    HW251467   4.205  10.043   1.423 -2.7463 -2.3787  2.3590
16192SOL     OW51468   2.988   2.569   1.007 -0.2438 -0.5724 -0.9137
16192SOL    HW151469   3.083   2.578   1.008 -0.3595  1.0422 -1.1146
16192SOL    HW251470   2.959   2.635   0.944 -1.6034  0.2873  0.5477
16193SOL     OW51471   9.448   7.620   6.138  0.3062 -0.5485 -0.2924
16193SOL    HW151472   9.501   7.544   6.112  0.3104 -0.4284 -0.6349
16193SOL    HW251473   9.443   7.613   6.233 -0.8182 -1.7372 -0.4113
16194SOL     OW51474   2.026   1.225   8.030 -0.0404  0.1065  0.2449
16194SOL    HW151475   2.095   1.213   7.964 -0.9913 -0.6502 -0.6544
16194SOL    HW251476   1.949   1.250   7.979 -0.5618  0.4404  1.1815
16195SOL     OW51477  10.646   8.895   1.368 -0.5860  0.2264 -0.2792
16195SOL    HW151478  10.674   8.971   1.318 -0.5526  0.0747 -0.4925
16195SOL    HW251479  10.580   8.853   1.312 -0.3181 -0.1204 -0.3375
16196SOL     OW51480   7.174   2.738  10.507  0.0288 -0.4020 -0.2476
16196SOL    HW151481   7.238   2.781  10.564 -0.6253 -0.7483  0.7698
16196SOL    HW251482   7.135   2.810  10.457 -0.6983  0.1577  1.0724
16197SOL     OW51483   0.224   8.198   9.852  0.2453 -0.8561 -0.3883
16197SOL    HW151484   0.317   8.175   9.860  0.5814  0.4415 -0.2218
16197SOL    HW251485   0.202   8.239   9.936 -0.5870 -1.4605 -0.2976
16198SOL     OW51486   8.714   4.854   7.823  0.0838 -0.2942 -0.1275
16198SOL    HW151487   8.643   4.868   7.886 -1.4779 -0.8703 -1.6985
16198SOL    HW251488   8.721   4.759   7.816  0.9423 -0.2390 -0.0946
16199SOL     OW51489   5.822   5.639   0.328 -0.5499  0.5679 -0.1113
16199SOL    HW151490   5.756   5.669   0.391 -0.8257  1.9980 -1.0373
16199SOL    HW251491   5.898   5.616   0.382 -1.0505  1.0180  0.8060
16200SOL     OW51492   0.128   3.082  10.681 -0.1163  0.2384 -0.1519
16200SOL    HW151493   0.135   3.031  10.761 -2.3403  0.6164  0.3639
16200SOL    HW251494   0.196   3.149  10.688  0.1624 -0.1553  1.0911
16201SOL     OW51495   6.123   1.642   6.549  0.0342 -0.2787  0.6339
16201SOL    HW151496   6.031   1.616   6.548  0.2682 -1.1329  0.4782
16201SOL    HW251497   6.141   1.669   6.459  0.2468 -1.2974  0.3527
16202SOL     OW51498   0.415   8.206   6.309 -0.1453  0.4071 -0.4067
16202SOL    HW151499   0.495   8.231   6.354 -1.2470 -0.2315  2.0982
16202SOL    HW251500   0.410   8.111   6.320 -0.2081  0.1301 -2.4341
16203SOL     OW51501   8.759   8.383   7.874  0.0519 -0.4813  0.3211
16203SOL    HW151502   8.772   8.428   7.957 -0.0747 -2.1608  1.2721
16203SOL    HW251503   8.750   8.455   7.810  1.0509  0.8320  1.5737
16204SOL     OW51504   8.158   7.621   1.451 -0.2128 -0.1724 -0.1891
16204SOL    HW151505   8.247   7.654   1.446 -0.4157  0.3202 -0.6771
16204SOL    HW251506   8.103   7.695   1.425 -0.8131 -0.2638  0.7816
16205SOL     OW51507   5.860   5.604   8.834  0.2363 -0.1776  0.1572
16205SOL    HW151508   5.784   5.560   8.796 -0.2379 -0.2346  1.1355
16205SOL    HW251509   5.925   5.605   8.764  0.1329 -2.0769 -0.0186
16206SOL     OW51510  10.070   6.554   0.401 -0.2479  0.1453 -0.2579
16206SOL    HW151511  10.049   6.466   0.371 -0.7835  0.1542  0.0749
16206SOL    HW251512   9.985   6.598   0.408  0.0072  0.6564 -0.3258
16207SOL     OW51513   2.444   8.959   8.079 -0.5274  0.4082 -0.1904
16207SOL    HW151514   2.518   9.012   8.109 -0.3197 -0.6083  1.1641
16207SOL    HW251515   2.380   9.024   8.048  0.7908  1.3119 -1.1346
16208SOL     OW51516   8.506   6.603   0.224 -0.4566  0.0684 -0.4137
16208SOL    HW151517   8.420   6.598   0.265 -0.0504 -0.8622  0.3643
16208SOL    HW251518   8.502   6.540   0.151 -0.4531  0.0471 -0.3955
16209SOL     OW51519   0.803  10.024   6.982 -0.1463  0.3092 -0.2875
16209SOL    HW151520   0.876  10.084   7.000  1.0609 -0.8402 -1.1696
16209SOL    HW251521   0.732  10.054   7.039  0.7669  1.9195  0.0418
16210SOL     OW51522   5.553   2.360   1.599  0.4603  0.3088 -0.0557
16210SOL    HW151523   5.568   2.331   1.688  0.8432 -0.4106 -0.3462
16210SOL    HW251524   5.459   2.379   1.595 -0.1065 -2.1667 -0.1824
16211SOL     OW51525   6.670   4.056   0.278  0.7723 -0.3242 -0.2805
16211SOL    HW151526   6.598   4.095   0.229  1.0132 -0.5138 -0.7946
16211SOL    HW251527   6.666   4.097   0.365 -0.3776 -0.8488 -0.0745
16212SOL     OW51528   7.005   6.767   4.669 -0.2983 -0.0177  0.0913
16212SOL    HW151529   6.918   6.805   4.682  1.0727  3.0525  1.2675
16212SOL    HW251530   7.029   6.790   4.580 -0.6603 -0.9210 -0.2558
16213SOL     OW51531   1.483   7.762   8.863 -0.0015  0.2965  0.3697
16213SOL    HW151532   1.490   7.841   8.916  1.9220 -0.1263  0.8300
16213SOL    HW251533   1.488   7.690   8.926 -1.6620 -0.2256 -0.0497
16214SOL     OW51534   6.444   9.389   7.540  0.6849 -0.1817  0.3691
16214SOL    HW151535   6.367   9.342   7.573  0.0917  0.8676  0.5108
16214SOL    HW251536   6.416   9.426   7.456  1.6982 -1.5110 -0.6198
16215SOL     OW51537   0.380   6.360   0.330 -0.1052  0.1678  0.6233
16215SOL    HW151538   0.336   6.350   0.414 -0.0735 -1.0928  0.5030
16215SOL    HW251539   0.320   6.412   0.277 -1.3067 -1.2120  0.5806
16216SOL     OW51540   0.450   4.550   1.786  0.0046  0.1432  0.1417
16216SOL    HW151541   0.424   4.618   1.848 -0.6822  0.3990 -0.4094
16216SOL    HW251542   0.372   4.497   1.774 -0.4239  1.0938 -1.7546
16217SOL     OW51543   7.449   8.308   5.091 -0.3584  0.1723  0.1402
16217SOL    HW151544   7.481   8.221   5.115  0.0889  0.1800 -0.4262
16217SOL    HW251545   7.493   8.328   5.009 -1.2501  0.4954 -0.2673
16218SOL     OW51546   1.150   9.718   7.525  0.5059  0.0663 -0.8366
16218SOL    HW151547   1.217   9.654   7.503 -0.3655 -1.7588  1.4048
16218SOL    HW251548   1.155   9.726   7.621 -1.0085  1.5421 -0.8342
16219SOL     OW51549   2.352   8.267   2.058 -0.3029 -0.8192  0.2022
16219SOL    HW151550   2.440   8.299   2.039  0.0014 -1.8651 -0.1966
16219SOL    HW251551   2.360   8.226   2.145 -0.4866 -0.5954  0.3263
16220SOL     OW51552   1.309   8.980   3.095 -0.1516  0.0803 -0.5309
16220SOL    HW151553   1.348   9.054   3.142  0.4169 -0.0344 -0.8177
16220SOL    HW251554   1.230   8.960   3.145  0.1317  0.3433  0.0335
16221SOL     OW51555   2.634   9.824   8.969 -0.1616  0.2900  0.3523
16221SOL    HW151556   2.712   9.863   9.008 -0.6492  1.6452  0.0199
16221SOL    HW251557   2.637   9.851   8.878  1.3375 -3.3967 -0.9089
16222SOL     OW51558   8.054   6.387   7.804 -0.1578 -0.0816 -0.6223
16222SOL    HW151559   8.106   6.341   7.738  0.0655  0.2498 -0.6833
16222SOL    HW251560   7.984   6.429   7.754 -0.2106 -0.1447 -0.6003
16223SOL     OW51561   4.600   5.632   6.912 -0.3502 -0.9984  0.4859
16223SOL    HW151562   4.648   5.558   6.873 -0.9621 -1.6545  0.9528
16223SOL    HW251563   4.524   5.592   6.953  1.5173 -0.7774  4.6994
16224SOL     OW51564   7.643   2.707   5.292 -0.5105 -0.4139 -0.1602
16224SOL    HW151565   7.716   2.722   5.352  0.0358 -3.1962 -0.0250
16224SOL    HW251566   7.670   2.751   5.211  0.4045  0.2614  0.4871
16225SOL     OW51567   7.561   0.757   2.695 -0.0660 -0.2277 -0.0174
16225SOL    HW151568   7.575   0.839   2.744 -0.9546 -0.0406 -0.0630
16225SOL    HW251569   7.533   0.786   2.608  0.9807 -0.5680 -0.4833
16226SOL     OW51570   9.620   5.402   4.499 -0.2244 -0.4038  0.0615
16226SOL    HW151571   9.592   5.341   4.431 -1.3863 -0.5512  0.6535
16226SOL    HW251572   9.546   5.408   4.559  0.8730 -0.4784  1.4772
16227SOL     OW51573   7.020   3.354   9.433  0.2919 -0.5618 -0.0092
16227SOL    HW151574   7.087   3.327   9.371 -0.9424 -1.3246 -1.0698
16227SOL    HW251575   6.963   3.278   9.442 -1.5892  0.6776 -0.7464
16228SOL     OW51576   2.712   5.757   7.681 -0.0592 -0.3125 -0.2687
16228SOL    HW151577   2.636   5.800   7.643  0.0897 -1.2692 -1.7336
16228SOL    HW251578   2.677   5.685   7.733 -0.2154  0.3608  0.5812
16229SOL     OW51579   2.208   8.251  10.015  0.2332 -0.1527  0.0027
16229SOL    HW151580   2.124   8.257   9.968  0.0215  0.0582  0.4086
16229SOL    HW251581   2.207   8.324  10.076  0.6991 -0.1759  0.0396
16230SOL     OW51582   3.064  10.741  10.166 -0.1921 -0.1991 -0.5661
16230SOL    HW151583   2.985  10.791  10.145  0.3865  0.6647 -0.7624
16230SOL    HW251584   3.130  10.776  10.106  0.7067  0.1115  0.5626
16231SOL     OW51585   7.913   1.543   6.134  0.2448 -0.1914 -0.1235
16231SOL    HW151586   7.843   1.583   6.187 -0.5697 -0.5998 -0.8677
16231SOL    HW251587   7.887   1.452   6.126  0.9277 -0.3728 -0.3259
16232SOL     OW51588   9.799   1.935   4.196  0.7718  0.3666 -0.3220
16232SOL    HW151589   9.708   1.920   4.170  1.1989 -1.9867 -0.7434
16232SOL    HW251590   9.835   1.991   4.128 -0.2802  1.0742 -0.3129
16233SOL     OW51591   2.086   1.443   9.594 -0.3167  0.2348  0.1182
16233SOL    HW151592   2.082   1.351   9.618 -1.9278  0.6205  1.4758
16233SOL    HW251593   2.141   1.445   9.515  1.1497 -1.6529  1.0091
16234SOL     OW51594  10.109  10.236   2.202  0.2876 -0.3535 -0.0008
16234SOL    HW151595  10.065  10.154   2.181  0.2335 -0.6733  1.2941
16234SOL    HW251596  10.057  10.303   2.157 -1.2034 -0.7731  1.0256
16235SOL     OW51597   5.929   7.422   9.244  0.6626  0.0415 -0.3077
16235SOL    HW151598   5.993   7.459   9.304 -0.2038  0.9406  0.0983
16235SOL    HW251599   5.977   7.356   9.194  1.2385 -1.2785  1.8612
16236SOL     OW51600   4.026   2.116   2.098 -0.5211 -0.1644  0.7327
16236SOL    HW151601   4.046   2.120   2.004  0.9102 -0.4551  0.9960
16236SOL    HW251602   4.092   2.057   2.133  0.1166  1.3374  2.1993
16237SOL     OW51603   8.320  10.481   5.136 -0.7478 -0.1501  0.0078
16237SOL    HW151604   8.368  10.512   5.212  1.8173 -0.1694 -1.5034
16237SOL    HW251605   8.352  10.392   5.122  0.2018  0.4525 -2.0682
16238SOL     OW51606   6.661   8.417   1.861  0.0364  0.1641 -0.0596
16238SOL    HW151607   6.668   8.414   1.765 -0.2689  0.7580 -0.1076
16238SOL    HW251608   6.566   8.422   1.877 -0.0186 -1.6398  0.3369
16239SOL     OW51609   9.885   4.649   4.829 -0.3664 -0.1684 -0.2857
16239SOL    HW151610   9.898   4.696   4.911 -1.8197  0.8774 -0.6147
16239SOL    HW251611   9.963   4.595   4.820 -0.0337 -0.0900  1.6288
16240SOL     OW51612   1.377   3.901   5.568  0.2305 -0.0165  0.6109
16240SOL    HW151613   1.422   3.817   5.577  0.7365  0.2759  0.8388
16240SOL    HW251614   1.345   3.902   5.478  0.1450 -0.4914  0.6352
16241SOL     OW51615   9.768  10.695   2.400 -0.7591  0.5008 -0.9726
16241SOL    HW151616   9.786  10.613   2.445  0.0064 -0.0030 -2.1651
16241SOL    HW251617   9.742  10.756   2.470 -0.8637 -0.6060 -0.0260
16242SOL     OW51618   1.445   1.167   8.011  0.3447 -0.7018  0.0532
16242SOL    HW151619   1.366   1.134   8.053  0.2520  0.0112  0.4524
16242SOL    HW251620   1.516   1.136   8.068  0.3860 -1.5434 -0.4327
16243SOL     OW51621   4.806   5.956   1.337 -0.0270  0.4438  0.2479
16243SOL    HW151622   4.772   5.875   1.376  2.2354 -0.2226  1.0062
16243SOL    HW251623   4.879   5.981   1.394  0.8295  1.7035 -1.3234
16244SOL     OW51624   4.582   2.003   9.846 -0.2194  0.3378  0.1182
16244SOL    HW151625   4.590   1.979   9.754  2.3684 -1.3070  0.6941
16244SOL    HW251626   4.489   1.989   9.866 -0.8544  0.8450 -2.2310
16245SOL     OW51627   4.755   0.825   3.237 -0.5721  0.4259  0.0446
16245SOL    HW151628   4.673   0.873   3.246  0.1339  2.3947 -2.7334
16245SOL    HW251629   4.823   0.892   3.242  0.6531 -0.6913 -0.8476
16246SOL     OW51630   8.515   7.938   5.992 -0.4201 -0.0992 -0.4470
16246SOL    HW151631   8.495   7.973   5.905 -0.5916 -0.4470 -0.5506
16246SOL    HW251632   8.525   7.844   5.979 -0.1309 -0.1144 -0.1427
16247SOL     OW51633   2.970   0.091   4.876  0.1787 -0.3267 -0.6113
16247SOL    HW151634   2.935   0.008   4.843  1.4893 -0.0221 -2.9600
16247SOL    HW251635   3.058   0.097   4.837  0.7720  1.3916  0.8499
16248SOL     OW51636   8.756   1.469   3.090  0.0646 -0.2476  1.0146
16248SOL    HW151637   8.848   1.450   3.069  0.0921 -0.7321  1.5488
16248SOL    HW251638   8.725   1.391   3.136 -0.3616  0.2661  1.6152
16249SOL     OW51639   5.906  10.251   1.118 -0.2956 -0.6291  0.0658
16249SOL    HW151640   5.996  10.231   1.144 -0.1917 -0.0372  0.1709
16249SOL    HW251641   5.892  10.199   1.039 -0.3199 -1.7781  0.7935
16250SOL     OW51642   4.900   5.214   8.575 -0.1222 -0.5062 -0.4000
16250SOL    HW151643   4.848   5.279   8.621  0.5585 -0.9859  1.1079
16250SOL    HW251644   4.843   5.137   8.569 -1.0023  0.2444 -2.3679
16251SOL     OW51645   9.701   2.892   7.476 -0.5927 -0.2619  0.1651
16251SOL    HW151646   9.732   2.828   7.541 -0.3337 -0.1765  0.1282
16251SOL    HW251647   9.618   2.856   7.445  0.4414 -1.5590 -1.2363
16252SOL     OW51648   6.562  10.721   6.831  0.2408  0.1883  0.3906
16252SOL    HW151649   6.613  10.745   6.754 -1.2545 -0.0993 -0.7486
16252SOL    HW251650   6.601  10.770   6.903  1.3481  0.8763 -0.6475
16253SOL     OW51651   6.133   9.774   2.259 -0.5317 -0.1194 -0.4591
16253SOL    HW151652   6.190   9.735   2.192 -0.7757 -0.1599 -0.6421
16253SOL    HW251653   6.079   9.837   2.212 -0.2718  0.3039 -0.1933
16254SOL     OW51654   8.098   6.725   5.466 -0.1512 -0.3745  0.0059
16254SOL    HW151655   8.057   6.738   5.552 -1.0768 -1.4448 -0.2546
16254SOL    HW251656   8.088   6.809   5.422 -2.7464 -0.7606 -0.3034
16255SOL     OW51657   9.261   6.592   6.754  0.7415 -0.2725 -0.9001
16255SOL    HW151658   9.263   6.605   6.849  1.2328 -0.7067 -0.8469
16255SOL    HW251659   9.235   6.677   6.719 -0.8246 -0.4804 -0.3088
16256SOL     OW51660   8.812   5.978   9.113  0.2648  0.0277  0.1399
16256SOL    HW151661   8.881   6.008   9.053 -0.3710 -0.0308 -0.6301
16256SOL    HW251662   8.822   6.035   9.190  1.7062 -0.5317  0.4112
16257SOL     OW51663   4.053   4.331   1.055 -0.5374 -0.1170 -0.0835
16257SOL    HW151664   4.138   4.308   1.091 -1.1007  0.0959  1.4639
16257SOL    HW251665   3.990   4.290   1.114 -1.5120 -0.3299 -1.2408
16258SOL     OW51666   6.634   1.140   8.991 -0.1840 -0.1179 -0.2860
16258SOL    HW151667   6.559   1.096   9.030 -0.9045  0.8567 -0.5376
16258SOL    HW251668   6.596   1.198   8.925  0.9241 -0.8662 -1.6240
16259SOL     OW51669   3.170   1.004   9.782  0.2469  0.2219 -0.2958
16259SOL    HW151670   3.083   0.968   9.802 -0.4064  1.4601 -0.7659
16259SOL    HW251671   3.157   1.053   9.701  1.3315  0.6440 -0.2285
16260SOL     OW51672   5.695   2.570   9.912  0.6405 -0.1354  0.0867
16260SOL    HW151673   5.769   2.629   9.895 -0.0308  1.0094  0.9892
16260SOL    HW251674   5.664   2.545   9.825  0.8309  0.9934 -0.3166
16261SOL     OW51675   1.408   8.143   9.863 -0.5140 -0.4508  0.0445
16261SOL    HW151676   1.377   8.116   9.949 -0.7970  2.3213  0.8978
16261SOL    HW251677   1.340   8.202   9.830 -0.5121 -1.5845 -2.2204
16262SOL     OW51678   0.167   1.826   7.021  0.1324  0.9223  0.0455
16262SOL    HW151679   0.090   1.834   6.965  0.4686 -0.8886 -0.7486
16262SOL    HW251680   0.139   1.862   7.105 -2.2687 -1.2948  0.3412
16263SOL     OW51681   8.056   9.092   0.987 -0.3877  0.4041 -0.4095
16263SOL    HW151682   8.032   9.038   0.912 -0.3860  0.5348 -0.5045
16263SOL    HW251683   8.075   9.178   0.950 -1.4456  0.7661 -0.1367
16264SOL     OW51684   6.474  10.157   1.382  0.1629 -0.0631 -0.1846
16264SOL    HW151685   6.534  10.223   1.346  1.9274 -1.4990 -0.0337
16264SOL    HW251686   6.428  10.202   1.453  2.3042  0.6959  0.8063
16265SOL     OW51687   2.524   8.493   5.718  0.0874  0.2352 -0.0150
16265SOL    HW151688   2.450   8.476   5.660  0.5608  0.0050 -0.5631
16265SOL    HW251689   2.553   8.407   5.747  0.0080  0.3371  0.3713
16266SOL     OW51690   4.415   4.810   1.013 -0.0218  0.1168 -0.5619
16266SOL    HW151691   4.320   4.814   1.025  0.0246  0.1759 -0.2002
16266SOL    HW251692   4.427   4.793   0.920 -0.3762  0.5279 -0.6849
16267SOL     OW51693   0.627   5.077  10.704  0.2748 -0.4959 -0.0007
16267SOL    HW151694   0.689   5.097  10.774  0.3109 -0.4089 -0.0570
16267SOL    HW251695   0.650   5.138  10.634 -2.2783  2.3077  1.3334
16268SOL     OW51696   1.932   3.207   1.648 -0.5569 -0.0795  0.4603
16268SOL    HW151697   1.922   3.137   1.584 -1.1067 -0.8447  1.3638
16268SOL    HW251698   1.844   3.242   1.660 -0.3715  0.4056  0.4213
16269SOL     OW51699   8.919   7.375   2.511 -0.6629 -0.2415 -0.1795
16269SOL    HW151700   8.999   7.324   2.519 -1.3164 -1.4868 -1.0731
16269SOL    HW251701   8.902   7.408   2.599  1.7515  1.5679 -0.2936
16270SOL     OW51702   4.125   2.112   2.709  0.0335  0.3549 -0.0806
16270SOL    HW151703   4.040   2.121   2.665 -1.0319 -0.4284  1.6967
16270SOL    HW251704   4.183   2.171   2.661 -1.6936  1.4949 -0.8820
16271SOL     OW51705   0.762   8.453   1.954 -0.2885 -0.5787  0.1506
16271SOL    HW151706   0.738   8.450   1.862 -0.3895 -0.5999  0.1774
16271SOL    HW251707   0.679   8.460   2.001 -0.1458  1.9265  0.1470
16272SOL     OW51708   3.831   4.997  10.630  0.6502  0.0438  0.1351
16272SOL    HW151709   3.871   4.995  10.717 -0.9320  2.8183  1.0298
16272SOL    HW251710   3.905   5.003  10.569  1.9043 -3.7593  0.9922
16273SOL     OW51711   0.770   8.736   1.904 -0.5237  0.6618  0.1955
16273SOL    HW151712   0.730   8.793   1.970 -0.8770  0.1050  0.4703
16273SOL    HW251713   0.738   8.649   1.926 -0.5407  0.4528 -0.6402
16274SOL     OW51714   0.499   0.288   3.895  0.1040  0.6526 -0.2342
16274SOL    HW151715   0.555   0.255   3.965  1.8024  1.0649 -1.3261
16274SOL    HW251716   0.512   0.383   3.896 -0.6738  0.7707 -0.4476
16275SOL     OW51717   8.355   1.359   6.371 -0.1937  0.5075 -0.1894
16275SOL    HW151718   8.261   1.338   6.376  0.5044 -2.9669  1.7731
16275SOL    HW251719   8.395   1.280   6.335  2.0937  1.5695 -0.1141
16276SOL     OW51720  10.289   2.920   3.054 -0.0034 -0.4403 -0.2507
16276SOL    HW151721  10.376   2.908   3.091  0.2323 -0.0293 -0.6543
16276SOL    HW251722  10.248   2.987   3.111  0.3487  0.1730 -0.7063
16277SOL     OW51723   5.767   5.407   9.353 -0.6440  0.7038 -0.2100
16277SOL    HW151724   5.715   5.485   9.331 -2.3309 -0.5465 -0.8178
16277SOL    HW251725   5.737   5.383   9.441 -1.4705 -0.2735 -0.7364
16278SOL     OW51726   2.756   2.391   5.598  0.1506  0.0470 -0.5529
16278SOL    HW151727   2.718   2.477   5.617 -0.4624 -0.5070  0.8875
16278SOL    HW251728   2.816   2.375   5.671  1.1297 -0.2569 -1.4150
16279SOL     OW51729   7.234   5.142   7.250  0.3108 -0.1902  0.6142
16279SOL    HW151730   7.144   5.159   7.278  0.0723  0.2222 -0.3535
16279SOL    HW251731   7.255   5.057   7.289 -0.6792 -0.5225  0.4644
16280SOL     OW51732   6.194   5.106   2.125 -0.1596 -0.1948 -0.2142
16280SOL    HW151733   6.168   5.167   2.056 -3.0397 -0.1986  0.6962
16280SOL    HW251734   6.222   5.027   2.079  0.5025  0.6948 -1.3674
16281SOL     OW51735  10.415   2.972   5.315 -0.4890 -0.4073 -0.1660
16281SOL    HW151736  10.460   2.889   5.301 -1.2082 -0.5760 -1.6879
16281SOL    HW251737  10.349   2.976   5.246 -1.2733  0.8872  0.6060
16282SOL     OW51738   5.097   1.656  10.796  0.9178 -0.2442  0.1653
16282SOL    HW151739   5.040   1.709  10.852 -0.5784 -2.6676  1.0595
16282SOL    HW251740   5.083   1.691  10.708 -1.2901 -0.1922  0.4890
16283SOL     OW51741   5.602   8.101   1.511 -0.0130 -0.4419 -0.1565
16283SOL    HW151742   5.606   8.105   1.415  3.0394 -0.4449 -0.1278
16283SOL    HW251743   5.689   8.068   1.537 -0.4267  0.4453  2.6543
16284SOL     OW51744   8.727   0.587   6.602 -0.1588 -0.4261 -0.2647
16284SOL    HW151745   8.770   0.536   6.534  0.0260 -1.0319  0.3021
16284SOL    HW251746   8.795   0.604   6.666 -0.2149  0.5482 -0.4443
16285SOL     OW51747  10.451   7.227   6.054 -0.0519 -0.0223 -0.2520
16285SOL    HW151748  10.451   7.292   5.984 -0.2463 -0.8017 -1.0076
16285SOL    HW251749  10.386   7.259   6.117  1.3311  1.5479  0.4351
16286SOL     OW51750   9.365   9.134   3.683 -0.6299 -0.2115 -0.1439
16286SOL    HW151751   9.434   9.068   3.694  2.0768  2.1977 -1.1353
16286SOL    HW251752   9.359   9.146   3.588 -2.5519 -0.3997 -0.0809
16287SOL     OW51753   9.312   8.106   1.541 -0.5695 -0.0030 -0.2754
16287SOL    HW151754   9.327   8.198   1.519 -1.8354  0.2808 -0.0068
16287SOL    HW251755   9.275   8.068   1.461  1.1236 -0.6128 -0.8164
16288SOL     OW51756   4.125   9.090   6.033  0.1967 -0.0051  0.1556
16288SOL    HW151757   4.167   9.088   5.947  1.6114  1.1198  0.7783
16288SOL    HW251758   4.053   9.027   6.026  2.2028 -2.3430 -0.8261
16289SOL     OW51759   0.724   8.044   5.128 -0.0620 -0.0736  0.0251
16289SOL    HW151760   0.767   7.961   5.109  1.5325  0.6622  0.2568
16289SOL    HW251761   0.761   8.105   5.064 -0.8602  0.5631  0.1605
16290SOL     OW51762   8.614   0.229   6.773 -0.0367  0.2493 -0.2934
16290SOL    HW151763   8.577   0.304   6.820 -2.3002 -0.4844 -0.7713
16290SOL    HW251764   8.554   0.157   6.791  2.6898 -1.8501  1.1131
16291SOL     OW51765   1.899   5.933   1.626 -0.0089  0.0810 -0.5952
16291SOL    HW151766   1.968   5.909   1.565 -0.5653 -0.0490 -1.1909
16291SOL    HW251767   1.940   5.995   1.686  1.2614 -1.7706  0.5330
16292SOL     OW51768   6.715  10.345   0.253  0.3119 -0.4491 -0.3673
16292SOL    HW151769   6.705  10.411   0.322  0.8613  0.3131 -1.0006
16292SOL    HW251770   6.626  10.323   0.227 -0.0355 -2.3295  2.0291
16293SOL     OW51771   8.775   8.901   1.073  0.5319 -0.1522 -0.1280
16293SOL    HW151772   8.794   8.916   0.980 -0.7762  2.1249 -0.1054
16293SOL    HW251773   8.851   8.937   1.119  0.6186 -0.1199 -0.2965
16294SOL     OW51774   2.100   3.445   9.613  0.2296 -0.6580 -0.1797
16294SOL    HW151775   2.169   3.440   9.679  0.4089 -0.9563 -0.3886
16294SOL    HW251776   2.114   3.528   9.569  0.5273 -0.7728 -0.3015
16295SOL     OW51777   7.785   4.403   1.160 -0.1130 -0.4269  0.3300
16295SOL    HW151778   7.781   4.465   1.233  2.3102 -0.4419  0.5799
16295SOL    HW251779   7.866   4.427   1.114 -1.5565 -0.4406 -2.3624
16296SOL     OW51780   7.731   2.332   4.665  0.3456 -0.5452 -0.9398
16296SOL    HW151781   7.708   2.417   4.703  0.7844 -0.6629 -0.3962
16296SOL    HW251782   7.786   2.352   4.590  4.3169 -0.3902  1.7570
16297SOL     OW51783   2.339   9.295   6.353 -0.0942 -0.2536  0.2962
16297SOL    HW151784   2.252   9.292   6.391 -0.1727  1.0421  0.2719
16297SOL    HW251785   2.393   9.338   6.420  0.0264  0.9540 -0.5465
16298SOL     OW51786   8.610   3.919   9.296  0.1022 -0.9815 -0.0116
16298SOL    HW151787   8.612   3.825   9.281 -1.2538 -0.9533 -0.5022
16298SOL    HW251788   8.576   3.956   9.214  1.2725  0.0194 -0.0905
16299SOL     OW51789   9.726   5.440   0.847 -0.1546 -0.0234 -0.2464
16299SOL    HW151790   9.751   5.384   0.921 -2.4142  0.4460  0.9324
16299SOL    HW251791   9.795   5.506   0.843 -0.9073  1.0956  2.7335
16300SOL     OW51792   9.854   0.953   3.001  0.2438  0.5722  0.1466
16300SOL    HW151793   9.894   1.039   2.990 -0.5069  0.7541 -1.4008
16300SOL    HW251794   9.843   0.920   2.912 -1.8622  0.0006  0.5722
16301SOL     OW51795   7.492   2.606   1.560  0.6875  0.0231  0.0470
16301SOL    HW151796   7.517   2.698   1.561 -2.1867  0.9479 -1.2382
16301SOL    HW251797   7.508   2.578   1.469 -1.6720  0.3764 -0.5528
16302SOL     OW51798   2.032   9.080   1.963 -0.2572 -0.4479 -0.2059
16302SOL    HW151799   1.968   9.023   1.921 -0.0615  0.3959 -1.7352
16302SOL    HW251800   2.116   9.052   1.925 -0.0189  0.0372 -0.0374
16303SOL     OW51801   9.328  10.053   3.937  0.6782 -0.1906  0.5783
16303SOL    HW151802   9.236  10.042   3.961  0.6557 -2.0073 -0.1714
16303SOL    HW251803   9.330  10.040   3.843  1.5769  0.9487  0.4189
16304SOL     OW51804   9.340   6.219  10.142 -0.7032  0.3122 -0.0315
16304SOL    HW151805   9.375   6.302  10.108  3.3968 -0.1894  2.2159
16304SOL    HW251806   9.350   6.226  10.237  0.6679 -2.9860  0.2145
16305SOL     OW51807   3.238   5.722   7.194  0.1585 -0.2156 -0.0870
16305SOL    HW151808   3.151   5.712   7.233 -0.7970 -1.7943 -2.3696
16305SOL    HW251809   3.279   5.637   7.206  1.4544  0.5409  1.0205
16306SOL     OW51810   1.641   4.585   9.071  0.3730  0.0892 -0.4638
16306SOL    HW151811   1.676   4.674   9.076  0.2768  0.0863  0.6029
16306SOL    HW251812   1.682   4.539   9.145  0.7158 -0.8673 -1.2202
16307SOL     OW51813   1.695   7.127  10.230  0.2067  0.4714 -0.2426
16307SOL    HW151814   1.661   7.052  10.180  0.0964  2.4254 -3.3696
16307SOL    HW251815   1.782   7.143  10.194  0.6172  1.3007  1.0384
16308SOL     OW51816   7.051   1.148  10.256 -0.0945  0.0959  0.0952
16308SOL    HW151817   7.118   1.123  10.320 -1.6166 -0.0189  1.7191
16308SOL    HW251818   6.999   1.069  10.243 -1.4582  0.8222  0.8696
16309SOL     OW51819   5.108   9.645  10.004 -0.1534 -0.5769 -0.4984
16309SOL    HW151820   5.104   9.585  10.079  0.1552 -0.4219 -0.3589
16309SOL    HW251821   5.069   9.595   9.932 -0.9348 -0.5487 -0.1174
16310SOL     OW51822   4.207   8.467   3.511 -0.4602  0.0632  0.3892
16310SOL    HW151823   4.150   8.495   3.440  1.3409  0.6840 -0.8736
16310SOL    HW251824   4.249   8.547   3.542  0.2313 -0.4544  0.8289
16311SOL     OW51825   8.529   9.608   8.962  0.3156 -0.2496 -0.2016
16311SOL    HW151826   8.514   9.701   8.978  0.8294  0.1604 -1.8678
16311SOL    HW251827   8.539   9.570   9.049  0.6651  1.3447  0.4936
16312SOL     OW51828   6.198   7.564   4.470  0.5573  0.2184  0.1499
16312SOL    HW151829   6.212   7.658   4.480  1.5692  0.3888 -2.2826
16312SOL    HW251830   6.269   7.524   4.520  0.3005  0.7283  0.9499
16313SOL     OW51831   2.549   6.304   6.681  0.3902 -0.0043 -0.0082
16313SOL    HW151832   2.629   6.352   6.705  0.3640  0.0818 -0.0920
16313SOL    HW251833   2.566   6.273   6.592  1.1752 -1.7508  0.6845
16314SOL     OW51834   2.942   3.834   7.514  0.7833 -0.4564 -0.2336
16314SOL    HW151835   3.026   3.870   7.542  0.5304 -0.6266  0.7734
16314SOL    HW251836   2.877   3.876   7.570  0.1152  0.1145 -1.3856
16315SOL     OW51837   3.881   9.719   6.848  0.2278 -0.8719  0.6337
16315SOL    HW151838   3.837   9.649   6.801 -0.0524  0.7172 -1.6579
16315SOL    HW251839   3.973   9.708   6.827  0.1693 -0.4994  0.1675
16316SOL     OW51840   3.448   8.658   5.756  0.7952  0.1858  0.6972
16316SOL    HW151841   3.357   8.689   5.755  0.7018 -0.0824  0.8524
16316SOL    HW251842   3.448   8.585   5.818  0.9724 -0.2512  0.1910
16317SOL     OW51843   2.080   8.317   9.716  0.1152 -0.4736 -0.5682
16317SOL    HW151844   2.096   8.404   9.752  2.1147 -1.4145  0.9989
16317SOL    HW251845   2.045   8.266   9.790  1.7683 -1.7341 -0.5844
16318SOL     OW51846   7.552   8.853   1.109 -0.2808 -0.0792 -0.3017
16318SOL    HW151847   7.527   8.908   1.035 -1.3465  0.3031  0.3264
16318SOL    HW251848   7.541   8.909   1.186 -2.3204 -1.4036  0.4438
16319SOL     OW51849   9.395   6.173   4.190  0.1453 -1.0529  0.1888
16319SOL    HW151850   9.452   6.201   4.119 -0.4097 -0.4611 -0.0414
16319SOL    HW251851   9.445   6.107   4.237  0.5554 -1.3995 -0.7018
16320SOL     OW51852  10.126   5.540   3.476 -0.0935  0.0624 -0.4250
16320SOL    HW151853  10.128   5.609   3.409  0.5497 -0.2643 -0.7574
16320SOL    HW251854  10.131   5.458   3.426  0.6613 -0.1796  0.0237
16321SOL     OW51855   4.761   1.738   9.442 -0.1430  0.3985  0.3808
16321SOL    HW151856   4.784   1.710   9.353 -1.7954  0.7745 -0.2119
16321SOL    HW251857   4.801   1.824   9.451  0.9851 -0.1155  0.4407
16322SOL     OW51858   4.752   0.146   8.249 -0.0807 -0.1240 -0.2599
16322SOL    HW151859   4.745   0.053   8.273  0.4950 -0.1097 -0.0145
16322SOL    HW251860   4.770   0.190   8.332 -2.5334  0.4953  0.0107
16323SOL     OW51861   9.750  10.377   7.176  0.8054 -0.0517 -0.3383
16323SOL    HW151862   9.666  10.376   7.222  0.2421 -0.1116 -1.3390
16323SOL    HW251863   9.748  10.300   7.119  1.4036  0.1216 -0.6062
16324SOL     OW51864   2.033   8.479   1.031  0.3955 -0.1494 -0.6577
16324SOL    HW151865   2.031   8.542   0.958  0.5001  0.8958  0.2114
16324SOL    HW251866   1.951   8.430   1.022 -0.1113  0.6952 -0.8811
16325SOL     OW51867   9.144   2.858   6.389  0.1184  0.0336 -0.4830
16325SOL    HW151868   9.196   2.912   6.448 -0.9512  1.1021 -0.4825
16325SOL    HW251869   9.173   2.884   6.301  0.8969 -0.7345 -0.4687
16326SOL     OW51870   8.239   0.023   4.869 -0.9032  0.2459 -0.1259
16326SOL    HW151871   8.274   0.058   4.787  0.8048 -1.2591 -0.0851
16326SOL    HW251872   8.219  -0.068   4.850  0.6737 -0.4820  1.4005
16327SOL     OW51873   5.970  10.083   2.202  0.5633 -0.1524  0.0967
16327SOL    HW151874   5.904  10.014   2.192 -0.4256  0.9052 -0.9953
16327SOL    HW251875   5.997  10.103   2.113 -0.2310  1.8393  0.2619
16328SOL     OW51876  10.199  10.676   3.911  0.3153 -0.4855 -0.0251
16328SOL    HW151877  10.271  10.712   3.963  0.0434 -2.6394  2.0422
16328SOL    HW251878  10.242  10.617   3.848  0.4451 -2.0901  1.4786
16329SOL     OW51879   2.131   2.882   3.226  0.1833  0.5187 -0.1030
16329SOL    HW151880   2.081   2.806   3.256  0.5749  0.2062 -0.2362
16329SOL    HW251881   2.191   2.848   3.160  0.1467  1.0002 -0.3965
16330SOL     OW51882   0.193   4.779   6.101  0.2504  0.4134 -0.0915
16330SOL    HW151883   0.280   4.746   6.080 -0.4053 -0.9404 -0.8927
16330SOL    HW251884   0.134   4.721   6.053 -1.0842  1.4886  0.1810
16331SOL     OW51885   0.354   7.159   9.683 -0.1191  0.0485 -0.1382
16331SOL    HW151886   0.317   7.109   9.610  0.7186 -0.1121 -0.4674
16331SOL    HW251887   0.344   7.251   9.657  0.8653 -0.0189 -0.8276
16332SOL     OW51888   3.329   4.580   8.865 -0.1529 -0.0131 -0.6770
16332SOL    HW151889   3.385   4.596   8.941 -3.2318 -1.6587  2.2158
16332SOL    HW251890   3.379   4.517   8.812  0.8438 -1.4039  1.7278
16333SOL     OW51891   6.895   0.806   7.978 -0.0545  0.2091  0.3625
16333SOL    HW151892   6.983   0.826   7.946  0.2146  0.2877  1.1278
16333SOL    HW251893   6.907   0.727   8.032 -0.8584 -1.2384 -1.4669
16334SOL     OW51894   6.287   5.432  10.535 -0.0311 -0.2974 -0.4128
16334SOL    HW151895   6.278   5.352  10.588  0.3895  0.6991  1.2305
16334SOL    HW251896   6.335   5.492  10.591 -1.0058  1.3844 -1.3078
16335SOL     OW51897   0.926   3.732   1.120  0.5070  0.4996 -0.6665
16335SOL    HW151898   0.976   3.676   1.180  2.5649  1.9066 -0.9675
16335SOL    HW251899   0.980   3.736   1.041 -0.5773  1.3141 -1.3880
16336SOL     OW51900   0.592   1.715   6.318  0.2817  0.5308 -0.5671
16336SOL    HW151901   0.684   1.709   6.291  0.9039  1.0089  1.3330
16336SOL    HW251902   0.589   1.672   6.403 -1.4354 -0.1509 -0.9358
16337SOL     OW51903   9.122   9.914   6.507 -0.5163 -0.2165 -0.9140
16337SOL    HW151904   9.131  10.006   6.480  1.2163 -0.6450 -1.9264
16337SOL    HW251905   9.209   9.890   6.538 -0.8943 -1.5938 -0.8788
16338SOL     OW51906   2.789  10.049   9.283  0.1064  0.1381 -0.0230
16338SOL    HW151907   2.790   9.984   9.353  1.1574 -1.5371 -1.5113
16338SOL    HW251908   2.859  10.110   9.306  0.4533 -0.4033  0.3882
16339SOL     OW51909   6.600   5.624  10.554 -0.3742 -0.8560  0.3437
16339SOL    HW151910   6.672   5.562  10.557 -1.1403 -1.7868 -0.1825
16339SOL    HW251911   6.634   5.698  10.504  1.4217  0.3571  3.1086
16340SOL     OW51912   0.358   4.051   3.688 -0.2596 -0.0894 -0.0394
16340SOL    HW151913   0.423   4.052   3.618  1.0250  0.9297  1.1055
16340SOL    HW251914   0.375   3.969   3.735  0.3187  0.2594  0.3623
16341SOL     OW51915   0.438   5.096   4.215  0.4056  0.1443 -0.8323
16341SOL    HW151916   0.429   5.165   4.150 -0.3241  0.2793 -0.5958
16341SOL    HW251917   0.527   5.061   4.202 -0.0689 -0.5015 -2.5464
16342SOL     OW51918   8.371   6.210   2.413 -0.2577 -0.4039  0.3710
16342SOL    HW151919   8.417   6.176   2.336 -1.9177 -0.7699 -0.5135
16342SOL    HW251920   8.430   6.276   2.450  0.6756 -0.3957 -1.0711
16343SOL     OW51921   3.199   5.966   6.697  0.2506  0.0079 -0.5723
16343SOL    HW151922   3.219   5.956   6.790  0.6722  0.9300 -0.5511
16343SOL    HW251923   3.268   6.024   6.664 -0.4095  0.4212 -1.2609
16344SOL     OW51924  10.339   1.156   4.189 -0.0414 -0.1568 -0.1794
16344SOL    HW151925  10.312   1.246   4.208 -0.0161 -0.6734  2.9095
16344SOL    HW251926  10.402   1.164   4.118 -2.5397  1.8413 -2.3968
16345SOL     OW51927   5.768   1.440   0.498  0.2567 -0.1425  0.1723
16345SOL    HW151928   5.722   1.423   0.581 -0.3295  0.6577  0.0265
16345SOL    HW251929   5.732   1.523   0.468  1.2783  0.1278 -0.3315
16346SOL     OW51930   2.844   0.588   6.993  0.0363 -0.3233  0.5412
16346SOL    HW151931   2.756   0.623   6.977 -0.4205 -2.0871 -1.1766
16346SOL    HW251932   2.834   0.529   7.067 -0.5593 -1.4588 -0.3999
16347SOL     OW51933   7.795   1.760   0.436  0.6161 -0.0929  0.3087
16347SOL    HW151934   7.719   1.783   0.489 -1.1408 -0.0610 -2.0758
16347SOL    HW251935   7.836   1.844   0.415  0.4775  0.0033  0.4278
16348SOL     OW51936   3.559   1.589   8.010  0.0452  0.7282 -0.4128
16348SOL    HW151937   3.502   1.663   7.989 -0.9588 -0.2789 -1.3181
16348SOL    HW251938   3.531   1.562   8.098 -0.4693  0.6133 -0.6082
16349SOL     OW51939   3.856   4.395   6.775 -0.4281 -0.2970 -0.1365
16349SOL    HW151940   3.926   4.332   6.759 -0.4407 -0.5919  0.8499
16349SOL    HW251941   3.795   4.383   6.702 -0.6892 -1.8084  0.2878
16350SOL     OW51942  10.631   3.133   6.304 -0.2276 -0.1772 -0.1725
16350SOL    HW151943  10.679   3.086   6.373 -0.6513  1.3844  1.2718
16350SOL    HW251944  10.661   3.224   6.313 -0.6244  0.1353 -1.8049
16351SOL     OW51945   1.417   7.957   9.471  0.4652 -0.5307  0.1591
16351SOL    HW151946   1.350   7.929   9.534 -0.2285 -0.6068 -0.5896
16351SOL    HW251947   1.410   8.053   9.469 -0.3903 -0.5844 -0.6982
16352SOL     OW51948   9.735  10.141   0.438 -0.0122 -0.1033 -0.4678
16352SOL    HW151949   9.799  10.200   0.398 -0.1609  1.0149  0.9244
16352SOL    HW251950   9.727  10.069   0.374  2.0910  0.0701 -1.0042
16353SOL     OW51951   2.671   9.886   8.064 -0.6824  0.1101 -0.2200
16353SOL    HW151952   2.601   9.841   8.017  0.2612 -2.6364  0.7845
16353SOL    HW251953   2.751   9.858   8.020  0.0490 -0.6789  1.4884
16354SOL     OW51954   4.143   5.199   3.751  0.0372  0.2607 -0.3084
16354SOL    HW151955   4.217   5.258   3.764 -0.6774  1.4113 -1.3476
16354SOL    HW251956   4.088   5.212   3.828  1.2635 -1.2441  0.9245
16355SOL     OW51957   8.725   6.385   4.209 -0.6806 -0.2236  0.4468
16355SOL    HW151958   8.733   6.404   4.303  1.7892 -0.7830  0.4191
16355SOL    HW251959   8.736   6.290   4.203  0.6330 -0.0377 -0.4924
16356SOL     OW51960   0.394   0.614   8.443 -0.3882 -0.3163 -0.4624
16356SOL    HW151961   0.322   0.558   8.472 -0.1042 -0.9380 -0.9319
16356SOL    HW251962   0.378   0.698   8.487  0.3217 -1.3451  1.9771
16357SOL     OW51963   0.269   4.087   1.256  0.0645 -0.2641 -0.1547
16357SOL    HW151964   0.358   4.118   1.237  1.2234 -2.1066  1.9152
16357SOL    HW251965   0.256   4.014   1.196  1.2488 -2.0081  1.6050
16358SOL     OW51966   3.819   2.102   6.692  0.3449 -0.3472  0.2208
16358SOL    HW151967   3.787   2.035   6.632 -0.1475 -0.0511  0.1522
16358SOL    HW251968   3.797   2.185   6.650  0.6480 -0.1386  0.4655
16359SOL     OW51969   7.251   8.099   8.462  0.0146  0.1771  0.0898
16359SOL    HW151970   7.336   8.056   8.468 -0.2387 -0.1876  1.3382
16359SOL    HW251971   7.263   8.167   8.395  1.0164 -0.4476 -0.3894
16360SOL     OW51972   8.821   2.763   5.905  0.2084  0.0469  0.1490
16360SOL    HW151973   8.912   2.741   5.926 -0.3430 -2.0500  0.6348
16360SOL    HW251974   8.793   2.694   5.844 -1.7691 -0.9078  1.9762
16361SOL     OW51975   4.794  10.520   1.675 -0.1802  0.0922 -0.1979
16361SOL    HW151976   4.794  10.608   1.712 -1.2210  0.1395 -0.2845
16361SOL    HW251977   4.875  10.515   1.624 -1.4920  2.0569 -2.6641
16362SOL     OW51978   4.447   0.052  10.458  0.4779  0.2270  0.0506
16362SOL    HW151979   4.530   0.091  10.428 -0.0945  0.3538 -1.4652
16362SOL    HW251980   4.473  -0.029  10.501  1.4513  0.6483  0.2770
16363SOL     OW51981   5.765  10.287   8.326  0.2131  0.0140  0.2525
16363SOL    HW151982   5.848  10.241   8.339  0.2183 -0.8646 -2.4208
16363SOL    HW251983   5.782  10.350   8.257 -1.2435  0.1186 -0.0491
16364SOL     OW51984   9.156   1.912   5.780 -0.0976 -0.4448  0.3335
16364SOL    HW151985   9.187   1.838   5.831 -1.4278 -1.2827  0.0015
16364SOL    HW251986   9.069   1.885   5.749 -0.5055  1.1455 -0.0300
16365SOL     OW51987   2.074   7.609   1.846 -0.1935 -0.2241 -0.8167
16365SOL    HW151988   2.137   7.599   1.918 -0.1006  0.3709 -0.8172
16365SOL    HW251989   1.990   7.622   1.890 -0.6324 -2.6354 -0.7831
16366SOL     OW51990   3.400   5.525  10.300 -0.5456 -0.2955 -0.5209
16366SOL    HW151991   3.384   5.544  10.392 -1.0436 -0.2470 -0.6161
16366SOL    HW251992   3.428   5.608  10.262  1.8849 -0.7736  0.0483
16367SOL     OW51993   1.967  10.107   2.684 -0.3779  0.1437  0.2481
16367SOL    HW151994   1.954  10.202   2.675  0.1744  0.2045  0.0710
16367SOL    HW251995   2.047  10.099   2.735  0.1006 -0.2295 -0.5562
16368SOL     OW51996   0.431   4.073   0.266  0.5947 -0.3860 -0.2532
16368SOL    HW151997   0.417   4.126   0.344  0.7732 -0.4553 -0.1721
16368SOL    HW251998   0.475   3.994   0.299 -2.5760 -2.1432  0.1454
16369SOL     OW51999   8.941   5.768   5.198  0.0513 -0.0034 -0.8256
16369SOL    HW152000   8.890   5.710   5.142 -1.1566 -0.5616  0.7846
16369SOL    HW252001   9.032   5.741   5.184 -0.3282 -0.9962 -1.5147
16370SOL     OW52002   4.443   0.805   4.667  0.4001 -0.3582 -0.2927
16370SOL    HW152003   4.524   0.760   4.642  1.5443 -0.0356  2.4959
16370SOL    HW252004   4.451   0.892   4.627  1.6060 -0.2382  0.1487
16371SOL     OW52005   1.663   6.445  10.062  0.0291 -0.0945 -0.0252
16371SOL    HW152006   1.667   6.385   9.988  2.0193 -1.0155  0.7642
16371SOL    HW252007   1.709   6.524  10.032  0.9928 -0.5345  0.2394
16372SOL     OW52008   3.616   6.179   6.435 -0.1818 -0.1157  0.0922
16372SOL    HW152009   3.561   6.257   6.430 -1.1868 -0.7058  1.3725
16372SOL    HW252010   3.705   6.211   6.419 -0.8904  0.7795 -2.5457
16373SOL     OW52011   8.687   5.969   6.562  0.0580 -0.0415  0.1135
16373SOL    HW152012   8.630   5.923   6.624  0.5664 -1.2335 -0.2650
16373SOL    HW252013   8.775   5.935   6.581  0.5433  1.2232  0.2035
16374SOL     OW52014   3.771  10.194   7.621  0.1348  0.2976 -0.2954
16374SOL    HW152015   3.764  10.138   7.544  2.1125 -0.4481  0.0116
16374SOL    HW252016   3.681  10.209   7.648 -0.5072 -2.3050 -0.7081
16375SOL     OW52017   3.407   4.617   6.889 -0.2767  0.0410 -0.0624
16375SOL    HW152018   3.345   4.678   6.928 -1.3623 -0.3323 -1.1574
16375SOL    HW252019   3.459   4.586   6.963 -1.0251  0.7745  0.7995
16376SOL     OW52020   8.846   3.540   9.874  0.1696 -0.1545 -0.4146
16376SOL    HW152021   8.753   3.558   9.885  0.1519 -0.5526  0.1245
16376SOL    HW252022   8.876   3.515   9.961  0.8685  0.3630 -0.5058
16377SOL     OW52023   1.147   1.397   8.600  0.1771 -0.4099  0.1827
16377SOL    HW152024   1.089   1.471   8.617 -1.0126 -1.0598 -0.9240
16377SOL    HW252025   1.099   1.342   8.539  1.1843 -1.9367  0.7148
16378SOL     OW52026   9.566   2.374   3.309 -0.3482  0.1187  0.0159
16378SOL    HW152027   9.560   2.460   3.351 -0.5500  0.1545 -0.0839
16378SOL    HW252028   9.640   2.331   3.351  0.2277  0.6325 -0.4645
16379SOL     OW52029   6.679   1.570   7.678 -0.0154  0.2747  0.2383
16379SOL    HW152030   6.740   1.499   7.697  0.3240 -0.2544 -2.4815
16379SOL    HW252031   6.593   1.528   7.678 -0.0943  0.4083  1.0488
16380SOL     OW52032   0.159   3.893   4.981  0.1316  0.5005  0.2194
16380SOL    HW152033   0.135   3.802   4.966  2.3145  0.2674 -2.6270
16380SOL    HW252034   0.103   3.944   4.922 -0.2617  0.9175  0.9330
16381SOL     OW52035   2.949   3.628   9.820 -0.6518  0.3122 -0.1447
16381SOL    HW152036   3.042   3.607   9.831 -0.8831 -0.2992  0.7818
16381SOL    HW252037   2.923   3.578   9.743 -0.3943 -0.1452  0.0613
16382SOL     OW52038  10.229   4.269   9.944 -0.2493  0.4249  0.3097
16382SOL    HW152039  10.135   4.280   9.957 -0.3250 -0.1919  0.3351
16382SOL    HW252040  10.249   4.185   9.985  0.1852  0.2167 -0.3046
16383SOL     OW52041   7.369   3.723   4.361  0.2598  0.0010  0.4301
16383SOL    HW152042   7.363   3.631   4.335 -1.8071 -0.3252  1.8580
16383SOL    HW252043   7.366   3.771   4.279  1.6245 -1.1636 -0.3643
16384SOL     OW52044   0.342  10.695   6.834 -0.0194 -0.1232 -0.3294
16384SOL    HW152045   0.390  10.643   6.898  1.2280  0.3314 -0.8568
16384SOL    HW252046   0.377  10.667   6.750 -0.7293  0.1926 -0.7379
16385SOL     OW52047   6.487   4.913   2.117  0.0425 -0.6615  0.2497
16385SOL    HW152048   6.409   4.882   2.163  0.2035  1.0131  1.7642
16385SOL    HW252049   6.560   4.874   2.165  0.2033  0.9013  1.3587
16386SOL     OW52050   7.856   3.307   0.575 -0.2237  0.2780 -0.0945
16386SOL    HW152051   7.795   3.272   0.639 -0.0209 -0.6068 -0.3670
16386SOL    HW252052   7.839   3.401   0.574  0.1431  0.3818  1.6358
16387SOL     OW52053   9.799   1.984  10.574 -0.4069  0.4259 -0.0332
16387SOL    HW152054   9.817   1.933  10.653 -0.4105 -1.1296 -0.9903
16387SOL    HW252055   9.802   2.075  10.603  0.4005 -0.0765  1.5873
16388SOL     OW52056   0.910   0.746   5.117 -0.0392 -0.2513 -0.3069
16388SOL    HW152057   0.981   0.805   5.093  2.1174 -1.6540  2.1909
16388SOL    HW252058   0.926   0.667   5.066 -1.5746  0.3776 -1.8836
16389SOL     OW52059   4.762  10.476  10.174  0.5038 -0.4467  0.4085
16389SOL    HW152060   4.701  10.511  10.109  0.5563  0.8892  1.0503
16389SOL    HW252061   4.706  10.446  10.245  0.5391 -0.0783  0.5946
16390SOL     OW52062   6.505   9.167   0.034 -0.1073 -0.6147  0.2362
16390SOL    HW152063   6.521   9.078   0.065  1.0596 -1.3822 -2.3442
16390SOL    HW252064   6.566   9.222   0.084 -0.2903 -1.3481  1.2853
16391SOL     OW52065  10.717   1.328   8.558  0.0636  0.1047  0.0053
16391SOL    HW152066  10.711   1.265   8.630  1.5472  0.8968  0.8820
16391SOL    HW252067  10.768   1.401   8.595  0.7335  0.5943 -1.8156
16392SOL     OW52068  10.194   3.101   1.973 -0.5746  0.3741  0.1161
16392SOL    HW152069  10.176   3.037   1.904 -0.4453  0.2704  0.1771
16392SOL    HW252070  10.173   3.185   1.934 -0.5138  0.3143 -0.0455
16393SOL     OW52071   3.006   6.613   0.318 -0.1889  0.0590 -0.1437
16393SOL    HW152072   2.984   6.667   0.394 -1.5862  1.2088 -1.2989
16393SOL    HW252073   3.046   6.675   0.256  0.2897 -0.7199 -0.6239
16394SOL     OW52074   1.875   2.735   8.433 -0.0747 -0.7721 -0.3612
16394SOL    HW152075   1.820   2.658   8.445 -0.1493 -0.7326 -0.4469
16394SOL    HW252076   1.898   2.762   8.522 -2.7904  1.0979 -0.1047
16395SOL     OW52077   9.085   3.514   5.335 -0.2061  0.4776 -0.2517
16395SOL    HW152078   9.037   3.435   5.310  0.5413  0.5578 -2.1157
16395SOL    HW252079   9.035   3.551   5.408  0.0690 -2.3090  1.4877
16396SOL     OW52080   7.131   2.579   8.461 -0.2498 -0.3473 -0.4351
16396SOL    HW152081   7.138   2.552   8.553 -0.7258 -1.2966 -0.6532
16396SOL    HW252082   7.086   2.663   8.464 -0.0371 -0.2505  0.2153
16397SOL     OW52083   8.807   7.563   1.229 -0.0545  0.5789 -0.3547
16397SOL    HW152084   8.900   7.583   1.220 -0.0525  0.3578 -0.8719
16397SOL    HW252085   8.787   7.505   1.155 -0.4577  0.1088  0.1110
16398SOL     OW52086   7.527   1.032  10.359 -0.1330 -0.0079 -0.3287
16398SOL    HW152087   7.587   1.007  10.289  0.9499  1.0833  0.1671
16398SOL    HW252088   7.572   1.007  10.439 -0.6476  0.2067  0.0346
16399SOL     OW52089   9.248   4.424   1.168  0.5077  0.1428  0.2603
16399SOL    HW152090   9.342   4.415   1.184  0.5037 -0.4691 -0.0271
16399SOL    HW252091   9.237   4.515   1.142  0.6605  0.9586  2.7213
16400SOL     OW52092   5.164   0.787   5.527 -0.0040 -0.1684 -0.1449
16400SOL    HW152093   5.253   0.815   5.507  0.0732 -0.3483 -0.0475
16400SOL    HW252094   5.148   0.712   5.469 -0.6159  0.7678 -1.2456
16401SOL     OW52095  10.211   8.310   2.910  0.4109  0.1716 -0.1177
16401SOL    HW152096  10.230   8.341   2.998  0.1533 -0.0026 -0.0006
16401SOL    HW252097  10.145   8.242   2.921 -0.9468  1.3573 -0.5705
16402SOL     OW52098   3.249   9.154   9.985  0.8496  0.2315 -0.2620
16402SOL    HW152099   3.278   9.175   9.896 -0.0408 -1.3799 -0.9962
16402SOL    HW252100   3.261   9.059   9.992 -1.4513 -0.0720  0.3984
16403SOL     OW52101   7.173   5.454   0.450  0.3870 -0.0672 -0.7001
16403SOL    HW152102   7.198   5.462   0.357 -1.5534 -0.3992 -1.2906
16403SOL    HW252103   7.248   5.411   0.491  1.1300 -0.2645 -2.1913
16404SOL     OW52104  10.648  10.671   7.212 -0.3694 -0.5178  0.0248
16404SOL    HW152105  10.654  10.620   7.131  1.2818 -0.6156  0.1814
16404SOL    HW252106  10.554  10.673   7.232 -0.7332 -1.1456 -1.4640
16405SOL     OW52107   9.450   2.457   2.019  0.2562  0.3025 -1.0106
16405SOL    HW152108   9.444   2.368   2.053 -0.4661 -0.0487 -1.9900
16405SOL    HW252109   9.534   2.460   1.974  1.5573  0.9934  1.3005
16406SOL     OW52110   1.621   7.145   5.273  0.3784  0.1283  0.1509
16406SOL    HW152111   1.665   7.060   5.279  1.1332  0.3941 -1.1501
16406SOL    HW252112   1.544   7.136   5.328  0.9743 -1.0651  0.8266
16407SOL     OW52113   6.871   5.218   6.202  0.0637  0.1068  0.7256
16407SOL    HW152114   6.963   5.241   6.201  0.0181  0.2972  0.3729
16407SOL    HW252115   6.867   5.133   6.158 -0.2177  1.3844 -1.9989
16408SOL     OW52116   2.225   1.595   6.029  0.5773 -0.1482  0.0934
16408SOL    HW152117   2.269   1.612   6.112  0.2479  0.1126  0.2159
16408SOL    HW252118   2.159   1.664   6.022 -0.6422 -1.2369  0.4925
16409SOL     OW52119   3.339   3.359   1.198  0.0664  0.2828 -0.3858
16409SOL    HW152120   3.290   3.310   1.264 -0.2116  2.0851  0.8177
16409SOL    HW252121   3.283   3.357   1.120  0.2906 -1.6687 -0.5358
16410SOL     OW52122   3.511   4.139  10.613  0.0267  0.0055  0.3671
16410SOL    HW152123   3.548   4.055  10.586  1.8044  0.5344  1.0075
16410SOL    HW252124   3.511   4.191  10.533  0.7221 -0.0025  0.3529
16411SOL     OW52125   5.950   3.631   5.808 -0.6862 -0.4367  0.0400
16411SOL    HW152126   6.007   3.644   5.733 -0.6991 -2.4712 -0.3726
16411SOL    HW252127   5.977   3.698   5.871  0.7561 -0.0672 -0.9344
16412SOL     OW52128   5.473   0.550   1.952  0.7776  0.4957  0.5641
16412SOL    HW152129   5.534   0.514   2.016  0.8463  1.2356  0.9287
16412SOL    HW252130   5.527   0.605   1.896  0.9721 -1.2362 -1.0338
16413SOL     OW52131   1.022   4.148   3.159 -0.0003 -0.1436  0.0787
16413SOL    HW152132   1.111   4.140   3.194 -0.2059  1.5944  1.1426
16413SOL    HW252133   0.967   4.105   3.224 -0.2196  1.6697  1.1637
16414SOL     OW52134  10.727   5.770   1.884  0.3622 -0.0415  0.5635
16414SOL    HW152135  10.759   5.685   1.912 -0.2811 -0.5649 -0.2511
16414SOL    HW252136  10.764   5.832   1.948  0.5818 -0.9518  1.3403
16415SOL     OW52137   8.431   1.531   1.774  0.3627 -0.5871  0.0522
16415SOL    HW152138   8.391   1.452   1.810  1.6439 -1.0419  0.5383
16415SOL    HW252139   8.415   1.525   1.679  0.5676 -1.5118  0.0623
16416SOL     OW52140   5.754   3.497   8.720 -0.4535  0.1918 -0.1606
16416SOL    HW152141   5.817   3.563   8.751 -0.5209  0.7640 -1.2018
16416SOL    HW252142   5.670   3.544   8.718 -0.5716 -0.0351 -0.5442
16417SOL     OW52143  10.403   1.076   1.792  0.1814  0.0521  0.1617
16417SOL    HW152144  10.450   1.139   1.847 -0.0014  1.6324 -1.3976
16417SOL    HW252145  10.311   1.091   1.813  0.1648 -0.1078  0.2010
16418SOL     OW52146   5.808  10.271   1.628 -0.3404 -0.4072  0.3099
16418SOL    HW152147   5.830  10.253   1.537  0.7819 -3.3601  1.0594
16418SOL    HW252148   5.718  10.242   1.637  0.3191 -2.4989  0.6477
16419SOL     OW52149   2.691   4.873   6.420  0.1643 -0.3070  0.3760
16419SOL    HW152150   2.737   4.903   6.341 -0.4807 -0.3356 -0.0180
16419SOL    HW252151   2.759   4.829   6.471  0.1330 -2.4428 -1.2789
16420SOL     OW52152   9.814   1.214   4.509  0.0237  0.0354  0.8787
16420SOL    HW152153   9.874   1.158   4.558  2.0042  1.1793 -0.1154
16420SOL    HW252154   9.728   1.197   4.547  1.1294 -0.8407  3.1284
16421SOL     OW52155   6.937   3.180   2.190  0.3254  0.3612 -0.4028
16421SOL    HW152156   6.854   3.219   2.162 -0.1139 -0.5629 -0.4458
16421SOL    HW252157   6.975   3.244   2.250 -1.5923 -0.2171  1.5517
16422SOL     OW52158   5.894   6.139   6.034 -0.4061 -0.0940 -0.2466
16422SOL    HW152159   5.932   6.157   6.120 -0.5086 -1.0907  0.0214
16422SOL    HW252160   5.873   6.225   5.999  1.0354  0.4253  0.0801
16423SOL     OW52161   3.226  10.417   1.215 -0.5651  0.2070 -0.6422
16423SOL    HW152162   3.201  10.329   1.191 -0.6861 -0.0362  0.3184
16423SOL    HW252163   3.166  10.474   1.166 -1.2760 -0.2815 -0.3548
16424SOL     OW52164   1.767  10.601   8.142  0.5190 -0.2676 -0.0376
16424SOL    HW152165   1.831  10.547   8.095  1.8024  1.8155 -0.8264
16424SOL    HW252166   1.800  10.606   8.231 -0.0794 -1.4611  0.2633
16425SOL     OW52167   3.466   1.747   6.198 -0.0672 -0.5698  0.2100
16425SOL    HW152168   3.516   1.818   6.159 -1.4732  0.7294  0.6810
16425SOL    HW252169   3.474   1.674   6.136 -0.6186  0.7845 -1.5212
16426SOL     OW52170   1.122   4.884   1.158 -0.0699 -0.6218 -0.1317
16426SOL    HW152171   1.147   4.864   1.248 -2.8027  0.2677  0.9309
16426SOL    HW252172   1.066   4.810   1.132 -0.3626 -0.2379 -0.6114
16427SOL     OW52173   6.381   2.064   4.325  0.3537 -0.4245 -0.0702
16427SOL    HW152174   6.343   1.985   4.288  0.7440 -0.1418 -1.0964
16427SOL    HW252175   6.332   2.136   4.286  0.8522 -0.1165 -0.1424
16428SOL     OW52176   0.448   5.608   2.732  0.5877  0.1894 -0.2207
16428SOL    HW152177   0.438   5.514   2.721 -0.1823  0.1880  0.4337
16428SOL    HW252178   0.520   5.631   2.673 -0.4985 -0.4926 -1.8935
16429SOL     OW52179   1.771   1.072   7.490 -0.2035  0.1522  0.1840
16429SOL    HW152180   1.682   1.036   7.497  0.4756 -1.4619  0.9249
16429SOL    HW252181   1.759   1.166   7.502 -1.7057 -0.1591  1.4371
16430SOL     OW52182   3.379  10.602   8.193 -0.1114  0.1907 -0.6145
16430SOL    HW152183   3.407  10.693   8.203 -0.9235  0.3056  0.8523
16430SOL    HW252184   3.461  10.554   8.176  0.8505  0.7386  1.9818
16431SOL     OW52185   7.335   2.454   9.604  0.2930  0.0545 -0.1275
16431SOL    HW152186   7.343   2.385   9.538  2.0224  0.8260 -0.7805
16431SOL    HW252187   7.241   2.460   9.621  0.0646 -2.3704 -0.1181
16432SOL     OW52188   6.776   8.522   1.505 -0.3488 -0.6805 -0.4278
16432SOL    HW152189   6.865   8.523   1.469 -0.3842 -1.0527 -0.5222
16432SOL    HW252190   6.744   8.612   1.492 -0.3265 -0.7818 -1.2253
16433SOL     OW52191   2.350   6.131  10.230 -0.1643  0.3710  0.2519
16433SOL    HW152192   2.361   6.057  10.290  0.2542 -0.2051 -0.5053
16433SOL    HW252193   2.301   6.196  10.279  0.8821  0.2492  1.4980
16434SOL     OW52194   8.137   5.496   5.110  0.4342  0.0421 -0.1853
16434SOL    HW152195   8.047   5.507   5.079  0.0490 -1.1483  0.4310
16434SOL    HW252196   8.162   5.410   5.076  0.7408 -0.3611  1.0340
16435SOL     OW52197   8.469   6.088  10.793  0.7061  0.2690  0.7495
16435SOL    HW152198   8.545   6.145  10.786  0.3982  0.6045  0.0150
16435SOL    HW252199   8.484   6.020  10.727 -0.5443  1.4551 -0.8644
16436SOL     OW52200   8.599   7.155   2.632 -0.2218 -0.6498 -0.1075
16436SOL    HW152201   8.509   7.164   2.663  0.0804 -0.4304  0.7580
16436SOL    HW252202   8.650   7.139   2.712  0.3852 -1.6997 -0.6768
16437SOL     OW52203   3.182   1.367   5.410 -0.0473  0.0250 -0.1785
16437SOL    HW152204   3.225   1.286   5.436 -0.9910  0.1284  1.8172
16437SOL    HW252205   3.252   1.433   5.411 -0.0040  0.0338  2.2681
16438SOL     OW52206   1.231   5.354   9.597 -0.1044  0.2101  0.3315
16438SOL    HW152207   1.316   5.396   9.610  0.0785 -0.1201  0.2074
16438SOL    HW252208   1.236   5.315   9.510  0.0741 -0.8798  0.8106
16439SOL     OW52209   8.130   9.427   8.100  0.2306 -0.2749 -0.0118
16439SOL    HW152210   8.077   9.500   8.134  2.6952  1.2367  0.8217
16439SOL    HW252211   8.105   9.353   8.156 -2.1251 -0.0908 -0.6955
16440SOL     OW52212   0.375   7.298   6.716  0.1072  0.0002  0.1623
16440SOL    HW152213   0.306   7.364   6.720  2.6367  2.9444 -0.5940
16440SOL    HW252214   0.348   7.239   6.647 -1.2639  1.5782 -0.7267
16441SOL     OW52215   6.079   0.825   0.755  0.1418  0.1730  0.2727
16441SOL    HW152216   5.994   0.868   0.757 -1.1878 -2.3110  0.1117
16441SOL    HW252217   6.114   0.837   0.843 -0.6668  0.6029  0.5419
16442SOL     OW52218   3.360   2.577   2.769  0.0782 -0.2742 -0.8114
16442SOL    HW152219   3.455   2.569   2.778 -0.0725  0.0111  1.6557
16442SOL    HW252220   3.345   2.670   2.757 -0.0367  0.2303  2.5051
16443SOL     OW52221   9.296   7.382   6.713  0.5869 -0.2898 -0.3833
16443SOL    HW152222   9.374   7.406   6.663  0.2202  0.3229 -0.6790
16443SOL    HW252223   9.322   7.391   6.804  0.5715  0.9426 -0.4833
16444SOL     OW52224   5.496   7.850   7.608  0.3776  0.1489  0.2848
16444SOL    HW152225   5.538   7.824   7.526  0.0221 -0.0269  0.1566
16444SOL    HW252226   5.472   7.941   7.596  0.8342  0.2881  0.4059
16445SOL     OW52227   6.280   5.377   2.052 -0.5796  0.4745  0.0881
16445SOL    HW152228   6.228   5.457   2.059 -1.7524 -0.2417 -0.1696
16445SOL    HW252229   6.290   5.363   1.958  3.8958  2.9321 -0.1345
16446SOL     OW52230   1.829   5.977   6.132  0.1614 -0.1399 -0.8518
16446SOL    HW152231   1.916   5.982   6.091  0.3249  0.2091 -0.4691
16446SOL    HW252232   1.847   5.960   6.224 -0.1289  1.3316 -0.5087
16447SOL     OW52233   1.127   2.105   7.103 -0.2103  0.0840 -0.0957
16447SOL    HW152234   1.084   2.040   7.159  0.2258  1.8312  2.4287
16447SOL    HW252235   1.066   2.120   7.031 -0.8580 -2.1600 -0.0928
16448SOL     OW52236   5.754   2.038  10.252  0.2789  0.3057 -0.3842
16448SOL    HW152237   5.802   2.108  10.296 -0.2250  0.1611  0.4011
16448SOL    HW252238   5.724   2.077  10.170  0.0423  1.0022  0.0294
16449SOL     OW52239   5.576   4.750   9.002 -0.3848  0.6624 -0.9693
16449SOL    HW152240   5.524   4.778   8.927  0.4976  1.0005 -1.4633
16449SOL    HW252241   5.608   4.831   9.041  0.9939  0.4342 -1.5556
16450SOL     OW52242   8.277   5.274   9.418  0.0357  0.1796  0.0075
16450SOL    HW152243   8.192   5.299   9.381 -0.1932 -0.6083 -0.0342
16450SOL    HW252244   8.265   5.182   9.443  0.1022  0.7473  2.2864
16451SOL     OW52245   4.638   7.701   4.596 -0.4597 -0.4582  0.2409
16451SOL    HW152246   4.569   7.681   4.533 -0.9695 -0.3136  0.7420
16451SOL    HW252247   4.620   7.644   4.671  0.9330 -1.6262 -0.2579
16452SOL     OW52248   1.673   0.703   1.883  0.1417  0.1980  0.3258
16452SOL    HW152249   1.598   0.697   1.824  1.5823 -0.2093 -1.5398
16452SOL    HW252250   1.747   0.728   1.827  1.7613 -1.0993  1.7613
16453SOL     OW52251  10.191   0.185   2.813  0.5900  0.0186 -0.2979
16453SOL    HW152252  10.121   0.169   2.876  1.8966  0.6877  1.4157
16453SOL    HW252253  10.181   0.278   2.789  0.8460  0.1015 -0.0902
16454SOL     OW52254   6.692   2.245   7.325 -0.2292 -0.7260  0.2323
16454SOL    HW152255   6.768   2.300   7.344 -0.3149 -0.2608 -0.7402
16454SOL    HW252256   6.647   2.236   7.409  0.5869 -0.5330  0.6961
16455SOL     OW52257   6.447   8.712   3.406  0.0096  0.4601 -0.0231
16455SOL    HW152258   6.409   8.749   3.485  0.3958  1.0254 -0.0921
16455SOL    HW252259   6.473   8.789   3.354  1.3775  0.0924  0.0919
16456SOL     OW52260   9.004   5.967   4.254 -0.1429 -0.2826 -0.1158
16456SOL    HW152261   9.074   6.032   4.263 -0.5034  0.1688 -0.5151
16456SOL    HW252262   8.983   5.967   4.161 -0.3628 -0.7491 -0.0679
16457SOL     OW52263   8.704   7.499   6.725  0.3717 -0.4939 -0.1716
16457SOL    HW152264   8.637   7.432   6.734  1.8464 -2.3105 -1.7792
16457SOL    HW252265   8.731   7.494   6.633  2.8549 -0.0299  0.4559
16458SOL     OW52266   5.884   7.682   9.759 -0.0067 -0.1524  0.5173
16458SOL    HW152267   5.971   7.653   9.733  0.3933  0.8897  0.6517
16458SOL    HW252268   5.891   7.698   9.853  0.3646  2.2817  0.1216
16459SOL     OW52269   8.143   9.429   4.964 -0.0635  0.0561  0.1721
16459SOL    HW152270   8.056   9.403   4.933  0.6608  0.1130 -2.0790
16459SOL    HW252271   8.149   9.522   4.941  1.0998 -0.2946 -1.0295
16460SOL     OW52272   9.355  10.533   8.612  0.3270 -0.4775  0.1423
16460SOL    HW152273   9.271  10.489   8.624 -0.0022  0.4382  1.3621
16460SOL    HW252274   9.420  10.466   8.634 -0.0776 -1.0739 -0.4357
16461SOL     OW52275   1.433   1.918   6.176 -0.4191  0.3278 -0.2000
16461SOL    HW152276   1.384   1.904   6.095  1.2344  1.9637 -1.5817
16461SOL    HW252277   1.491   1.842   6.183  1.1290  1.2605 -1.9381
16462SOL     OW52278   3.972   0.222   1.296 -0.4134 -0.2616  0.0437
16462SOL    HW152279   3.941   0.200   1.208 -0.2420 -1.0231  0.1642
16462SOL    HW252280   4.066   0.208   1.293 -0.6132 -2.0004  0.8107
16463SOL     OW52281   7.675   2.558   7.807 -0.0343  0.2174 -0.6016
16463SOL    HW152282   7.614   2.495   7.769 -0.7424 -0.0218  0.8393
16463SOL    HW252283   7.748   2.505   7.839 -0.0057  0.2756 -0.5691
16464SOL     OW52284   7.729   6.454   5.738 -0.5508  0.0101 -0.3751
16464SOL    HW152285   7.748   6.521   5.804 -2.6414  1.6910 -1.3682
16464SOL    HW252286   7.646   6.416   5.766 -0.5397 -0.5475 -1.0748
16465SOL     OW52287   1.613   5.281   6.344 -0.7365  0.2931  0.3571
16465SOL    HW152288   1.546   5.341   6.376 -0.3807  1.4339 -0.9218
16465SOL    HW252289   1.636   5.315   6.257  0.4097 -0.9555  0.1334
16466SOL     OW52290  10.692   0.307   4.559 -0.1151 -0.6576 -0.1127
16466SOL    HW152291  10.724   0.349   4.479  0.8373  0.7472  0.9632
16466SOL    HW252292  10.637   0.372   4.601 -0.6458 -1.4002  0.3722
16467SOL     OW52293   9.547   7.564   5.723  0.1956  0.0899 -0.7678
16467SOL    HW152294   9.476   7.532   5.778 -0.9128  1.4425 -1.3646
16467SOL    HW252295   9.507   7.580   5.638  0.8730  2.1271 -0.7633
16468SOL     OW52296   0.667   1.505   0.903  0.0077  0.5813 -0.9074
16468SOL    HW152297   0.659   1.522   0.809  1.9027 -0.3942 -1.3117
16468SOL    HW252298   0.735   1.437   0.909 -1.4610 -0.8201  1.0672
16469SOL     OW52299   4.073  10.782   9.464 -0.1440  0.5303  0.1090
16469SOL    HW152300   4.071  10.734   9.548 -1.4804 -0.1996 -0.3059
16469SOL    HW252301   4.073  10.874   9.489  0.4356  0.3219  0.9210
16470SOL     OW52302   5.129  10.708   9.419  0.4989 -0.0412  0.1157
16470SOL    HW152303   5.172  10.717   9.505  0.3131 -1.3952  0.3792
16470SOL    HW252304   5.042  10.744   9.432 -0.1028 -1.6900  1.0065
16471SOL     OW52305   7.604   0.271   0.688 -0.0210 -0.6481 -0.4867
16471SOL    HW152306   7.563   0.264   0.602 -3.1413 -1.0437  0.8545
16471SOL    HW252307   7.692   0.237   0.676 -0.6216 -1.4892 -3.3310
16472SOL     OW52308   6.854   3.109   3.587  0.6776 -0.4911  0.3800
16472SOL    HW152309   6.771   3.154   3.599  0.6532 -0.2049 -0.7855
16472SOL    HW252310   6.918   3.178   3.572  0.5137 -0.7868 -2.1684
16473SOL     OW52311   2.350   5.400   0.800  0.8309 -0.1437  0.2803
16473SOL    HW152312   2.259   5.371   0.811  0.7058  0.4265  0.7604
16473SOL    HW252313   2.347   5.457   0.723  0.5295  0.9331  1.0748
16474SOL     OW52314   2.753   0.566   5.871 -0.1310  0.2853  0.3245
16474SOL    HW152315   2.689   0.503   5.840 -0.3502 -0.2244  1.7401
16474SOL    HW252316   2.838   0.524   5.858 -0.1138  0.6206 -0.7679
16475SOL     OW52317   8.560   6.689   7.947 -0.1450  0.0286 -0.1053
16475SOL    HW152318   8.500   6.615   7.945 -2.4694  1.8144 -0.5046
16475SOL    HW252319   8.591   6.693   8.038  0.3716 -1.6461 -0.1826
16476SOL     OW52320   0.805  10.719  10.021  0.2862 -0.0146 -0.1232
16476SOL    HW152321   0.814  10.809  10.054  0.0934 -0.2547  0.6010
16476SOL    HW252322   0.713  10.712   9.997  0.1354 -0.2445  0.5088
16477SOL     OW52323   1.023   8.384  10.159  0.5424  0.6645 -0.2298
16477SOL    HW152324   1.088   8.401  10.091 -0.4233  0.4752 -1.2365
16477SOL    HW252325   0.948   8.439  10.134  0.2110  0.6650  0.7384
16478SOL     OW52326   0.158   0.938   2.851  0.1920  0.0986 -0.0295
16478SOL    HW152327   0.174   0.957   2.758 -3.9975 -0.7952 -1.1467
16478SOL    HW252328   0.155   0.843   2.856 -2.1252  0.1286  0.3650
16479SOL     OW52329   3.259   4.026   0.658 -0.0046 -0.2807  0.3231
16479SOL    HW152330   3.241   3.945   0.704  1.1974 -1.0515 -0.5141
16479SOL    HW252331   3.267   4.092   0.727  1.6145 -1.3756  1.2394
16480SOL     OW52332   3.140   5.223   1.182  0.0504  0.0921 -0.2690
16480SOL    HW152333   3.143   5.235   1.277  0.8626  0.9244 -0.3896
16480SOL    HW252334   3.083   5.292   1.151 -0.0468 -0.0524 -0.4132
16481SOL     OW52335   6.487   2.660   4.445  0.0948 -0.5400  0.5016
16481SOL    HW152336   6.443   2.577   4.429  0.8205 -0.9262  0.4858
16481SOL    HW252337   6.500   2.697   4.358 -0.1215 -0.4623  0.5012
16482SOL     OW52338   5.327   8.871   0.045  0.0989 -0.2554 -0.2436
16482SOL    HW152339   5.421   8.854   0.052 -0.0883 -0.6375  2.2072
16482SOL    HW252340   5.289   8.787   0.020  0.3465 -0.2602 -0.6105
16483SOL     OW52341   0.334   2.784   7.233  0.2614  0.3168 -0.5696
16483SOL    HW152342   0.359   2.765   7.323 -1.5184 -1.0865 -0.3039
16483SOL    HW252343   0.248   2.742   7.223 -0.9943  3.0184 -2.0076
16484SOL     OW52344   3.148   1.953   4.543  0.6629 -0.1314  0.1865
16484SOL    HW152345   3.138   1.978   4.451  1.8856 -0.0608  0.0466
16484SOL    HW252346   3.194   2.026   4.583 -1.4504  0.6535  1.3219
16485SOL     OW52347   6.334   8.892   2.353  0.1835 -0.4506 -0.2058
16485SOL    HW152348   6.320   8.832   2.426  0.8236 -0.6956 -0.2743
16485SOL    HW252349   6.250   8.896   2.308  0.1372 -1.3179 -0.2088
16486SOL     OW52350   7.793   5.057   3.313  0.2701  0.3202 -0.2436
16486SOL    HW152351   7.887   5.059   3.292  0.3507  0.6174  0.1395
16486SOL    HW252352   7.751   5.033   3.230  0.5592  1.8084 -0.8587
16487SOL     OW52353   3.521   0.469   7.948  0.1756 -0.4142 -0.0511
16487SOL    HW152354   3.616   0.464   7.956  0.0678 -2.6459  0.4950
16487SOL    HW252355   3.506   0.538   7.884  2.1450  0.0590 -0.0762
16488SOL     OW52356   5.763   6.714   4.888  0.1319 -0.2821 -0.1418
16488SOL    HW152357   5.721   6.707   4.802 -0.9752 -2.7457  0.5087
16488SOL    HW252358   5.842   6.662   4.881  0.1821 -0.2642  0.2581
16489SOL     OW52359   4.320   4.433   9.582 -0.3897  0.3858  0.2260
16489SOL    HW152360   4.251   4.499   9.588 -0.2249  0.4325  2.1892
16489SOL    HW252361   4.401   4.483   9.592 -0.2344 -0.0223  1.0499
16490SOL     OW52362   0.298   8.150   5.643  0.5534 -0.3688  0.3884
16490SOL    HW152363   0.233   8.100   5.593  1.2544 -1.3320  0.4068
16490SOL    HW252364   0.261   8.239   5.648 -0.0465 -0.5212 -0.8856
16491SOL     OW52365   7.033   5.926  10.174 -0.3525 -0.6772  0.1988
16491SOL    HW152366   7.060   5.914  10.083 -1.5815 -0.8436 -0.1624
16491SOL    HW252367   7.034   5.838  10.211 -1.7103 -0.8857 -0.2136
16492SOL     OW52368   6.322   9.430   2.866 -0.0997  0.0328 -0.4951
16492SOL    HW152369   6.370   9.373   2.805 -0.8624 -0.3665 -0.7342
16492SOL    HW252370   6.252   9.374   2.901 -2.0392  1.3120 -2.1185
16493SOL     OW52371   8.191   6.906   1.230  0.7129 -0.2011  0.3185
16493SOL    HW152372   8.281   6.920   1.258  1.1692 -1.7680 -0.2923
16493SOL    HW252373   8.189   6.817   1.195 -1.1531 -0.3399  0.6367
16494SOL     OW52374   5.067   0.754   3.184  0.3896 -0.0035  0.0396
16494SOL    HW152375   5.084   0.820   3.116  1.0534  1.0909  1.2307
16494SOL    HW252376   4.972   0.747   3.187  0.3505 -0.4886 -1.3711
16495SOL     OW52377   2.515   9.418   3.192 -0.3126 -0.1919 -0.1454
16495SOL    HW152378   2.425   9.383   3.188 -0.2433 -0.3047 -0.7727
16495SOL    HW252379   2.523   9.452   3.281 -1.6061  1.4984 -0.6087
16496SOL     OW52380   0.836   6.824   5.566 -0.4629  0.6073 -0.5341
16496SOL    HW152381   0.912   6.855   5.517  1.5466 -2.2078  0.5314
16496SOL    HW252382   0.799   6.754   5.512  0.3737 -0.9423  0.8068
16497SOL     OW52383   3.464   1.240   4.419 -0.0254  0.2455  0.4544
16497SOL    HW152384   3.403   1.223   4.347  1.3685 -1.6446 -0.3598
16497SOL    HW252385   3.505   1.324   4.397 -0.0747 -0.0059 -0.6251
16498SOL     OW52386   8.326   3.636   6.480  0.3180  0.2624  0.1901
16498SOL    HW152387   8.326   3.731   6.493 -0.3563  0.1047  1.5713
16498SOL    HW252388   8.280   3.623   6.397 -0.7435  1.0978  0.6200
16499SOL     OW52389  10.244   0.608   4.903 -0.2707 -0.8846  0.0320
16499SOL    HW152390  10.224   0.640   4.814  0.1232  0.9676  0.5747
16499SOL    HW252391  10.222   0.682   4.960  0.4657 -1.6933  1.3938
16500SOL     OW52392   5.421   8.312   2.123 -0.0463  0.0009  0.1927
16500SOL    HW152393   5.326   8.320   2.117  0.0026  1.1698  0.6163
16500SOL    HW252394   5.445   8.254   2.051 -0.8739  1.5117 -1.3878
16501SOL     OW52395   4.350   8.049   1.702  0.1315  0.0393 -0.2337
16501SOL    HW152396   4.381   7.960   1.688  1.4919  0.4810 -0.1266
16501SOL    HW252397   4.379   8.097   1.624  0.9588  0.7751  0.5059
16502SOL     OW52398   6.098   0.700   0.367 -0.0865 -0.2096  0.1073
16502SOL    HW152399   6.127   0.790   0.381 -0.9769  0.3582 -1.4612
16502SOL    HW252400   6.166   0.661   0.312 -0.3982 -0.0386 -0.4090
16503SOL     OW52401   7.855   8.822   7.992 -0.8108 -0.4682 -0.7411
16503SOL    HW152402   7.787   8.850   7.931 -2.0904  0.2061  0.9398
16503SOL    HW252403   7.905   8.902   8.011 -0.7517 -0.5710 -0.4694
16504SOL     OW52404   2.423   8.124   9.663  0.0395 -0.1531  0.6735
16504SOL    HW152405   2.497   8.095   9.609 -0.4305 -1.4290  0.6888
16504SOL    HW252406   2.379   8.190   9.609  0.5803 -0.1423  0.2349
16505SOL     OW52407   3.558   9.908   9.852 -0.2612  0.1056 -0.1394
16505SOL    HW152408   3.525   9.949   9.773  0.5912  1.9016  0.3798
16505SOL    HW252409   3.573   9.817   9.828  0.5260  0.7366 -2.2132
16506SOL     OW52410   6.292  10.719   1.168  0.5524 -0.1949  1.1615
16506SOL    HW152411   6.226  10.759   1.224 -0.0293  2.2401 -1.0392
16506SOL    HW252412   6.375  10.756   1.197 -0.0159  3.3677 -1.1404
16507SOL     OW52413   1.492   5.835   9.250 -0.3304 -0.4325 -0.1388
16507SOL    HW152414   1.525   5.834   9.340 -0.5202  2.6624  0.0810
16507SOL    HW252415   1.410   5.786   9.254 -0.0070 -0.9113  1.2172
16508SOL     OW52416   7.337   0.302  10.691  0.0685 -0.1809 -0.9991
16508SOL    HW152417   7.429   0.290  10.714 -0.0033  0.5056 -0.2967
16508SOL    HW252418   7.292   0.227  10.729 -0.1020  1.1093  1.5285
16509SOL     OW52419   2.033   8.915   7.273  0.1865 -0.3660  0.8875
16509SOL    HW152420   2.014   8.941   7.363  1.6789 -0.5748  1.2962
16509SOL    HW252421   1.970   8.964   7.219  0.7389  1.5084  1.8641
16510SOL     OW52422  10.292   9.694   2.875 -0.3492  0.0570 -0.0287
16510SOL    HW152423  10.352   9.758   2.914 -0.5734 -0.1876  0.7390
16510SOL    HW252424  10.316   9.691   2.783 -0.5027  1.4552 -0.1347
16511SOL     OW52425   9.107   0.693   1.051  0.2893  0.1229  0.0015
16511SOL    HW152426   9.077   0.674   0.962 -0.5215  0.0870  0.2750
16511SOL    HW252427   9.122   0.788   1.051  0.8158  0.0391 -0.3278
16512SOL     OW52428   8.924   7.959   1.530  0.0933  0.4926 -0.6379
16512SOL    HW152429   8.967   7.974   1.614  0.6980 -0.7209 -0.7123
16512SOL    HW252430   8.848   8.017   1.531 -0.6423 -0.4474  1.2974
16513SOL     OW52431   5.426   5.924   0.809 -0.6721  0.0116  0.3147
16513SOL    HW152432   5.466   5.846   0.770 -2.2276 -1.3219  1.2717
16513SOL    HW252433   5.351   5.942   0.752  0.1462  1.3475 -0.3788
16514SOL     OW52434  10.766   5.922   4.491  0.7096  0.3656  0.2559
16514SOL    HW152435  10.839   5.876   4.534  1.0280  0.4866 -0.1456
16514SOL    HW252436  10.738   5.987   4.555  0.8887  0.2491  0.4544
16515SOL     OW52437   2.685   2.763   8.975  0.1112 -0.0390  0.9849
16515SOL    HW152438   2.633   2.839   8.949  1.2033 -0.1023 -1.6830
16515SOL    HW252439   2.732   2.793   9.053 -1.4510  1.0766  1.5668
16516SOL     OW52440   2.765   8.139   4.080 -0.2787  0.4085  0.6556
16516SOL    HW152441   2.831   8.168   4.017 -1.4810  0.3781 -0.6930
16516SOL    HW252442   2.723   8.064   4.037 -1.6332  0.8466  1.1529
16517SOL     OW52443   3.113   7.723   1.947 -0.1191 -0.5112  0.1264
16517SOL    HW152444   3.027   7.710   1.906  0.3856  0.0020 -1.1540
16517SOL    HW252445   3.093   7.757   2.034 -1.2139 -0.3591 -0.1647
16518SOL     OW52446   3.485   0.353   9.707  0.4893 -0.1731  0.3604
16518SOL    HW152447   3.496   0.435   9.754  2.2094  0.2069 -0.6384
16518SOL    HW252448   3.517   0.286   9.767 -0.8345 -0.1416  1.1422
16519SOL     OW52449   3.548   4.330   2.439  0.5850  0.3421 -0.1252
16519SOL    HW152450   3.518   4.315   2.528  0.0776  1.4285 -0.0997
16519SOL    HW252451   3.630   4.282   2.432 -0.9827 -2.5712 -0.1196
16520SOL     OW52452   1.426   3.667   4.424 -0.4654 -0.1712  0.3238
16520SOL    HW152453   1.513   3.651   4.460  0.0156 -0.6346 -0.9867
16520SOL    HW252454   1.440   3.680   4.331 -1.8654 -0.8235 -0.0121
16521SOL     OW52455   5.927   0.696   8.426  0.2247 -0.1048  0.5455
16521SOL    HW152456   5.992   0.707   8.356  0.6231  0.1130  0.9482
16521SOL    HW252457   5.907   0.785   8.454 -0.5925 -0.1410  0.1204
16522SOL     OW52458   3.417   1.960   9.604 -0.1037 -0.3280 -0.2680
16522SOL    HW152459   3.375   2.012   9.672  1.5815  2.1771 -0.9797
16522SOL    HW252460   3.345   1.926   9.550 -1.3214  0.0055  1.1067
16523SOL     OW52461   8.082   6.828   6.285  0.0741 -0.3590  0.0742
16523SOL    HW152462   8.095   6.775   6.206  0.8891  1.3957 -1.0465
16523SOL    HW252463   8.168   6.866   6.302 -0.4023  0.3384  1.0098
16524SOL     OW52464   5.160   2.827   4.140 -0.1265 -0.5170  0.8019
16524SOL    HW152465   5.077   2.864   4.171 -0.4430 -0.6529  0.1540
16524SOL    HW252466   5.214   2.904   4.120 -0.9801 -0.3278 -1.0637
16525SOL     OW52467   2.165   2.525   4.385 -0.6864 -0.0990  0.3056
16525SOL    HW152468   2.178   2.497   4.476 -1.8802 -1.4675  0.0869
16525SOL    HW252469   2.118   2.453   4.344  1.5430 -0.3921 -1.9619
16526SOL     OW52470   6.836   0.318  10.150  0.0945  0.2654  0.0339
16526SOL    HW152471   6.873   0.261  10.083 -0.7224 -1.3069  0.8623
16526SOL    HW252472   6.829   0.262  10.228 -1.1566  1.3667  0.7579
16527SOL     OW52473   5.454   9.888   3.351  0.1325 -0.5377 -0.4572
16527SOL    HW152474   5.399   9.888   3.430  0.4389  0.9912 -0.2185
16527SOL    HW252475   5.462   9.796   3.328 -0.9271 -0.9294  0.6286
16528SOL     OW52476   6.902  10.077  10.735  0.2788  0.2002 -0.0290
16528SOL    HW152477   6.834  10.141  10.715  0.3887  0.3514  0.0768
16528SOL    HW252478   6.863  10.019  10.800 -0.6073 -1.2055 -1.7375
16529SOL     OW52479   4.990   7.347   8.017 -0.0025 -0.2527  0.1124
16529SOL    HW152480   5.059   7.406   7.985  0.3605 -0.3876  0.6269
16529SOL    HW252481   5.035   7.288   8.077 -0.6176 -0.1818  0.6510
16530SOL     OW52482   6.170   2.340   1.097  0.7498  0.6101 -0.2307
16530SOL    HW152483   6.222   2.290   1.034  0.9247  2.3943 -1.5623
16530SOL    HW252484   6.235   2.382   1.154  0.6197 -0.1671  0.5106
16531SOL     OW52485   6.623   9.867   3.815 -0.0610 -0.3743 -0.3325
16531SOL    HW152486   6.647   9.809   3.887  0.1678  0.8893  0.6409
16531SOL    HW252487   6.542   9.910   3.844  0.9686  1.4592  0.0064
16532SOL     OW52488   2.709   8.006   6.714  0.0613 -0.5455  0.2629
16532SOL    HW152489   2.714   8.099   6.737  1.9672 -0.5704  0.0814
16532SOL    HW252490   2.710   8.006   6.618 -0.3938 -0.7532  0.2551
16533SOL     OW52491   8.198   5.006   7.416 -0.6322  0.2702  0.5347
16533SOL    HW152492   8.135   4.942   7.448  1.5025 -1.7070  1.0467
16533SOL    HW252493   8.282   4.960   7.418  0.6358  2.2718 -1.5273
16534SOL     OW52494   5.894   6.055   2.713 -0.5609 -0.5607  0.3794
16534SOL    HW152495   5.835   6.006   2.770 -0.8403  0.5597  1.0851
16534SOL    HW252496   5.919   6.132   2.764  0.0936 -0.1055 -0.5873
16535SOL     OW52497   8.797   1.023   7.347 -0.3254  0.3568 -0.0967
16535SOL    HW152498   8.816   1.095   7.408 -0.2551  1.0466 -0.9163
16535SOL    HW252499   8.717   0.984   7.381  0.2860  0.0468  1.0406
16536SOL     OW52500   2.935  10.631   4.791  0.2147  0.5484 -0.0593
16536SOL    HW152501   2.968  10.597   4.708 -1.4122  1.7865 -1.2568
16536SOL    HW252502   2.858  10.577   4.810  1.6385 -1.0162  1.7093
16537SOL     OW52503  10.674   9.673   8.944 -0.2181  0.0170  0.5515
16537SOL    HW152504  10.748   9.650   9.001  0.0930 -1.4166 -0.3894
16537SOL    HW252505  10.715   9.704   8.863 -0.6608  0.6954  0.5782
16538SOL     OW52506   3.049   2.857  10.041  0.0234 -0.4534 -0.3006
16538SOL    HW152507   3.014   2.933   9.996 -1.0806  0.0501  1.3369
16538SOL    HW252508   2.973   2.803  10.062  0.6539 -1.3488 -0.2271
16539SOL     OW52509   8.912   7.095   4.473 -0.3263  0.8535  0.0101
16539SOL    HW152510   8.914   7.185   4.505 -0.2998  0.3635  1.4477
16539SOL    HW252511   8.932   7.041   4.550 -2.4184 -0.5100 -0.3155
16540SOL     OW52512  10.179   9.009  10.581 -0.2482 -0.3071  0.4460
16540SOL    HW152513  10.249   9.031  10.642  1.1233  3.3975 -2.1227
16540SOL    HW252514  10.220   8.949  10.518  0.5892  1.4638 -0.7675
16541SOL     OW52515   2.014   2.764   8.662 -0.3106 -0.0457  0.1959
16541SOL    HW152516   2.099   2.722   8.650  0.7834  1.7463  1.2366
16541SOL    HW252517   2.035   2.851   8.695 -2.4323  1.4935 -2.1330
16542SOL     OW52518   6.706   6.547  10.259  0.0969  0.2136  0.5882
16542SOL    HW152519   6.662   6.630  10.275 -0.7229  0.3154 -1.7886
16542SOL    HW252520   6.797   6.571  10.241 -0.3090  0.7552 -0.9337
16543SOL     OW52521   9.484   9.827   8.186  0.5122  0.1859 -0.3602
16543SOL    HW152522   9.388   9.822   8.187  0.3190  2.7082  0.0859
16543SOL    HW252523   9.504   9.917   8.210  2.9981  0.0514 -1.5545
16544SOL     OW52524   5.637   9.153   1.627 -0.3544 -0.1706  0.1333
16544SOL    HW152525   5.725   9.181   1.650  0.2762 -1.8620 -0.1170
16544SOL    HW252526   5.642   9.128   1.535 -1.1912  0.0193  0.0204
16545SOL     OW52527  10.593   8.037   5.189  0.4139 -0.2350 -0.1275
16545SOL    HW152528  10.517   7.979   5.177 -0.0072 -0.6125  3.4054
16545SOL    HW252529  10.556   8.125   5.193  0.7140  0.0557 -2.4323
16546SOL     OW52530   0.809   5.213   9.238  0.3051 -0.1399  0.4002
16546SOL    HW152531   0.744   5.223   9.307  1.7400  0.6929  1.7129
16546SOL    HW252532   0.862   5.139   9.266  1.8428  1.1473  1.0528
16547SOL     OW52533   1.497   1.012   8.473  0.1012  0.0939  0.3834
16547SOL    HW152534   1.445   1.091   8.483 -1.4734 -0.0892 -4.1228
16547SOL    HW252535   1.459   0.950   8.535 -1.2197  1.6630  1.2257
16548SOL     OW52536  10.702   2.897   1.639 -0.8231  0.2580  0.2661
16548SOL    HW152537  10.688   2.821   1.697 -0.4388  0.2171  0.3091
16548SOL    HW252538  10.795   2.894   1.618 -0.9979  0.1598 -0.5191
16549SOL     OW52539   5.610   0.273   2.420 -0.1381 -0.1241 -0.3666
16549SOL    HW152540   5.697   0.236   2.407  0.6687  1.2890  0.7712
16549SOL    HW252541   5.622   0.341   2.486 -1.6391  1.7360 -1.8741
16550SOL     OW52542   1.191   1.062   6.374 -0.0301  0.0906  0.0457
16550SOL    HW152543   1.276   1.104   6.363  1.6894 -2.8856  0.9078
16550SOL    HW252544   1.204   0.999   6.445 -3.7295  1.2928  2.1171
16551SOL     OW52545   7.738   5.605   6.069  0.8216  0.3399 -0.1025
16551SOL    HW152546   7.731   5.513   6.045  0.7504  0.3656 -0.1846
16551SOL    HW252547   7.652   5.642   6.046 -0.3975 -0.2695  2.9784
16552SOL     OW52548   8.833   2.391   3.615 -0.0958  0.4007 -0.3280
16552SOL    HW152549   8.868   2.319   3.668 -1.0100  0.2697  0.1137
16552SOL    HW252550   8.840   2.359   3.525 -1.4853 -0.7128 -0.0773
16553SOL     OW52551   3.661   8.346   4.640 -0.4326 -0.1277  0.4970
16553SOL    HW152552   3.753   8.348   4.612 -1.0522  0.2678 -1.7352
16553SOL    HW252553   3.623   8.273   4.592 -1.9618  1.6513 -1.1868
16554SOL     OW52554  10.662   7.286  10.554 -0.4246 -0.0120  0.4317
16554SOL    HW152555  10.577   7.320  10.525 -0.1327  0.5740  0.2577
16554SOL    HW252556  10.698   7.243  10.477 -1.7867 -2.7954  1.2175
16555SOL     OW52557   8.252   0.935   3.309  0.1832 -0.1472 -0.1166
16555SOL    HW152558   8.240   1.028   3.330  0.3859 -0.2418  0.4419
16555SOL    HW252559   8.164   0.899   3.308  0.0790  0.1217 -0.6645
16556SOL     OW52560   8.471   1.184   0.833 -0.2014  0.2211 -0.3801
16556SOL    HW152561   8.543   1.138   0.877 -1.0300 -1.0379 -0.2700
16556SOL    HW252562   8.475   1.153   0.742  0.1473  1.1039 -0.6710
16557SOL     OW52563   9.447   1.013  10.499 -0.3133 -0.5575  0.4417
16557SOL    HW152564   9.543   1.007  10.502 -0.1604  1.4243  1.1968
16557SOL    HW252565   9.426   1.018  10.406  0.4869  0.7750  0.3125
16558SOL     OW52566   1.029   5.561   8.480  0.2085  0.2747 -0.3558
16558SOL    HW152567   1.064   5.508   8.550  0.1816 -0.0031 -0.5524
16558SOL    HW252568   0.994   5.498   8.416 -0.4409  0.5320 -0.2688
16559SOL     OW52569   8.759   3.446   3.242  0.5481 -0.4133 -0.7696
16559SOL    HW152570   8.821   3.391   3.290 -0.2154  2.1063  3.6425
16559SOL    HW252571   8.793   3.535   3.249 -2.2663  0.7530 -0.2888
16560SOL     OW52572   3.925   1.103   8.308 -0.6266  0.6204 -0.4840
16560SOL    HW152573   3.952   1.026   8.358 -0.6194  1.0986  0.2527
16560SOL    HW252574   3.970   1.094   8.224 -2.1045 -1.1778 -1.1571
16561SOL     OW52575   6.825   9.660   0.967 -0.0530  0.3255 -0.3197
16561SOL    HW152576   6.802   9.713   1.044 -0.5702  1.2782 -1.1044
16561SOL    HW252577   6.909   9.696   0.938 -0.5808  1.0044 -1.0718
16562SOL     OW52578   8.490  10.274   9.232  0.1356  0.1118 -0.1669
16562SOL    HW152579   8.585  10.268   9.224  0.0634 -0.0840 -0.9032
16562SOL    HW252580   8.476  10.345   9.295  0.7372  1.7820 -1.8229
16563SOL     OW52581  10.223   0.911   5.017  0.5414  0.0201 -0.4258
16563SOL    HW152582  10.259   0.994   4.986  1.8336 -0.8676 -1.4088
16563SOL    HW252583  10.128   0.920   5.006  0.7911  0.6467 -2.4282
16564SOL     OW52584   1.920   2.373   0.986 -0.5890 -0.0080  0.3756
16564SOL    HW152585   1.989   2.432   0.955  0.1136 -0.2368  1.4515
16564SOL    HW252586   1.889   2.412   1.068 -0.6362 -0.7387  0.7121
16565SOL     OW52587   1.327   4.829   2.172  0.2941  0.1663  0.6134
16565SOL    HW152588   1.408   4.816   2.123  0.1052 -0.8164  0.5432
16565SOL    HW252589   1.287   4.907   2.132  0.8624  0.2458  0.1926
16566SOL     OW52590   7.081   4.058   8.268 -0.0545 -0.0284 -0.0002
16566SOL    HW152591   7.057   4.131   8.324 -0.4534 -1.2039  1.4317
16566SOL    HW252592   7.129   3.998   8.325 -1.6349 -1.8983 -0.4890
16567SOL     OW52593   9.247   4.693   3.930 -0.1635 -0.0113 -0.0611
16567SOL    HW152594   9.235   4.786   3.950  1.1330  0.5756 -1.7518
16567SOL    HW252595   9.160   4.654   3.944 -0.5635  1.2915  1.3505
16568SOL     OW52596   9.719   3.942  10.258 -0.4978  0.8921 -0.2447
16568SOL    HW152597   9.780   3.897  10.316 -0.8013  2.7795  1.6362
16568SOL    HW252598   9.715   3.887  10.180  0.8169 -1.1422  1.0442
16569SOL     OW52599   0.710   4.773   6.940 -0.4710 -0.7277  0.0401
16569SOL    HW152600   0.640   4.778   7.005 -0.2566 -0.9564  0.2914
16569SOL    HW252601   0.790   4.762   6.991  0.2684  3.1327 -0.0005
16570SOL     OW52602   2.890   6.870   9.841 -0.3009  0.5554  0.4650
16570SOL    HW152603   2.872   6.807   9.772 -0.7151 -1.8861  2.6144
16570SOL    HW252604   2.805   6.908   9.863 -0.4930 -0.0813  0.8550
16571SOL     OW52605   0.036   5.020   6.108 -0.6013 -0.8184 -0.4533
16571SOL    HW152606   0.038   4.930   6.140  0.5668 -0.1862  1.4145
16571SOL    HW252607   0.126   5.037   6.079 -0.4474  0.1814  0.5627
16572SOL     OW52608  10.669   1.867   6.448  0.1173 -0.5766 -0.2831
16572SOL    HW152609  10.647   1.948   6.494  3.5430 -0.0726  0.7318
16572SOL    HW252610  10.686   1.894   6.358 -0.5843 -0.5120 -0.3999
16573SOL     OW52611   1.917   3.530   0.303  0.1026 -0.7675  0.3675
16573SOL    HW152612   1.930   3.520   0.208  0.0547 -3.3757  0.5579
16573SOL    HW252613   2.003   3.556   0.336  0.6561 -1.7720 -0.2136
16574SOL     OW52614   3.401   2.314   5.671  0.3118  0.4395  0.2777
16574SOL    HW152615   3.393   2.319   5.766 -0.7308  0.9459  0.1862
16574SOL    HW252616   3.493   2.296   5.655  0.2097 -1.4499  1.4332
16575SOL     OW52617   4.975   6.742   8.986  0.4022 -0.1071  0.0885
16575SOL    HW152618   5.033   6.741   9.063  0.9141 -1.7284 -0.2821
16575SOL    HW252619   4.889   6.765   9.022  0.9354  0.7147  0.8972
16576SOL     OW52620   5.012   4.403   9.428 -0.4414  0.2499 -0.1565
16576SOL    HW152621   5.097   4.401   9.472  0.3005  1.6751 -1.4234
16576SOL    HW252622   4.966   4.477   9.467  0.3009  1.6531 -1.8286
16577SOL     OW52623   6.665   9.896   1.607 -0.0560  0.0040 -0.2273
16577SOL    HW152624   6.590   9.840   1.587 -0.7273  1.4423 -2.0784
16577SOL    HW252625   6.627   9.982   1.625  1.0867  0.5793 -0.4383
16578SOL     OW52626  10.457   1.856   0.254 -0.0466  0.0914 -0.1119
16578SOL    HW152627  10.507   1.837   0.333 -2.0797  0.7308  1.4044
16578SOL    HW252628  10.371   1.885   0.286  0.0531  3.4906 -2.4097
16579SOL     OW52629   2.684   5.574   9.235  0.7396  0.1554 -0.8708
16579SOL    HW152630   2.778   5.591   9.227  1.1001 -1.3716 -0.1915
16579SOL    HW252631   2.674   5.482   9.210  0.0630 -0.9586  2.9130
16580SOL     OW52632   8.387   0.016   5.087  0.0523 -0.1767 -0.1713
16580SOL    HW152633   8.336   0.007   5.006 -1.1095 -2.1696  0.6928
16580SOL    HW252634   8.376   0.107   5.112 -1.8371 -0.1666 -0.8574
16581SOL     OW52635   5.846   2.161   0.312  0.4858  0.2645 -0.5479
16581SOL    HW152636   5.774   2.216   0.343 -0.2136 -0.5642 -0.6363
16581SOL    HW252637   5.830   2.076   0.353  0.1643 -0.5551 -2.2515
16582SOL     OW52638   0.787   1.556   5.319 -0.1859  0.2827  0.9527
16582SOL    HW152639   0.811   1.589   5.232  0.6384 -0.4996  0.8642
16582SOL    HW252640   0.870   1.536   5.361 -0.6206 -1.9214  0.8851
16583SOL     OW52641   6.453   0.637   6.840 -0.4357 -0.1552  0.5635
16583SOL    HW152642   6.453   0.600   6.928  1.3362  1.5874  1.3705
16583SOL    HW252643   6.408   0.721   6.849 -0.2132  0.0526 -0.1703
16584SOL     OW52644   2.324   3.279   3.050  0.3336 -0.5325 -0.0436
16584SOL    HW152645   2.405   3.285   3.099  0.2348  0.9937 -0.0277
16584SOL    HW252646   2.255   3.272   3.116  0.4086 -1.5041 -0.0517
16585SOL     OW52647   8.626   3.690   9.166 -0.3502  0.2661  0.6375
16585SOL    HW152648   8.657   3.600   9.161 -0.6737  0.1742  0.2756
16585SOL    HW252649   8.548   3.692   9.111 -0.3955  0.7458  0.7155
16586SOL     OW52650   2.377   0.516   2.321 -0.7346 -0.3956 -0.4974
16586SOL    HW152651   2.302   0.573   2.340 -0.5194 -0.0961 -0.5339
16586SOL    HW252652   2.422   0.559   2.248 -0.0979 -0.1634  0.0191
16587SOL     OW52653   0.628   6.900   7.242 -0.0199 -0.3032 -0.0862
16587SOL    HW152654   0.538   6.910   7.211 -0.4279  2.9434  1.7748
16587SOL    HW252655   0.674   6.978   7.210  0.6949  0.8385  3.3272
16588SOL     OW52656   7.311   9.914  10.464 -0.1275 -0.1432  0.4764
16588SOL    HW152657   7.267   9.932  10.382 -0.9717 -0.1686  0.9184
16588SOL    HW252658   7.403   9.904  10.440 -0.3549 -0.0729 -0.4486
16589SOL     OW52659   3.883   6.168  10.523 -0.1074 -0.4771 -0.3243
16589SOL    HW152660   3.795   6.196  10.550  0.5592  0.8490  0.6233
16589SOL    HW252661   3.902   6.092  10.578 -0.6969 -0.8323 -0.6075
16590SOL     OW52662   8.269   4.342   5.832  0.1731 -0.3903 -0.2021
16590SOL    HW152663   8.229   4.305   5.753  0.5866 -0.9621 -0.1487
16590SOL    HW252664   8.233   4.430   5.838  0.9507  0.0702 -1.6551
16591SOL     OW52665   9.335   5.246   5.379  0.3575 -0.5395  0.9039
16591SOL    HW152666   9.381   5.329   5.372 -2.5537  1.0418 -2.4086
16591SOL    HW252667   9.253   5.267   5.423 -0.5300 -1.5163 -0.1862
16592SOL     OW52668   0.696   2.890   7.795 -0.2187  0.2237  0.1926
16592SOL    HW152669   0.729   2.975   7.765 -1.2657  0.2729 -0.8734
16592SOL    HW252670   0.666   2.846   7.716 -1.8161 -0.2006  0.9875
16593SOL     OW52671   0.143   0.149   6.080 -0.1751  0.1317 -0.5827
16593SOL    HW152672   0.191   0.087   6.134 -0.0525 -0.6200 -1.5336
16593SOL    HW252673   0.062   0.166   6.128  1.0871  1.5887  1.1572
16594SOL     OW52674  10.695  10.348   2.888  0.1334  0.5831  0.4043
16594SOL    HW152675  10.605  10.319   2.905  0.7220 -0.7021  1.5492
16594SOL    HW252676  10.689  10.400   2.809 -1.1228 -2.2566 -1.5336
16595SOL     OW52677   9.716   1.880   9.355 -0.0941  0.4403 -0.2568
16595SOL    HW152678   9.736   1.786   9.360  1.3013  0.7638  0.9978
16595SOL    HW252679   9.671   1.900   9.437  0.1151  0.9778 -0.2672
16596SOL     OW52680   5.198   5.621   4.470 -0.0169 -0.9538 -0.2133
16596SOL    HW152681   5.203   5.543   4.525  1.4686 -1.5209 -1.0815
16596SOL    HW252682   5.134   5.599   4.403  0.7257 -1.6341 -0.7210
16597SOL     OW52683   4.639   1.446   4.051 -0.0021 -0.2471 -0.3227
16597SOL    HW152684   4.607   1.380   4.113 -0.2919  1.8077  1.8631
16597SOL    HW252685   4.563   1.501   4.033  0.7865  1.0035  0.0109
16598SOL     OW52686   4.008   0.895   8.889  0.3488 -0.1166  0.2935
16598SOL    HW152687   4.014   0.800   8.878  2.2542 -0.2014  1.7236
16598SOL    HW252688   4.056   0.930   8.814  0.1307 -0.2794  0.0730
16599SOL     OW52689   0.115   5.965   7.620 -0.0091  0.3257 -0.0199
16599SOL    HW152690   0.086   5.906   7.551 -0.9882  1.1889 -0.3656
16599SOL    HW252691   0.210   5.969   7.609  0.0983 -1.2110  0.0549
16600SOL     OW52692   9.464   8.949   7.746  0.5216 -0.3181  0.4120
16600SOL    HW152693   9.391   8.914   7.796  0.4000  1.4566  1.5665
16600SOL    HW252694   9.532   8.966   7.811  1.6953 -1.2074 -0.5404
16601SOL     OW52695   0.541   7.061   7.796 -0.0104  0.3908  0.0653
16601SOL    HW152696   0.541   7.125   7.867 -0.2392  0.2825  0.1643
16601SOL    HW252697   0.455   7.072   7.754 -0.0419  0.1639  0.0695
16602SOL     OW52698   2.475   2.347   0.394 -0.2273  0.1553 -0.0100
16602SOL    HW152699   2.414   2.420   0.390 -0.2239  0.1189 -0.9840
16602SOL    HW252700   2.554   2.384   0.435 -1.2766 -0.1013  2.3821
16603SOL     OW52701   4.691   3.064   0.549 -0.0985  0.0787 -0.0775
16603SOL    HW152702   4.665   3.041   0.460 -0.7396  0.3437  0.0307
16603SOL    HW252703   4.652   2.995   0.604  0.4495 -0.1878 -0.0142
16604SOL     OW52704   1.462   5.365   5.170 -0.1322  0.0414 -0.4871
16604SOL    HW152705   1.376   5.334   5.199 -0.0051 -0.2414 -0.4062
16604SOL    HW252706   1.454   5.460   5.166 -0.4640  0.0104 -0.5273
16605SOL     OW52707   6.728   6.336   4.201  0.3288 -0.1467  0.1469
16605SOL    HW152708   6.781   6.286   4.265  1.5799 -0.3960 -1.0364
16605SOL    HW252709   6.771   6.421   4.197  0.6178 -0.3285 -0.7739
16606SOL     OW52710   7.338   6.317   8.769 -0.4543 -0.2948 -0.4556
16606SOL    HW152711   7.403   6.351   8.831 -1.5100 -1.2154  1.2351
16606SOL    HW252712   7.255   6.355   8.798 -1.1575 -1.7188 -0.5005
16607SOL     OW52713   5.635   1.557   0.271  0.0135 -0.0370  0.1306
16607SOL    HW152714   5.715   1.607   0.284  0.8005 -1.2220 -0.0354
16607SOL    HW252715   5.590   1.602   0.199  1.4022 -0.3954 -0.9945
16608SOL     OW52716   9.747   7.548   7.873  0.1125  0.0712  0.3622
16608SOL    HW152717   9.721   7.470   7.824  0.5440  0.3051 -0.2466
16608SOL    HW252718   9.665   7.595   7.887  0.2185  1.2817 -2.3747
16609SOL     OW52719   7.518   6.194  10.249 -0.1476 -0.3100 -0.2701
16609SOL    HW152720   7.557   6.281  10.260  0.8963 -0.6334 -1.3133
16609SOL    HW252721   7.465   6.182  10.328 -0.5219  1.3746 -0.2165
16610SOL     OW52722   8.207   8.119   6.264  0.4380  0.3704  0.2537
16610SOL    HW152723   8.205   8.078   6.350  1.0249  0.6579  0.4099
16610SOL    HW252724   8.143   8.070   6.212  1.4225 -1.0117  0.3000
16611SOL     OW52725   1.980   6.357   6.634  0.0766 -0.5653 -0.6085
16611SOL    HW152726   1.958   6.270   6.600 -0.3406 -0.2580 -1.1362
16611SOL    HW252727   1.924   6.417   6.585  0.4988  0.0242 -0.3808
16612SOL     OW52728   3.849   0.263   6.499  0.1767 -0.2751  0.6512
16612SOL    HW152729   3.814   0.181   6.464 -0.2402 -0.1421  0.7501
16612SOL    HW252730   3.780   0.328   6.483  1.0675  0.3773 -0.7169
16613SOL     OW52731   4.381   6.799   9.559  0.1244 -0.0864 -0.1318
16613SOL    HW152732   4.309   6.739   9.539 -0.7682 -0.1404  2.7071
16613SOL    HW252733   4.375   6.811   9.654  0.9415  3.6626 -0.4162
16614SOL     OW52734   5.377   7.633   5.928  0.4270 -0.4868 -0.5274
16614SOL    HW152735   5.460   7.668   5.895  0.6218  0.2566  0.6954
16614SOL    HW252736   5.402   7.554   5.976  0.0450 -2.1125 -2.8319
16615SOL     OW52737   7.040   7.909   6.232  0.4713  0.0607  0.4477
16615SOL    HW152738   7.071   7.823   6.260  0.2979  0.4368  1.8906
16615SOL    HW252739   6.951   7.893   6.201  0.8754 -0.4666 -0.4736
16616SOL     OW52740   0.082   7.679   8.186 -0.1559 -0.1328  0.2151
16616SOL    HW152741   0.173   7.652   8.199 -0.4415 -0.3594  1.9228
16616SOL    HW252742   0.081   7.773   8.204 -0.7512 -0.6298  3.3990
16617SOL     OW52743   7.815   1.425   0.484 -0.1830  0.3393  0.1640
16617SOL    HW152744   7.727   1.387   0.492 -0.0777  0.1018  0.1996
16617SOL    HW252745   7.874   1.356   0.514 -0.1005  1.1687  2.0764
16618SOL     OW52746   2.899   0.802   1.045 -0.0248  0.4874 -0.0449
16618SOL    HW152747   2.917   0.800   0.951 -1.4129  1.4795 -0.3638
16618SOL    HW252748   2.975   0.760   1.085  0.5355 -0.0641 -1.6130
16619SOL     OW52749   3.815   6.848   7.318 -0.0910  0.0063  0.2637
16619SOL    HW152750   3.759   6.819   7.390  0.4961 -0.5999  0.4896
16619SOL    HW252751   3.753   6.873   7.249 -0.6518 -0.8629  0.4218
16620SOL     OW52752   0.362   2.511  10.700  0.5154 -0.5611 -0.0382
16620SOL    HW152753   0.304   2.446  10.742 -3.1038  0.4876 -2.9157
16620SOL    HW252754   0.364   2.584  10.762 -0.1413 -1.1681  0.7306
16621SOL     OW52755   1.018   8.897   8.665 -0.6190  0.2423  0.0893
16621SOL    HW152756   1.109   8.880   8.686 -1.1492 -0.6799  1.8447
16621SOL    HW252757   1.015   8.988   8.638  0.9985 -0.0581 -1.2327
16622SOL     OW52758   7.832   7.273   2.780 -0.6181  0.0250 -0.6942
16622SOL    HW152759   7.885   7.285   2.701 -1.6449  0.4410 -1.3492
16622SOL    HW252760   7.778   7.196   2.761 -0.8785  0.1343 -0.4033
16623SOL     OW52761   9.635  10.279   4.811  0.0384 -0.4010 -0.1997
16623SOL    HW152762   9.606  10.198   4.770  1.2952 -1.4025  0.7889
16623SOL    HW252763   9.715  10.302   4.763 -1.1906  1.2547 -1.6108
16624SOL     OW52764   6.279   8.614   5.239 -0.2717 -0.5710  0.0777
16624SOL    HW152765   6.341   8.619   5.166 -0.5135 -0.8342 -0.1489
16624SOL    HW252766   6.333   8.590   5.315 -0.2803 -2.1227 -0.3760
16625SOL     OW52767  10.023   7.171   3.561 -0.3556  0.0753 -0.4883
16625SOL    HW152768  10.064   7.202   3.480  0.4594 -0.2626 -0.2076
16625SOL    HW252769  10.033   7.244   3.623 -0.5531  0.1463 -0.5360
16626SOL     OW52770   2.558   1.877   4.265  0.4443 -0.3686 -0.0047
16626SOL    HW152771   2.516   1.842   4.187 -0.3833  1.7537 -0.5696
16626SOL    HW252772   2.644   1.906   4.236  0.0818  0.5560 -0.2061
16627SOL     OW52773   0.918   3.570   9.462 -0.3060  0.0681  0.1197
16627SOL    HW152774   0.929   3.476   9.448 -0.0067  0.0022  0.7240
16627SOL    HW252775   0.855   3.576   9.534 -0.6200  0.3418 -0.1752
16628SOL     OW52776   3.357   2.588   7.939 -0.0007 -0.8175 -0.2555
16628SOL    HW152777   3.281   2.551   7.894 -0.6654 -0.3671  0.4794
16628SOL    HW252778   3.429   2.577   7.876 -0.9698  0.1157 -1.5845
16629SOL     OW52779   3.416   1.008   9.155 -0.4016 -0.0409  0.0703
16629SOL    HW152780   3.493   0.952   9.170  0.7817  1.1532 -1.2917
16629SOL    HW252781   3.395   1.043   9.242  0.7193 -0.2391  0.4391
16630SOL     OW52782  10.509   0.647   0.188  0.0990 -0.4428  0.4910
16630SOL    HW152783  10.553   0.571   0.150  0.3822 -0.6294  1.1696
16630SOL    HW252784  10.432   0.660   0.133  0.1120 -1.1484  0.2919
16631SOL     OW52785   1.232   4.286  10.199 -0.2226 -0.2064  0.1187
16631SOL    HW152786   1.273   4.371  10.217 -0.5362 -0.4118  2.0243
16631SOL    HW252787   1.273   4.257  10.118  1.0416  1.0577  0.2531
16632SOL     OW52788   4.363   6.933   7.372 -0.1650  0.1038 -0.2941
16632SOL    HW152789   4.376   6.897   7.284 -0.5746  0.7678 -0.6398
16632SOL    HW252790   4.309   7.011   7.358  0.8176  0.9380  0.4014
16633SOL     OW52791  10.627   7.954   9.970  0.8254 -0.4924  0.9790
16633SOL    HW152792  10.702   7.916  10.017  1.5423  0.5043  0.6749
16633SOL    HW252793  10.607   7.891   9.902  2.3442 -0.1143  0.1427
16634SOL     OW52794   0.853   8.798   9.516  0.8352  0.0179 -0.2208
16634SOL    HW152795   0.900   8.873   9.480  2.0196 -0.8175 -0.4693
16634SOL    HW252796   0.876   8.725   9.459 -0.4068 -0.5304 -0.0658
16635SOL     OW52797   9.879   2.243   5.279  0.1753 -0.2598 -0.2651
16635SOL    HW152798   9.859   2.207   5.366 -1.7347  1.4424  0.0862
16635SOL    HW252799   9.924   2.326   5.298 -2.9905  1.7075 -0.6741
16636SOL     OW52800   3.101   8.809  10.624  0.3928 -0.1160  0.6253
16636SOL    HW152801   3.195   8.815  10.643  0.5997 -0.3135 -0.2883
16636SOL    HW252802   3.096   8.812  10.529 -0.4259 -1.4291  0.6099
16637SOL     OW52803   2.201   5.698   0.360  0.0465 -0.0151  0.2314
16637SOL    HW152804   2.109   5.714   0.338  0.5343  0.0709 -1.9761
16637SOL    HW252805   2.235   5.785   0.381 -0.1224  0.1212 -0.0460
16638SOL     OW52806   9.423   9.167   5.861 -0.6907  0.2635  0.2067
16638SOL    HW152807   9.422   9.082   5.904  1.6040 -0.1431 -0.4021
16638SOL    HW252808   9.411   9.230   5.932  0.1088 -0.4938  1.0468
16639SOL     OW52809   4.127   8.956   5.528 -0.4081  1.2531  0.5455
16639SOL    HW152810   4.222   8.964   5.540 -0.1410  0.9205 -1.0687
16639SOL    HW252811   4.113   8.975   5.436 -1.6583 -0.7019  0.2661
16640SOL     OW52812   4.451  10.422   2.871 -0.6397  0.0109  0.3565
16640SOL    HW152813   4.431  10.488   2.938  1.7952  0.0103  1.1667
16640SOL    HW252814   4.546  10.418   2.868 -0.6961 -1.5721 -1.5982
16641SOL     OW52815   0.248   1.540   0.934  0.4508  0.2254  0.2451
16641SOL    HW152816   0.257   1.556   0.841  0.3950  0.5564  0.2944
16641SOL    HW252817   0.315   1.475   0.955 -0.6941 -1.2037 -0.3584
16642SOL     OW52818   7.203   0.720   0.952  0.1354  0.7536 -0.3831
16642SOL    HW152819   7.160   0.635   0.961 -0.5580  1.3155  2.7275
16642SOL    HW252820   7.291   0.699   0.922 -0.0270 -1.0729  0.2870
16643SOL     OW52821   8.048  10.684   8.459 -0.0927  0.6432  0.4428
16643SOL    HW152822   8.031  10.774   8.485  1.0143  1.0497 -0.1440
16643SOL    HW252823   7.989  10.669   8.385  1.5624  1.8351 -1.2075
16644SOL     OW52824   3.657   4.968   2.125  0.0972  0.4533  0.4052
16644SOL    HW152825   3.584   4.912   2.150  0.9555 -1.1820 -0.5733
16644SOL    HW252826   3.620   5.031   2.064 -0.5539 -0.1351  0.1845
16645SOL     OW52827   9.295  10.027   6.926 -0.0442  0.1862 -0.1299
16645SOL    HW152828   9.202  10.033   6.945 -0.1349 -1.8205  0.2812
16645SOL    HW252829   9.303   9.956   6.863  1.2387 -0.0545  0.2624
16646SOL     OW52830   1.182   8.546   2.867 -0.1767 -0.5021 -0.3530
16646SOL    HW152831   1.145   8.492   2.937 -1.8553  0.5397 -0.3931
16646SOL    HW252832   1.275   8.526   2.869 -0.4242 -1.7294  1.0862
16647SOL     OW52833   5.621   2.662   3.942 -1.1094 -0.0667  0.3810
16647SOL    HW152834   5.698   2.618   3.978 -0.9407  0.7742  1.0756
16647SOL    HW252835   5.654   2.708   3.865 -0.5232  1.6517  1.6003
16648SOL     OW52836   3.659   5.577   5.974 -0.5834  0.7244 -0.0509
16648SOL    HW152837   3.659   5.651   5.914  0.8262  1.3081  0.6393
16648SOL    HW252838   3.585   5.594   6.033  0.7903  2.5572  1.2304
16649SOL     OW52839   2.465   2.362   1.024  0.1818 -0.1529  0.3334
16649SOL    HW152840   2.449   2.436   0.966 -0.8274 -2.0765 -2.0141
16649SOL    HW252841   2.556   2.373   1.053  0.0531  1.9588  0.0619
16650SOL     OW52842   8.688   1.469   4.439  0.1633  0.3113  0.4700
16650SOL    HW152843   8.598   1.440   4.457 -0.4826  2.7664  1.6682
16650SOL    HW252844   8.704   1.538   4.504  2.5164  0.7357 -0.4617
16651SOL     OW52845   0.080   3.846   4.665 -0.2211  0.0320  0.3126
16651SOL    HW152846   0.064   3.940   4.656 -0.2594 -0.0098 -0.0435
16651SOL    HW252847  -0.003   3.811   4.700 -0.9721 -0.1949 -1.5984
16652SOL     OW52848   9.805  10.525   4.116  0.0682  0.1728  0.4282
16652SOL    HW152849   9.797  10.498   4.208 -1.2593 -1.4242 -0.1148
16652SOL    HW252850   9.895  10.501   4.093  0.4193  0.5984  1.3018
16653SOL     OW52851   1.130   1.382   1.799  0.1476 -0.1999  0.0291
16653SOL    HW152852   1.129   1.469   1.759 -0.7329  0.2221  0.9339
16653SOL    HW252853   1.038   1.363   1.817  0.3900 -1.0603  0.4020
16654SOL     OW52854  10.123   3.298   5.400 -0.3184 -0.3577 -0.2349
16654SOL    HW152855  10.043   3.343   5.375  1.2724  1.4944 -2.4159
16654SOL    HW252856  10.166   3.277   5.316  1.3646 -1.4955  0.8473
16655SOL     OW52857   3.973   6.757  10.659  0.7283  0.2176 -0.8024
16655SOL    HW152858   3.893   6.704  10.668  0.3641  0.6900 -1.2582
16655SOL    HW252859   3.962   6.804  10.577  2.2783 -1.0660 -1.8197
16656SOL     OW52860   3.090   5.077   6.528  0.4336 -0.0035  0.0911
16656SOL    HW152861   3.074   5.163   6.488  2.0035  1.9743  3.2834
16656SOL    HW252862   3.183   5.061   6.511  0.5609 -0.2257  0.9984
16657SOL     OW52863   7.355   3.072  10.446  0.2715 -0.0615 -0.4171
16657SOL    HW152864   7.390   3.121  10.372  0.6331 -1.2151 -1.0216
16657SOL    HW252865   7.385   3.121  10.523 -0.1933  1.2045 -1.0146
16658SOL     OW52866   8.743   0.071   0.446  0.6723 -0.5050 -0.5361
16658SOL    HW152867   8.798   0.101   0.374  1.6032 -2.7448 -0.8494
16658SOL    HW252868   8.706  -0.011   0.415  1.4048 -1.7292  1.6363
16659SOL     OW52869   5.992   4.649   9.483 -0.2409 -0.0278  0.1759
16659SOL    HW152870   6.070   4.643   9.539 -0.9112 -0.5876  1.0800
16659SOL    HW252871   5.932   4.584   9.518 -1.1696  0.4686 -0.4381
16660SOL     OW52872   4.796   9.644   6.471  0.3914 -0.1163 -0.5965
16660SOL    HW152873   4.785   9.612   6.560  1.8326  1.4323  0.1925
16660SOL    HW252874   4.713   9.686   6.450 -0.4239 -1.6001 -0.5220
16661SOL     OW52875   1.909   6.985  10.408  0.1591 -0.5722 -0.3116
16661SOL    HW152876   1.952   6.965  10.491  0.7873 -0.1597 -0.5319
16661SOL    HW252877   1.968   6.949  10.341 -0.1314 -0.5294 -0.5949
16662SOL     OW52878  10.120   6.607   2.201  0.4780 -0.4212 -0.6336
16662SOL    HW152879  10.095   6.697   2.181 -3.0542 -0.8692  0.9816
16662SOL    HW252880  10.196   6.614   2.258 -0.6552  1.6534  0.7189
16663SOL     OW52881   6.292   3.133   9.947  0.0878  0.2788  0.4884
16663SOL    HW152882   6.203   3.167   9.941  0.4461  1.0200 -1.1085
16663SOL    HW252883   6.347   3.211   9.956  0.7248 -0.0309 -0.5411
16664SOL     OW52884   9.845   6.734   9.215  0.0311 -0.1486 -0.1077
16664SOL    HW152885   9.818   6.798   9.150  1.2449 -0.7198 -1.2181
16664SOL    HW252886   9.763   6.693   9.243 -0.5076 -0.0285 -1.4243
16665SOL     OW52887   5.083   2.707   1.868  1.1092 -0.0647  0.7691
16665SOL    HW152888   5.177   2.716   1.860  0.8786  1.0542 -1.1848
16665SOL    HW252889   5.063   2.623   1.827  1.2374 -0.3421  1.2598
16666SOL     OW52890   2.337   1.563   5.514 -0.0319  0.3382 -0.4051
16666SOL    HW152891   2.342   1.565   5.610 -1.4894 -1.5099 -0.2276
16666SOL    HW252892   2.342   1.655   5.488 -0.5566  0.9694  1.5100
16667SOL     OW52893   9.709   3.438   9.425 -0.1567  0.3282  0.8744
16667SOL    HW152894   9.730   3.395   9.342 -2.3775  0.6076  0.0874
16667SOL    HW252895   9.720   3.531   9.407 -4.0948  0.7458 -0.4190
16668SOL     OW52896   0.016   9.784   6.876  0.1856  0.5324  0.3516
16668SOL    HW152897   0.085   9.826   6.928  0.4129  0.7295 -0.1000
16668SOL    HW252898   0.047   9.695   6.862 -0.5295  0.0427  1.7362
16669SOL     OW52899   9.435   8.220   1.748  0.0100 -0.0228  0.1171
16669SOL    HW152900   9.393   8.301   1.779  1.9412  0.5974  1.2413
16669SOL    HW252901   9.375   8.187   1.680 -1.2091  1.9307  0.1634
16670SOL     OW52902   0.561   1.953   9.405  0.5376 -0.1504 -0.1078
16670SOL    HW152903   0.567   1.964   9.500  1.8271 -1.0040 -0.0683
16670SOL    HW252904   0.633   1.894   9.383 -0.3518 -0.7567 -1.4986
16671SOL     OW52905   0.563   7.915   3.097  0.6147 -0.2035  0.2265
16671SOL    HW152906   0.509   7.891   3.172 -0.9443  1.1784 -0.3977
16671SOL    HW252907   0.621   7.840   3.085 -0.9229 -1.6233  1.1378
16672SOL     OW52908   3.369   6.347   3.920 -0.3614 -0.9257  0.0173
16672SOL    HW152909   3.403   6.346   3.831  1.5836 -0.8567  0.7190
16672SOL    HW252910   3.441   6.314   3.974 -1.7142 -1.5890  1.5021
16673SOL     OW52911   1.899  10.506   6.533 -0.2080 -0.2440 -0.0521
16673SOL    HW152912   1.914  10.434   6.471  3.3233  1.4803 -1.4647
16673SOL    HW252913   1.828  10.557   6.494 -0.9383 -1.4673 -0.3864
16674SOL     OW52914   1.837   2.793  10.375  0.0989  0.0635 -0.5173
16674SOL    HW152915   1.874   2.792  10.287  1.0063  1.4844 -0.1741
16674SOL    HW252916   1.913   2.790  10.433 -0.5037 -2.0653  0.2864
16675SOL     OW52917  10.220   7.728   5.498 -0.0140  0.0271 -0.1397
16675SOL    HW152918  10.224   7.818   5.467  0.8160  0.4223  1.0579
16675SOL    HW252919  10.311   7.706   5.520  0.1045 -1.7249 -2.0836
16676SOL     OW52920   4.172   9.850   1.783 -0.4681 -0.3920 -0.4199
16676SOL    HW152921   4.197   9.922   1.841  1.9997 -1.8208  0.4007
16676SOL    HW252922   4.132   9.785   1.841  1.2930 -1.4899 -0.3683
16677SOL     OW52923   5.188   3.283   9.290 -0.0337  0.2618  0.0961
16677SOL    HW152924   5.133   3.348   9.334  0.9832  2.2519 -1.4116
16677SOL    HW252925   5.272   3.290   9.335 -0.0808 -0.4520  0.2998
16678SOL     OW52926   6.453   0.888   3.082  0.3522  0.0929 -0.0628
16678SOL    HW152927   6.368   0.916   3.046 -0.2094 -2.2051 -0.6785
16678SOL    HW252928   6.513   0.896   3.007  0.4014  0.4365  0.0084
16679SOL     OW52929   2.581   2.394   7.601  0.8673  0.4813  0.4993
16679SOL    HW152930   2.656   2.446   7.573  0.8359  0.4075  0.2707
16679SOL    HW252931   2.601   2.368   7.691  1.1303  0.4339  0.4269
16680SOL     OW52932   3.104   0.488   2.086 -0.6108  0.1587 -0.1672
16680SOL    HW152933   3.056   0.561   2.047 -0.3095  0.5040  0.1016
16680SOL    HW252934   3.036   0.434   2.126 -0.8149  0.4110 -0.1685
16681SOL     OW52935   7.119  10.728   0.756  0.5004  0.2558 -0.4808
16681SOL    HW152936   7.170  10.739   0.676  2.8430 -1.3000  0.6587
16681SOL    HW252937   7.183  10.697   0.821 -1.4748  0.5134  1.7363
16682SOL     OW52938   7.116   4.272   4.997  0.5600 -0.1572 -0.6486
16682SOL    HW152939   7.108   4.257   4.902 -2.9928 -1.7490 -0.2692
16682SOL    HW252940   7.134   4.365   5.005  1.3778 -0.0557 -2.8823
16683SOL     OW52941   8.703   7.972   2.720  0.0950  0.2755  0.3272
16683SOL    HW152942   8.776   7.960   2.659 -1.4659  1.6673 -1.9235
16683SOL    HW252943   8.698   8.066   2.734 -0.3624  0.0740  1.6618
16684SOL     OW52944   5.416   6.106   0.995  0.3705  0.4418  0.1796
16684SOL    HW152945   5.422   6.045   0.922  2.3434  1.7920 -0.8849
16684SOL    HW252946   5.446   6.055   1.071  2.0573  0.0291 -0.6926
16685SOL     OW52947   6.159   3.590   1.000  0.0178 -0.0111 -0.0791
16685SOL    HW152948   6.176   3.583   0.906 -2.0133 -1.1132 -0.4349
16685SOL    HW252949   6.126   3.679   1.012  0.6395  0.2580 -0.3368
16686SOL     OW52950   4.359   0.486   3.597  0.3507  0.0633  0.5183
16686SOL    HW152951   4.350   0.402   3.552 -0.1546  0.7876 -0.7796
16686SOL    HW252952   4.453   0.507   3.589  0.0468  0.9379 -1.7179
16687SOL     OW52953   0.142   4.822  10.740 -0.3387 -0.5322  0.2080
16687SOL    HW152954   0.086   4.889  10.699 -0.8766 -2.6428 -2.8185
16687SOL    HW252955   0.230   4.858  10.734 -0.7597  0.5191  0.0289
16688SOL     OW52956   9.820   4.990   3.061  0.3909 -0.4411 -0.6923
16688SOL    HW152957   9.768   5.054   3.012  1.7196  1.5932  0.4101
16688SOL    HW252958   9.884   4.957   2.998  0.8731  0.7252 -0.8349
16689SOL     OW52959   4.071   2.749   2.486  0.2500  0.7108 -0.7389
16689SOL    HW152960   4.015   2.682   2.446  0.0479  0.3118  0.1989
16689SOL    HW252961   4.013   2.798   2.544  1.2373 -1.0367  1.8724
16690SOL     OW52962   3.367   2.081   2.711  0.6947 -0.2680 -0.5705
16690SOL    HW152963   3.283   2.044   2.683  1.1416 -0.8122 -1.2400
16690SOL    HW252964   3.368   2.169   2.674  0.2478 -0.1064 -0.2093
16691SOL     OW52965   6.339   7.661   2.858 -0.2300 -0.5509  0.2869
16691SOL    HW152966   6.366   7.596   2.923  1.6021 -0.7255 -0.5845
16691SOL    HW252967   6.399   7.734   2.872 -1.5202  0.5033  0.4882
16692SOL     OW52968   2.157   8.840   1.735 -0.0471 -0.7246  0.1353
16692SOL    HW152969   2.223   8.798   1.790  1.4064 -0.6329 -1.4590
16692SOL    HW252970   2.146   8.781   1.661 -0.0655  0.3493 -0.7339
16693SOL     OW52971   8.904   9.788   7.101 -0.0018  0.4494 -0.3518
16693SOL    HW152972   8.884   9.706   7.145  0.9121  0.9640  1.1094
16693SOL    HW252973   8.954   9.838   7.165 -1.6568  2.7040 -0.7092
16694SOL     OW52974   3.448   7.688  10.643  0.1127  0.5714  0.2811
16694SOL    HW152975   3.427   7.625  10.712  0.8357 -3.1442 -2.5833
16694SOL    HW252976   3.531   7.658  10.607  0.9276  3.7543 -0.8087
16695SOL     OW52977   1.637   9.322   3.766 -0.2687 -0.4685  0.7175
16695SOL    HW152978   1.550   9.355   3.741 -0.4815 -1.7994 -0.4143
16695SOL    HW252979   1.619   9.253   3.829  0.0853  0.3307  1.7304
16696SOL     OW52980   2.965   3.242   4.528 -0.4361 -0.0511  0.1186
16696SOL    HW152981   3.046   3.212   4.568 -0.0390  1.8852  0.9143
16696SOL    HW252982   2.911   3.271   4.602 -0.7384  1.1860 -0.5576
16697SOL     OW52983   9.950   1.960   2.364 -0.2191 -0.2088  0.6060
16697SOL    HW152984  10.018   2.018   2.399 -1.6342  1.1998  1.1522
16697SOL    HW252985   9.996   1.902   2.304  1.1471  2.1903 -0.8169
16698SOL     OW52986   5.881  10.179   3.945 -0.4191  0.0429  0.8579
16698SOL    HW152987   5.911  10.100   3.901  1.6785  0.7437  0.9279
16698SOL    HW252988   5.834  10.227   3.877 -0.4358 -0.5844  0.4151
16699SOL     OW52989   5.089  10.609   6.934  0.1760 -0.5835  0.2631
16699SOL    HW152990   5.018  10.593   6.872 -0.0956  0.2582  0.3435
16699SOL    HW252991   5.044  10.633   7.015  0.5222 -1.8263  0.8531
16700SOL     OW52992   9.540   0.142   1.448 -0.3173 -0.4474 -0.0221
16700SOL    HW152993   9.545   0.048   1.433  0.7228 -0.5438  0.7878
16700SOL    HW252994   9.588   0.180   1.374 -0.1282 -0.5889  0.0269
16701SOL     OW52995   6.373   5.652  10.376 -0.3218 -0.0147 -0.6968
16701SOL    HW152996   6.455   5.607  10.397 -1.3246 -1.5723  0.0035
16701SOL    HW252997   6.306   5.585  10.382 -1.8784  1.5277  0.2006
16702SOL     OW52998   0.183   5.127   3.746  0.2332  0.9056  0.0875
16702SOL    HW152999   0.112   5.169   3.794  1.1943  1.8964  0.6837
16702SOL    HW253000   0.252   5.193   3.743  1.4767 -0.3429  0.3232
16703SOL     OW53001   8.593   8.633   1.289  0.2951 -0.3664  0.5174
16703SOL    HW153002   8.570   8.724   1.272 -0.0841 -0.5906 -0.2457
16703SOL    HW253003   8.646   8.607   1.213 -1.1470 -1.3051 -0.2239
16704SOL     OW53004   6.026   3.750   6.603 -0.2255  0.3922 -0.0243
16704SOL    HW153005   5.955   3.687   6.607 -0.2294  0.4846  2.0073
16704SOL    HW253006   6.102   3.700   6.573 -0.8383  0.0434 -1.0416
16705SOL     OW53007   3.521   7.242   1.500 -0.5277  0.0172 -0.1051
16705SOL    HW153008   3.602   7.275   1.538 -1.3594  0.6523  1.1912
16705SOL    HW253009   3.546   7.207   1.415  1.1123  0.1275  0.3117
16706SOL     OW53010   6.956   5.563   4.083  0.1474 -0.6234  0.1747
16706SOL    HW153011   6.876   5.542   4.131  0.5490 -0.6681  0.8373
16706SOL    HW253012   6.941   5.650   4.047 -1.1026 -1.5266 -1.6724
16707SOL     OW53013   8.880   4.343   9.569 -0.6181  0.4871 -0.1019
16707SOL    HW153014   8.846   4.311   9.485 -1.1979 -0.6404  0.5258
16707SOL    HW253015   8.967   4.376   9.549 -0.3932 -0.5891 -0.9965
16708SOL     OW53016   5.581   9.153   9.257  0.0905 -0.3750  0.1763
16708SOL    HW153017   5.546   9.242   9.251  1.7057  0.4494  1.8977
16708SOL    HW253018   5.663   9.156   9.207  1.6095 -0.0118  2.5340
16709SOL     OW53019   4.462   4.286   7.327  0.3328 -0.0108 -0.0188
16709SOL    HW153020   4.472   4.227   7.252  1.1936  0.2622 -0.1321
16709SOL    HW253021   4.487   4.233   7.403  2.3154  0.5020 -0.2407
16710SOL     OW53022   7.923   2.477   0.424 -0.5299 -0.3946 -0.2561
16710SOL    HW153023   7.903   2.528   0.503  0.5810  0.7480 -0.6985
16710SOL    HW253024   7.864   2.511   0.357 -2.2605 -2.1062  0.2929
16711SOL     OW53025   4.059   7.197   7.538 -0.3320  0.1004  0.5699
16711SOL    HW153026   4.152   7.203   7.559 -0.3944 -0.1338  0.9211
16711SOL    HW253027   4.044   7.104   7.524 -0.3274  0.2304 -0.3758
16712SOL     OW53028   3.593   0.784   5.356 -0.6236 -0.2765 -0.3469
16712SOL    HW153029   3.524   0.738   5.309 -0.9955 -0.0367 -0.0382
16712SOL    HW253030   3.549   0.825   5.430 -1.0182  3.2797 -2.3000
16713SOL     OW53031   3.184   6.317   1.152 -0.0736  1.1943 -0.2355
16713SOL    HW153032   3.141   6.398   1.180 -0.5543  0.2395  2.0333
16713SOL    HW253033   3.257   6.306   1.214  0.5553  0.3796 -1.0971
16714SOL     OW53034   9.860   8.354   1.169 -0.6363  0.3685 -0.4086
16714SOL    HW153035   9.843   8.403   1.250 -0.1318  1.9267 -1.2018
16714SOL    HW253036   9.878   8.265   1.199 -2.1744  0.4804  1.0576
16715SOL     OW53037   6.741   9.387   2.964 -0.0951 -0.1591  0.0951
16715SOL    HW153038   6.714   9.310   3.014 -0.6913 -0.6888 -1.0038
16715SOL    HW253039   6.817   9.421   3.011 -0.9927 -0.2752  1.6903
16716SOL     OW53040   1.169   8.195   0.651  0.2488  0.2849 -0.4752
16716SOL    HW153041   1.181   8.270   0.709 -1.6485 -0.3604  0.8667
16716SOL    HW253042   1.191   8.119   0.705 -0.4595 -0.2683 -0.9329
16717SOL     OW53043   6.533   0.652   5.487 -0.5645 -0.1714 -0.5245
16717SOL    HW153044   6.500   0.608   5.565 -1.2325  0.9027 -0.1896
16717SOL    HW253045   6.514   0.745   5.501 -0.0472  0.1212 -1.6435
16718SOL     OW53046   9.343   7.396   5.791  0.1221  0.1601 -0.0514
16718SOL    HW153047   9.356   7.305   5.819 -0.8939  0.0254  0.0079
16718SOL    HW253048   9.369   7.396   5.699  0.2474 -0.1573 -0.0191
16719SOL     OW53049   2.964   0.112   7.412  0.5065  0.1840 -0.4273
16719SOL    HW153050   3.028   0.091   7.344  1.1168 -0.0676  0.2183
16719SOL    HW253051   2.943   0.028   7.452  0.0450  0.3148 -0.3897
16720SOL     OW53052   9.277   6.116   5.181  0.3493  0.4519 -0.1818
16720SOL    HW153053   9.250   6.195   5.227  1.6388  0.0860  1.3033
16720SOL    HW253054   9.294   6.053   5.251  3.3579  0.1534 -1.0536
16721SOL     OW53055   5.335   7.412  10.479 -0.2256 -0.5132 -0.0035
16721SOL    HW153056   5.334   7.507  10.483  0.4455 -0.4920 -0.2286
16721SOL    HW253057   5.387   7.386  10.556  1.2077 -0.6150 -0.9718
16722SOL     OW53058  10.440   8.644   0.195  0.0484 -0.0049 -0.3276
16722SOL    HW153059  10.521   8.685   0.226  0.4509  0.0785 -1.4425
16722SOL    HW253060  10.427   8.570   0.254  0.3470  0.6017  0.5276
16723SOL     OW53061   8.579   4.086   0.471 -0.0543 -1.3812 -0.4606
16723SOL    HW153062   8.590   3.996   0.439  0.4201 -0.6318 -2.5660
16723SOL    HW253063   8.521   4.127   0.406  2.5447  0.7924 -1.5672
16724SOL     OW53064   8.870   0.900   2.066 -0.2119  0.1667  0.2420
16724SOL    HW153065   8.883   0.825   2.008  0.6037  0.9610 -0.6531
16724SOL    HW253066   8.800   0.951   2.025 -2.2635 -1.1035  1.9502
16725SOL     OW53067   5.846   2.106   4.418  0.3183 -0.1667 -0.4091
16725SOL    HW153068   5.782   2.078   4.483 -0.5342  1.6511 -0.3889
16725SOL    HW253069   5.861   2.029   4.364  0.7673 -1.6227  1.6735
16726SOL     OW53070   1.177   2.550   7.591 -0.1797 -0.2253 -0.1289
16726SOL    HW153071   1.112   2.507   7.535  1.6441 -1.8892 -1.0899
16726SOL    HW253072   1.230   2.602   7.530 -0.2567  0.7088  0.5746
16727SOL     OW53073   8.738   5.668   6.974  0.1542 -0.3410  0.1397
16727SOL    HW153074   8.665   5.711   6.929 -0.0415  0.4147  1.1595
16727SOL    HW253075   8.731   5.576   6.947  0.2634  0.1376 -1.6491
16728SOL     OW53076   9.202   9.434   3.853 -0.1174 -0.2439 -0.3591
16728SOL    HW153077   9.262   9.484   3.798 -0.7645 -0.4595 -1.2876
16728SOL    HW253078   9.192   9.350   3.807 -1.7159  0.0726 -0.6359
16729SOL     OW53079   4.785   2.457   0.919 -0.2096  0.7700  0.2276
16729SOL    HW153080   4.868   2.455   0.966  0.0996  1.0251 -0.2853
16729SOL    HW253081   4.769   2.366   0.894  1.2731  1.0064 -1.9293
16730SOL     OW53082   2.285   9.398   4.241 -0.0380  0.3487 -0.0233
16730SOL    HW153083   2.212   9.339   4.221 -0.7323  2.0764 -3.2767
16730SOL    HW253084   2.360   9.340   4.253 -1.1337 -1.2843 -0.7625
16731SOL     OW53085   4.216   1.713   8.076 -0.4796  0.3057 -0.4601
16731SOL    HW153086   4.174   1.768   8.143 -1.4568 -1.0693  0.1120
16731SOL    HW253087   4.163   1.726   7.998 -2.4588 -1.8126  0.3918
16732SOL     OW53088   1.618   4.253   0.387  0.3237  0.5530  0.0461
16732SOL    HW153089   1.549   4.237   0.322 -0.7102  0.7675  1.0633
16732SOL    HW253090   1.698   4.219   0.346 -0.4024  0.1884 -1.1083
16733SOL     OW53091   2.081   8.280   2.170  0.1921 -0.0105  0.6707
16733SOL    HW153092   2.027   8.212   2.130 -2.1896  2.4553 -0.6921
16733SOL    HW253093   2.165   8.275   2.124 -0.1748 -1.4917  0.1026
16734SOL     OW53094   7.744   9.227   9.663  0.6707  0.5914 -0.3911
16734SOL    HW153095   7.797   9.198   9.589  0.2282  1.7641 -1.1962
16734SOL    HW253096   7.727   9.147   9.713  1.2536 -0.1700 -1.3649
16735SOL     OW53097   2.815   3.287   1.711 -0.0526 -0.0197  0.1411
16735SOL    HW153098   2.872   3.241   1.774 -0.1966  0.4463  0.6228
16735SOL    HW253099   2.813   3.377   1.743 -2.1976 -0.3141  0.9601
16736SOL     OW53100   3.657   0.341   5.714 -0.0250  0.2841 -0.6273
16736SOL    HW153101   3.692   0.405   5.777  0.6566 -0.7093  0.0227
16736SOL    HW253102   3.734   0.295   5.681 -0.5752 -0.8155 -0.4077
16737SOL     OW53103   2.450   1.071   3.370 -0.2727  0.1449  0.0246
16737SOL    HW153104   2.432   1.141   3.307 -0.2372  0.8179  0.7441
16737SOL    HW253105   2.364   1.038   3.394 -0.4826  1.6839  1.5936
16738SOL     OW53106   3.832   9.300   4.193 -0.1383 -0.6069 -0.7558
16738SOL    HW153107   3.824   9.372   4.131 -0.7695 -0.8660 -0.9890
16738SOL    HW253108   3.923   9.271   4.185  0.2353  0.4331 -0.3432
16739SOL     OW53109   3.283   8.851   0.296 -0.2009 -0.1015 -0.0612
16739SOL    HW153110   3.255   8.901   0.219  0.9502 -0.7519 -0.9240
16739SOL    HW253111   3.348   8.906   0.338 -1.7042  0.8008  1.1758
16740SOL     OW53112   6.066   4.308   5.056  0.1947  0.2394 -0.2565
16740SOL    HW153113   6.144   4.268   5.094  0.3792  0.2746 -0.5943
16740SOL    HW253114   5.994   4.252   5.085  0.3470  0.1911  0.0338
16741SOL     OW53115   8.198  10.484   4.251 -0.0039 -0.0409  0.1571
16741SOL    HW153116   8.235  10.517   4.333  1.2805  0.3700 -0.5475
16741SOL    HW253117   8.105  10.472   4.269  0.2509  0.0462  1.6631
16742SOL     OW53118   5.825   6.907   2.072  0.0897 -0.0319  0.0918
16742SOL    HW153119   5.872   6.988   2.091  1.6558 -1.1004  1.0563
16742SOL    HW253120   5.745   6.913   2.124  1.5520 -0.2932  2.5343
16743SOL     OW53121   8.322   0.113   3.810  0.4043  0.4885 -0.4724
16743SOL    HW153122   8.232   0.146   3.814  0.4374  0.4982  0.3560
16743SOL    HW253123   8.330   0.057   3.887  0.4994 -1.1027 -1.5660
16744SOL     OW53124   8.574   0.954   3.041  0.1274  0.5737 -0.1772
16744SOL    HW153125   8.604   0.866   3.016 -1.3422 -0.1663  0.5039
16744SOL    HW253126   8.595   0.960   3.135  2.4819  1.9690 -0.7187
16745SOL     OW53127   6.568   1.580   0.278 -0.5900 -0.1915  0.1622
16745SOL    HW153128   6.655   1.576   0.238 -0.6886  0.1342 -0.0895
16745SOL    HW253129   6.540   1.671   0.265 -1.3303 -0.5127 -0.5377
16746SOL     OW53130   4.962   8.301   4.726  0.1813  0.4298  0.3091
16746SOL    HW153131   5.014   8.310   4.647 -0.4887  0.2432 -0.1564
16746SOL    HW253132   4.978   8.382   4.775  0.3712  0.6669 -0.1456
16747SOL     OW53133  10.294   1.709   5.721 -0.0655 -0.1474  0.7075
16747SOL    HW153134  10.345   1.652   5.778 -0.6796  1.5650  3.1122
16747SOL    HW253135  10.222   1.740   5.775 -0.9818  1.1994 -1.1562
16748SOL     OW53136   2.164   1.025   8.439  0.4290  0.3917  0.1328
16748SOL    HW153137   2.167   1.058   8.529 -0.0980 -1.9932  1.0937
16748SOL    HW253138   2.126   1.097   8.389  0.3807  1.6436  1.8743
16749SOL     OW53139   5.432   1.281   5.574 -0.5287  0.1733 -0.0371
16749SOL    HW153140   5.362   1.262   5.511 -0.5958 -0.3630  0.1896
16749SOL    HW253141   5.386   1.316   5.650 -0.5604 -0.1896  0.1162
16750SOL     OW53142   6.015   0.934   7.434 -0.8084 -0.4361  1.0291
16750SOL    HW153143   5.923   0.955   7.453 -0.6019  0.4507  1.1259
16750SOL    HW253144   6.056   1.020   7.419 -0.1198 -0.8601  0.4107
16751SOL     OW53145   2.482   5.281   2.683  0.2455 -0.2712 -0.5108
16751SOL    HW153146   2.574   5.303   2.690  0.1727  0.1457 -0.8335
16751SOL    HW253147   2.460   5.296   2.591 -0.1363 -0.3971 -0.4445
16752SOL     OW53148   5.818   8.417   4.288 -0.3472 -0.2729 -0.2561
16752SOL    HW153149   5.824   8.332   4.332 -0.0918  0.8463  2.0536
16752SOL    HW253150   5.908   8.449   4.285 -0.5992  0.5042  0.1799
16753SOL     OW53151   6.499   0.836   4.545 -0.6060 -0.0536 -0.0142
16753SOL    HW153152   6.491   0.742   4.557  0.6905  0.0559  2.2516
16753SOL    HW253153   6.554   0.865   4.618 -2.2457  2.6776  0.2619
16754SOL     OW53154   8.619   0.312   0.205 -0.2213 -0.6454 -0.5223
16754SOL    HW153155   8.535   0.267   0.211 -0.6227  0.1231 -0.3278
16754SOL    HW253156   8.611   0.366   0.126 -0.4663  0.5261  0.2672
16755SOL     OW53157   0.503   3.281   6.148  0.3664 -0.2833 -0.4620
16755SOL    HW153158   0.486   3.371   6.120  0.5121  0.1683  0.8357
16755SOL    HW253159   0.467   3.227   6.077 -0.1351  0.7788 -1.0484
16756SOL     OW53160   1.348  10.537  10.443  0.0386  0.0551 -0.1660
16756SOL    HW153161   1.421  10.504  10.496 -0.4609  0.3560  0.7292
16756SOL    HW253162   1.332  10.468  10.378 -2.1247 -2.4028  2.6944
16757SOL     OW53163   6.537   7.701   5.799  0.1560 -0.1289 -0.1967
16757SOL    HW153164   6.466   7.642   5.774 -0.6907  0.6461  0.3406
16757SOL    HW253165   6.616   7.647   5.793 -0.6275 -1.4000  0.5380
16758SOL     OW53166   0.515   3.574   1.859  0.1665  0.4374 -0.2001
16758SOL    HW153167   0.478   3.552   1.945 -1.1874  0.6746 -0.6975
16758SOL    HW253168   0.438   3.592   1.805  1.0838  2.1301 -0.9707
16759SOL     OW53169   9.096   6.390   5.981 -0.2401 -0.1222  0.1435
16759SOL    HW153170   9.180   6.432   5.968  0.1633 -0.5880  1.1318
16759SOL    HW253171   9.043   6.456   6.026 -0.3299  0.0959 -0.2855
16760SOL     OW53172   7.184   1.419   5.243 -0.1671 -0.4860  0.5900
16760SOL    HW153173   7.190   1.418   5.147 -0.7598 -0.1085  0.5409
16760SOL    HW253174   7.096   1.384   5.261 -0.7208  1.0164  0.9130
16761SOL     OW53175   6.827  10.383   7.075  0.2604 -0.4126 -0.1378
16761SOL    HW153176   6.921  10.387   7.062  0.4663  1.8258  1.4456
16761SOL    HW253177   6.790  10.427   6.998  0.5594 -0.6062 -0.3935
16762SOL     OW53178   3.986   9.348   0.274 -0.2069 -0.3083 -0.4680
16762SOL    HW153179   3.974   9.416   0.340  0.9934 -0.4274 -0.0954
16762SOL    HW253180   3.911   9.357   0.216 -0.9691  0.1973  0.5598
16763SOL     OW53181   0.031   4.835   6.687 -0.0090 -0.0864  0.1911
16763SOL    HW153182   0.073   4.820   6.772  0.8385 -0.5027 -0.2978
16763SOL    HW253183   0.101   4.825   6.623 -0.7316 -0.1869 -0.5983
16764SOL     OW53184   2.095   2.660   0.668 -0.1673 -0.0031  0.6407
16764SOL    HW153185   2.117   2.595   0.735 -0.4264 -0.6155  0.1422
16764SOL    HW253186   2.000   2.653   0.659 -0.0354 -0.6003 -0.4561
16765SOL     OW53187   8.953   1.393   1.000 -0.5463 -0.3089  0.0301
16765SOL    HW153188   8.872   1.347   1.020 -1.3214  0.5509 -1.0422
16765SOL    HW253189   9.020   1.347   1.051 -1.7757 -0.6951  1.3564
16766SOL     OW53190   6.612   7.199   6.139 -0.2895 -0.2154 -0.1926
16766SOL    HW153191   6.692   7.147   6.130 -1.0262 -1.3466 -0.3960
16766SOL    HW253192   6.549   7.140   6.180 -1.6933 -0.1149 -2.0432
16767SOL     OW53193   3.354   1.450  10.375 -0.1775  0.1678  0.2878
16767SOL    HW153194   3.438   1.416  10.408  0.9794  2.0100 -0.5880
16767SOL    HW253195   3.329   1.389  10.306  0.5257 -0.3204  0.4534
16768SOL     OW53196   4.727   3.295   7.250  0.0697 -0.0205 -0.9483
16768SOL    HW153197   4.684   3.356   7.190  1.1800  0.6143 -1.1153
16768SOL    HW253198   4.820   3.307   7.234  0.3327 -1.9065 -1.1365
16769SOL     OW53199   1.884   8.349   7.851 -0.4234  0.2686 -0.4630
16769SOL    HW153200   1.951   8.343   7.920  0.3399 -0.9590 -1.2784
16769SOL    HW253201   1.830   8.271   7.864 -1.2264  0.8407 -0.3096
16770SOL     OW53202   7.405  10.224   8.466  0.1435 -0.2758  0.3156
16770SOL    HW153203   7.477  10.280   8.438 -0.1102 -0.5419 -0.9221
16770SOL    HW253204   7.446  10.164   8.529  0.3599  1.3964  1.8424
16771SOL     OW53205   2.126   5.592   4.751 -0.1740 -0.0429 -0.0674
16771SOL    HW153206   2.138   5.678   4.710  2.0731 -0.0446  0.4490
16771SOL    HW253207   2.184   5.594   4.828 -2.4323 -0.9062  1.7583
16772SOL     OW53208   1.503   8.573   8.057  0.7420 -0.0711 -0.8182
16772SOL    HW153209   1.567   8.566   7.987  2.4979  1.5539  0.4917
16772SOL    HW253210   1.556   8.579   8.137 -0.9141  2.5740  0.2342
16773SOL     OW53211   7.850   9.151   7.026 -0.8035  0.2946 -0.1219
16773SOL    HW153212   7.903   9.176   6.950  0.3146  0.9214  0.8277
16773SOL    HW253213   7.871   9.059   7.041  0.9236  0.8120  0.9045
16774SOL     OW53214   5.386   0.478   4.281 -0.1337  0.4622  0.4543
16774SOL    HW153215   5.473   0.479   4.320 -0.1751 -0.4098  0.5902
16774SOL    HW253216   5.345   0.399   4.316 -1.2295  1.2025  0.9300
16775SOL     OW53217   8.239   2.129  10.705 -0.2822 -0.0994  0.1135
16775SOL    HW153218   8.309   2.163  10.649 -0.3528 -0.8471 -0.4336
16775SOL    HW253219   8.159   2.168  10.670 -0.0885  1.3715  1.2105
16776SOL     OW53220  10.399   3.702   2.596 -0.1061  0.6613 -0.2115
16776SOL    HW153221  10.321   3.709   2.541 -0.0116  0.7421 -0.3333
16776SOL    HW253222  10.406   3.788   2.639  0.0652  0.7423 -0.3993
16777SOL     OW53223   2.215   1.330   6.750  0.0154  0.1801 -0.2279
16777SOL    HW153224   2.196   1.320   6.844 -1.0700  0.4685 -0.4013
16777SOL    HW253225   2.283   1.398   6.747  1.0260 -0.7721  0.4173
16778SOL     OW53226   5.005   9.499   5.698 -0.5190 -0.0616 -0.0476
16778SOL    HW153227   5.092   9.528   5.669 -0.4747  0.0481  0.1964
16778SOL    HW253228   5.002   9.521   5.791  0.0105 -1.9988  0.4879
16779SOL     OW53229   0.538   0.535   3.046  0.1321 -0.1989  0.8059
16779SOL    HW153230   0.510   0.494   3.127  1.8155  0.8145  1.9448
16779SOL    HW253231   0.499   0.623   3.048  1.9625  0.6298  1.6230
16780SOL     OW53232   8.115   7.906   2.415 -0.1178 -0.1695  0.0035
16780SOL    HW153233   8.040   7.913   2.356 -1.6293  1.0120  1.9650
16780SOL    HW253234   8.166   7.985   2.397 -0.3944  0.0169  0.0210
16781SOL     OW53235   1.982   9.182   8.339  0.3716  0.1441  0.3616
16781SOL    HW153236   1.975   9.263   8.390 -0.6932  0.5542 -0.4059
16781SOL    HW253237   1.910   9.128   8.372  1.8506 -1.0427  1.7843
16782SOL     OW53238   7.358   4.613   9.878  0.2515  0.1893  0.2936
16782SOL    HW153239   7.442   4.569   9.869  1.2059  2.1762 -1.3225
16782SOL    HW253240   7.329   4.591   9.967  1.4278 -2.1988  0.1659
16783SOL     OW53241   2.452   8.886   9.913 -0.2652  0.0572 -0.6888
16783SOL    HW153242   2.478   8.950   9.846 -1.1950  0.9745 -0.1842
16783SOL    HW253243   2.370   8.920   9.949 -0.7589 -1.3975 -0.3765
16784SOL     OW53244   2.669   9.459  10.245 -0.1873 -0.3185 -0.1962
16784SOL    HW153245   2.712   9.493  10.323  0.5193 -0.1189 -0.6665
16784SOL    HW253246   2.656   9.366  10.263  0.8976 -0.4888 -0.2435
16785SOL     OW53247   7.041   3.178   2.927  0.2224  0.2177  0.0318
16785SOL    HW153248   7.000   3.190   2.841 -0.5985  3.1268  0.7463
16785SOL    HW253249   6.968   3.156   2.985  0.4162  0.5569  0.4064
16786SOL     OW53250   5.604   2.238   6.749  0.3459  0.3303 -0.0142
16786SOL    HW153251   5.581   2.295   6.676  1.3995 -1.9265 -2.2375
16786SOL    HW253252   5.699   2.248   6.758  0.3926 -0.2944  0.2394
16787SOL     OW53253   8.035   9.559   5.333  0.6452  0.1463  0.2647
16787SOL    HW153254   8.130   9.557   5.347  0.6321  2.5226  1.1021
16787SOL    HW253255   8.000   9.504   5.403  1.3357  0.6010  0.9874
16788SOL     OW53256   2.901   1.760   8.352 -0.6629  0.2131 -0.8208
16788SOL    HW153257   2.860   1.680   8.319 -0.2900  0.7884 -2.7553
16788SOL    HW253258   2.994   1.748   8.334 -0.5308  0.8489 -0.5841
16789SOL     OW53259   9.959   5.390   2.217  0.0226  0.1594  0.1903
16789SOL    HW153260   9.978   5.448   2.290 -1.5110  1.3108 -0.2916
16789SOL    HW253261   9.873   5.417   2.186 -0.7679 -2.3716 -0.0549
16790SOL     OW53262   0.055   4.439   1.851 -0.0866 -0.0304 -0.1429
16790SOL    HW153263   0.039   4.532   1.833 -0.5350  0.3030  1.7362
16790SOL    HW253264   0.110   4.409   1.778  0.1639  1.7366 -0.7223
16791SOL     OW53265   0.899   2.801   6.935  0.4265  0.4570  0.3301
16791SOL    HW153266   0.993   2.796   6.952  0.3515  2.2415  1.5425
16791SOL    HW253267   0.875   2.890   6.961 -1.6400 -0.0199  0.2118
16792SOL     OW53268   8.629   7.487   2.874 -0.1624 -0.1933 -0.0573
16792SOL    HW153269   8.636   7.582   2.864  0.3004 -0.2262 -0.0529
16792SOL    HW253270   8.716   7.454   2.855 -0.6657 -0.7544 -1.5031
16793SOL     OW53271  10.161   0.308  10.262  0.2798  0.0388 -0.1818
16793SOL    HW153272  10.157   0.300  10.167  1.5391 -0.5117 -0.2136
16793SOL    HW253273  10.091   0.251  10.294 -1.1650  1.4002 -0.7794
16794SOL     OW53274   8.808   6.379   8.702 -0.7754  0.0858 -0.1307
16794SOL    HW153275   8.899   6.382   8.732 -1.0679 -1.1520  0.9889
16794SOL    HW253276   8.814   6.354   8.610 -0.0082 -1.8423  0.3982
16795SOL     OW53277  10.246   7.512   8.033  0.1208  0.1305  0.3181
16795SOL    HW153278  10.175   7.573   8.019  0.2823  0.1922 -0.2831
16795SOL    HW253279  10.251   7.500   8.128  0.6156  1.6764  0.5050
16796SOL     OW53280   5.532   3.927   8.132 -0.1216  0.1415 -0.4760
16796SOL    HW153281   5.617   3.970   8.138 -0.3177  0.4817 -0.0069
16796SOL    HW253282   5.469   3.998   8.145 -0.4479 -0.4357  1.5035
16797SOL     OW53283   6.009   9.472   7.727  0.4523  0.7417  1.0072
16797SOL    HW153284   5.933   9.462   7.785 -1.0987 -1.7393 -1.1958
16797SOL    HW253285   6.069   9.402   7.754 -0.0263 -0.0591  0.0780
16798SOL     OW53286   7.053   2.776   9.282  1.0653  0.2296  0.5647
16798SOL    HW153287   7.065   2.807   9.192  2.4261  0.0699  0.6600
16798SOL    HW253288   7.132   2.807   9.328  0.4571  0.1824  1.6709
16799SOL     OW53289   5.104   2.828   2.559 -0.0253 -0.3947 -0.4086
16799SOL    HW153290   5.041   2.775   2.608  0.0966 -1.5523 -1.4608
16799SOL    HW253291   5.053   2.867   2.488 -0.1438  1.0552  0.4335
16800SOL     OW53292   9.673   2.327   8.915  0.2492  0.6412  0.6183
16800SOL    HW153293   9.695   2.419   8.899  4.0006 -0.0634  0.8718
16800SOL    HW253294   9.710   2.308   9.001  1.3343 -1.5269 -0.2370
16801SOL     OW53295   6.751   6.889   4.697 -0.4715  0.0533  1.2472
16801SOL    HW153296   6.789   6.976   4.703 -0.5163  0.2064 -0.2609
16801SOL    HW253297   6.661   6.903   4.668  0.1461 -0.5057 -1.2759
16802SOL     OW53298   1.177   3.754   6.354  0.8219 -0.2927  0.3095
16802SOL    HW153299   1.262   3.764   6.398 -0.1971 -0.1277  2.3566
16802SOL    HW253300   1.162   3.659   6.352  0.4091 -0.2533  1.2774
16803SOL     OW53301   2.428   9.366   0.068 -0.0573  0.5057  0.1802
16803SOL    HW153302   2.439   9.458   0.045  2.1848  0.3879  0.5357
16803SOL    HW253303   2.372   9.330  -0.001 -1.1912  2.1529  0.1769
16804SOL     OW53304   3.440   9.460   6.947 -0.5898 -0.5530  0.4417
16804SOL    HW153305   3.358   9.477   6.993 -0.8159 -1.1720  0.2860
16804SOL    HW253306   3.478   9.385   6.992 -0.3202 -0.5357  0.2483
16805SOL     OW53307   8.729   9.283   6.865  0.2235 -0.3908  0.0805
16805SOL    HW153308   8.803   9.280   6.805  0.0031  2.4634 -0.4627
16805SOL    HW253309   8.755   9.226   6.938  1.6082 -1.8484 -1.4683
16806SOL     OW53310   8.582   2.748   4.163  0.2065 -0.1779  0.2313
16806SOL    HW153311   8.673   2.738   4.136 -0.0346 -0.7159 -0.4103
16806SOL    HW253312   8.587   2.787   4.251  1.0538 -0.3941  0.2881
16807SOL     OW53313  10.166   8.756   1.728  0.1346 -0.7217  0.5484
16807SOL    HW153314  10.260   8.769   1.739 -0.1588  1.1352  1.3272
16807SOL    HW253315  10.127   8.815   1.792 -1.5752 -0.6460 -0.5196
16808SOL     OW53316   9.834   7.887   8.194  0.0479 -0.1720 -0.1757
16808SOL    HW153317   9.866   7.802   8.226  2.3525  0.7863  0.2681
16808SOL    HW253318   9.912   7.931   8.163 -1.1942  1.5976 -0.9185
16809SOL     OW53319   0.478   9.486   9.645  0.3636 -0.1015 -0.1126
16809SOL    HW153320   0.386   9.482   9.619  0.0319  3.4001  0.0484
16809SOL    HW253321   0.485   9.424   9.717 -1.9149 -0.3099  0.0027
16810SOL     OW53322   4.532   9.550   3.573  0.0851  0.2910 -0.8767
16810SOL    HW153323   4.450   9.597   3.556 -0.0081  0.4910  0.0904
16810SOL    HW253324   4.519   9.510   3.659  1.5687  1.6111  0.0269
16811SOL     OW53325   2.707   5.728   1.651 -0.4252  0.0631  0.4460
16811SOL    HW153326   2.799   5.711   1.632 -0.4052 -0.4375  0.9469
16811SOL    HW253327   2.708   5.773   1.735 -0.7080 -1.7071  1.4610
16812SOL     OW53328   9.390   8.135   2.437  0.2262  0.1383  0.1062
16812SOL    HW153329   9.449   8.083   2.491 -0.9695  0.1725  1.4902
16812SOL    HW253330   9.322   8.074   2.409  0.5455  0.2430 -0.9560
16813SOL     OW53331   0.433   4.316   8.262  0.0091  0.4575  0.6748
16813SOL    HW153332   0.350   4.272   8.279  0.4428 -0.3594  0.7305
16813SOL    HW253333   0.446   4.373   8.338  0.4709 -0.9293  1.6856
16814SOL     OW53334   6.429   1.380   0.441  0.0334  0.5669  0.4109
16814SOL    HW153335   6.364   1.419   0.499  0.6833 -0.0080  1.5560
16814SOL    HW253336   6.487   1.452   0.418  0.6550  0.5085  1.7207
16815SOL     OW53337   4.902   5.643   2.203  0.3963  0.1982  0.0548
16815SOL    HW153338   4.977   5.600   2.161  0.6298 -0.0755  0.7405
16815SOL    HW253339   4.831   5.579   2.195  0.0399  0.7089 -1.1617
16816SOL     OW53340   9.694   5.435   2.197  0.1738 -0.3613  0.1434
16816SOL    HW153341   9.627   5.456   2.263  0.8957 -3.9428  2.2772
16816SOL    HW253342   9.644   5.406   2.121 -0.7377 -0.8131  0.8835
16817SOL     OW53343   6.657   2.755   4.037 -0.0480 -0.5406 -0.6247
16817SOL    HW153344   6.716   2.811   4.087 -1.7821  1.8892 -1.1167
16817SOL    HW253345   6.626   2.690   4.101 -0.2676  0.9307  0.8291
16818SOL     OW53346   7.140   3.330   7.464 -0.2440 -0.0720 -0.1279
16818SOL    HW153347   7.177   3.347   7.377 -0.5146 -1.9134 -0.6560
16818SOL    HW253348   7.215   3.333   7.523 -0.1207  1.6541 -0.3086
16819SOL     OW53349   9.375   2.458   4.077 -0.5582 -0.4995  0.2023
16819SOL    HW153350   9.325   2.496   4.149  0.4677 -1.1521  1.2822
16819SOL    HW253351   9.455   2.511   4.073 -2.1530  2.0816 -3.0209
16820SOL     OW53352   8.862   8.356   7.432  0.2643 -0.4985 -0.4646
16820SOL    HW153353   8.814   8.364   7.349  0.4592  1.1695 -0.4538
16820SOL    HW253354   8.948   8.394   7.414  0.4348 -0.4467  0.4043
16821SOL     OW53355   6.529   8.386   4.293 -0.2967 -0.4071  0.3403
16821SOL    HW153356   6.555   8.318   4.354 -1.8151 -0.0816  1.4129
16821SOL    HW253357   6.603   8.395   4.233  1.3288 -0.5642  2.2584
16822SOL     OW53358   8.935   6.480   3.684 -0.3111  0.1302  0.2892
16822SOL    HW153359   8.919   6.574   3.695 -0.3063 -0.0625  2.3414
16822SOL    HW253360   8.922   6.443   3.771  1.6876 -1.4812 -0.0194
16823SOL     OW53361   2.178  10.299   3.370  0.5466  0.4674 -1.1147
16823SOL    HW153362   2.097  10.253   3.392  0.0077  0.8249 -2.2825
16823SOL    HW253363   2.230  10.295   3.450 -0.9564  0.9523 -0.0754
16824SOL     OW53364   6.467   8.834   6.315 -0.2399  0.1142 -0.1194
16824SOL    HW153365   6.465   8.923   6.351  0.5489 -0.1440  0.5849
16824SOL    HW253366   6.380   8.799   6.334 -1.0593  1.1742 -1.6159
16825SOL     OW53367   7.971   9.744   9.022  0.1748 -0.4541 -0.6409
16825SOL    HW153368   7.905   9.770   9.086  0.9783 -0.9568  0.4207
16825SOL    HW253369   8.046   9.714   9.074  0.5567 -1.6493 -1.7953
16826SOL     OW53370   3.189   3.297   0.935 -0.5760  0.1926 -0.0107
16826SOL    HW153371   3.137   3.307   0.855  1.0120 -1.0426 -1.2519
16826SOL    HW253372   3.269   3.347   0.918  1.2639 -2.7342 -0.6364
16827SOL     OW53373  10.446   9.955   0.217  0.2533  0.1691  0.6862
16827SOL    HW153374  10.445   9.942   0.123  0.9179 -3.8180  1.0689
16827SOL    HW253375  10.522  10.011   0.233 -0.5230  1.8504 -1.1260
16828SOL     OW53376  10.078   3.944   3.625  0.3043  0.1620  0.5880
16828SOL    HW153377  10.115   4.032   3.616 -0.5728  0.4794 -0.1747
16828SOL    HW253378   9.992   3.951   3.583  1.1414 -1.6571 -1.6425
16829SOL     OW53379   1.500   1.288   4.073 -0.7325  0.3829  0.0795
16829SOL    HW153380   1.446   1.219   4.110 -0.1151  0.8283  1.9123
16829SOL    HW253381   1.461   1.369   4.106  1.5608  0.6945  2.3504
16830SOL     OW53382   1.367   5.446   5.448  0.2679  0.1338 -0.2191
16830SOL    HW153383   1.320   5.408   5.374  1.6617 -0.4369 -0.8541
16830SOL    HW253384   1.310   5.431   5.523 -1.6416  1.5983 -1.2901
16831SOL     OW53385   6.636   9.289   3.274 -0.1549 -0.2575 -0.3759
16831SOL    HW153386   6.573   9.294   3.202  0.0687  1.9525 -0.4618
16831SOL    HW253387   6.601   9.347   3.341  0.5528 -0.9222  0.5959
16832SOL     OW53388   6.403   7.904   3.882  0.8119 -0.0557  0.2103
16832SOL    HW153389   6.434   7.835   3.940  1.0556  0.1632  0.3442
16832SOL    HW253390   6.322   7.935   3.922  0.2343 -0.8540 -0.3160
16833SOL     OW53391   3.788   1.393   8.834  0.1219  0.9200  0.0913
16833SOL    HW153392   3.844   1.318   8.853 -0.2740  0.7752  0.7215
16833SOL    HW253393   3.744   1.371   8.752 -0.6098  0.0934  0.6939
16834SOL     OW53394   6.476   1.851   6.278 -0.2024 -0.4524 -0.4462
16834SOL    HW153395   6.570   1.858   6.263 -0.1114  0.6145  0.5219
16834SOL    HW253396   6.436   1.885   6.198  0.2385  0.0268 -0.4639
16835SOL     OW53397   1.799   9.387   6.838 -0.3454  0.3083 -0.2685
16835SOL    HW153398   1.814   9.478   6.812 -0.0311  0.4280  0.3290
16835SOL    HW253399   1.824   9.336   6.760  0.7518  0.6587 -0.1614
16836SOL     OW53400   7.889   6.144   2.643 -0.7146 -0.1523 -0.2350
16836SOL    HW153401   7.911   6.150   2.550  1.4455  0.4761  0.2552
16836SOL    HW253402   7.820   6.209   2.655  0.0869  0.9055 -1.1126
16837SOL     OW53403   2.049   1.411   3.542 -0.2588 -0.3102  0.0482
16837SOL    HW153404   1.978   1.348   3.534  0.4043 -1.0232 -0.4043
16837SOL    HW253405   2.021   1.485   3.488 -1.2414 -0.0134  0.9380
16838SOL     OW53406   0.927   2.202   8.383  0.3106 -0.0664 -0.1204
16838SOL    HW153407   0.930   2.148   8.463  0.2015 -0.8163 -0.6168
16838SOL    HW253408   0.835   2.226   8.375  0.5681  1.3379  0.8406
16839SOL     OW53409   1.543   6.378   2.733  0.2249  0.1110 -0.1267
16839SOL    HW153410   1.577   6.324   2.661  0.4099 -0.9662  0.7430
16839SOL    HW253411   1.448   6.368   2.727  0.2117  0.4848 -0.5661
16840SOL     OW53412   5.476   5.113   8.245  0.0986  0.2682  0.0861
16840SOL    HW153413   5.402   5.164   8.213 -0.8666 -0.6679  0.7705
16840SOL    HW253414   5.456   5.097   8.337  0.6486 -0.8719  0.0204
16841SOL     OW53415   7.957   4.807   2.190 -0.3235 -0.1492  0.7035
16841SOL    HW153416   7.866   4.782   2.173  0.4289 -2.8662  0.1707
16841SOL    HW253417   7.978   4.763   2.273  1.0282 -1.1951 -0.1593
16842SOL     OW53418   1.060   1.655   8.718  0.6941 -0.4289 -0.0903
16842SOL    HW153419   1.024   1.741   8.739 -0.8318 -0.9863 -0.2552
16842SOL    HW253420   1.097   1.623   8.800 -3.0028 -1.5608  1.3438
16843SOL     OW53421   5.598  10.282   8.542  0.1079  0.0724  0.3282
16843SOL    HW153422   5.611  10.194   8.577  2.0618  0.3369  0.3347
16843SOL    HW253423   5.652  10.284   8.463  1.8847  1.9762  1.5292
16844SOL     OW53424  10.151   0.098   0.919 -0.6403 -0.3157  0.0693
16844SOL    HW153425  10.186   0.185   0.941 -0.8041 -0.0547 -0.6666
16844SOL    HW253426  10.228   0.047   0.895 -0.5150 -0.4616  0.7441
16845SOL     OW53427   1.532   7.560   7.597 -0.2195  0.3728 -0.4319
16845SOL    HW153428   1.626   7.580   7.590  0.2242 -0.6945  1.5971
16845SOL    HW253429   1.501   7.558   7.507  1.9424 -0.2687 -1.2317
16846SOL     OW53430   2.479   4.614   4.477 -0.4369  0.5622  0.4238
16846SOL    HW153431   2.426   4.634   4.554 -1.3296  1.5436 -0.4092
16846SOL    HW253432   2.560   4.577   4.512 -1.0193  0.5338  1.8009
16847SOL     OW53433   1.397   8.629   6.231  0.3062  0.3994  0.0077
16847SOL    HW153434   1.396   8.533   6.223 -1.2819  0.4320 -0.6215
16847SOL    HW253435   1.415   8.645   6.323  0.6589 -0.5008  0.1079
16848SOL     OW53436  10.334   0.594   1.677 -0.3116 -0.1539  0.4538
16848SOL    HW153437  10.302   0.608   1.766 -2.1464  1.6361 -0.3908
16848SOL    HW253438  10.306   0.505   1.656 -2.7087  0.4579  0.6559
16849SOL     OW53439   5.847   9.626   1.681  0.6078  0.4757  0.1970
16849SOL    HW153440   5.887   9.701   1.637 -0.3808  0.6947 -0.3533
16849SOL    HW253441   5.918   9.588   1.733  2.0039 -0.1806 -2.0682
16850SOL     OW53442   8.980   2.860   6.833  0.4327  0.1791  0.4614
16850SOL    HW153443   8.991   2.918   6.757 -0.7570  1.0905  0.9610
16850SOL    HW253444   8.935   2.783   6.798 -1.5060  1.2527  0.4856
16851SOL     OW53445   1.130   9.068   3.711  0.5215  0.0708  0.1888
16851SOL    HW153446   1.112   9.042   3.802 -0.5635  0.8201  0.2042
16851SOL    HW253447   1.044   9.084   3.673  0.9556 -0.5260 -1.0755
16852SOL     OW53448   7.185   5.575   7.659 -0.4737  0.4941 -0.2252
16852SOL    HW153449   7.191   5.663   7.695 -0.4193  0.3262  0.1864
16852SOL    HW253450   7.109   5.536   7.702 -0.4857  0.3346 -0.3888
16853SOL     OW53451   5.207   2.505   4.420 -0.4862  0.4081 -0.0700
16853SOL    HW153452   5.289   2.555   4.427  0.4221 -1.0244  0.0666
16853SOL    HW253453   5.164   2.519   4.504 -0.1206  0.7521  0.0679
16854SOL     OW53454   6.328   2.269   9.475  0.2087 -0.0114  0.1166
16854SOL    HW153455   6.262   2.225   9.421  0.6441 -0.7842  0.1891
16854SOL    HW253456   6.372   2.330   9.416  0.4058 -0.5553 -0.3066
16855SOL     OW53457   6.738   1.355   8.382  0.0896 -0.4686  0.1056
16855SOL    HW153458   6.647   1.326   8.392  0.4417 -1.9596 -0.7361
16855SOL    HW253459   6.776   1.346   8.470 -0.4011 -0.4335  0.3243
16856SOL     OW53460   2.043   2.716   7.367  0.7459 -0.1450  0.2851
16856SOL    HW153461   1.994   2.798   7.363  0.0675 -0.5846 -0.5517
16856SOL    HW253462   2.125   2.740   7.412  0.1971  0.7979  0.8262
16857SOL     OW53463   7.405   6.537   9.031  0.1721 -0.3469  0.0127
16857SOL    HW153464   7.399   6.588   8.950  1.1185 -0.5780 -0.2216
16857SOL    HW253465   7.473   6.582   9.082  0.5489 -0.9979  0.0860
16858SOL     OW53466   9.015   8.168   3.894 -0.8661  0.0887  0.2756
16858SOL    HW153467   8.958   8.205   3.827  0.0190  0.3933 -0.3420
16858SOL    HW253468   9.104   8.183   3.860 -0.4358 -1.0839  0.8048
16859SOL     OW53469   3.277   1.430   9.006 -0.3055 -0.2213 -0.0950
16859SOL    HW153470   3.190   1.470   9.009  0.1266  0.7497 -0.1110
16859SOL    HW253471   3.338   1.504   9.011  0.5278 -0.9194  0.4080
16860SOL     OW53472   2.494   3.139   2.453 -0.0834  0.1921  0.0867
16860SOL    HW153473   2.502   3.156   2.547  0.9638  1.6242 -0.2209
16860SOL    HW253474   2.551   3.063   2.437  0.6093  0.6270  0.4448
16861SOL     OW53475   5.711   8.599   4.736 -0.0744 -0.3255 -0.1782
16861SOL    HW153476   5.619   8.588   4.757  0.5715 -3.4152  1.6806
16861SOL    HW253477   5.749   8.641   4.814  0.0397  1.6837 -1.2490
16862SOL     OW53478   6.182   1.880   3.617 -0.2362  0.4597 -0.0193
16862SOL    HW153479   6.111   1.932   3.579 -1.0332 -0.2843  0.4257
16862SOL    HW253480   6.144   1.794   3.632  0.1161  0.6554  2.2516
16863SOL     OW53481  10.242   2.610   7.653  0.1002  0.2379  0.3196
16863SOL    HW153482  10.169   2.548   7.648  0.2074  0.1881 -0.9656
16863SOL    HW253483  10.239   2.643   7.743  0.2174 -1.8441  1.1477
16864SOL     OW53484   3.204  10.768   4.768  1.0954  0.3541 -0.0474
16864SOL    HW153485   3.294  10.736   4.764  1.0967  0.4303 -3.6081
16864SOL    HW253486   3.167  10.747   4.682 -1.9107  1.4747  0.8416
16865SOL     OW53487   3.277   4.933   9.084 -0.1583  0.2814 -0.6445
16865SOL    HW153488   3.351   4.948   9.026 -0.3997 -1.3464 -1.4285
16865SOL    HW253489   3.314   4.882   9.157 -0.3223  0.2775 -0.5643
16866SOL     OW53490   2.324   2.547   3.747  0.2166 -0.6098 -0.1037
16866SOL    HW153491   2.284   2.635   3.749 -0.0763 -0.7431 -0.0495
16866SOL    HW253492   2.250   2.488   3.730  0.7130 -0.6593 -2.3762
16867SOL     OW53493   5.988   2.305   1.470 -0.2862 -0.2108 -0.1213
16867SOL    HW153494   6.067   2.265   1.505 -1.1259 -1.0134  0.9465
16867SOL    HW253495   5.968   2.376   1.531  0.6644  1.2847 -1.4746
16868SOL     OW53496   9.335   7.964   6.652 -0.0639 -0.0919  0.1182
16868SOL    HW153497   9.279   7.974   6.574 -0.6784 -0.3480  0.5173
16868SOL    HW253498   9.424   7.969   6.618 -0.3175 -0.5324 -0.6559
16869SOL     OW53499  10.156   7.962   5.893  0.5001 -0.3575  0.1756
16869SOL    HW153500  10.229   8.024   5.881  0.2157 -0.3929 -2.2757
16869SOL    HW253501  10.089   8.013   5.938  1.0334  0.4994  0.0366
16870SOL     OW53502   0.519   8.393   0.337 -0.4947 -0.4188 -0.5673
16870SOL    HW153503   0.522   8.407   0.431 -0.3934 -1.3953 -0.4187
16870SOL    HW253504   0.606   8.419   0.306 -0.1895 -1.0512 -0.2504
16871SOL     OW53505   5.003  10.471   7.598 -0.1916 -0.6084 -0.6935
16871SOL    HW153506   5.043  10.418   7.529 -1.3649 -0.6118 -1.4065
16871SOL    HW253507   4.969  10.548   7.553  1.7268  0.9505  0.3772
16872SOL     OW53508   0.196   4.744   0.399  0.1395 -0.4084  0.5987
16872SOL    HW153509   0.184   4.716   0.490  0.6722 -2.7346  0.0361
16872SOL    HW253510   0.109   4.771   0.371 -0.2694 -0.7665  1.4742
16873SOL     OW53511   8.518   5.502  10.671 -0.3264  0.6831 -0.3059
16873SOL    HW153512   8.568   5.450  10.609 -0.0530  1.0849 -0.4299
16873SOL    HW253513   8.427   5.473  10.659  0.0030 -0.8480  0.7162
16874SOL     OW53514   5.366   4.369   1.491 -0.0466  0.7280  0.6763
16874SOL    HW153515   5.358   4.455   1.531  0.6195  0.9266  0.3849
16874SOL    HW253516   5.356   4.307   1.564  1.0670  1.0810  1.1412
16875SOL     OW53517   5.077   2.379   8.951  0.0946  0.4076 -0.1270
16875SOL    HW153518   5.110   2.295   8.920 -0.0629 -0.0407  0.8736
16875SOL    HW253519   5.132   2.400   9.026 -1.8320 -0.3637  1.5997
16876SOL     OW53520   7.725   6.820   9.948 -0.8078 -0.0020  0.3337
16876SOL    HW153521   7.648   6.775   9.913 -1.3210 -2.1228  3.6803
16876SOL    HW253522   7.692   6.904   9.979 -1.0454  0.4428 -1.0728
16877SOL     OW53523   9.384   5.462   6.354 -0.3085  0.3101  0.2589
16877SOL    HW153524   9.464   5.500   6.390  0.5982 -0.1362 -1.1928
16877SOL    HW253525   9.314   5.493   6.412  0.6522  2.3232  0.4321
16878SOL     OW53526   0.208   7.847   7.240 -0.3675  0.0525  0.2628
16878SOL    HW153527   0.154   7.912   7.195  1.4433  1.3455 -0.1654
16878SOL    HW253528   0.236   7.788   7.171 -1.6408 -0.9670  0.5794
16879SOL     OW53529   8.658  10.328   9.005  0.2051 -0.9909  0.0549
16879SOL    HW153530   8.583  10.284   9.045 -0.1742 -0.4781 -0.0777
16879SOL    HW253531   8.672  10.281   8.923  0.4668 -1.5200  0.3928
16880SOL     OW53532   9.807   0.457   0.326  0.2282  0.5323  0.4323
16880SOL    HW153533   9.833   0.490   0.411  0.9588  0.7899  0.1181
16880SOL    HW253534   9.886   0.462   0.273  0.0950 -0.7498  0.0767
16881SOL     OW53535   6.752   9.660   9.801 -0.6200  0.7464  0.4167
16881SOL    HW153536   6.778   9.580   9.756  0.8970  1.0839  0.6246
16881SOL    HW253537   6.689   9.631   9.867  0.1509 -0.3300  0.7121
16882SOL     OW53538   5.198   1.341   4.003  0.0561 -0.2876  0.2902
16882SOL    HW153539   5.252   1.285   3.947  1.5108 -0.0203  1.3849
16882SOL    HW253540   5.145   1.392   3.941  0.8057 -0.7975 -0.8062
16883SOL     OW53541   1.981   5.400   1.716  0.3836  0.2276 -0.1694
16883SOL    HW153542   2.047   5.338   1.686 -0.1667 -0.9648  0.9553
16883SOL    HW253543   1.971   5.380   1.810 -2.0706 -0.1458 -0.4446
16884SOL     OW53544   0.880   7.596   7.762 -0.7945  0.2087  0.3887
16884SOL    HW153545   0.847   7.627   7.847 -1.0072  0.3247  0.2614
16884SOL    HW253546   0.823   7.636   7.697  0.5551  1.7450  0.0635
16885SOL     OW53547   5.745  10.625   2.889  0.8322  0.3119  0.5131
16885SOL    HW153548   5.787  10.602   2.806 -0.2929 -0.7376  0.1896
16885SOL    HW253549   5.665  10.670   2.863  0.7241  0.4346  1.0472
16886SOL     OW53550   4.624   6.093   9.400 -0.2546  0.6054  0.0916
16886SOL    HW153551   4.651   6.068   9.312  0.4763  1.6932 -0.0133
16886SOL    HW253552   4.668   6.031   9.458  0.2668  0.6548 -0.2463
16887SOL     OW53553   5.140   0.840   3.906 -0.0955 -0.2197  0.0661
16887SOL    HW153554   5.128   0.771   3.972  0.4187 -2.1096 -1.7368
16887SOL    HW253555   5.052   0.857   3.873 -0.1515 -0.3703  0.1382
16888SOL     OW53556  10.714   9.015   7.853  0.3505  0.0420 -0.0585
16888SOL    HW153557  10.712   9.090   7.794 -0.7595 -0.3457 -0.5555
16888SOL    HW253558  10.717   8.939   7.794 -0.1276 -0.3353  0.3897
16889SOL     OW53559   4.718   2.897   8.952  0.0737  0.8478 -0.9843
16889SOL    HW153560   4.647   2.833   8.961  0.6296  0.3818  0.4438
16889SOL    HW253561   4.686   2.975   8.995  0.8417  0.2494  0.7506
16890SOL     OW53562   6.816   2.199   4.580 -0.2588  0.4877  0.5957
16890SOL    HW153563   6.794   2.243   4.498 -0.6551 -0.9104 -0.0825
16890SOL    HW253564   6.857   2.117   4.553  0.0280  0.2155  1.8076
16891SOL     OW53565   0.240   2.333   0.019 -0.4440 -0.2194 -0.3454
16891SOL    HW153566   0.293   2.277   0.075  1.1791  1.3919 -0.2059
16891SOL    HW253567   0.174   2.273  -0.018  3.3257 -3.1760 -3.1646
16892SOL     OW53568   8.327   0.715   3.147 -0.0274  0.0432  0.1430
16892SOL    HW153569   8.323   0.793   3.202 -0.4358 -0.4716  0.8592
16892SOL    HW253570   8.246   0.667   3.167 -1.3560  0.9256 -2.5651
16893SOL     OW53571   6.842   1.629   0.199 -0.1599  0.2692  0.1369
16893SOL    HW153572   6.854   1.646   0.105  0.5119  1.0816  0.3504
16893SOL    HW253573   6.920   1.580   0.224 -1.7776 -2.7595 -0.3303
16894SOL     OW53574   4.289   0.767   2.806  0.3568  0.0280 -0.1277
16894SOL    HW153575   4.374   0.729   2.784  0.1219 -0.6055  0.0313
16894SOL    HW253576   4.233   0.692   2.822 -0.7978  0.3659 -2.2209
16895SOL     OW53577   0.830   1.630   5.055 -0.0001 -0.1501 -0.4764
16895SOL    HW153578   0.791   1.578   4.985  0.2910 -0.6269 -0.2877
16895SOL    HW253579   0.923   1.634   5.034 -0.1211  0.8695 -0.8500
16896SOL     OW53580   6.989   0.882   8.672  0.3859 -0.2943  0.4126
16896SOL    HW153581   7.027   0.896   8.758 -0.4187  0.6430  0.6273
16896SOL    HW253582   6.901   0.920   8.678  0.6913  0.7314 -1.1282
16897SOL     OW53583   6.517   8.128   0.952  0.3186  0.3331 -0.6961
16897SOL    HW153584   6.457   8.053   0.958  1.5050 -0.5415  1.1981
16897SOL    HW253585   6.463   8.204   0.975 -0.5174 -0.1618 -0.9932
16898SOL     OW53586   3.851   2.188   7.463  0.8381  0.9981  0.0844
16898SOL    HW153587   3.788   2.215   7.529  0.7039  0.3298  0.2316
16898SOL    HW253588   3.841   2.093   7.457  1.5442  0.9336 -0.1763
16899SOL     OW53589   5.863   3.530   6.575  0.0097  0.3909 -1.2352
16899SOL    HW153590   5.868   3.445   6.533 -0.3043  0.2287 -0.9531
16899SOL    HW253591   5.770   3.554   6.570  0.1494  0.8651 -1.6044
16900SOL     OW53592   5.331   3.145   9.914 -0.4351  0.0674  0.0845
16900SOL    HW153593   5.386   3.202   9.968 -1.4044 -1.7874  3.2913
16900SOL    HW253594   5.382   3.132   9.833  2.0931  1.3712  1.3506
16901SOL     OW53595   0.751   1.799   1.652  0.1272 -0.1703  0.0830
16901SOL    HW153596   0.682   1.853   1.690  0.7873  0.7547 -0.0126
16901SOL    HW253597   0.830   1.825   1.698  0.4525 -1.1111  0.0813
16902SOL     OW53598   2.463   4.669   9.841  0.1537 -0.1528 -0.8543
16902SOL    HW153599   2.535   4.729   9.821 -0.1745  0.3243 -0.6166
16902SOL    HW253600   2.481   4.639   9.930 -1.4286  2.1918  0.3694
16903SOL     OW53601   8.788   0.323   1.817 -0.4924  0.0182 -0.0258
16903SOL    HW153602   8.703   0.332   1.860 -1.1135  0.8615 -1.3583
16903SOL    HW253603   8.785   0.386   1.745  0.7458 -0.9006 -0.9209
16904SOL     OW53604   0.867   6.097   4.569 -0.4394 -0.0532  0.3775
16904SOL    HW153605   0.881   6.186   4.600  1.2506  0.4111 -1.5140
16904SOL    HW253606   0.777   6.096   4.538 -1.2077  0.2955  2.4680
16905SOL     OW53607   0.461   3.647   2.259  0.0299 -0.1188 -0.0721
16905SOL    HW153608   0.422   3.703   2.192 -1.0881 -0.2282  0.4644
16905SOL    HW253609   0.488   3.568   2.212 -0.1044  0.0991 -0.5159
16906SOL     OW53610   6.804   3.807   9.871 -0.1056  0.1735  0.1334
16906SOL    HW153611   6.873   3.740   9.871 -0.6477 -0.4877 -2.4970
16906SOL    HW253612   6.837   3.875   9.812 -0.7806  0.9112  0.5851
16907SOL     OW53613   4.965  10.327   5.669 -0.0658  0.3034 -0.1873
16907SOL    HW153614   5.023  10.251   5.678 -0.8799 -0.1640  1.7086
16907SOL    HW253615   4.899  10.299   5.606 -0.6117 -0.7772  0.8165
16908SOL     OW53616   0.588   3.477   0.783 -0.1646  0.0066  0.3381
16908SOL    HW153617   0.509   3.441   0.823  0.6880 -2.3437  0.0699
16908SOL    HW253618   0.642   3.503   0.857 -0.3892 -0.2502  0.5976
16909SOL     OW53619   4.146  10.416   8.038  0.2970 -0.0143  0.3356
16909SOL    HW153620   4.178  10.426   8.128  2.1220  1.1920 -0.3748
16909SOL    HW253621   4.218  10.373   7.992 -0.8803 -1.2282 -0.4304
16910SOL     OW53622   8.512   5.186   2.140  0.2392 -0.2625  0.2039
16910SOL    HW153623   8.517   5.106   2.191 -1.1450  0.0846  0.9635
16910SOL    HW253624   8.588   5.238   2.168 -0.2733 -0.2452  1.6650
16911SOL     OW53625  10.385   2.260   5.829 -0.1771  0.2101 -0.1372
16911SOL    HW153626  10.334   2.339   5.848  0.7725  1.1674 -1.3543
16911SOL    HW253627  10.347   2.226   5.748 -0.0432 -0.1005 -0.0706
16912SOL     OW53628   1.719   4.719   7.761 -0.1103 -0.2458  0.0097
16912SOL    HW153629   1.795   4.709   7.704 -0.7590 -0.3389 -0.8570
16912SOL    HW253630   1.648   4.741   7.702 -1.7041 -4.0382  0.2171
16913SOL     OW53631   6.408   2.247  10.054 -0.0821 -0.4121 -0.5897
16913SOL    HW153632   6.422   2.184  10.124 -0.6012 -0.1494 -0.2445
16913SOL    HW253633   6.403   2.332  10.098 -1.8500 -0.3849 -0.7645
16914SOL     OW53634   5.350   5.990   5.912  0.1468 -0.0634 -0.0129
16914SOL    HW153635   5.427   6.033   5.874 -0.0021  1.1211  0.9598
16914SOL    HW253636   5.357   6.007   6.006  0.2614 -2.5095  0.4925
16915SOL     OW53637   8.550   7.523   8.698  0.3544 -0.2541  0.1565
16915SOL    HW153638   8.597   7.448   8.662  1.8122 -0.5620  2.5052
16915SOL    HW253639   8.617   7.590   8.711 -0.9079  1.5122 -1.8024
16916SOL     OW53640   8.475   1.702   7.089 -0.3328  0.4128  0.2489
16916SOL    HW153641   8.444   1.787   7.060  0.2167  0.9305  1.1188
16916SOL    HW253642   8.459   1.643   7.015 -1.1938  1.1526 -0.1653
16917SOL     OW53643   0.394   9.848   6.951  0.4076 -0.1417 -0.6769
16917SOL    HW153644   0.481   9.849   6.913  0.5978 -0.2630 -0.2527
16917SOL    HW253645   0.344   9.787   6.897  0.0047  1.4319 -2.1644
16918SOL     OW53646   5.440   2.692   2.514  0.5939  0.2683 -0.3544
16918SOL    HW153647   5.409   2.781   2.533  0.2526  0.5508 -2.1269
16918SOL    HW253648   5.516   2.681   2.571 -1.3756  0.3404  2.5732
16919SOL     OW53649   8.551   1.112   4.501  0.7455  0.4096  0.7096
16919SOL    HW153650   8.481   1.070   4.552 -0.2684  1.5248  0.2851
16919SOL    HW253651   8.519   1.201   4.485  1.1254  0.2019 -1.6175
16920SOL     OW53652   4.365   0.812   4.970  0.1057 -0.3763  0.1661
16920SOL    HW153653   4.394   0.903   4.963 -4.6051  1.5600  1.7367
16920SOL    HW253654   4.366   0.780   4.879 -1.4349  2.5782 -1.0413
16921SOL     OW53655   0.039   9.005   8.621  0.3229  0.1523 -0.0485
16921SOL    HW153656   0.046   9.043   8.533  2.0240  0.0604  0.0153
16921SOL    HW253657   0.040   9.080   8.680 -0.6921  0.2074 -0.0882
16922SOL     OW53658   6.474   2.598   9.433 -0.3827  0.4746  0.5573
16922SOL    HW153659   6.476   2.560   9.344 -1.1800 -0.1542  0.8001
16922SOL    HW253660   6.468   2.692   9.419 -0.0614  0.4093 -0.0591
16923SOL     OW53661   0.663   6.133   5.057  0.1726  0.4703  0.5258
16923SOL    HW153662   0.607   6.080   4.999  0.1166  2.6917 -1.6078
16923SOL    HW253663   0.737   6.076   5.077 -0.4800 -0.8523 -0.6176
16924SOL     OW53664   9.522   7.686   0.689 -0.1719 -0.3017 -1.1415
16924SOL    HW153665   9.580   7.747   0.734  0.2187 -1.2207 -0.3796
16924SOL    HW253666   9.485   7.737   0.616 -0.7487  1.1821  0.1355
16925SOL     OW53667   3.822   1.055   3.590  0.4225 -0.0737 -0.2457
16925SOL    HW153668   3.808   1.139   3.547  0.6299 -0.0135 -0.1980
16925SOL    HW253669   3.884   1.074   3.661 -0.0548 -0.1344  0.1962
16926SOL     OW53670   0.514  10.042   9.328 -0.2066 -0.4060 -0.1115
16926SOL    HW153671   0.502  10.069   9.237  1.5567 -1.3259 -0.6580
16926SOL    HW253672   0.425  10.042   9.364 -0.8376  0.9804 -1.5115
16927SOL     OW53673   4.000   1.691   0.369 -0.0444 -0.1187 -0.1826
16927SOL    HW153674   3.953   1.646   0.299 -0.8337  1.1935 -0.5251
16927SOL    HW253675   3.939   1.691   0.442  1.0215 -2.0638  0.7803
16928SOL     OW53676   2.301   9.638   5.980  0.2845 -0.3221 -0.5908
16928SOL    HW153677   2.333   9.581   6.050 -1.1974 -1.3840 -0.7441
16928SOL    HW253678   2.374   9.644   5.919  1.0316 -0.6978  0.2376
16929SOL     OW53679  10.504  10.067   0.624 -0.1112  0.1033  0.2172
16929SOL    HW153680  10.450  10.007   0.572 -1.5585  1.4386  0.1211
16929SOL    HW253681  10.565  10.106   0.561 -0.8970  0.6423 -0.2156
16930SOL     OW53682   0.023   6.249   6.514 -0.3662 -0.4998  0.4456
16930SOL    HW153683  -0.039   6.208   6.454  1.3913 -2.0828 -0.4003
16930SOL    HW253684   0.014   6.199   6.595 -1.6563  0.6596  1.0607
16931SOL     OW53685   7.884   5.330   7.242 -0.2039  0.2754 -0.0922
16931SOL    HW153686   7.901   5.310   7.334 -1.8017 -2.9784 -0.3781
16931SOL    HW253687   7.802   5.380   7.243  0.6884  1.8019  0.2798
16932SOL     OW53688   7.289   1.695   1.554 -0.1962 -0.5368 -0.3162
16932SOL    HW153689   7.378   1.730   1.547 -0.5119  0.8365  1.5737
16932SOL    HW253690   7.289   1.644   1.635 -1.0790 -0.6544 -0.3753
16933SOL     OW53691   9.791   9.745   7.093 -0.3771  0.6103  0.1843
16933SOL    HW153692   9.784   9.683   7.020 -0.0122 -0.0128  0.6801
16933SOL    HW253693   9.737   9.820   7.065 -0.4140  0.2917 -0.6321
16934SOL     OW53694   7.413  10.389   8.771  0.2790  0.1297  0.3814
16934SOL    HW153695   7.504  10.365   8.753  0.4835 -1.4229  2.8940
16934SOL    HW253696   7.419  10.467   8.826  0.1072  0.1035  0.4397
16935SOL     OW53697   8.345   3.421   5.167 -0.4922 -0.1932  0.1107
16935SOL    HW153698   8.373   3.349   5.110 -1.0120 -0.2155 -0.1224
16935SOL    HW253699   8.252   3.432   5.147 -0.5215  0.2370  0.4839
16936SOL     OW53700   2.930   3.184   2.650 -0.0432 -0.1666 -0.2252
16936SOL    HW153701   2.835   3.178   2.659 -0.1517  0.3109 -1.0096
16936SOL    HW253702   2.951   3.129   2.574  0.1851  0.5627 -0.7019
16937SOL     OW53703   2.623   9.984   0.088  0.2935  0.1430 -0.1188
16937SOL    HW153704   2.571  10.065   0.092  0.5626  0.4852 -2.2057
16937SOL    HW253705   2.619   9.948   0.176  2.2305  3.7327  1.6604
16938SOL     OW53706   9.129   2.786   9.916  0.3281  0.2581 -0.5481
16938SOL    HW153707   9.157   2.864   9.869 -1.0506  1.1906  0.1046
16938SOL    HW253708   9.156   2.713   9.861  1.5210  1.1930 -1.2418
16939SOL     OW53709   4.674   2.746   9.388  0.0710  0.0948 -0.1157
16939SOL    HW153710   4.757   2.767   9.431 -1.2682  1.5078  1.9783
16939SOL    HW253711   4.617   2.714   9.459 -1.6252  0.5899 -1.1831
16940SOL     OW53712   4.232   9.297   9.561 -0.0268  0.7015  0.1076
16940SOL    HW153713   4.323   9.267   9.553 -0.3585 -0.9329  1.7323
16940SOL    HW253714   4.186   9.223   9.602 -1.8495  1.9053  0.3386
16941SOL     OW53715   2.101   1.076   4.180 -0.2584 -0.3890  0.1463
16941SOL    HW153716   2.080   1.017   4.108  0.7502  2.8549 -3.0894
16941SOL    HW253717   2.178   1.036   4.222 -1.2903 -2.7127  0.0094
16942SOL     OW53718   7.390   0.457   1.858  0.4679 -0.4855  0.0384
16942SOL    HW153719   7.399   0.450   1.763  1.2400 -0.7343  0.1235
16942SOL    HW253720   7.427   0.542   1.880  0.7226 -0.6283  0.1669
16943SOL     OW53721   3.379   7.547   8.717 -0.1826  0.3556  0.2799
16943SOL    HW153722   3.363   7.458   8.688 -1.3365  0.4308  0.6090
16943SOL    HW253723   3.298   7.573   8.761 -0.0935  1.7592 -0.3082
16944SOL     OW53724   6.373   6.859   9.134 -0.2640  0.2119  0.2196
16944SOL    HW153725   6.399   6.856   9.226  3.5569 -2.9609 -0.7474
16944SOL    HW253726   6.310   6.788   9.125 -0.4715  0.3825  0.2996
16945SOL     OW53727   6.401  10.649   1.885  0.2446  0.6319  0.1019
16945SOL    HW153728   6.392  10.703   1.806  0.6300  0.2011 -0.2408
16945SOL    HW253729   6.438  10.709   1.951 -0.9046  1.2344  0.2280
16946SOL     OW53730   7.489   3.172   5.745  0.1573 -0.6330 -0.1118
16946SOL    HW153731   7.513   3.195   5.835 -1.8489  0.2285  0.2594
16946SOL    HW253732   7.540   3.231   5.691  1.2673 -1.0502  0.4539
16947SOL     OW53733   5.151   6.983   8.425 -0.1074 -0.2925  0.6667
16947SOL    HW153734   5.071   6.978   8.477  0.3829 -0.5654  1.4026
16947SOL    HW253735   5.121   7.006   8.337 -1.2063 -2.2835  0.4519
16948SOL     OW53736   9.929   1.861   9.561  0.5061  0.5149 -0.1933
16948SOL    HW153737   9.842   1.888   9.592  0.9350  0.8607  0.7805
16948SOL    HW253738   9.987   1.932   9.590  1.3388 -0.4252  0.4992
16949SOL     OW53739   9.747   3.110   2.311 -0.5614 -0.1395  0.4856
16949SOL    HW153740   9.821   3.110   2.372 -2.1627 -0.1359  2.5504
16949SOL    HW253741   9.710   3.022   2.320 -0.0687 -0.6026 -1.5506
16950SOL     OW53742   3.294  10.112   2.729 -0.1970  0.3329  0.1034
16950SOL    HW153743   3.337  10.143   2.809 -1.8046  1.5369  0.5509
16950SOL    HW253744   3.319  10.175   2.662  1.6284 -0.9993 -0.5512
16951SOL     OW53745   5.538   4.800   2.905 -0.5393 -0.0533 -0.5379
16951SOL    HW153746   5.628   4.780   2.881 -0.3717  0.0326  0.0243
16951SOL    HW253747   5.488   4.781   2.825 -0.1202 -0.7613 -0.6473
16952SOL     OW53748   3.764   6.673   9.128  0.3500  0.1254 -0.4232
16952SOL    HW153749   3.832   6.722   9.082  1.1537  0.6789  1.2542
16952SOL    HW253750   3.770   6.704   9.219 -0.6096 -1.5057  0.2367
16953SOL     OW53751   4.421   4.074  10.341  0.2278  0.4768  0.6953
16953SOL    HW153752   4.425   4.102  10.433  1.5744  0.6615  0.5946
16953SOL    HW253753   4.361   4.137  10.300 -2.5944 -1.1703  1.9466
16954SOL     OW53754   2.687   4.372   8.475  0.1880  0.3441  0.0370
16954SOL    HW153755   2.608   4.374   8.421 -0.9773 -1.1174  1.6174
16954SOL    HW253756   2.740   4.302   8.436  0.6695  1.2238 -0.9298
16955SOL     OW53757   0.818   6.963   4.323 -0.0097  0.1531  0.2380
16955SOL    HW153758   0.872   6.884   4.317 -1.2573 -0.6966 -0.1267
16955SOL    HW253759   0.873   7.026   4.370  0.7878 -1.1336  1.0995
16956SOL     OW53760   0.255   0.211   5.119  0.5834 -0.1852  0.4534
16956SOL    HW153761   0.347   0.207   5.091  0.0804  1.1352 -1.5697
16956SOL    HW253762   0.253   0.279   5.186  1.0030  0.1459  0.1364
16957SOL     OW53763   8.541   2.908  10.222 -0.0013  0.0001  0.1452
16957SOL    HW153764   8.579   2.994  10.205 -0.8250  0.3356 -0.0527
16957SOL    HW253765   8.555   2.859  10.140 -1.6159  0.7446 -0.6353
16958SOL     OW53766   5.570   5.544   7.846  0.8199  0.8588 -0.0202
16958SOL    HW153767   5.574   5.636   7.872 -0.8326  1.5009 -1.7859
16958SOL    HW253768   5.508   5.542   7.773 -0.9441 -1.9821  1.3522
16959SOL     OW53769   4.276   1.009   3.851  0.0047  0.6828  0.4043
16959SOL    HW153770   4.302   1.100   3.837 -0.7180  0.7744 -0.4152
16959SOL    HW253771   4.182   1.013   3.867 -0.0290  0.0817  0.3678
16960SOL     OW53772   5.912   1.306   8.126 -0.3778 -0.1968 -0.7009
16960SOL    HW153773   5.971   1.236   8.094  0.5247 -0.4331  1.3157
16960SOL    HW253774   5.970   1.365   8.174 -1.6912 -0.0744  0.7834
16961SOL     OW53775   3.639   4.084   9.594  0.4557  0.1812 -0.0168
16961SOL    HW153776   3.672   3.999   9.567 -1.1168 -0.6939  0.6471
16961SOL    HW253777   3.703   4.116   9.657  0.0552 -1.5022  1.3243
16962SOL     OW53778   3.461   9.460   9.138  0.3353  0.0092  0.6094
16962SOL    HW153779   3.439   9.395   9.070 -2.0269  1.3420  0.0025
16962SOL    HW253780   3.546   9.495   9.110 -1.1191  1.4613 -2.5325
16963SOL     OW53781   1.575   3.001   4.340  0.2204  0.1205 -0.0275
16963SOL    HW153782   1.553   2.952   4.261 -0.0243  0.9638 -0.4927
16963SOL    HW253783   1.492   3.035   4.371  0.2975 -0.3010  0.6748
16964SOL     OW53784   2.432   3.679   5.771 -0.4279 -0.6841  0.1421
16964SOL    HW153785   2.395   3.711   5.853 -0.4996 -1.3162  0.3663
16964SOL    HW253786   2.457   3.588   5.790  0.2300 -0.6111 -0.3222
16965SOL     OW53787   8.830   1.070   0.645 -0.4500  0.5075 -0.0386
16965SOL    HW153788   8.803   1.049   0.734 -0.3337  1.0471  0.1275
16965SOL    HW253789   8.911   1.121   0.656  0.8853 -1.4095 -0.5351
16966SOL     OW53790   9.846   5.983   4.390 -0.5154  0.0709 -0.3009
16966SOL    HW153791   9.864   5.892   4.413  0.9618  0.2388 -0.7454
16966SOL    HW253792   9.852   6.030   4.473 -0.5783 -0.1207 -0.1851
16967SOL     OW53793   1.677   5.143   8.205 -0.2412  0.0819 -0.7255
16967SOL    HW153794   1.659   5.056   8.170  0.4675  0.1512 -1.3035
16967SOL    HW253795   1.621   5.151   8.282  1.0521 -1.6188  0.4629
16968SOL     OW53796   1.361   7.875   2.270 -0.6478 -0.4714 -0.1568
16968SOL    HW153797   1.439   7.913   2.229  0.0655 -1.6421  0.0551
16968SOL    HW253798   1.370   7.898   2.363  0.5009 -2.2383  0.2136
16969SOL     OW53799   3.549   1.897   4.659  0.5494 -0.6544 -0.3267
16969SOL    HW153800   3.616   1.870   4.596 -1.2923 -2.9185 -1.4820
16969SOL    HW253801   3.563   1.839   4.734  0.1839 -0.8382 -0.3966
16970SOL     OW53802   4.367   4.366   3.495 -0.5841 -0.0590  0.4520
16970SOL    HW153803   4.445   4.313   3.484 -1.6667 -1.5446 -0.4448
16970SOL    HW253804   4.343   4.393   3.406 -0.6342  1.1050  0.7963
16971SOL     OW53805   5.870   9.566   8.888 -0.3203  0.0612  0.1463
16971SOL    HW153806   5.933   9.505   8.850 -0.7637  0.2537 -0.9271
16971SOL    HW253807   5.878   9.552   8.983 -0.6896 -1.9552 -0.0706
16972SOL     OW53808   3.753   6.651   1.633 -0.0191  0.5166 -0.0151
16972SOL    HW153809   3.759   6.559   1.658  1.1845  0.4474 -0.4729
16972SOL    HW253810   3.660   6.672   1.637 -0.4252 -1.0103 -0.9473
16973SOL     OW53811   5.083   2.281   4.835  0.3146  0.6459 -0.0055
16973SOL    HW153812   5.178   2.277   4.822  0.4132 -0.2071  0.8657
16973SOL    HW253813   5.059   2.194   4.867 -1.2247 -0.1428 -2.9414
16974SOL     OW53814   3.107   7.414   5.311 -0.4456 -0.8733 -0.4298
16974SOL    HW153815   3.126   7.443   5.400  0.4847 -1.0281 -0.5620
16974SOL    HW253816   3.013   7.429   5.300 -0.5606 -0.7969  0.5511
16975SOL     OW53817   6.974   6.813   9.722  0.4626  0.2351  0.6348
16975SOL    HW153818   7.020   6.897   9.711  0.1214  0.5605  1.5421
16975SOL    HW253819   6.984   6.794   9.816 -0.6732 -0.0234  0.7096
16976SOL     OW53820   6.550   7.139   4.457  0.5432  0.1668  0.0521
16976SOL    HW153821   6.524   7.069   4.517  0.8853 -0.2756 -0.3053
16976SOL    HW253822   6.555   7.096   4.371  2.0391  0.3227  0.0375
16977SOL     OW53823   5.297   5.001  10.144 -0.1882  0.1451  0.4569
16977SOL    HW153824   5.302   5.009  10.049  1.2861 -1.8383  0.3072
16977SOL    HW253825   5.255   5.082  10.172  1.0390  1.6389 -1.7131
16978SOL     OW53826  10.668   4.795   0.201 -0.2865  0.9279  0.0532
16978SOL    HW153827  10.577   4.769   0.219 -1.4837  2.5724 -2.8921
16978SOL    HW253828  10.676   4.883   0.238 -0.5564  1.5339 -1.2609
16979SOL     OW53829   4.078   0.157   7.721  0.0234 -0.2886 -0.2196
16979SOL    HW153830   4.072   0.209   7.641  4.6422  2.1697  0.6644
16979SOL    HW253831   4.018   0.200   7.782  0.3301  1.1857 -0.9036
16980SOL     OW53832   3.644   8.546   9.467 -0.2746  0.3575 -0.1862
16980SOL    HW153833   3.601   8.549   9.381 -0.0163  1.4525 -0.2913
16980SOL    HW253834   3.737   8.551   9.448 -0.2132  0.5493  0.1532
16981SOL     OW53835   6.121   4.253   4.216  0.1037  0.3501 -0.2375
16981SOL    HW153836   6.045   4.296   4.255 -0.6964 -2.6624  1.9395
16981SOL    HW253837   6.084   4.200   4.145  0.2537 -0.5556  0.3507
16982SOL     OW53838   9.133   1.864   0.515 -0.4437 -0.0517  0.2350
16982SOL    HW153839   9.105   1.784   0.470 -0.4658  0.3920 -0.5494
16982SOL    HW253840   9.097   1.935   0.463  0.2764  0.4911  0.4632
16983SOL     OW53841  10.699   7.445   3.542  0.1279 -0.4765  0.5568
16983SOL    HW153842  10.638   7.514   3.519 -0.8820 -2.0178 -1.7579
16983SOL    HW253843  10.674   7.419   3.631 -0.1509  1.3641  1.0485
16984SOL     OW53844   7.994   2.682   1.622  0.3620  0.5160  0.4484
16984SOL    HW153845   7.917   2.735   1.643  0.0495  0.8570 -1.4189
16984SOL    HW253846   7.964   2.620   1.556  1.7536  0.9027 -0.6081
16985SOL     OW53847   5.742   8.680   4.249  0.2304 -0.1106  0.1410
16985SOL    HW153848   5.719   8.690   4.157 -0.7247  0.5259  0.4330
16985SOL    HW253849   5.713   8.592   4.272  1.9763 -0.9159 -0.5694
16986SOL     OW53850   7.485   6.792   8.098 -0.0321  0.0221  0.1235
16986SOL    HW153851   7.425   6.863   8.075 -1.6022 -1.1851  0.3234
16986SOL    HW253852   7.491   6.740   8.019  0.8917  0.2117  0.0636
16987SOL     OW53853   3.722   5.221   8.022  0.1363 -0.3115 -0.2550
16987SOL    HW153854   3.704   5.137   7.978  0.6346 -1.3685  1.4487
16987SOL    HW253855   3.661   5.222   8.096  1.6362 -0.2424  1.0220
16988SOL     OW53856   2.097   4.442   2.694  0.7598 -0.0038  0.1882
16988SOL    HW153857   2.126   4.432   2.785  0.8239 -3.2403 -0.0754
16988SOL    HW253858   2.148   4.378   2.645 -1.0180 -0.0924 -1.6949
16989SOL     OW53859   0.722   3.740   5.993  0.4951 -0.5125  0.0852
16989SOL    HW153860   0.700   3.730   6.086 -1.1122 -0.4870 -0.2628
16989SOL    HW253861   0.761   3.827   5.986 -1.0067  0.2133  0.4727
16990SOL     OW53862   0.210   6.911   7.516 -0.1825 -0.0631 -0.1898
16990SOL    HW153863   0.236   6.932   7.426  0.7663 -0.1769  0.0485
16990SOL    HW253864   0.150   6.837   7.507  0.2973 -0.3988 -0.6948
16991SOL     OW53865   8.225  10.301  10.515  0.4673 -0.6347  0.2801
16991SOL    HW153866   8.299  10.344  10.472 -0.4252  0.2360 -0.4496
16991SOL    HW253867   8.244  10.309  10.608  1.8765 -1.5163  0.0985
16992SOL     OW53868   1.550   2.883   7.817  0.0691 -0.2233  0.0446
16992SOL    HW153869   1.596   2.961   7.849 -0.3914  0.2068 -0.3209
16992SOL    HW253870   1.460   2.895   7.845 -0.0562 -0.4992 -0.2361
16993SOL     OW53871   4.260   3.390   5.500 -0.0247  0.4830 -0.1016
16993SOL    HW153872   4.226   3.479   5.507 -1.6801 -0.0859 -0.5753
16993SOL    HW253873   4.238   3.362   5.411  1.2212 -0.1269 -0.2462
16994SOL     OW53874   4.776   0.156   6.192  0.2297 -0.5609 -0.2239
16994SOL    HW153875   4.758   0.249   6.187 -0.2858 -0.5023  1.8668
16994SOL    HW253876   4.727   0.118   6.119 -3.2014  0.3475  1.3967
16995SOL     OW53877   3.951   6.160   5.816 -0.0998  0.3613  0.4203
16995SOL    HW153878   4.032   6.202   5.845 -0.1734  1.8849 -1.3371
16995SOL    HW253879   3.950   6.172   5.721 -1.7250 -0.8524  0.2248
16996SOL     OW53880   4.568   7.519   0.848  0.0063  0.2821  0.1161
16996SOL    HW153881   4.476   7.543   0.855  0.0528 -0.0643  4.0754
16996SOL    HW253882   4.567   7.427   0.823 -0.5126  0.9916 -2.8567
16997SOL     OW53883   0.174  10.769   2.567  0.1305 -0.1922  0.3994
16997SOL    HW153884   0.217  10.855   2.569  0.7065 -0.4240 -1.0991
16997SOL    HW253885   0.242  10.708   2.596  0.0274 -0.2669  0.4823
16998SOL     OW53886   4.761   8.911  10.377 -0.1588  0.4977 -0.2190
16998SOL    HW153887   4.722   8.831  10.343 -0.5478  0.2538  0.7661
16998SOL    HW253888   4.774   8.966  10.300  2.3436 -1.4049 -1.3463
16999SOL     OW53889   5.966   1.430   4.135 -0.5685 -0.4149 -0.3000
16999SOL    HW153890   5.974   1.349   4.085 -0.6694 -1.0264  0.6596
16999SOL    HW253891   5.965   1.499   4.068 -0.9802 -1.2264 -1.1578
17000SOL     OW53892   7.257   6.173   7.108 -0.5496  0.3288 -0.0092
17000SOL    HW153893   7.236   6.255   7.153  0.2220  0.9791 -0.8121
17000SOL    HW253894   7.266   6.109   7.179  1.2923  1.4585  0.8622
17001SOL     OW53895   2.060   1.441   2.093  0.1362  0.0687  0.1132
17001SOL    HW153896   2.055   1.524   2.141  1.4144  0.7603 -0.8849
17001SOL    HW253897   1.969   1.420   2.072 -0.3618  0.2694  1.8979
17002SOL     OW53898   2.158  10.646   3.121  0.4161  0.6338 -0.2473
17002SOL    HW153899   2.211  10.716   3.083  1.6228 -1.6871 -3.3408
17002SOL    HW253900   2.072  10.657   3.081  0.8510 -0.0540 -1.4448
17003SOL     OW53901   8.436  10.401   3.420 -0.6831  0.3960  0.3118
17003SOL    HW153902   8.489  10.477   3.444 -0.2105  0.3099 -0.4513
17003SOL    HW253903   8.394  10.426   3.338 -1.5679  0.3304  0.7342
17004SOL     OW53904   2.626   3.567   0.901  0.0654  0.4056 -0.0586
17004SOL    HW153905   2.633   3.487   0.954  0.6673 -0.1053 -0.8814
17004SOL    HW253906   2.686   3.629   0.943  0.4269  0.0564 -0.0514
17005SOL     OW53907   5.587   8.106   7.882 -0.2838  0.1648  0.2650
17005SOL    HW153908   5.674   8.130   7.850 -0.1518  0.3644  0.7680
17005SOL    HW253909   5.569   8.022   7.840 -0.7713  1.1217 -1.5426
17006SOL     OW53910   7.347   1.310   9.823  0.2962 -0.1570  0.0785
17006SOL    HW153911   7.335   1.273   9.910  1.9017 -2.8449 -0.6953
17006SOL    HW253912   7.370   1.234   9.768 -1.5562  1.2572 -2.9028
17007SOL     OW53913   4.808   0.125   6.635  0.6481  0.0766  0.2051
17007SOL    HW153914   4.850   0.199   6.679 -0.5441  0.1329  1.2972
17007SOL    HW253915   4.755   0.164   6.566  1.8217  0.0465 -0.7586
17008SOL     OW53916   9.317   3.570   8.119  0.0950  0.2073 -0.4034
17008SOL    HW153917   9.320   3.512   8.195  1.2181  0.1281 -0.4968
17008SOL    HW253918   9.224   3.590   8.108 -0.1123  0.0540  0.8625
17009SOL     OW53919   4.759   5.957   9.629  0.0189 -0.0867 -0.1741
17009SOL    HW153920   4.753   5.862   9.619 -1.3963 -0.0611  0.3154
17009SOL    HW253921   4.701   5.978   9.702  0.3760  1.1540 -0.2154
17010SOL     OW53922   7.017   6.411   9.968 -0.0336 -0.5227  0.1562
17010SOL    HW153923   6.979   6.401  10.055  2.3057 -1.3821  1.1672
17010SOL    HW253924   7.044   6.503   9.963  1.8171 -0.9410  1.3081
17011SOL     OW53925   9.658   1.113   0.502  0.3759  0.4587  0.5928
17011SOL    HW153926   9.603   1.166   0.444  2.5036  1.1293 -0.9591
17011SOL    HW253927   9.693   1.045   0.445 -0.3644 -1.1661  2.0068
17012SOL     OW53928  10.032   2.368   9.124  0.3131 -0.5431  0.1452
17012SOL    HW153929   9.941   2.339   9.125  0.7803 -2.2651 -1.5846
17012SOL    HW253930  10.026   2.463   9.133 -1.6224 -0.6385  0.3860
17013SOL     OW53931   0.572   8.778   9.903 -0.2108  0.0888  0.1243
17013SOL    HW153932   0.507   8.708   9.909 -0.9745  0.9130  2.4091
17013SOL    HW253933   0.562   8.811   9.813 -2.1001 -0.6111  0.0284
17014SOL     OW53934   5.539   1.469   8.409  0.0079  0.1816 -0.1256
17014SOL    HW153935   5.446   1.489   8.395  0.3204  1.0393 -1.0739
17014SOL    HW253936   5.560   1.406   8.339 -0.0329 -0.6142  0.5587
17015SOL     OW53937   8.658   3.939   9.917  0.4708 -0.2179 -0.6369
17015SOL    HW153938   8.631   3.858   9.960  1.1317  0.6096  1.4598
17015SOL    HW253939   8.694   3.910   9.833 -3.8899 -1.6076 -2.2903
17016SOL     OW53940   9.250   7.012   9.062  0.0924 -0.3979 -0.0132
17016SOL    HW153941   9.213   7.061   8.988 -1.4533 -2.7295 -0.8819
17016SOL    HW253942   9.217   7.057   9.140  0.0581  0.8652 -0.7239
17017SOL     OW53943   1.915  10.607   0.703 -0.0986 -0.0895  0.0137
17017SOL    HW153944   1.980  10.673   0.677 -0.3958  0.0379 -0.4157
17017SOL    HW253945   1.891  10.631   0.792 -0.6689  0.7690 -0.3580
17018SOL     OW53946   6.863   3.370   0.731 -0.0274 -0.0341  0.3314
17018SOL    HW153947   6.954   3.399   0.733 -0.8178  2.6915  0.9919
17018SOL    HW253948   6.858   3.310   0.657  2.3021 -0.3792  0.3823
17019SOL     OW53949   8.463   8.616   7.924  0.2732 -0.4569  0.1203
17019SOL    HW153950   8.396   8.561   7.966 -0.4490  0.4119  0.1546
17019SOL    HW253951   8.541   8.602   7.977 -0.7245  0.9398  2.1029
17020SOL     OW53952   5.250   2.122   1.196 -0.4235  0.2966  0.1457
17020SOL    HW153953   5.236   2.037   1.237  2.4075 -0.0265  0.6326
17020SOL    HW253954   5.264   2.103   1.104 -2.0945  0.5306 -0.1859
17021SOL     OW53955  10.650   9.256   5.769  0.3734 -0.3902 -0.6358
17021SOL    HW153956  10.655   9.231   5.677  0.3113 -0.5987 -0.5839
17021SOL    HW253957  10.581   9.322   5.773  0.0905 -0.6802 -0.6752
17022SOL     OW53958   2.085   3.185   5.529 -0.1130 -0.2151 -0.2215
17022SOL    HW153959   2.034   3.105   5.515  0.6293 -0.1854 -3.8074
17022SOL    HW253960   2.044   3.250   5.472  0.3553  1.5504  1.3500
17023SOL     OW53961   4.396   2.541   5.351 -0.5840 -0.1397  0.0296
17023SOL    HW153962   4.314   2.493   5.345 -0.7123  0.1804 -0.7888
17023SOL    HW253963   4.405   2.586   5.267  0.0574  0.4240  0.3855
17024SOL     OW53964   5.254   2.066   3.431  0.0343 -0.4448  0.5470
17024SOL    HW153965   5.194   2.040   3.361 -0.5486 -1.0658  1.2456
17024SOL    HW253966   5.293   1.984   3.460 -0.3001 -0.3058  1.4374
17025SOL     OW53967   9.273   4.210   2.121  0.2950 -0.0449 -0.3207
17025SOL    HW153968   9.323   4.284   2.155 -1.3104  0.4341  1.1010
17025SOL    HW253969   9.273   4.222   2.026 -0.4010  2.1221 -0.0844
17026SOL     OW53970   6.738  10.065   5.311 -0.0050  0.2870  0.0751
17026SOL    HW153971   6.805  10.044   5.376 -0.6341 -1.7242  0.1294
17026SOL    HW253972   6.781  10.127   5.252  1.1674  0.7359  1.3447
17027SOL     OW53973   8.841   8.167   4.962  0.3947 -0.1945 -0.1056
17027SOL    HW153974   8.813   8.205   4.878  0.4951 -0.8952 -0.4626
17027SOL    HW253975   8.897   8.094   4.937  1.0177  0.0377  0.5865
17028SOL     OW53976   9.636   5.525   7.564 -0.2076  0.0436  0.8285
17028SOL    HW153977   9.644   5.611   7.605  1.7720  0.7131 -0.8289
17028SOL    HW253978   9.564   5.535   7.501 -1.3326 -0.1588  2.0356
17029SOL     OW53979  10.269   2.377   9.984 -0.2125 -0.0780  0.0005
17029SOL    HW153980  10.336   2.313  10.006 -1.4756 -1.4573 -0.0617
17029SOL    HW253981  10.250   2.362   9.891 -0.9956 -0.0932  0.1558
17030SOL     OW53982   1.236   7.380   3.057 -0.0711  0.1809 -0.2830
17030SOL    HW153983   1.326   7.411   3.043  0.2768 -0.6149  0.1360
17030SOL    HW253984   1.199   7.443   3.118  0.6782 -0.2692  0.6766
17031SOL     OW53985  10.199   3.622   6.029  0.3455  0.6486 -0.1421
17031SOL    HW153986  10.107   3.615   6.002  0.6186  2.1889 -1.6654
17031SOL    HW253987  10.213   3.716   6.041  2.4675  0.8271 -2.9674
17032SOL     OW53988  10.036   2.843   1.731  0.3675 -0.8051 -0.6765
17032SOL    HW153989  10.034   2.832   1.636 -0.2381 -0.4191 -0.7114
17032SOL    HW253990   9.966   2.905   1.750  0.0007 -1.4322  0.0955
17033SOL     OW53991   1.012   6.971   9.041 -0.5752  0.3307  0.4424
17033SOL    HW153992   1.065   7.051   9.046  0.6671 -0.2622 -1.8111
17033SOL    HW253993   1.005   6.953   8.947 -2.4393 -1.1966  0.8158
17034SOL     OW53994   0.496  10.704   0.868  0.7103 -0.1528  0.2053
17034SOL    HW153995   0.581  10.741   0.891  0.7392 -0.0561 -0.0541
17034SOL    HW253996   0.432  10.768   0.900  0.6898 -0.7392  1.3717
17035SOL     OW53997   6.148   5.028   4.258  0.4823  0.0062 -0.1435
17035SOL    HW153998   6.141   4.954   4.319 -1.4331  0.5223  0.3347
17035SOL    HW253999   6.058   5.041   4.227  1.1761  0.6888 -1.9912
17036SOL     OW54000   3.370   6.626   2.441 -0.0104  0.2788 -0.3179
17036SOL    HW154001   3.287   6.633   2.487 -0.4560  0.3416 -1.1178
17036SOL    HW254002   3.386   6.714   2.405 -0.6851 -0.2437 -1.9838
17037SOL     OW54003   7.886   5.587   3.573  0.0133  0.8075 -0.7697
17037SOL    HW154004   7.793   5.592   3.550  0.1102  0.0344 -1.3657
17037SOL    HW254005   7.914   5.501   3.542  0.2346 -0.2652  2.0417
17038SOL     OW54006   4.439   9.981  10.257 -0.5284 -0.1220  0.1019
17038SOL    HW154007   4.390  10.058  10.284  0.0520  0.1418  0.4037
17038SOL    HW254008   4.515   9.978  10.315  0.1726 -0.1431 -0.7967
17039SOL     OW54009  10.712   9.500   1.495 -0.3426  0.1121 -0.1617
17039SOL    HW154010  10.741   9.457   1.575 -0.9647  1.0194  0.5732
17039SOL    HW254011  10.617   9.501   1.501 -0.3543  1.8941  0.0416
17040SOL     OW54012   2.565   7.369   4.219 -0.1371 -0.0214  0.2408
17040SOL    HW154013   2.529   7.388   4.306  1.3655  0.4073  0.7990
17040SOL    HW254014   2.551   7.450   4.170 -0.8383 -0.2070  0.1208
17041SOL     OW54015   0.890   3.023   5.461 -0.1625 -0.1037  1.0531
17041SOL    HW154016   0.851   3.046   5.545  1.4780  1.0595  1.5415
17041SOL    HW254017   0.977   2.991   5.482  1.4153  2.8610 -0.2790
17042SOL     OW54018   8.627   4.316   5.232 -0.0931 -0.4709  0.2094
17042SOL    HW154019   8.673   4.249   5.282 -0.6376  0.0917  1.5191
17042SOL    HW254020   8.552   4.339   5.287 -0.1037  0.9627 -0.3630
17043SOL     OW54021   9.149   1.188   8.688  0.4124 -0.1282 -0.2917
17043SOL    HW154022   9.120   1.232   8.608  2.2159 -0.8370 -1.3950
17043SOL    HW254023   9.239   1.161   8.670  1.1751  0.3935  2.2903
17044SOL     OW54024   7.901   6.438   7.571  0.2633  0.4867 -0.1061
17044SOL    HW154025   7.850   6.357   7.576  0.1257  0.6317  1.2574
17044SOL    HW254026   7.972   6.418   7.510  0.5617 -0.8585  0.6544
17045SOL     OW54027   2.070   5.501   9.137  0.1906 -0.3277 -0.6351
17045SOL    HW154028   2.155   5.501   9.093 -0.0539  0.5563 -1.1326
17045SOL    HW254029   2.071   5.578   9.193 -0.7558  0.4326 -1.6144
17046SOL     OW54030   7.596   9.522  10.665 -0.3294 -0.1631  0.3285
17046SOL    HW154031   7.530   9.500  10.730 -0.0141  1.3786  1.1914
17046SOL    HW254032   7.633   9.605  10.694  0.2373  0.2721 -1.4931
17047SOL     OW54033   6.814   2.316   7.939 -0.3279 -0.6389 -0.1490
17047SOL    HW154034   6.774   2.229   7.935  1.3570 -1.4291 -1.7136
17047SOL    HW254035   6.902   2.300   7.974  0.1162  0.3644 -0.7472
17048SOL     OW54036   0.735   2.797   9.288  0.5157  0.2135  0.0609
17048SOL    HW154037   0.645   2.798   9.258  0.1069 -0.0311  1.1989
17048SOL    HW254038   0.777   2.728   9.237 -0.5287 -1.2172  1.0333
17049SOL     OW54039   1.984   2.667   3.994  0.5050 -0.1426 -0.1004
17049SOL    HW154040   2.068   2.628   4.017  1.2704 -0.4547 -2.9904
17049SOL    HW254041   1.999   2.761   3.999  0.1310 -0.1543  2.0847
17050SOL     OW54042   1.604   5.516   0.742 -0.2262  0.2508  0.5558
17050SOL    HW154043   1.642   5.446   0.689 -2.1643 -1.3317  1.1407
17050SOL    HW254044   1.562   5.574   0.678  3.4526  2.4071 -0.1687
17051SOL     OW54045   4.997   4.033   9.183 -0.3197  0.2810  0.5734
17051SOL    HW154046   5.062   4.096   9.152 -0.8038  0.6647  0.3251
17051SOL    HW254047   5.044   3.949   9.184  1.2610  1.0417  3.7832
17052SOL     OW54048   8.792   0.357   5.599  0.4785 -0.2943  0.1408
17052SOL    HW154049   8.788   0.404   5.516 -2.3517  1.0856  0.9513
17052SOL    HW254050   8.721   0.293   5.595 -0.6758  0.7633  1.9586
17053SOL     OW54051  10.600   5.070   1.664  0.1385 -0.8233 -0.3639
17053SOL    HW154052  10.598   5.066   1.568 -1.4151 -0.0195 -0.4015
17053SOL    HW254053  10.693   5.070   1.686  0.5547  0.0405 -1.9330
17054SOL     OW54054   7.815   7.613   7.352  0.4778 -0.2528 -0.3911
17054SOL    HW154055   7.867   7.577   7.280  0.4008 -4.0840  1.2385
17054SOL    HW254056   7.731   7.566   7.346  0.3543 -0.4209  1.9377
17055SOL     OW54057   5.769   3.846   7.406 -0.4088  0.0648  0.0684
17055SOL    HW154058   5.820   3.924   7.429 -0.5980  0.0915  0.4165
17055SOL    HW254059   5.773   3.791   7.484  0.4228 -0.6609 -0.4780
17056SOL     OW54060   4.410   1.482   7.158  0.6655 -0.5974  0.7489
17056SOL    HW154061   4.337   1.435   7.117 -1.6194  2.0120  1.5105
17056SOL    HW254062   4.409   1.451   7.249 -0.0186 -0.0581  0.9375
17057SOL     OW54063   5.802   6.297   5.366  0.4581  0.3214 -0.4714
17057SOL    HW154064   5.740   6.323   5.435  1.0763  1.5140 -0.3478
17057SOL    HW254065   5.765   6.333   5.286 -0.3964 -1.2869 -0.8486
17058SOL     OW54066   6.517   9.921   2.929 -0.3431  0.1077 -0.2425
17058SOL    HW154067   6.463   9.914   3.007 -0.2310 -0.9075 -0.2412
17058SOL    HW254068   6.596   9.871   2.950  0.4753  1.3170 -0.3541
17059SOL     OW54069   4.279   9.516   3.435  0.2324 -0.5692  0.6244
17059SOL    HW154070   4.204   9.461   3.458 -0.3454 -0.3789 -0.7174
17059SOL    HW254071   4.244   9.582   3.376  1.4978 -0.6302 -0.2445
17060SOL     OW54072   1.507   6.180  10.374  0.2195 -0.3018 -0.2979
17060SOL    HW154073   1.490   6.164  10.281 -0.4703 -2.1464  0.1025
17060SOL    HW254074   1.460   6.111  10.420  0.6351  0.4964  1.4436
17061SOL     OW54075   2.661   3.294   4.044  0.3176 -0.4087 -0.1224
17061SOL    HW154076   2.688   3.355   4.113  0.0822 -0.7858  0.3088
17061SOL    HW254077   2.566   3.286   4.054  0.3974 -1.1851  0.1190
17062SOL     OW54078   0.337   2.450  10.169  0.4508  0.4523  0.0991
17062SOL    HW154079   0.339   2.525  10.110  2.4390  0.4898  0.1340
17062SOL    HW254080   0.275   2.475  10.238  0.4663  1.7244 -0.3231
17063SOL     OW54081   4.176   2.517   3.946  0.0638  0.1730 -0.0806
17063SOL    HW154082   4.113   2.448   3.924  0.3530 -0.3357  0.6463
17063SOL    HW254083   4.180   2.571   3.867  0.7759 -1.3690 -1.1657
17064SOL     OW54084   1.482   4.855   6.941  0.4341  0.2981  0.6520
17064SOL    HW154085   1.563   4.868   6.991  1.0242  1.6909 -0.6103
17064SOL    HW254086   1.511   4.847   6.850 -0.8196  0.3200  0.2356
17065SOL     OW54087   6.140   8.966   2.016 -0.3259 -0.6617 -0.6740
17065SOL    HW154088   6.063   9.021   1.997  0.7415  0.7159 -1.1741
17065SOL    HW254089   6.200   8.984   1.944  1.6456  0.5328  1.1734
17066SOL     OW54090   6.768   8.678   3.234 -0.2312  0.4993  0.2832
17066SOL    HW154091   6.775   8.669   3.329 -1.0456  0.5727  0.3613
17066SOL    HW254092   6.680   8.647   3.214 -0.0584  0.4760 -0.4500
17067SOL     OW54093   6.724   3.130   2.674  0.3364 -0.3632  0.3667
17067SOL    HW154094   6.692   3.159   2.588 -0.6026 -1.3371  0.3756
17067SOL    HW254095   6.647   3.129   2.730  0.4504 -2.1926  0.5477
17068SOL     OW54096   7.267   9.209   3.830 -0.0520 -0.3024  1.1987
17068SOL    HW154097   7.293   9.150   3.760  0.9953 -1.7234  2.6847
17068SOL    HW254098   7.275   9.297   3.792 -1.1251 -1.0439 -0.9042
17069SOL     OW54099   4.588   9.946   9.281  0.3478 -0.0684 -0.0127
17069SOL    HW154100   4.501   9.926   9.317 -1.4409  2.0837 -2.7470
17069SOL    HW254101   4.610  10.032   9.317  2.0329 -1.1194  1.6483
17070SOL     OW54102  10.362   6.251   4.255  0.4926  0.6301  0.5002
17070SOL    HW154103  10.380   6.309   4.181 -0.1274  0.8056  0.4771
17070SOL    HW254104  10.448   6.224   4.287  0.7708  0.4088 -0.4007
17071SOL     OW54105   0.819   1.668  10.033 -0.3239 -0.0711 -0.0792
17071SOL    HW154106   0.762   1.698  10.104 -1.3446  1.5253 -1.4973
17071SOL    HW254107   0.798   1.575  10.022 -1.1028 -0.0096  0.8056
17072SOL     OW54108   3.597   5.874   7.992  0.2812 -0.3674  0.0704
17072SOL    HW154109   3.688   5.857   7.965  0.1377 -0.6455 -0.2363
17072SOL    HW254110   3.588   5.969   7.983  0.6977 -0.2693  0.5971
17073SOL     OW54111   9.163   9.155   4.091  0.2991  0.6151 -0.8992
17073SOL    HW154112   9.105   9.229   4.109 -2.5834 -1.4121 -1.1796
17073SOL    HW254113   9.120   9.080   4.133  2.3885 -1.1645 -1.7208
17074SOL     OW54114   9.135   1.448   5.994  0.3581 -0.2555  0.4789
17074SOL    HW154115   9.165   1.395   5.920  0.9705  0.3481  0.2849
17074SOL    HW254116   9.060   1.497   5.960  0.4384 -0.2196  0.3498
17075SOL     OW54117   0.756   9.145   0.939 -0.1534 -0.1523  0.3560
17075SOL    HW154118   0.729   9.068   0.891 -0.6005 -0.1870  0.6592
17075SOL    HW254119   0.684   9.162   1.000 -0.9222  1.6036 -0.9661
17076SOL     OW54120   5.235   9.493   2.558 -0.5911 -0.3214 -0.1206
17076SOL    HW154121   5.285   9.531   2.631  1.2502 -1.8499 -0.5119
17076SOL    HW254122   5.147   9.481   2.594 -0.1801  0.5732  1.2768
17077SOL     OW54123   9.664   8.578   0.797  0.8482  0.6722  0.3508
17077SOL    HW154124   9.662   8.621   0.883  1.7987 -0.2074  0.8282
17077SOL    HW254125   9.682   8.649   0.736 -1.0930  1.5411  0.6954
17078SOL     OW54126   0.043   1.349   5.739 -0.3917 -0.9244  0.2365
17078SOL    HW154127   0.061   1.333   5.832  0.6601 -1.7741 -0.0887
17078SOL    HW254128   0.093   1.428   5.718  1.2064 -1.9769 -0.1068
17079SOL     OW54129   1.495   3.469   1.991 -0.3116 -0.2424 -0.7050
17079SOL    HW154130   1.405   3.444   1.970 -1.2375  0.9934  1.4334
17079SOL    HW254131   1.537   3.388   2.018 -1.9150 -0.3761  1.7426
17080SOL     OW54132   6.953   0.602   2.381  0.3024  0.4148  0.0756
17080SOL    HW154133   6.931   0.671   2.443  0.5986  0.4087  0.1855
17080SOL    HW254134   6.973   0.525   2.436  1.8771  0.7660  0.0427
17081SOL     OW54135   8.065   6.172   2.850  0.0906  0.2509 -0.2597
17081SOL    HW154136   8.002   6.142   2.784 -0.8815 -2.5360  1.6819
17081SOL    HW254137   8.029   6.255   2.881 -1.4892 -0.1991 -0.7483
17082SOL     OW54138   7.980   5.436   7.937 -0.3857 -0.1695 -0.0985
17082SOL    HW154139   7.909   5.492   7.968 -1.9080 -0.1095 -3.2606
17082SOL    HW254140   8.032   5.493   7.879 -0.4993 -1.3241 -1.4005
17083SOL     OW54141   4.592   9.007   6.386  0.1600  0.1690 -0.4868
17083SOL    HW154142   4.511   9.002   6.333 -0.3824 -0.1349  0.3567
17083SOL    HW254143   4.588   9.094   6.426  1.2454  0.9536 -1.9687
17084SOL     OW54144   4.346   8.411   1.911  0.1186 -0.5106 -0.1937
17084SOL    HW154145   4.350   8.405   1.815 -1.3913  0.2328 -0.3283
17084SOL    HW254146   4.257   8.382   1.933 -0.7116  2.4012  0.6904
17085SOL     OW54147   2.166   0.807   3.808 -0.1637 -0.2571 -0.2318
17085SOL    HW154148   2.120   0.862   3.744  0.4925  0.1759 -0.3442
17085SOL    HW254149   2.223   0.868   3.856  0.1272 -0.7415  0.0480
17086SOL     OW54150   8.513   4.612   6.431 -0.1141  0.3651 -0.1480
17086SOL    HW154151   8.569   4.537   6.454 -1.2484 -0.0605  1.4012
17086SOL    HW254152   8.477   4.589   6.345  2.3503  0.8519 -1.4138
17087SOL     OW54153   4.880   9.038   0.164 -0.4114  0.1782 -0.5430
17087SOL    HW154154   4.823   9.013   0.236 -1.5893  0.9135 -1.1793
17087SOL    HW254155   4.946   8.968   0.159  0.9286  1.0579  2.4578
17088SOL     OW54156   9.800   4.958   7.378  0.3814 -0.3067 -0.7163
17088SOL    HW154157   9.883   4.925   7.344  0.1751 -1.9310  0.2229
17088SOL    HW254158   9.812   5.052   7.386  2.1969 -0.5414 -0.4222
17089SOL     OW54159   6.200   2.193   2.282 -0.2876  0.1638  0.3998
17089SOL    HW154160   6.249   2.253   2.337 -0.1631  0.2197  0.2277
17089SOL    HW254161   6.175   2.122   2.341  1.0782 -0.5033  0.2222
17090SOL     OW54162   1.649   1.980   6.467 -0.1268  0.2064  0.4825
17090SOL    HW154163   1.649   2.068   6.504  1.0996  0.2640  0.3755
17090SOL    HW254164   1.718   1.981   6.401  0.6165 -1.1124  1.1846
17091SOL     OW54165   1.114   1.647   5.812  0.5028 -0.1051 -0.5128
17091SOL    HW154166   1.057   1.714   5.850  0.3185 -0.2532 -0.5269
17091SOL    HW254167   1.084   1.565   5.851  0.4440 -0.2321 -0.8251
17092SOL     OW54168  10.337   6.270   5.351 -0.2399 -0.2515  0.2211
17092SOL    HW154169  10.384   6.228   5.422 -0.8671 -1.3021  0.0400
17092SOL    HW254170  10.274   6.327   5.394 -0.2709 -0.4987  0.5043
17093SOL     OW54171   7.915   5.841   5.104 -0.2694  0.4871 -0.5127
17093SOL    HW154172   7.936   5.758   5.061 -0.8431  0.7879 -1.4113
17093SOL    HW254173   7.844   5.878   5.051  0.3529  1.8164 -0.4598
17094SOL     OW54174  10.300   8.316   3.184 -0.3231 -0.1039 -0.1621
17094SOL    HW154175  10.229   8.267   3.224 -0.9379 -0.2735 -1.4149
17094SOL    HW254176  10.357   8.250   3.145 -0.4208  0.0933 -0.6599
17095SOL     OW54177   3.255   7.626   1.405 -0.1654 -0.4472 -0.5920
17095SOL    HW154178   3.223   7.542   1.438  0.6084 -1.0676 -1.3495
17095SOL    HW254179   3.232   7.625   1.312 -0.7291  0.4734 -0.4684
17096SOL     OW54180   5.783   8.752   1.627 -0.1727  0.4503 -0.2211
17096SOL    HW154181   5.757   8.808   1.699 -0.2952  2.4650 -1.7413
17096SOL    HW254182   5.879   8.758   1.625 -0.2163  1.1152 -0.7359
17097SOL     OW54183   3.970   4.655  10.328  0.1279 -0.1983  0.1376
17097SOL    HW154184   3.901   4.717  10.350  0.9729  0.0579  2.3984
17097SOL    HW254185   4.033   4.706  10.277 -0.7368 -0.1144 -0.8767
17098SOL     OW54186   9.192   4.993   7.908 -0.2569 -0.1434 -0.1194
17098SOL    HW154187   9.152   4.936   7.973 -0.9916 -0.7844 -1.0922
17098SOL    HW254188   9.209   4.936   7.833 -1.0114  0.8947 -1.1228
17099SOL     OW54189   2.580   3.277   9.365 -0.4175  0.0024  0.5203
17099SOL    HW154190   2.585   3.196   9.314 -1.8522 -0.1131  0.5381
17099SOL    HW254191   2.543   3.250   9.449  1.2930  0.3056  1.4166
17100SOL     OW54192   7.733   5.792   8.645  0.0478 -0.0234 -0.0041
17100SOL    HW154193   7.784   5.727   8.694 -0.1138 -0.1183  0.0375
17100SOL    HW254194   7.771   5.876   8.670  1.1699 -0.1662 -1.0987
17101SOL     OW54195  10.061   2.436   0.033  0.1261  0.6418 -0.0916
17101SOL    HW154196  10.056   2.424  -0.062  0.0712 -1.0818  0.0816
17101SOL    HW254197  10.009   2.514   0.051  0.5652  1.2843 -1.5233
17102SOL     OW54198   4.788   9.859   3.026 -0.0521 -0.2437  0.4059
17102SOL    HW154199   4.876   9.822   3.017 -0.1836 -0.7253  1.0032
17102SOL    HW254200   4.768   9.894   2.939  1.6104  1.9222  0.8309
17103SOL     OW54201  10.267   7.152  10.287  0.5695 -0.9448 -0.1812
17103SOL    HW154202  10.213   7.135  10.210 -0.4954  1.4495 -0.0602
17103SOL    HW254203  10.219   7.113  10.360  0.4278 -1.2520 -0.4364
17104SOL     OW54204   1.776  10.757   3.556  0.3139  0.5010 -0.5337
17104SOL    HW154205   1.836  10.716   3.492 -0.7739  0.7446 -1.7564
17104SOL    HW254206   1.689  10.743   3.519 -0.5335 -0.8412  1.7785
17105SOL     OW54207   0.545   6.359   4.680  0.3770  0.2456 -0.2067
17105SOL    HW154208   0.555   6.442   4.633  2.4321 -0.1912 -0.6068
17105SOL    HW254209   0.571   6.292   4.618  1.1554 -0.5016  0.8914
17106SOL     OW54210   2.860   8.904   1.320 -0.0278  0.1862  0.3220
17106SOL    HW154211   2.775   8.930   1.357  0.5370  0.7191  1.2795
17106SOL    HW254212   2.859   8.809   1.322 -0.4546  0.1948  0.6583
17107SOL     OW54213   8.324   6.296  10.618 -0.1230 -0.0719 -0.0804
17107SOL    HW154214   8.233   6.325  10.627  0.1302  0.8018 -0.2768
17107SOL    HW254215   8.357   6.293  10.708 -0.5649 -1.1623  0.0640
17108SOL     OW54216   7.358  10.600   6.978  0.0800  0.7265 -0.2775
17108SOL    HW154217   7.368  10.525   6.920 -0.5801  0.1827  0.2909
17108SOL    HW254218   7.441  10.605   7.025 -0.0531  0.0250  0.0467
17109SOL     OW54219   9.134   5.208  10.644 -0.2344 -0.3501  0.1944
17109SOL    HW154220   9.177   5.294  10.641  1.9697 -1.3725  0.8183
17109SOL    HW254221   9.180   5.160  10.712  0.5099 -2.9977 -2.0199
17110SOL     OW54222   5.544   3.275   0.791  0.6346 -0.1926 -0.3190
17110SOL    HW154223   5.516   3.261   0.700  1.8170 -0.6079 -0.6323
17110SOL    HW254224   5.468   3.247   0.843  0.2938 -0.8788 -1.1553
17111SOL     OW54225   7.205   4.749  10.764 -0.4477  0.6092 -0.3287
17111SOL    HW154226   7.284   4.770  10.714 -0.6481  1.2992 -0.3565
17111SOL    HW254227   7.138   4.809  10.730 -0.5029  1.3168  0.9883
17112SOL     OW54228   5.725   4.018   6.703  0.1466 -0.7522 -0.3763
17112SOL    HW154229   5.645   3.968   6.721  0.1688 -0.1496  1.4971
17112SOL    HW254230   5.701   4.109   6.720  1.2706 -0.5878  0.3799
17113SOL     OW54231  10.331   5.468   7.164 -0.6266 -0.4817  0.1154
17113SOL    HW154232  10.380   5.418   7.100 -0.2165 -0.0731  0.1062
17113SOL    HW254233  10.390   5.476   7.239 -0.4696  0.4467 -0.0883
17114SOL     OW54234   5.377   7.720  10.565  0.3055  0.2138 -0.4743
17114SOL    HW154235   5.378   7.765  10.481  0.3237  0.7904 -0.1706
17114SOL    HW254236   5.466   7.731  10.600 -0.1625  1.4680  0.3902
17115SOL     OW54237   8.423   6.500   1.299 -0.6836 -0.1296  0.2965
17115SOL    HW154238   8.495   6.442   1.325 -0.6337  0.8548  2.6492
17115SOL    HW254239   8.458   6.589   1.312 -2.5409  0.3728  2.4532
17116SOL     OW54240   1.693   4.091   6.355 -0.2008  0.6269 -0.6953
17116SOL    HW154241   1.607   4.114   6.319  0.0728 -0.1242 -1.8928
17116SOL    HW254242   1.709   4.157   6.422 -1.1663  1.5240 -1.3131
17117SOL     OW54243   3.969   3.530   7.026  0.8633  0.2297  0.1343
17117SOL    HW154244   3.920   3.593   6.973  1.7223  1.7491  1.0918
17117SOL    HW254245   4.055   3.526   6.986  0.6628 -0.7822 -0.2369
17118SOL     OW54246   5.761   2.672   1.706 -0.2283 -0.1365 -0.1056
17118SOL    HW154247   5.793   2.649   1.793 -1.1323  1.6146  0.7317
17118SOL    HW254248   5.841   2.686   1.654  0.3449  0.7169  0.9798
17119SOL     OW54249   4.752   2.255   4.189  0.0661  0.0490  0.2919
17119SOL    HW154250   4.817   2.324   4.205 -0.9533  0.6981  1.9195
17119SOL    HW254251   4.793   2.198   4.125  0.9695  2.1536 -1.1314
17120SOL     OW54252   6.770   7.021   5.173  0.2835  0.1149 -0.6050
17120SOL    HW154253   6.837   7.040   5.238 -0.3491 -0.3378  0.1995
17120SOL    HW254254   6.749   6.929   5.186 -0.5399  0.2636 -0.8068
17121SOL     OW54255   8.383   6.487   3.283  0.0666 -0.1069 -0.4615
17121SOL    HW154256   8.456   6.524   3.233  0.7565 -0.9489 -0.1045
17121SOL    HW254257   8.345   6.561   3.330 -0.0064  0.5360 -1.4854
17122SOL     OW54258   5.334   6.631   9.512 -0.1739  0.3497  0.0078
17122SOL    HW154259   5.377   6.546   9.523 -0.0494  0.3161 -0.7442
17122SOL    HW254260   5.400   6.686   9.471 -0.3852  0.7047  0.1409
17123SOL     OW54261   1.998   4.989   2.988  0.0414 -0.0774  0.7498
17123SOL    HW154262   1.944   4.994   2.909  1.2246 -1.3079 -0.1950
17123SOL    HW254263   1.992   4.898   3.016 -0.5229  0.3871  2.2313
17124SOL     OW54264   9.056   6.224   3.947  0.2227  0.1685  0.3900
17124SOL    HW154265   9.140   6.184   3.925  0.0503 -1.2408  2.0172
17124SOL    HW254266   8.994   6.151   3.943 -1.0848  1.2985 -1.3760
17125SOL     OW54267   7.403   0.759   6.104  0.0141 -0.2750  0.0701
17125SOL    HW154268   7.380   0.852   6.104 -1.1512 -0.5274 -1.0409
17125SOL    HW254269   7.438   0.744   6.016 -1.9423 -1.3353 -0.5853
17126SOL     OW54270  10.123  10.517   4.254 -0.0684  0.2260 -0.0895
17126SOL    HW154271  10.193  10.487   4.312  1.2108  0.8948 -1.2231
17126SOL    HW254272  10.043  10.507   4.305  0.5268 -2.7790  0.4536
17127SOL     OW54273  10.294   7.814   4.185 -0.4890  0.4118  0.6566
17127SOL    HW154274  10.270   7.729   4.220  0.2659  0.4393  1.2594
17127SOL    HW254275  10.210   7.856   4.164 -0.8938 -0.1557  1.1189
17128SOL     OW54276   0.038   3.088  10.138 -0.1540 -0.3917 -0.1203
17128SOL    HW154277  -0.025   3.027  10.177 -0.9368 -1.1110 -2.3348
17128SOL    HW254278   0.124   3.051  10.157 -0.6265 -2.6005 -1.9040
17129SOL     OW54279  10.082   8.392   6.551  0.1585 -0.6060  0.0846
17129SOL    HW154280  10.133   8.329   6.602  0.8241 -0.5139 -0.4685
17129SOL    HW254281  10.132   8.406   6.472  0.5348  1.4067  0.6199
17130SOL     OW54282  10.681   2.468   7.084  0.2685  0.4007  0.3485
17130SOL    HW154283  10.687   2.550   7.035 -0.6127  0.7754  0.8639
17130SOL    HW254284  10.674   2.494   7.175  0.7362 -0.2739  0.5843
17131SOL     OW54285   8.823   8.652   3.346 -0.6269  0.1296 -0.1728
17131SOL    HW154286   8.875   8.718   3.300  0.3553 -0.7677 -0.4044
17131SOL    HW254287   8.796   8.695   3.427  0.2903  0.7042 -0.1594
17132SOL     OW54288   5.634   4.208   6.347  0.2137  0.6336  0.0912
17132SOL    HW154289   5.549   4.239   6.318  0.6900  1.2199 -0.7313
17132SOL    HW254290   5.646   4.248   6.433  0.3606  1.9030 -0.5001
17133SOL     OW54291   9.492   4.462   2.192  0.1380  0.2629 -0.4576
17133SOL    HW154292   9.527   4.374   2.175 -0.3359 -0.0393  0.1113
17133SOL    HW254293   9.570   4.517   2.202  0.4544 -0.3634  0.5764
17134SOL     OW54294   1.122   4.184   8.253  0.0608 -0.4614  0.0513
17134SOL    HW154295   1.135   4.228   8.169 -2.4338 -1.0155 -0.6922
17134SOL    HW254296   1.094   4.095   8.230 -1.4684 -0.3870  1.4145
17135SOL     OW54297   1.881   6.138   7.396 -0.0038  0.3636  0.0265
17135SOL    HW154298   1.803   6.095   7.361 -0.3834  1.1399 -0.1040
17135SOL    HW254299   1.945   6.132   7.325 -0.6224  1.5338 -0.6688
17136SOL     OW54300   8.563  10.115   0.049  0.2434 -0.5059 -0.1978
17136SOL    HW154301   8.586  10.148  -0.038 -1.2711 -1.2867 -0.9462
17136SOL    HW254302   8.577  10.020   0.043  2.5838 -0.3274  1.2677
17137SOL     OW54303   6.024   7.538   6.190  0.1883  0.2543  0.1031
17137SOL    HW154304   6.054   7.515   6.278  0.3619 -0.2337 -0.0814
17137SOL    HW254305   6.104   7.547   6.139  0.0501 -1.5346 -0.5107
17138SOL     OW54306   3.468   6.116   1.942 -0.0482 -0.2102  0.1032
17138SOL    HW154307   3.452   6.210   1.942  0.2466 -0.1547 -0.7018
17138SOL    HW254308   3.392   6.078   1.896  0.8867 -0.1511 -1.5791
17139SOL     OW54309   5.716   8.287   0.850  0.0613 -0.4865 -0.7762
17139SOL    HW154310   5.773   8.363   0.836 -0.7136  0.0911 -0.8374
17139SOL    HW254311   5.775   8.212   0.844  0.7402  0.0743 -1.2918
17140SOL     OW54312   6.788   5.547   9.384 -0.0160  0.1225 -0.1659
17140SOL    HW154313   6.877   5.518   9.405  0.3738  1.3324 -0.1123
17140SOL    HW254314   6.774   5.517   9.294  0.8770  0.9065 -0.5802
17141SOL     OW54315   9.820   8.287   6.554  0.2398  0.3875 -0.0141
17141SOL    HW154316   9.789   8.337   6.478  0.2116  1.3653  0.6355
17141SOL    HW254317   9.902   8.329   6.579 -0.7152  1.3094  1.6853
17142SOL     OW54318   7.253  10.571  10.794  0.2037 -0.0615  0.3606
17142SOL    HW154319   7.167  10.549  10.829 -1.0383  0.8698 -1.8543
17142SOL    HW254320   7.254  10.529  10.708  1.3764  1.1194 -0.2314
17143SOL     OW54321   2.934   7.136   1.343 -0.4858 -0.0677  0.2371
17143SOL    HW154322   2.917   7.176   1.428  0.3182  0.9250 -0.0537
17143SOL    HW254323   3.027   7.115   1.344 -0.5380 -0.3413 -0.2773
17144SOL     OW54324  10.485   7.379   5.696  0.1810  0.1624  0.6445
17144SOL    HW154325  10.464   7.379   5.602  2.6042 -0.4387  0.0229
17144SOL    HW254326  10.574   7.344   5.700 -0.1720 -0.6229  3.2795
17145SOL     OW54327   7.472   3.052   6.809  0.1138  0.1765 -0.1438
17145SOL    HW154328   7.546   3.106   6.838 -0.3593  1.4270 -1.1333
17145SOL    HW254329   7.439   3.098   6.731 -0.2815 -1.6038 -1.0644
17146SOL     OW54330   2.729   1.366   0.366  0.0380 -0.7345 -0.1209
17146SOL    HW154331   2.738   1.415   0.284 -1.0992 -0.8531 -0.3399
17146SOL    HW254332   2.800   1.398   0.422  0.4065 -0.1574 -0.9090
17147SOL     OW54333   8.848   3.422   2.619  0.3610  0.0436  0.7751
17147SOL    HW154334   8.798   3.349   2.583  0.7519 -0.1644  0.6519
17147SOL    HW254335   8.794   3.499   2.600  0.3508 -0.1159  0.1324
17148SOL     OW54336   0.386   9.626   7.648 -0.5656  0.0354  0.0126
17148SOL    HW154337   0.437   9.645   7.726 -0.4135  1.2780 -0.3545
17148SOL    HW254338   0.450   9.590   7.586 -0.5119 -0.1545  0.1784
17149SOL     OW54339   0.928   4.799   9.629  0.2667 -0.1629 -0.4030
17149SOL    HW154340   0.926   4.868   9.563  1.9358 -0.2435 -0.5749
17149SOL    HW254341   0.848   4.750   9.615 -0.4417  1.1050 -0.9617
17150SOL     OW54342   7.749   3.664   8.214 -0.0773  0.3749  0.3836
17150SOL    HW154343   7.744   3.572   8.239 -0.1088  0.6574  1.4715
17150SOL    HW254344   7.757   3.663   8.119 -1.5460 -0.7162  0.2318
17151SOL     OW54345   9.258   1.382   4.373  0.2408  0.2896 -0.4334
17151SOL    HW154346   9.179   1.340   4.339  0.7570 -1.2540  0.1959
17151SOL    HW254347   9.235   1.410   4.461 -0.1612  1.5746 -0.9171
17152SOL     OW54348   7.126   8.710   5.608 -0.4370  0.2487  0.2290
17152SOL    HW154349   7.137   8.621   5.641 -0.4256  0.0017 -0.4294
17152SOL    HW254350   7.033   8.728   5.621 -0.4983  0.0327  0.0985
17153SOL     OW54351  10.268   7.151  10.636 -0.1724  0.0597  0.7110
17153SOL    HW154352  10.355   7.110  10.636 -0.8260 -1.3583  0.8254
17153SOL    HW254353  10.209   7.083  10.603 -1.1073  1.3383 -0.3753
17154SOL     OW54354   1.215   4.193   0.396 -0.2609  0.2334  0.1614
17154SOL    HW154355   1.149   4.262   0.403 -0.2808  0.3902 -1.3717
17154SOL    HW254356   1.278   4.227   0.333 -0.3154 -1.1867 -0.6737
17155SOL     OW54357   4.361   9.921   6.122 -0.7303 -0.4634  0.2501
17155SOL    HW154358   4.308   9.901   6.044  0.8841 -0.5638 -0.8840
17155SOL    HW254359   4.443   9.954   6.086  0.2761 -1.0598  1.9200
17156SOL     OW54360   2.466   6.313   5.099 -0.6912 -0.2451 -0.0597
17156SOL    HW154361   2.401   6.265   5.048  0.4167 -1.8489 -0.0512
17156SOL    HW254362   2.546   6.260   5.090 -0.0515  0.2907  2.0138
17157SOL     OW54363   2.364   1.889   6.385 -0.1711 -0.2955  0.2036
17157SOL    HW154364   2.443   1.912   6.336 -0.7360 -0.9348 -1.0332
17157SOL    HW254365   2.363   1.950   6.459 -0.9087  2.7698 -2.1684
17158SOL     OW54366   7.711   8.248   7.824  0.5056  0.6561 -0.4161
17158SOL    HW154367   7.774   8.291   7.881  1.5725  0.2932 -1.2831
17158SOL    HW254368   7.750   8.253   7.736 -1.3736  1.7506 -1.2476
17159SOL     OW54369  10.776   5.660  10.412  0.5874 -0.5326  0.0354
17159SOL    HW154370  10.798   5.601  10.340  0.5999  0.4577 -0.7941
17159SOL    HW254371  10.821   5.623  10.488 -0.8182 -2.5458 -0.0559
17160SOL     OW54372   2.337   6.124   2.211 -0.6260 -0.2551 -0.1495
17160SOL    HW154373   2.345   6.042   2.162  2.2845 -2.0252  2.8614
17160SOL    HW254374   2.244   6.131   2.232 -1.7149 -0.2908 -4.1490
17161SOL     OW54375   4.777   2.885  10.157  0.5730  0.6149  0.0263
17161SOL    HW154376   4.772   2.945  10.083  2.2815  2.0376  0.9901
17161SOL    HW254377   4.869   2.860  10.163  0.8459  1.8817  2.6343
17162SOL     OW54378  10.412   6.223   6.525 -0.5113  0.1525 -0.3458
17162SOL    HW154379  10.435   6.222   6.618 -1.6189  1.5914 -0.0349
17162SOL    HW254380  10.326   6.265   6.521 -1.3530 -1.5399 -1.8558
17163SOL     OW54381   3.954   7.307   4.707 -0.4593  0.3972  0.3515
17163SOL    HW154382   3.937   7.341   4.618 -0.5402  1.7171  0.8491
17163SOL    HW254383   3.867   7.307   4.748 -0.4251 -0.2458  0.4238
17164SOL     OW54384  10.074   8.522   5.904 -0.8494  0.2289  0.0879
17164SOL    HW154385  10.132   8.589   5.941  1.4154 -1.0348 -0.9398
17164SOL    HW254386  10.131   8.447   5.891 -2.9696 -1.3955 -0.2455
17165SOL     OW54387   9.744   5.959   1.333  0.0750  0.1626  0.3128
17165SOL    HW154388   9.827   5.919   1.307  0.9873  1.5871  0.8899
17165SOL    HW254389   9.761   6.053   1.328 -1.9579  0.5143 -0.9231
17166SOL     OW54390   4.048   7.952   3.654 -0.4553 -0.2600 -0.1286
17166SOL    HW154391   4.094   8.036   3.657  0.5567 -0.8332  1.6189
17166SOL    HW254392   3.955   7.976   3.650 -0.3593  1.0611  2.8557
17167SOL     OW54393   2.255   6.737   8.178 -0.2967  0.1137  0.1245
17167SOL    HW154394   2.166   6.714   8.154  0.1809 -0.3010 -1.3968
17167SOL    HW254395   2.250   6.763   8.270 -2.0363  0.4952 -0.0507
17168SOL     OW54396   5.729   6.879   5.611 -0.0841 -0.7447  0.0952
17168SOL    HW154397   5.761   6.849   5.526 -0.7697 -0.1903 -0.3753
17168SOL    HW254398   5.644   6.835   5.622 -0.9574  0.7337 -0.4678
17169SOL     OW54399   3.251   8.424   4.061 -0.3601 -0.3050 -0.9196
17169SOL    HW154400   3.314   8.391   4.126  1.2742  1.1597 -1.6696
17169SOL    HW254401   3.204   8.494   4.106  1.7276  1.6543 -1.6146
17170SOL     OW54402   4.331   6.009   0.155 -0.2421  0.6473 -0.4120
17170SOL    HW154403   4.389   5.988   0.228 -1.7190 -1.8556  0.1682
17170SOL    HW254404   4.385   5.994   0.077  0.1491 -0.8883  0.1192
17171SOL     OW54405   0.587   2.211   4.329 -0.5186 -0.3680  0.2281
17171SOL    HW154406   0.572   2.176   4.417 -0.2537  0.3046  0.5455
17171SOL    HW254407   0.546   2.147   4.271 -3.5656  0.7211  0.9734
17172SOL     OW54408   0.227  10.416   6.286 -0.2485 -0.1267 -0.1043
17172SOL    HW154409   0.313  10.421   6.326 -0.6952 -1.9015  1.1931
17172SOL    HW254410   0.231  10.338   6.230  0.1626  1.9378 -3.2152
17173SOL     OW54411   6.000   8.580  10.609 -0.1269 -0.0852 -0.4845
17173SOL    HW154412   6.052   8.659  10.627 -0.6420 -0.1735  1.6665
17173SOL    HW254413   6.062   8.508  10.620 -0.0581 -0.0667 -0.7402
17174SOL     OW54414   5.494   4.909   4.671 -0.4039 -0.2770 -0.1829
17174SOL    HW154415   5.480   4.883   4.762  0.2200 -0.1804 -0.0575
17174SOL    HW254416   5.496   4.826   4.623  0.2550 -0.3895  0.0321
17175SOL     OW54417   3.628   1.249   3.959 -0.4421  0.0790  0.1225
17175SOL    HW154418   3.659   1.166   3.924 -1.9372  0.2868 -1.9127
17175SOL    HW254419   3.701   1.309   3.947  0.3717 -0.7246  0.8853
17176SOL     OW54420   5.369   8.462   0.675 -0.1278  0.4428  0.1926
17176SOL    HW154421   5.279   8.473   0.645 -0.3303  1.3407  1.0767
17176SOL    HW254422   5.362   8.455   0.771  0.5944 -1.2178  0.1480
17177SOL     OW54423   8.494   7.586   0.679 -0.4193  0.3367  0.2080
17177SOL    HW154424   8.492   7.639   0.599 -0.5551  1.0980  0.7017
17177SOL    HW254425   8.535   7.643   0.745  0.6692 -0.6507  0.4309
17178SOL     OW54426   8.818   2.385  10.365  0.0594 -0.4469 -0.1906
17178SOL    HW154427   8.893   2.437  10.336  0.3294 -0.9273 -0.3571
17178SOL    HW254428   8.839   2.363  10.456  0.0437 -0.4474 -0.1872
17179SOL     OW54429   4.702   7.189   0.565 -0.2380 -0.1928  0.1507
17179SOL    HW154430   4.628   7.232   0.608  0.0843 -0.1951  0.7069
17179SOL    HW254431   4.672   7.175   0.475 -0.1668  1.6719 -0.2048
17180SOL     OW54432   3.903   8.704   4.096  0.8698  1.2157  0.4831
17180SOL    HW154433   3.849   8.752   4.033  0.5978  0.4232  0.0982
17180SOL    HW254434   3.891   8.750   4.178  0.1561  1.4611  0.2432
17181SOL     OW54435   6.914  10.016   6.858 -0.2126  0.3631 -0.2690
17181SOL    HW154436   6.824  10.046   6.867 -0.4605 -0.8886  2.5246
17181SOL    HW254437   6.965  10.074   6.915  0.0662 -1.3228  1.2884
17182SOL     OW54438   3.160   1.497   4.428  0.1243 -0.0400 -0.1096
17182SOL    HW154439   3.100   1.464   4.362 -1.4224  4.0565 -1.0590
17182SOL    HW254440   3.231   1.537   4.378  1.5998 -1.1919  0.9412
17183SOL     OW54441   1.251   4.801   1.863 -0.0562  0.0829 -0.2166
17183SOL    HW154442   1.225   4.710   1.845  1.5979 -0.6001  0.6035
17183SOL    HW254443   1.347   4.798   1.865  0.0121  1.7660  0.3160
17184SOL     OW54444   7.625   4.841   6.732 -0.1491  0.5922  0.4015
17184SOL    HW154445   7.595   4.905   6.667 -2.7478 -0.4070  0.4994
17184SOL    HW254446   7.574   4.859   6.810  0.9056 -0.0156  1.2669
17185SOL     OW54447   0.302   7.904   5.225  0.2371  0.0121 -0.0491
17185SOL    HW154448   0.371   7.946   5.174  0.5294 -1.2421 -0.7392
17185SOL    HW254449   0.221   7.943   5.191  0.2870 -1.8881 -2.7255
17186SOL     OW54450   0.067   2.038   3.463 -0.2223  0.2050 -0.4615
17186SOL    HW154451   0.034   1.993   3.385 -0.0822  0.4981 -0.6916
17186SOL    HW254452   0.109   2.117   3.429 -1.3316  1.0264  0.0235
17187SOL     OW54453   6.226   1.700   4.591  0.4278  0.3474 -0.1700
17187SOL    HW154454   6.293   1.715   4.524  0.5781 -1.7491 -0.5575
17187SOL    HW254455   6.177   1.782   4.594  0.4367  0.5363 -2.8526
17188SOL     OW54456   4.079   7.760   6.109  0.8684  0.2067  0.0490
17188SOL    HW154457   4.156   7.797   6.151  2.4487 -0.9673 -1.6845
17188SOL    HW254458   4.032   7.837   6.075  1.6224  0.9004  0.5384
17189SOL     OW54459   7.746   9.441   1.631  0.5156 -0.5674  0.0022
17189SOL    HW154460   7.727   9.466   1.540 -0.9036  1.3551  0.7693
17189SOL    HW254461   7.717   9.350   1.637 -2.2588  0.1807 -0.7300
17190SOL     OW54462   2.703   8.677  10.455 -0.1275 -0.6448 -0.1236
17190SOL    HW154463   2.615   8.646  10.475  0.1766 -1.6232 -0.2389
17190SOL    HW254464   2.758   8.638  10.523  0.3524 -0.8886 -0.6379
17191SOL     OW54465   3.691   0.559   8.498  0.3970  0.0354 -0.2230
17191SOL    HW154466   3.606   0.580   8.537  0.1039  0.3496 -1.0165
17191SOL    HW254467   3.669   0.512   8.417  0.9976 -0.5544 -0.0544
17192SOL     OW54468   8.304   3.855   1.976  0.1011  0.6798 -0.5241
17192SOL    HW154469   8.242   3.783   1.963  0.7591 -0.2383  1.1264
17192SOL    HW254470   8.390   3.817   1.957  0.5121  0.8544  0.8648
17193SOL     OW54471   2.879  10.404   5.793  0.0845 -0.6504  0.6186
17193SOL    HW154472   2.967  10.375   5.819  0.1015  0.2248  1.5867
17193SOL    HW254473   2.864  10.483   5.844 -0.2412  0.6717 -1.4199
17194SOL     OW54474   0.427  10.466  10.070 -0.3152 -0.3768 -0.6159
17194SOL    HW154475   0.403  10.424  10.152 -1.1891 -0.9849 -1.1666
17194SOL    HW254476   0.348  10.516  10.045 -0.1424 -0.3898 -1.2011
17195SOL     OW54477   3.856   6.187   5.558 -1.0582 -0.1778  0.1592
17195SOL    HW154478   3.784   6.244   5.533  1.3270  3.0319 -0.0308
17195SOL    HW254479   3.927   6.209   5.498 -0.3032 -4.5223 -0.8927
17196SOL     OW54480  10.783   9.443   8.126  0.4600 -0.7287 -0.0037
17196SOL    HW154481  10.879   9.444   8.127  0.4720 -0.1265  1.3509
17196SOL    HW254482  10.759   9.504   8.056  1.1057  0.6557  0.9179
17197SOL     OW54483   8.059   1.506   3.965 -0.1290 -0.2180 -0.0234
17197SOL    HW154484   8.051   1.592   4.007 -2.0518 -1.1175  1.6005
17197SOL    HW254485   8.017   1.517   3.880 -2.5575 -0.0734  1.1109
17198SOL     OW54486   4.916   2.062   2.253 -0.6091 -0.2504 -0.1856
17198SOL    HW154487   4.931   1.991   2.316  0.9604  1.0442  0.9891
17198SOL    HW254488   5.004   2.084   2.221 -0.9878  1.4789 -0.1178
17199SOL     OW54489   7.610   7.999  10.364 -0.5369  0.1077 -0.8585
17199SOL    HW154490   7.702   8.012  10.340 -0.6082  0.5540 -0.9047
17199SOL    HW254491   7.595   8.062  10.434 -0.2435 -1.3862  0.6038
17200SOL     OW54492   2.591   4.319   6.866  0.2051  0.4275 -0.3493
17200SOL    HW154493   2.581   4.258   6.792  1.6438  1.5923 -1.5737
17200SOL    HW254494   2.665   4.375   6.841  0.9817  0.6258  2.1732
17201SOL     OW54495   7.016   8.546   3.640  0.5381 -0.3740  0.5396
17201SOL    HW154496   7.092   8.604   3.644  1.3062 -1.2234 -0.7720
17201SOL    HW254497   7.047   8.470   3.590 -1.5837 -0.0620 -1.4219
17202SOL     OW54498   6.177   8.665   8.046  0.5317  0.2044 -0.0949
17202SOL    HW154499   6.127   8.659   8.128  2.5987 -0.6697  1.1972
17202SOL    HW254500   6.122   8.717   7.988 -2.2338 -1.3543  0.9062
17203SOL     OW54501   7.958   0.056   8.866 -0.0287  0.3743 -0.4551
17203SOL    HW154502   7.995   0.091   8.785 -0.7816 -0.3601 -1.1358
17203SOL    HW254503   7.871   0.024   8.841 -0.7634  1.2225  0.9144
17204SOL     OW54504   2.927   2.341   7.689 -0.8444  0.2273 -0.0342
17204SOL    HW154505   2.888   2.307   7.770  0.5452 -0.1965  0.5014
17204SOL    HW254506   2.942   2.263   7.636  2.8963 -0.2752  1.4348
17205SOL     OW54507   8.776   1.592   4.678 -0.5272  0.1672  0.0140
17205SOL    HW154508   8.812   1.508   4.708 -2.4427 -0.1950  1.5785
17205SOL    HW254509   8.825   1.658   4.726  1.8988  0.1310 -2.1913
17206SOL     OW54510   6.466   7.410   6.020  0.0931  0.4559  0.2980
17206SOL    HW154511   6.525   7.362   6.078  0.6556  0.2175 -0.4442
17206SOL    HW254512   6.486   7.376   5.932  0.3249  1.8405 -0.2197
17207SOL     OW54513   2.932   1.871   5.728  0.2648  0.3421 -0.1692
17207SOL    HW154514   2.961   1.931   5.660  0.1089 -0.8049 -1.2822
17207SOL    HW254515   2.890   1.927   5.793  0.9040  1.5205 -0.7431
17208SOL     OW54516   2.681   6.204   7.616 -0.1545  0.1354  0.2975
17208SOL    HW154517   2.734   6.161   7.683 -1.3003 -2.0705 -0.1069
17208SOL    HW254518   2.591   6.196   7.648 -0.6751 -0.5337 -1.2491
17209SOL     OW54519   1.698   6.250   4.429 -0.1829  0.0576  0.2776
17209SOL    HW154520   1.659   6.265   4.515 -1.3057 -3.2381  0.4807
17209SOL    HW254521   1.678   6.330   4.380 -1.4826  1.1277  2.3885
17210SOL     OW54522   3.533   3.693   6.572 -0.1741 -0.5781  0.4639
17210SOL    HW154523   3.460   3.658   6.622 -0.5712 -1.4772 -0.6841
17210SOL    HW254524   3.534   3.640   6.492 -1.6229  2.8016 -2.0207
17211SOL     OW54525   4.440   9.580   3.196  0.1806 -0.4209  0.1966
17211SOL    HW154526   4.390   9.564   3.275  0.4518 -1.5897  0.1423
17211SOL    HW254527   4.505   9.646   3.221 -0.7862  0.4319  0.5009
17212SOL     OW54528   1.570   7.639   6.390 -0.6105 -0.4506  0.0297
17212SOL    HW154529   1.577   7.625   6.296  0.0704 -0.9558  0.1489
17212SOL    HW254530   1.485   7.601   6.413 -0.8171 -0.2464 -0.3910
17213SOL     OW54531   8.366   7.395   6.111 -0.7201 -0.4254 -0.0654
17213SOL    HW154532   8.340   7.371   6.023 -1.4717 -0.9778  0.2968
17213SOL    HW254533   8.418   7.320   6.142 -1.6982 -0.8959  0.4795
17214SOL     OW54534   5.013   3.732   7.688 -0.1179  0.1005 -0.0814
17214SOL    HW154535   4.932   3.694   7.653 -0.6332 -0.7452  1.8875
17214SOL    HW254536   4.986   3.781   7.765  1.1181  0.8114 -0.0652
17215SOL     OW54537   1.485  10.313   2.788  0.4380  0.1142  0.0303
17215SOL    HW154538   1.449  10.361   2.714 -0.9208 -0.8156  0.0689
17215SOL    HW254539   1.473  10.373   2.863 -2.7386 -0.8020  0.3908
17216SOL     OW54540   4.829   0.080   9.900  0.9109 -0.0367 -0.4791
17216SOL    HW154541   4.877   0.028   9.964 -0.1875 -0.9810 -0.3905
17216SOL    HW254542   4.769   0.133   9.953 -1.6305 -2.4545 -0.7076
17217SOL     OW54543   4.119   5.149   3.176 -0.2726 -0.0781  0.3576
17217SOL    HW154544   4.075   5.165   3.092  0.4007 -0.9853 -0.1813
17217SOL    HW254545   4.212   5.158   3.156 -0.1116 -0.1405  1.0519
17218SOL     OW54546   4.429   3.812   9.085  0.1864 -0.2917 -0.3719
17218SOL    HW154547   4.515   3.782   9.113  0.1267  0.2111  0.3596
17218SOL    HW254548   4.406   3.753   9.013  0.8248 -0.8860 -0.1033
17219SOL     OW54549   3.121   4.030   7.547 -0.0553 -0.1832  0.1609
17219SOL    HW154550   3.135   4.103   7.608 -1.9082  0.0057  0.4266
17219SOL    HW254551   3.059   4.065   7.483 -0.3212 -1.2623 -0.1873
17220SOL     OW54552   8.457   8.724   8.945  0.3301 -0.6708  0.1827
17220SOL    HW154553   8.411   8.776   9.010  1.6580  1.7065 -0.6580
17220SOL    HW254554   8.534   8.691   8.991  1.7639  1.7665 -0.2542
17221SOL     OW54555  10.080   3.647   6.334 -0.2851 -0.0702 -0.1077
17221SOL    HW154556  10.071   3.738   6.362  1.1602  0.4607 -1.2231
17221SOL    HW254557  10.173   3.626   6.349 -0.9477 -1.9843  1.8309
17222SOL     OW54558   2.819   2.984   1.986 -0.1241 -0.2578 -0.5355
17222SOL    HW154559   2.897   2.957   2.033  0.1664 -0.7506 -1.2739
17222SOL    HW254560   2.841   2.972   1.894 -1.2599 -0.9467 -0.7389
17223SOL     OW54561   8.487   3.242   8.874 -0.5700 -0.0222 -0.0185
17223SOL    HW154562   8.430   3.165   8.878  0.6310 -0.8992  2.6765
17223SOL    HW254563   8.479   3.282   8.961  1.4783  0.8873 -0.1874
17224SOL     OW54564   1.431   3.519   6.790 -0.4529  0.1029 -0.0065
17224SOL    HW154565   1.461   3.610   6.798  0.6322  0.2429 -3.6643
17224SOL    HW254566   1.511   3.468   6.777 -1.2265 -0.8807 -1.0877
17225SOL     OW54567   4.125   1.549   4.258 -0.4895 -0.4456 -0.0319
17225SOL    HW154568   4.134   1.564   4.352  1.7337  1.6340 -0.4888
17225SOL    HW254569   4.109   1.455   4.250 -0.6382 -0.6786  2.3969
17226SOL     OW54570   3.248   7.292   9.701  0.0413 -0.2256  0.0536
17226SOL    HW154571   3.155   7.312   9.689  0.1551 -0.5277 -1.5366
17226SOL    HW254572   3.291   7.332   9.626  1.0421 -1.1621  0.1070
17227SOL     OW54573   6.450   4.872   3.168 -0.2297  0.0024  0.3784
17227SOL    HW154574   6.445   4.854   3.074 -1.5303 -0.7163  0.5635
17227SOL    HW254575   6.528   4.826   3.198  0.3852  0.5155 -0.3952
17228SOL     OW54576   9.567   1.045   1.654  0.3592 -0.1670 -0.5514
17228SOL    HW154577   9.615   1.126   1.670 -2.4622  1.6391 -0.5793
17228SOL    HW254578   9.571   0.998   1.737  1.2671  0.4051 -0.2582
17229SOL     OW54579   4.525   8.268   9.712 -0.0798 -0.1207 -0.7736
17229SOL    HW154580   4.493   8.323   9.641 -1.0502  1.2088  0.6378
17229SOL    HW254581   4.459   8.276   9.781  0.7516 -1.4876  0.2470
17230SOL     OW54582   1.189   8.097   4.383 -0.5910 -0.2063 -0.5584
17230SOL    HW154583   1.205   8.191   4.390  0.9173 -0.4763 -0.1578
17230SOL    HW254584   1.095   8.091   4.365 -1.1763  1.2833  1.5829
17231SOL     OW54585   7.277   7.429   2.385 -0.0169  0.0301  0.1958
17231SOL    HW154586   7.251   7.486   2.312 -1.6273  0.0482  0.7337
17231SOL    HW254587   7.370   7.447   2.398 -0.0024  0.9775 -1.0086
17232SOL     OW54588   7.722   9.532   4.007 -0.6143 -0.3027  0.0644
17232SOL    HW154589   7.746   9.595   4.076 -1.1405 -0.3299  0.2808
17232SOL    HW254590   7.781   9.458   4.021 -0.2153  0.0047  0.0192
17233SOL     OW54591   7.586   7.211   6.806 -0.4004 -0.6055 -0.3213
17233SOL    HW154592   7.540   7.254   6.878 -0.2629 -0.5368 -0.2752
17233SOL    HW254593   7.676   7.205   6.835 -0.2299 -0.0771 -0.7134
17234SOL     OW54594   5.268   2.364   3.337 -0.2263  0.3081 -0.1341
17234SOL    HW154595   5.300   2.452   3.320  0.5089 -0.2539 -1.8041
17234SOL    HW254596   5.188   2.357   3.286  0.2688 -0.3202 -0.8436
17235SOL     OW54597   6.345   8.956   8.592  0.5287  0.1953  0.1896
17235SOL    HW154598   6.374   8.916   8.674  0.3839 -0.7688 -0.2122
17235SOL    HW254599   6.423   8.957   8.537  0.6898  1.0876  0.4222
17236SOL     OW54600   6.733   4.726   8.324 -0.2693  0.0984 -0.3641
17236SOL    HW154601   6.676   4.767   8.389  0.2779  0.6259 -0.2046
17236SOL    HW254602   6.792   4.670   8.375 -1.1528 -1.0703 -0.6021
17237SOL     OW54603   5.860   7.345   5.682 -0.2575  0.5079  0.3033
17237SOL    HW154604   5.782   7.382   5.724  0.2029 -0.2266  1.8807
17237SOL    HW254605   5.933   7.375   5.737  0.3862 -0.3105 -0.0967
17238SOL     OW54606   6.689  10.707   1.854  0.4831 -0.1241  0.1735
17238SOL    HW154607   6.709  10.759   1.932  2.9915 -1.3269  0.4387
17238SOL    HW254608   6.684  10.617   1.886  0.8627 -0.5537 -0.9216
17239SOL     OW54609   2.018   8.891   5.392 -0.0167 -0.0230  0.4459
17239SOL    HW154610   2.096   8.947   5.395  0.2337 -0.3743  0.5747
17239SOL    HW254611   2.010   8.866   5.299 -0.5946  0.8644  0.2430
17240SOL     OW54612   7.388   8.667   3.086 -0.5632  0.3324  0.4825
17240SOL    HW154613   7.302   8.699   3.059 -0.1343 -0.1686 -1.6879
17240SOL    HW254614   7.396   8.582   3.043  1.2442  0.6331  0.1423
17241SOL     OW54615   0.438   0.157   4.558  0.5203  0.1927  0.0307
17241SOL    HW154616   0.530   0.176   4.538 -0.3106  2.6906 -1.8813
17241SOL    HW254617   0.414   0.220   4.626 -0.2252  0.8437 -0.8057
17242SOL     OW54618   0.624   6.969   0.810  0.2757 -0.2514  0.6198
17242SOL    HW154619   0.718   6.987   0.800  0.2790  0.0137  1.0883
17242SOL    HW254620   0.582   7.046   0.772  0.1216 -1.9678 -3.1583
17243SOL     OW54621   6.753   1.020   8.734  0.5340 -0.0472 -0.0195
17243SOL    HW154622   6.676   0.980   8.694 -0.0398 -0.3608  1.3185
17243SOL    HW254623   6.717   1.075   8.804  1.4632  0.7725 -0.1696
17244SOL     OW54624   8.151   9.683   2.060 -0.3795 -0.3486  0.0800
17244SOL    HW154625   8.072   9.651   2.103  0.0186 -3.6481 -1.2963
17244SOL    HW254626   8.205   9.605   2.048  1.2976  1.0607 -2.6367
17245SOL     OW54627   8.052   9.521   4.632 -0.2968  0.1684 -0.5113
17245SOL    HW154628   8.133   9.477   4.660 -0.5548 -0.5540 -0.8741
17245SOL    HW254629   7.989   9.502   4.702  0.0065  1.2536  0.0783
17246SOL     OW54630   3.388  10.082  10.367  0.0632  0.4390 -0.1601
17246SOL    HW154631   3.343  10.167  10.370 -0.2655  0.2645 -0.1713
17246SOL    HW254632   3.450  10.091  10.295  1.2938  1.2933  0.9487
17247SOL     OW54633   7.572   2.308   8.776  0.5029 -0.3527  0.1206
17247SOL    HW154634   7.527   2.280   8.696  0.0644  2.5999 -0.7617
17247SOL    HW254635   7.629   2.379   8.748  2.1493 -0.8289  2.0793
17248SOL     OW54636   3.916   9.922   1.694 -0.4481  0.1615 -0.5623
17248SOL    HW154637   3.951  10.007   1.721  0.6396 -0.7883  1.1515
17248SOL    HW254638   3.993   9.867   1.679 -1.1376 -1.0708  0.2189
17249SOL     OW54639   1.962   3.052   4.933  0.1889 -0.2412 -0.6824
17249SOL    HW154640   2.042   3.011   4.901 -0.1134 -0.7820 -0.7695
17249SOL    HW254641   1.945   3.010   5.017 -0.6991 -1.0964 -1.2548
17250SOL     OW54642   4.102   0.867   5.592  0.6926 -0.1988  0.4508
17250SOL    HW154643   4.019   0.850   5.638  0.7257  0.9654  0.9679
17250SOL    HW254644   4.094   0.957   5.562  0.7078 -0.8857 -1.7904
17251SOL     OW54645   7.766   7.896   7.100  0.4171  0.3452 -0.3072
17251SOL    HW154646   7.792   7.896   7.192 -0.6349 -1.7655  0.0427
17251SOL    HW254647   7.821   7.963   7.060 -0.0895  2.3380  2.0992
17252SOL     OW54648  10.242   4.918   5.183 -0.1868  0.4270 -0.2167
17252SOL    HW154649  10.176   4.965   5.131 -0.1009  0.6725 -0.1056
17252SOL    HW254650  10.315   4.905   5.123 -1.0395 -1.4820 -0.9063
17253SOL     OW54651   0.499   7.677   3.329 -0.4397  0.6260  0.0144
17253SOL    HW154652   0.458   7.597   3.298 -1.0216  0.6624  0.6583
17253SOL    HW254653   0.582   7.649   3.368 -1.0320  0.2117  1.0143
17254SOL     OW54654   8.289   1.807   4.850  1.1342  0.1965 -0.7775
17254SOL    HW154655   8.247   1.727   4.882  1.5516 -0.2422 -1.3042
17254SOL    HW254656   8.353   1.830   4.918 -0.6907  1.5104  0.5818
17255SOL     OW54657   4.010   5.226   9.884 -0.3945  0.4390 -0.8158
17255SOL    HW154658   4.069   5.154   9.905  0.7442  1.3065 -0.9521
17255SOL    HW254659   3.937   5.185   9.837 -0.3937 -0.7778  0.2194
17256SOL     OW54660   8.266   8.920   6.173  0.2640  0.0549  0.0738
17256SOL    HW154661   8.299   8.850   6.230  1.3633  0.1949 -0.3574
17256SOL    HW254662   8.281   9.001   6.223  2.0259  0.2574 -0.7191
17257SOL     OW54663   8.356   1.005   9.390 -0.1587 -0.3704 -0.1662
17257SOL    HW154664   8.271   1.019   9.350  0.1462  0.0145 -0.6852
17257SOL    HW254665   8.384   0.919   9.357  0.6037  0.4334 -1.7479
17258SOL     OW54666   6.368   6.128   1.799  0.2890  0.0629 -0.1139
17258SOL    HW154667   6.457   6.159   1.783 -0.1334  1.0858 -0.5643
17258SOL    HW254668   6.356   6.055   1.738 -0.7817  2.9260 -3.6399
17259SOL     OW54669   2.817   1.154   5.719 -0.7622  0.6516  0.2947
17259SOL    HW154670   2.814   1.193   5.807  2.1371 -0.5162  1.0408
17259SOL    HW254671   2.897   1.102   5.719 -1.8357 -1.2111 -2.3408
17260SOL     OW54672   9.430   2.888   7.419 -0.1666  0.0412 -0.0507
17260SOL    HW154673   9.418   2.819   7.353  1.0814 -0.2692  0.0316
17260SOL    HW254674   9.382   2.963   7.383 -1.5331 -0.8441 -0.1486
17261SOL     OW54675   5.498   7.851   2.025 -0.3751 -0.3755  0.2730
17261SOL    HW154676   5.429   7.822   1.967 -0.5764 -0.3749  0.5115
17261SOL    HW254677   5.459   7.849   2.113 -0.1207 -0.2367  0.3920
17262SOL     OW54678   2.479   9.295   5.698  0.3676 -0.1792 -0.2420
17262SOL    HW154679   2.392   9.327   5.720  0.5707 -0.7680  1.5721
17262SOL    HW254680   2.518   9.366   5.647  0.3013  2.0088  2.4876
17263SOL     OW54681   7.763   3.788   6.961  0.7581  0.5617 -0.0410
17263SOL    HW154682   7.679   3.834   6.950  1.4170  1.8555  0.1710
17263SOL    HW254683   7.759   3.717   6.897 -1.4191 -0.8232  1.4835
17264SOL     OW54684  10.448   8.846   4.710  0.3712 -0.1924  0.2779
17264SOL    HW154685  10.443   8.936   4.742 -0.6202 -0.2653  0.3748
17264SOL    HW254686  10.506   8.802   4.771 -1.7308 -0.4249  2.2743
17265SOL     OW54687   5.377   5.517   7.658  0.2698  0.1706 -0.0006
17265SOL    HW154688   5.370   5.609   7.634  0.6885  0.3319  0.4769
17265SOL    HW254689   5.302   5.475   7.616 -0.5826  0.9286  0.7369
17266SOL     OW54690   7.457   7.733  10.215  0.0320 -0.0778  0.4459
17266SOL    HW154691   7.421   7.663  10.160 -0.4264  0.6559 -0.2111
17266SOL    HW254692   7.531   7.766  10.164 -1.1576  1.4504 -0.3651
17267SOL     OW54693   2.249   4.569   9.735  0.3201 -0.1459  0.2196
17267SOL    HW154694   2.334   4.581   9.777 -0.4396 -0.0071  1.8002
17267SOL    HW254695   2.194   4.531   9.803 -2.6359  5.3368  1.4993
17268SOL     OW54696   5.979   3.415   5.220 -0.1451 -0.0044  0.3101
17268SOL    HW154697   6.045   3.349   5.241  0.5560  0.9505  1.2555
17268SOL    HW254698   5.898   3.381   5.258  0.3513 -0.0330  1.3981
17269SOL     OW54699   4.704   2.220   3.391  0.5616 -0.0571  0.2711
17269SOL    HW154700   4.701   2.216   3.296 -0.6749 -0.5897  0.3121
17269SOL    HW254701   4.740   2.307   3.411  0.4179  0.2289 -0.6774
17270SOL     OW54702   3.112   0.634   6.894  0.5846  0.0405  0.4906
17270SOL    HW154703   3.083   0.628   6.804  0.5724 -0.8971  0.5391
17270SOL    HW254704   3.032   0.636   6.946  0.5581 -1.3629  0.5618
17271SOL     OW54705   7.197   0.751   4.707 -0.4956 -0.1033  0.6012
17271SOL    HW154706   7.174   0.789   4.792 -1.2568 -0.3048  0.4960
17271SOL    HW254707   7.243   0.669   4.729 -4.3468 -2.4202  0.9434
17272SOL     OW54708   3.856  10.584   6.951  0.0050 -0.0166 -0.4462
17272SOL    HW154709   3.845  10.491   6.973  0.7780  0.0385  0.2204
17272SOL    HW254710   3.892  10.624   7.030 -0.6937  0.9443 -0.5956
17273SOL     OW54711   8.305   7.169   2.680 -0.6838  0.3871  0.8104
17273SOL    HW154712   8.290   7.260   2.655  0.1063  0.6800  1.3540
17273SOL    HW254713   8.238   7.150   2.745 -1.8772  0.0536 -0.4746
17274SOL     OW54714   8.906   4.402   7.802 -0.0708 -0.0666  0.1647
17274SOL    HW154715   8.904   4.431   7.711  2.1011  0.3354  0.1944
17274SOL    HW254716   8.908   4.482   7.854 -0.2018 -0.2862  0.5154
17275SOL     OW54717   4.453   9.849   0.917 -0.7575 -0.0775 -0.3240
17275SOL    HW154718   4.499   9.779   0.873  0.0418 -1.4358  2.4614
17275SOL    HW254719   4.419   9.904   0.846  0.2335 -2.1762 -2.5569
17276SOL     OW54720   8.487   1.661   9.996 -0.0266 -0.1644 -0.3491
17276SOL    HW154721   8.519   1.725  10.060 -0.9774  0.0950 -0.1153
17276SOL    HW254722   8.550   1.590   9.998  0.5800  0.3811  0.0239
17277SOL     OW54723   6.722   8.702   7.028 -0.6737 -0.4961  0.1161
17277SOL    HW154724   6.673   8.620   7.018  0.5740 -1.2034 -0.2989
17277SOL    HW254725   6.758   8.697   7.117 -1.5868  0.1796  0.5469
17278SOL     OW54726  10.147   8.045   9.512  0.1155 -0.1393 -0.1200
17278SOL    HW154727  10.082   8.094   9.461 -0.7409 -0.5649  0.5363
17278SOL    HW254728  10.231   8.079   9.482 -0.4225  0.8612 -0.5535
17279SOL     OW54729   4.583   3.105   9.036 -0.2867 -0.4935  0.2368
17279SOL    HW154730   4.501   3.144   9.006 -0.7123 -1.6762 -0.1941
17279SOL    HW254731   4.563   3.072   9.123 -0.3925 -1.1347 -0.0266
17280SOL     OW54732   5.879   5.718   5.403 -0.3823 -0.2873 -0.0824
17280SOL    HW154733   5.948   5.680   5.349 -0.6136 -0.5205 -0.2145
17280SOL    HW254734   5.922   5.790   5.450 -0.0586 -0.4139 -0.1848
17281SOL     OW54735   9.119   4.751  10.772  0.8093  0.0796 -0.2450
17281SOL    HW154736   9.099   4.668  10.816 -0.3408 -0.0341 -0.9566
17281SOL    HW254737   9.108   4.733  10.679 -1.4420  1.5114 -0.3250
17282SOL     OW54738   0.750   0.432   7.437  0.4994  0.0102 -1.6854
17282SOL    HW154739   0.657   0.427   7.455  0.2341 -1.9167 -3.1796
17282SOL    HW254740   0.760   0.507   7.379 -0.2549 -0.1959 -2.0993
17283SOL     OW54741  10.325   9.113   5.826  0.3275 -0.4161  0.0937
17283SOL    HW154742  10.289   9.202   5.829  0.2009 -0.1732 -3.5812
17283SOL    HW254743  10.397   9.114   5.889  1.7659  3.0809 -1.3260
17284SOL     OW54744   3.766   9.596   5.907 -0.2399  0.2840  0.6183
17284SOL    HW154745   3.700   9.544   5.862  0.5902 -1.2982  1.1580
17284SOL    HW254746   3.796   9.659   5.841  0.8458 -1.8774 -1.0830
17285SOL     OW54747   4.647   8.451   7.206  0.8034 -0.2897  0.0746
17285SOL    HW154748   4.677   8.515   7.141 -0.0623 -0.5559 -0.6023
17285SOL    HW254749   4.595   8.389   7.156  0.1940 -0.5577  1.0211
17286SOL     OW54750   5.558   3.168   1.227 -0.1598 -0.3819 -0.3871
17286SOL    HW154751   5.625   3.178   1.159  0.9140 -1.2740  0.4896
17286SOL    HW254752   5.599   3.204   1.306 -1.2118  0.2208 -0.0962
17287SOL     OW54753   7.927   2.681   5.387  0.2682  0.8107  0.6707
17287SOL    HW154754   7.954   2.734   5.313 -0.1605  0.6686  0.4044
17287SOL    HW254755   7.924   2.742   5.461  0.6386  0.9655  0.5565
17288SOL     OW54756   9.682   5.768   7.666 -0.5399  0.3311  0.2380
17288SOL    HW154757   9.667   5.808   7.752  1.4037  1.4456  0.1269
17288SOL    HW254758   9.654   5.835   7.604 -1.3542 -0.2289 -0.0147
17289SOL     OW54759   6.747   1.894   9.106  0.0030  0.2930  0.4655
17289SOL    HW154760   6.698   1.938   9.037  0.1273  0.8094  0.6990
17289SOL    HW254761   6.802   1.831   9.061 -0.5178  0.0480  0.1622
17290SOL     OW54762  10.019   5.446   1.948 -0.0511 -0.3252 -0.8992
17290SOL    HW154763  10.099   5.472   1.904  0.7349  1.3964  1.3551
17290SOL    HW254764  10.033   5.468   2.040 -2.5267 -1.4212 -0.1514
17291SOL     OW54765   3.936   5.924   1.829  0.0280  0.4932 -0.5593
17291SOL    HW154766   3.847   5.958   1.820  0.3263  1.3883 -0.1815
17291SOL    HW254767   3.970   5.967   1.907  0.5544 -0.3807 -0.2972
17292SOL     OW54768   9.392   1.137   5.691 -0.1988  0.1977 -0.5110
17292SOL    HW154769   9.400   1.117   5.785 -1.3793 -0.2051 -0.4819
17292SOL    HW254770   9.320   1.200   5.686  0.8584  1.4037 -1.0127
17293SOL     OW54771   3.433   4.426   3.483  0.3827  0.4570  0.8304
17293SOL    HW154772   3.399   4.341   3.512  0.9604  0.1749  0.7100
17293SOL    HW254773   3.410   4.486   3.553  0.1551  0.1559  1.0177
17294SOL     OW54774   7.305  10.534   3.584 -0.6696  0.0861 -0.3835
17294SOL    HW154775   7.292  10.610   3.528 -0.5142  0.4661  0.0841
17294SOL    HW254776   7.254  10.553   3.663 -1.2078 -0.6200 -0.5543
17295SOL     OW54777   2.962   0.618   5.123 -0.0510  0.3673 -0.1963
17295SOL    HW154778   3.032   0.584   5.068  0.2417  0.6941 -0.0286
17295SOL    HW254779   3.006   0.651   5.201 -0.6533 -2.4799  1.5154
17296SOL     OW54780   7.022   2.712   2.153  0.3065  0.0344  0.5050
17296SOL    HW154781   7.098   2.657   2.137  0.7252  0.1266  1.9936
17296SOL    HW254782   7.056   2.802   2.152  0.1107  0.1117  0.6067
17297SOL     OW54783   9.345   7.916   3.069 -0.3500  0.1408  0.2547
17297SOL    HW154784   9.438   7.899   3.058 -0.6407 -1.4963  0.1064
17297SOL    HW254785   9.322   7.876   3.152 -1.2134 -0.8450 -0.4268
17298SOL     OW54786   0.202   4.618   0.936 -0.5458  0.4903  0.0398
17298SOL    HW154787   0.202   4.528   0.969 -1.5150  0.7764  0.8743
17298SOL    HW254788   0.226   4.671   1.013  4.2703  0.7326 -1.2846
17299SOL     OW54789  10.298   6.025   3.258 -0.3036 -0.6677  0.0284
17299SOL    HW154790  10.219   6.038   3.207 -1.4226  0.4168  1.9142
17299SOL    HW254791  10.368   6.017   3.193 -1.5940  0.9120 -1.6468
17300SOL     OW54792   3.226   8.971   8.264 -0.2370  0.1636  0.1144
17300SOL    HW154793   3.309   8.922   8.262 -0.1974  0.0333  2.6185
17300SOL    HW254794   3.250   9.059   8.235  0.9988  0.3473  1.5646
17301SOL     OW54795   7.744   2.106   0.732 -0.1686  0.2995 -0.4704
17301SOL    HW154796   7.783   2.179   0.780 -0.0968 -0.2647  0.3343
17301SOL    HW254797   7.754   2.131   0.640  0.7435  0.8441 -0.2394
17302SOL     OW54798   9.184   3.268   7.706 -0.9258 -0.2321 -0.2414
17302SOL    HW154799   9.272   3.239   7.730 -1.1354 -0.0633  0.7370
17302SOL    HW254800   9.196   3.314   7.623 -0.1682 -0.6349 -0.3626
17303SOL     OW54801   9.554   8.425   6.485  0.3834 -0.0775  0.1118
17303SOL    HW154802   9.554   8.448   6.578  0.3903  1.9386 -0.3302
17303SOL    HW254803   9.470   8.381   6.471  0.3647 -0.3690  1.0514
17304SOL     OW54804   4.379   4.565   6.513  0.1068 -0.5166 -0.3755
17304SOL    HW154805   4.320   4.636   6.491  0.3766 -0.1164  0.1718
17304SOL    HW254806   4.338   4.487   6.476 -0.6127 -0.1991 -0.2523
17305SOL     OW54807   8.248   2.967   4.686 -0.0063  0.0897 -0.3498
17305SOL    HW154808   8.330   2.978   4.734 -0.4233  0.4821  0.2903
17305SOL    HW254809   8.245   3.043   4.627  1.9737 -1.9023 -3.2882
17306SOL     OW54810   6.047   8.537   1.088  0.5037  0.3353  0.9252
17306SOL    HW154811   6.107   8.574   1.154  1.5959 -0.4947  0.4242
17306SOL    HW254812   6.057   8.443   1.097 -1.8975  0.0952  1.8595
17307SOL     OW54813  10.587   2.299   6.103  0.0922  0.4052  0.2657
17307SOL    HW154814  10.525   2.233   6.134 -0.6530  0.9496 -0.0446
17307SOL    HW254815  10.548   2.383   6.127  0.7258  0.7598  0.0943
17308SOL     OW54816   7.070   2.264   3.872 -0.3902  0.0601 -0.3897
17308SOL    HW154817   7.074   2.193   3.937  1.3807  0.8456  0.4482
17308SOL    HW254818   7.145   2.248   3.815  0.7183  1.8055  0.4853
17309SOL     OW54819   2.757   9.859   9.488  0.5163 -0.2240  0.1204
17309SOL    HW154820   2.833   9.831   9.539 -0.0327  1.4470  1.9691
17309SOL    HW254821   2.681   9.837   9.542 -0.1023  1.1740 -0.1160
17310SOL     OW54822   8.613   8.292   1.852 -0.2735  1.0236  0.2845
17310SOL    HW154823   8.561   8.234   1.908  0.3753 -0.9854 -1.1048
17310SOL    HW254824   8.700   8.291   1.891  0.0182  0.1277 -0.3572
17311SOL     OW54825   2.322   4.473   9.478  0.2637 -0.3477 -0.0066
17311SOL    HW154826   2.271   4.513   9.408  0.6752 -0.8781 -0.6270
17311SOL    HW254827   2.292   4.516   9.558  1.0926  1.6470 -0.6894
17312SOL     OW54828  10.302   0.761   5.838  0.0786  0.3458 -0.0723
17312SOL    HW154829  10.230   0.704   5.810  0.9983  0.0073 -1.8931
17312SOL    HW254830  10.360   0.704   5.888  0.4629 -0.0885 -0.9897
17313SOL     OW54831   9.527   2.540   8.550  0.4632 -0.2709  0.2343
17313SOL    HW154832   9.519   2.449   8.520 -0.8751  0.4804 -1.9331
17313SOL    HW254833   9.482   2.541   8.635 -2.9670 -0.9434 -1.4195
17314SOL     OW54834   7.271   3.604   6.105 -0.1515  0.2257  0.5570
17314SOL    HW154835   7.262   3.606   6.200  0.2754  0.9249  0.5910
17314SOL    HW254836   7.181   3.611   6.072 -0.1720  2.3312  0.9072
17315SOL     OW54837   2.295   9.995   5.469 -0.2284 -0.5040 -0.0139
17315SOL    HW154838   2.377   9.981   5.517  0.2203 -2.3926 -1.2172
17315SOL    HW254839   2.240   9.921   5.495 -1.3525  0.4305  0.3305
17316SOL     OW54840   3.530   5.224   7.613 -0.5973 -0.0915  0.1523
17316SOL    HW154841   3.491   5.302   7.652 -0.1044 -1.3071  3.3475
17316SOL    HW254842   3.469   5.153   7.634 -0.7413 -0.7337 -2.1736
17317SOL     OW54843   2.898   3.338   5.986 -0.4071  0.0157  0.2089
17317SOL    HW154844   2.898   3.280   6.063  0.8422 -0.3250 -0.0259
17317SOL    HW254845   2.897   3.278   5.911  0.2324  0.2974 -0.0321
17318SOL     OW54846   2.058   9.109   0.434  0.4174 -0.0338 -0.1345
17318SOL    HW154847   2.123   9.176   0.415 -0.2774  0.4039 -1.0030
17318SOL    HW254848   2.006   9.146   0.506 -1.6002  1.5522 -2.2651
17319SOL     OW54849   5.182  10.368  10.074  0.5040  0.2778 -0.1414
17319SOL    HW154850   5.151  10.379   9.984  0.1542 -2.5622 -0.4421
17319SOL    HW254851   5.274  10.345  10.065  0.2547 -0.8844  0.1392
17320SOL     OW54852   0.540   1.446   8.796 -0.4064 -0.4115  0.1230
17320SOL    HW154853   0.497   1.378   8.848 -1.9494  0.1022 -0.4178
17320SOL    HW254854   0.627   1.453   8.834 -0.4817 -2.1188  0.7053
17321SOL     OW54855   3.900   4.569   5.815  0.6958 -0.0476  0.4957
17321SOL    HW154856   3.921   4.611   5.731 -0.9269 -0.4366 -0.1360
17321SOL    HW254857   3.879   4.479   5.792 -1.4495  0.2481  1.0281
17322SOL     OW54858  10.422   0.457  10.284  0.0941 -0.2660 -0.0902
17322SOL    HW154859  10.342   0.411  10.307 -1.1805  1.9029  0.1265
17322SOL    HW254860  10.454   0.494  10.366  0.1826  0.5466 -0.4769
17323SOL     OW54861   8.726   2.278   1.176  0.0655 -0.2060 -0.4860
17323SOL    HW154862   8.666   2.338   1.132  1.2868  0.3578 -1.4287
17323SOL    HW254863   8.696   2.278   1.267  0.2876  2.2022 -0.3439
17324SOL     OW54864   8.356   3.312   5.607 -0.7135  0.0069  0.1901
17324SOL    HW154865   8.420   3.247   5.635  0.3852  1.0420  0.1233
17324SOL    HW254866   8.402   3.367   5.545 -1.9027  0.3133 -0.4557
17325SOL     OW54867   6.963   7.800   0.461 -0.0456 -0.1390  0.0756
17325SOL    HW154868   6.947   7.755   0.544  0.9283 -2.8846 -1.0887
17325SOL    HW254869   7.033   7.862   0.480 -0.0926 -0.4591  1.3846
17326SOL     OW54870   4.621   5.362   5.279  0.5186 -0.6887  0.5145
17326SOL    HW154871   4.679   5.422   5.233 -0.7660 -0.0725 -0.3874
17326SOL    HW254872   4.533   5.396   5.261 -0.2274 -2.5234  0.4183
17327SOL     OW54873   3.988   0.209   9.278 -0.0164 -0.3499  0.4977
17327SOL    HW154874   4.040   0.226   9.357 -0.1775  0.2216  0.4832
17327SOL    HW254875   3.898   0.232   9.303  0.0546  0.5882 -0.0930
17328SOL     OW54876   7.666   3.201   0.759 -0.1254  0.1048 -0.0524
17328SOL    HW154877   7.604   3.263   0.797 -0.2144 -0.4137  0.6513
17328SOL    HW254878   7.676   3.132   0.825 -0.3069 -0.8216 -0.9692
17329SOL     OW54879   1.473   8.581  10.140 -0.6563  0.5346 -0.0560
17329SOL    HW154880   1.463   8.570  10.234  1.9951 -1.1424  0.1189
17329SOL    HW254881   1.498   8.673  10.129 -2.1302  1.0595  0.6956
17330SOL     OW54882   2.092   7.214   4.940  0.7143 -0.1257  0.1237
17330SOL    HW154883   2.096   7.232   5.034  2.3022 -0.6737  0.1990
17330SOL    HW254884   2.109   7.120   4.933  1.2318  0.0186 -0.7366
17331SOL     OW54885   4.992   0.920   5.905 -0.0204  0.8419 -0.0442
17331SOL    HW154886   5.041   1.002   5.899  0.3613  0.7330  1.3008
17331SOL    HW254887   5.052   0.853   5.872  0.7321  0.7320  1.4533
17332SOL     OW54888   0.671   5.011  10.056 -0.0781 -0.3924 -0.5026
17332SOL    HW154889   0.625   4.932  10.082 -0.8204  0.1275 -0.1936
17332SOL    HW254890   0.763   4.985  10.050 -0.2681 -1.1880 -0.0572
17333SOL     OW54891   6.651   3.611   4.600  0.2925 -0.0875  0.1003
17333SOL    HW154892   6.659   3.675   4.530 -0.8850 -1.6489 -1.5390
17333SOL    HW254893   6.603   3.538   4.561  1.0339 -1.7232  2.0621
17334SOL     OW54894   4.615  10.239   3.348  0.8184 -0.2385 -0.0775
17334SOL    HW154895   4.574  10.241   3.434 -0.4835  0.1642 -0.6774
17334SOL    HW254896   4.566  10.303   3.296  1.1387 -0.9551 -1.3101
17335SOL     OW54897   7.197  10.370   4.432 -0.3721 -0.4424  0.3528
17335SOL    HW154898   7.114  10.369   4.385 -0.9993  1.6851  1.3037
17335SOL    HW254899   7.262  10.397   4.367 -1.1289  1.8706  0.4686
17336SOL     OW54900   2.770   5.665   9.933  0.1194 -0.3277 -0.4486
17336SOL    HW154901   2.816   5.581   9.927  0.8522  0.1371 -2.2662
17336SOL    HW254902   2.815   5.712  10.003  0.7893 -0.8508 -0.5159
17337SOL     OW54903   8.783  10.225   4.279 -0.4145 -0.0159  0.1900
17337SOL    HW154904   8.788  10.320   4.291  0.0607 -0.0296  0.1095
17337SOL    HW254905   8.779  10.213   4.184 -1.6808 -0.0281  0.2250
17338SOL     OW54906   9.469  10.332   2.804  0.0797  0.5609 -0.1857
17338SOL    HW154907   9.510  10.401   2.753 -3.0915  2.3195 -0.6059
17338SOL    HW254908   9.454  10.261   2.741  0.0068  0.9916 -0.6590
17339SOL     OW54909   8.492   1.759   9.709 -0.4577 -0.1465 -0.1193
17339SOL    HW154910   8.457   1.735   9.795  0.1254  0.2567  0.2361
17339SOL    HW254911   8.515   1.676   9.668 -1.5792 -0.4062 -0.2617
17340SOL     OW54912   0.257  10.236   7.345  0.0794  0.2219 -0.0991
17340SOL    HW154913   0.290  10.309   7.292  0.7829 -0.2820 -0.3673
17340SOL    HW254914   0.336  10.192   7.376 -0.3435 -0.1739  0.4171
17341SOL     OW54915   0.999   1.099   5.667 -0.3464  0.5951  0.3726
17341SOL    HW154916   0.935   1.101   5.596  0.6231 -0.1461 -0.5379
17341SOL    HW254917   1.072   1.048   5.633  0.9343  1.7774  1.2258
17342SOL     OW54918   7.234   3.522   3.621  0.1443 -0.0969  0.2351
17342SOL    HW154919   7.144   3.551   3.603  0.7639  2.4163  0.8274
17342SOL    HW254920   7.246   3.538   3.715  0.8782 -1.4548  0.3940
17343SOL     OW54921   9.136   7.603   4.877  0.0744 -0.6226  0.0113
17343SOL    HW154922   9.044   7.575   4.875 -0.4544  0.8596  1.2720
17343SOL    HW254923   9.158   7.605   4.970  1.7317 -1.9364 -0.3198
17344SOL     OW54924   4.754   1.816   0.868  0.0868  0.1488  0.1912
17344SOL    HW154925   4.719   1.792   0.954 -1.2194  0.3285 -0.2601
17344SOL    HW254926   4.797   1.900   0.882 -1.3849  0.9043  0.4150
17345SOL     OW54927   1.779   8.277   4.799 -0.0147  0.2287 -0.3707
17345SOL    HW154928   1.767   8.280   4.894  1.2467 -2.4929 -0.0106
17345SOL    HW254929   1.849   8.213   4.786 -0.5499  0.0711 -3.1752
17346SOL     OW54930   1.319   8.485   4.944  0.5477  0.2516  0.1669
17346SOL    HW154931   1.266   8.548   4.894  0.1177 -0.4833 -0.3249
17346SOL    HW254932   1.268   8.404   4.941 -0.0150  0.4341  2.6786
17347SOL     OW54933   8.252   8.051   0.865 -0.0836  0.4489  0.0933
17347SOL    HW154934   8.170   8.035   0.913 -0.1660  1.0649  0.1657
17347SOL    HW254935   8.306   7.974   0.884  0.6445  1.4979  2.7750
17348SOL     OW54936   6.188   4.106  10.190  0.2223  0.4253  0.0121
17348SOL    HW154937   6.264   4.060  10.227  0.2009 -1.4661 -2.1310
17348SOL    HW254938   6.148   4.043  10.131 -0.3966  2.8936 -2.3712
17349SOL     OW54939   1.384   1.277   7.750 -0.1548 -0.3665 -0.1987
17349SOL    HW154940   1.302   1.229   7.740 -0.7523  0.3635  0.9566
17349SOL    HW254941   1.407   1.266   7.842  1.2998 -0.9303 -0.6033
17350SOL     OW54942   8.006   0.272   0.210  0.2408 -0.5274  0.4885
17350SOL    HW154943   8.097   0.265   0.237 -0.1537 -0.4606  1.9017
17350SOL    HW254944   7.992   0.365   0.198  0.2124 -0.4833  0.8425
17351SOL     OW54945   7.987   9.882  10.107  0.2682 -0.0014  0.1302
17351SOL    HW154946   8.058   9.821  10.085  0.1202 -0.4556  0.8952
17351SOL    HW254947   8.021   9.968  10.082  1.1560 -0.1925  0.6526
17352SOL     OW54948   4.010   0.742   7.392 -0.2440 -0.0821 -0.6400
17352SOL    HW154949   3.936   0.759   7.450  0.0410 -0.0950 -0.2703
17352SOL    HW254950   3.972   0.743   7.304 -0.9423 -1.4838 -0.3851
17353SOL     OW54951   6.218   3.407   2.471 -0.5130 -0.6891 -0.1603
17353SOL    HW154952   6.204   3.366   2.386 -1.2098 -0.6740 -0.0587
17353SOL    HW254953   6.176   3.348   2.533 -0.2387 -0.5641  0.1444
17354SOL     OW54954   5.070   1.130   3.735  0.0660 -0.0390  0.2165
17354SOL    HW154955   5.026   1.111   3.652 -0.7380  0.0281  0.6121
17354SOL    HW254956   5.147   1.180   3.710  1.6099 -2.6835 -0.7587
17355SOL     OW54957   6.407   2.915   4.789  0.1543  0.2847  0.0422
17355SOL    HW154958   6.336   2.891   4.730 -0.3931  0.6960  0.5333
17355SOL    HW254959   6.389   2.866   4.870  1.8722 -1.7217 -0.6776
17356SOL     OW54960   3.922  10.665   7.225 -0.4824  0.6994  0.6454
17356SOL    HW154961   3.987  10.709   7.279 -0.1173  0.2760  0.5612
17356SOL    HW254962   3.860  10.627   7.287  0.8682 -1.2416  0.8834
17357SOL     OW54963   1.564   9.815  10.712 -0.0208  0.1048  0.2324
17357SOL    HW154964   1.522   9.764  10.643  0.4226  0.2449 -0.1495
17357SOL    HW254965   1.628   9.756  10.751  0.2065  0.2344  0.0623
17358SOL     OW54966   4.636  10.093   8.230 -0.4410  0.2833  0.0630
17358SOL    HW154967   4.636  10.023   8.164  0.6696  0.3653 -0.0501
17358SOL    HW254968   4.545  10.099   8.259 -0.5971 -1.0837 -0.0624
17359SOL     OW54969   5.656   9.789   8.863 -0.8027  0.2667  0.2523
17359SOL    HW154970   5.637   9.717   8.923  0.9262  0.7303  1.4334
17359SOL    HW254971   5.583   9.849   8.874 -1.2038 -0.3134  0.8463
17360SOL     OW54972   0.916   8.474   4.324  0.3986  0.4173 -0.0081
17360SOL    HW154973   0.838   8.440   4.368  1.8713  0.8282  3.2170
17360SOL    HW254974   0.902   8.568   4.320  0.9872  0.5697  1.2228
17361SOL     OW54975   7.558   4.309   9.604 -0.2092 -0.3391 -0.0493
17361SOL    HW154976   7.605   4.391   9.618  0.0098  0.0633 -2.6669
17361SOL    HW254977   7.619   4.241   9.633  0.5927  0.3220 -0.1536
17362SOL     OW54978   5.962   7.105   0.838  0.2373 -0.7355 -0.1043
17362SOL    HW154979   6.058   7.105   0.845  0.3033  0.1605 -0.7747
17362SOL    HW254980   5.939   7.012   0.829  1.2569 -0.8349 -2.3598
17363SOL     OW54981   3.893   6.546   4.661  0.8304  0.0503 -0.3861
17363SOL    HW154982   3.906   6.565   4.754 -1.8209 -0.1350  0.0831
17363SOL    HW254983   3.971   6.496   4.636  2.2028  1.1839  1.3754
17364SOL     OW54984   8.775   2.897   7.862  0.6370  0.0365  0.2316
17364SOL    HW154985   8.700   2.939   7.906  0.9077 -1.2907  2.0580
17364SOL    HW254986   8.849   2.914   7.920  1.5115  0.2133 -0.9092
17365SOL     OW54987   4.928   5.437   1.452  0.0891 -0.1358  0.3908
17365SOL    HW154988   4.962   5.509   1.399 -0.2023 -0.3106 -0.0412
17365SOL    HW254989   4.919   5.473   1.540  1.9208 -0.2367  0.6600
17366SOL     OW54990   5.746   1.559   2.083  0.5683 -0.2425  0.0801
17366SOL    HW154991   5.704   1.644   2.091  0.8463 -0.0947 -0.0285
17366SOL    HW254992   5.705   1.518   2.007 -1.1257 -1.1024  1.3844
17367SOL     OW54993   7.335   8.361   3.714 -0.6199 -0.1189  0.4658
17367SOL    HW154994   7.340   8.450   3.748 -0.7068  0.2115 -0.3496
17367SOL    HW254995   7.336   8.305   3.791 -0.7519  0.5990  0.9959
17368SOL     OW54996   3.475  10.603   6.460  0.0198 -0.4241 -0.2056
17368SOL    HW154997   3.518  10.647   6.533  0.3917  0.3926 -0.8950
17368SOL    HW254998   3.463  10.513   6.490  2.2309 -0.7126  0.0409
17369SOL     OW54999   3.392   7.056   0.025  0.2371  0.2286  0.0476
17369SOL    HW155000   3.330   7.066  -0.047 -2.6339 -1.3676  2.0877
17369SOL    HW255001   3.468   7.013  -0.014 -0.6780  0.5544 -2.2221
17370SOL     OW55002   5.527   0.059   0.810  0.5252  0.1561  0.2685
17370SOL    HW155003   5.610   0.039   0.853 -0.0370  1.0310  1.8126
17370SOL    HW255004   5.476   0.106   0.876 -0.6292  0.9592 -1.1407
17371SOL     OW55005   9.690   5.789   3.621  0.1597 -0.0485 -0.3131
17371SOL    HW155006   9.706   5.770   3.529  1.4173  0.8216 -0.2907
17371SOL    HW255007   9.693   5.885   3.627 -4.3270  0.3218 -0.1276
17372SOL     OW55008   5.358   6.524   8.363 -0.1101  0.0566 -0.4568
17372SOL    HW155009   5.450   6.522   8.334 -0.3274  0.8741 -1.2564
17372SOL    HW255010   5.353   6.598   8.422  0.0481 -0.8598  0.7378
17373SOL     OW55011   4.497   1.760   6.491  0.2708  0.0008  0.5472
17373SOL    HW155012   4.573   1.702   6.503  1.1381  0.3178 -2.7036
17373SOL    HW255013   4.441   1.714   6.429 -0.6995  1.1670  0.5178
17374SOL     OW55014   7.866   9.584   1.832 -0.5816 -0.1538  0.0071
17374SOL    HW155015   7.821   9.520   1.777  1.6836 -0.8223 -1.1853
17374SOL    HW255016   7.890   9.536   1.911  1.8148 -1.1421 -1.2149
17375SOL     OW55017   6.479   8.252   7.325 -0.2748 -0.2154  0.1857
17375SOL    HW155018   6.449   8.232   7.236 -0.1348 -1.3605  0.3722
17375SOL    HW255019   6.476   8.167   7.370  0.3099  0.2262  1.0784
17376SOL     OW55020   7.539   6.842   2.033 -0.0008 -0.1971 -0.0076
17376SOL    HW155021   7.452   6.832   2.071 -1.1556  1.8845 -1.9092
17376SOL    HW255022   7.567   6.752   2.014 -2.4223 -0.8473 -0.7924
17377SOL     OW55023   7.283   4.210   5.777  0.3363 -0.2750  0.3501
17377SOL    HW155024   7.324   4.167   5.852  0.2057 -2.1009 -0.5688
17377SOL    HW255025   7.205   4.158   5.759  1.4721 -1.2366 -2.3306
17378SOL     OW55026   1.779   6.086   9.885  0.5615 -0.2219 -0.0626
17378SOL    HW155027   1.860   6.135   9.879  0.6236 -0.2240  0.7022
17378SOL    HW255028   1.721   6.127   9.821  0.2488  1.5480  1.3073
17379SOL     OW55029   1.272   4.896   5.915 -0.0043 -0.3435 -0.3220
17379SOL    HW155030   1.249   4.833   5.847  1.2113 -0.3942 -0.7164
17379SOL    HW255031   1.366   4.886   5.927 -0.0439  0.2988  0.7411
17380SOL     OW55032   4.601   1.946   5.287  0.0767 -0.4035  0.2602
17380SOL    HW155033   4.677   2.002   5.271  0.9103 -1.8159 -0.9697
17380SOL    HW255034   4.541   1.966   5.216 -0.7560  0.7300  1.2468
17381SOL     OW55035   3.416   0.896   4.097  0.5141 -0.2102  0.0114
17381SOL    HW155036   3.509   0.921   4.099  0.4228  0.1044  0.9656
17381SOL    HW255037   3.413   0.823   4.036  1.3601 -0.0828 -0.2041
17382SOL     OW55038   3.143  10.304   1.490  0.1080 -0.7191 -0.4605
17382SOL    HW155039   3.102  10.376   1.538  0.1651 -0.5497 -0.6668
17382SOL    HW255040   3.091  10.294   1.411  0.7985 -0.1258 -0.9985
17383SOL     OW55041   9.693   1.732   8.531 -0.5711  0.0967 -0.0814
17383SOL    HW155042   9.763   1.786   8.496 -0.2473 -0.5784 -0.4988
17383SOL    HW255043   9.630   1.794   8.568 -0.0212  0.7298 -0.1975
17384SOL     OW55044   4.091   9.429   9.014 -0.1011 -0.1517  0.1503
17384SOL    HW155045   4.164   9.389   9.062 -0.3280 -0.1805  0.4757
17384SOL    HW255046   4.013   9.389   9.052 -0.2576 -0.7713 -0.7960
17385SOL     OW55047   5.257   3.648   7.375 -0.5840  0.4013  0.2534
17385SOL    HW155048   5.297   3.653   7.288  0.1191  1.8540  0.6251
17385SOL    HW255049   5.163   3.647   7.358 -0.4705  1.1582 -0.5220
17386SOL     OW55050   0.577   4.624   2.503  0.6521  0.0056  0.7111
17386SOL    HW155051   0.668   4.622   2.533  0.4597 -0.2346  1.3018
17386SOL    HW255052   0.542   4.538   2.527  0.4545 -0.1508 -0.1171
17387SOL     OW55053   3.365   7.608   6.753  0.2798  0.1851 -0.0107
17387SOL    HW155054   3.318   7.616   6.836  0.1658  0.0494 -0.0613
17387SOL    HW255055   3.321   7.669   6.694  1.7151  1.9191  0.6205
17388SOL     OW55056   9.515   1.723  10.081 -0.2697 -0.3769 -0.3514
17388SOL    HW155057   9.507   1.644  10.135 -0.1780  0.2662  0.6174
17388SOL    HW255058   9.534   1.793  10.143  1.1469  0.1624 -1.3537
17389SOL     OW55059   9.842   5.118   4.048 -0.5303 -0.4966 -0.0950
17389SOL    HW155060   9.890   5.194   4.081 -0.2198 -0.4557 -0.6352
17389SOL    HW255061   9.751   5.137   4.068 -0.5055  0.2410 -0.6499
17390SOL     OW55062   9.284   4.440  10.341 -0.9337  0.4600 -0.3100
17390SOL    HW155063   9.216   4.381  10.307 -1.5833  0.0803  1.5241
17390SOL    HW255064   9.235   4.509  10.386 -0.1271  0.6802  0.2523
17391SOL     OW55065   0.836   2.715   1.398  0.0754 -0.0898 -0.1596
17391SOL    HW155066   0.783   2.646   1.436  1.1462 -1.5333 -1.1304
17391SOL    HW255067   0.807   2.795   1.440 -2.7497 -0.8100 -0.5715
17392SOL     OW55068   9.215   9.618   7.818 -0.7777 -0.1681 -0.1953
17392SOL    HW155069   9.243   9.667   7.741  0.0584 -1.0329 -0.4536
17392SOL    HW255070   9.232   9.677   7.891 -0.4825  0.2134 -0.5646
17393SOL     OW55071   3.303   0.817   0.438  0.2853 -0.3634  0.4691
17393SOL    HW155072   3.233   0.781   0.382  0.0864 -1.0305  1.1262
17393SOL    HW255073   3.368   0.747   0.443  0.1941 -0.3954  1.2588
17394SOL     OW55074   3.125   9.726   4.577  0.3130 -0.0338 -0.5019
17394SOL    HW155075   3.049   9.671   4.594  1.2818 -0.5825  2.8807
17394SOL    HW255076   3.200   9.667   4.585  1.3486  1.4555  2.5977
17395SOL     OW55077   8.317   4.704   1.900  0.0466  0.4396  0.0967
17395SOL    HW155078   8.289   4.629   1.848 -0.3507  0.5125  0.1998
17395SOL    HW255079   8.235   4.746   1.928  0.2638  0.9212  0.0242
17396SOL     OW55080   0.250   1.991   3.890 -0.2924 -0.4399 -0.6233
17396SOL    HW155081   0.199   2.023   3.816 -1.7150 -0.0867  0.4636
17396SOL    HW255082   0.311   2.062   3.910 -1.1797  0.2612 -0.3136
17397SOL     OW55083   1.468   3.476   8.128  0.0758  0.2929  0.6031
17397SOL    HW155084   1.532   3.410   8.155 -0.2767 -0.4766 -0.4035
17397SOL    HW255085   1.510   3.522   8.055  0.0963  0.8235  0.9425
17398SOL     OW55086   8.026   5.946   5.478  0.1178  0.3091 -0.7436
17398SOL    HW155087   8.069   5.941   5.563 -2.1307  1.3353  0.5524
17398SOL    HW255088   8.018   5.855   5.449 -1.6282 -0.3808  1.5761
17399SOL     OW55089   3.658  10.619   4.014  0.2542 -0.4465  0.2088
17399SOL    HW155090   3.681  10.594   3.924  2.0987 -0.6343  0.6977
17399SOL    HW255091   3.670  10.539   4.065 -0.3543 -0.2238  0.7177
17400SOL     OW55092   6.101   7.269   2.458  0.2376 -0.2865 -0.5223
17400SOL    HW155093   6.092   7.347   2.403 -0.1653 -0.2881 -0.4632
17400SOL    HW255094   6.061   7.199   2.406  0.7871 -0.4953 -0.6641
17401SOL     OW55095   0.881   1.970   7.457  0.2458 -0.1204  0.6115
17401SOL    HW155096   0.854   1.902   7.518 -0.1154 -0.7243 -0.1912
17401SOL    HW255097   0.871   1.929   7.370 -0.8488  1.2473  0.0594
17402SOL     OW55098   3.062   1.008   5.696 -0.2298  0.8888 -0.4893
17402SOL    HW155099   3.127   1.039   5.633  1.0187  0.0567  0.3304
17402SOL    HW255100   3.078   0.914   5.702 -2.3048  0.4465 -1.1075
17403SOL     OW55101   5.925   7.268   5.424 -0.3327 -0.4660 -0.1536
17403SOL    HW155102   5.927   7.257   5.520 -0.1133  1.8718  0.1516
17403SOL    HW255103   5.862   7.337   5.409  0.4230 -0.0704 -1.6280
17404SOL     OW55104   0.705   6.595   0.770 -0.3146  0.1109  0.0133
17404SOL    HW155105   0.666   6.565   0.687  0.1795  1.0763 -0.5822
17404SOL    HW255106   0.692   6.521   0.830 -0.7497 -0.5788 -0.8970
17405SOL     OW55107   6.041   0.410   8.843 -0.1660  0.2111 -0.0214
17405SOL    HW155108   6.000   0.326   8.866  1.1172 -0.8368 -1.3455
17405SOL    HW255109   5.976   0.454   8.787 -0.0870 -0.7960 -0.9404
17406SOL     OW55110   0.012   9.450  10.209 -0.4103 -0.4920 -0.3327
17406SOL    HW155111   0.058   9.381  10.161 -0.1606 -0.3424 -0.3087
17406SOL    HW255112   0.016   9.422  10.301 -2.6052 -1.8029 -0.5542
17407SOL     OW55113  10.114   1.770   3.445 -0.3866  0.0396 -0.6527
17407SOL    HW155114  10.111   1.821   3.526 -0.9448  0.7261 -1.0828
17407SOL    HW255115  10.161   1.690   3.468  0.4168  0.7025  0.0766
17408SOL     OW55116   8.737   5.751   4.678  0.0932 -0.2379  0.5361
17408SOL    HW155117   8.784   5.804   4.614  0.5865 -0.4514  0.7134
17408SOL    HW255118   8.749   5.797   4.761 -2.4692  1.2959  0.1633
17409SOL     OW55119   3.431   1.287   3.528  0.4920 -0.1554  0.0379
17409SOL    HW155120   3.373   1.311   3.600 -1.0389 -0.8795 -0.9041
17409SOL    HW255121   3.450   1.195   3.542  2.2262  0.3015  0.8604
17410SOL     OW55122   7.554   3.704   1.164  0.5172  0.6387 -0.1364
17410SOL    HW155123   7.628   3.691   1.105  0.3703  0.9068 -0.3808
17410SOL    HW255124   7.591   3.697   1.252  1.0380  1.9105 -0.2463
17411SOL     OW55125   4.695   2.786   8.257  0.2916 -0.9255 -0.2979
17411SOL    HW155126   4.687   2.819   8.347 -0.4798 -1.2526 -0.2440
17411SOL    HW255127   4.789   2.768   8.247  0.4778 -0.3144  0.2336
17412SOL     OW55128   8.851   1.458   9.067 -0.0003 -0.3952 -0.5755
17412SOL    HW155129   8.867   1.376   9.114 -3.6147 -1.7713 -1.3812
17412SOL    HW255130   8.884   1.442   8.979 -1.9792 -1.7241 -1.1668
17413SOL     OW55131   3.048   2.077   3.366  0.2612  0.0287 -0.8602
17413SOL    HW155132   3.003   1.993   3.353  0.3549  0.0285 -1.1984
17413SOL    HW255133   3.136   2.052   3.393 -0.2900  0.0330  1.0907
17414SOL     OW55134  10.456   6.901  10.673 -0.2069  0.0422 -0.5613
17414SOL    HW155135  10.450   6.912  10.578 -1.0060 -0.6495 -0.5934
17414SOL    HW255136  10.530   6.842  10.685  0.8849  1.3279 -0.6500
17415SOL     OW55137   1.484   9.626   7.716 -0.0581 -0.7869  0.0931
17415SOL    HW155138   1.511   9.539   7.746 -0.0930 -1.1711 -0.9642
17415SOL    HW255139   1.548   9.685   7.756 -0.5004 -1.1914  1.4716
17416SOL     OW55140   8.435   7.562   4.173 -0.0526  0.2948  0.0327
17416SOL    HW155141   8.522   7.576   4.210  0.0298  0.3683 -0.1816
17416SOL    HW255142   8.413   7.472   4.195 -0.0024  0.3366  0.2514
17417SOL     OW55143  10.686   8.468   5.781  0.1838 -0.6116  0.1146
17417SOL    HW155144  10.664   8.465   5.874 -0.4791 -1.0175 -0.0529
17417SOL    HW255145  10.774   8.430   5.776  0.5485  0.1416  0.6693
17418SOL     OW55146   1.129   5.152   8.448 -0.1099 -0.0207 -0.4678
17418SOL    HW155147   1.079   5.083   8.403 -1.3616  0.2777  0.4187
17418SOL    HW255148   1.125   5.227   8.389 -2.9292  0.8224  0.6039
17419SOL     OW55149  10.606   7.838   4.297  0.1188  0.0544 -0.4463
17419SOL    HW155150  10.558   7.776   4.352  1.3126 -0.6509 -0.1409
17419SOL    HW255151  10.579   7.818   4.208  0.3076 -0.7687 -0.3318
17420SOL     OW55152   5.969   8.238   0.458 -0.2686 -0.0884 -0.0808
17420SOL    HW155153   5.892   8.199   0.499 -0.1612 -1.5888 -1.1915
17420SOL    HW255154   5.954   8.332   0.464 -1.1491 -0.3014  1.6256
17421SOL     OW55155   8.280   5.695   7.625 -0.3483  0.4000 -0.3075
17421SOL    HW155156   8.334   5.677   7.702  0.6905 -0.1028 -1.1216
17421SOL    HW255157   8.278   5.790   7.619 -2.0880  0.5363  1.4349
17422SOL     OW55158   2.898   7.691   3.736  0.1090 -0.4183 -0.4518
17422SOL    HW155159   2.865   7.639   3.663  2.0449 -2.7370  0.1708
17422SOL    HW255160   2.890   7.633   3.812  1.2047  0.6719  0.5419
17423SOL     OW55161   0.203   2.824   2.754  0.0819 -0.6549 -0.2229
17423SOL    HW155162   0.178   2.808   2.845 -2.7222  0.6337 -0.6662
17423SOL    HW255163   0.169   2.747   2.707 -0.4679 -0.2826 -0.4446
17424SOL     OW55164   7.142  10.642   7.301  0.2758 -0.8493 -0.1916
17424SOL    HW155165   7.212  10.585   7.333  1.2272  1.2883  1.8510
17424SOL    HW255166   7.188  10.707   7.247 -0.2869 -0.1857  0.1134
17425SOL     OW55167   6.445   4.071   9.877  0.3524 -0.2786 -0.5731
17425SOL    HW155168   6.460   4.135   9.947 -0.0567 -0.7947 -0.0140
17425SOL    HW255169   6.354   4.085   9.852 -0.3079 -1.8410  0.7870
17426SOL     OW55170   6.222   8.742   6.394 -0.0807  0.1040  0.0713
17426SOL    HW155171   6.274   8.738   6.475  1.0024 -0.1000 -0.6076
17426SOL    HW255172   6.209   8.651   6.369 -1.7523  0.1114  0.8184
17427SOL     OW55173   3.013   4.689   5.044  0.3434  0.7224  0.0879
17427SOL    HW155174   3.004   4.646   4.959  0.7657 -2.0032  1.3177
17427SOL    HW255175   2.977   4.776   5.031  0.0728  0.2642 -2.7770
17428SOL     OW55176  10.226   8.790   3.899  0.1343  0.2917 -0.9301
17428SOL    HW155177  10.183   8.707   3.920  1.3565  0.0456  0.8932
17428SOL    HW255178  10.194   8.851   3.966 -0.2619  1.1350 -1.8673
17429SOL     OW55179   6.640   2.502   6.132 -0.3623 -0.3058 -0.3431
17429SOL    HW155180   6.735   2.487   6.129 -0.5552 -2.5984  1.8843
17429SOL    HW255181   6.602   2.421   6.098 -1.4888 -0.3403  0.9003
17430SOL     OW55182   6.417   7.414  10.591 -0.1102 -0.0346  0.1056
17430SOL    HW155183   6.414   7.375  10.678  0.2216  1.0558  0.6200
17430SOL    HW255184   6.356   7.361  10.539  1.5007 -2.2494  0.3229
17431SOL     OW55185   7.612   8.076   5.066 -0.5630 -0.0390 -0.1450
17431SOL    HW155186   7.682   8.128   5.106 -0.7360  0.6364 -0.7059
17431SOL    HW255187   7.630   7.986   5.095 -0.5069  0.3800  1.1892
17432SOL     OW55188   4.399  10.662   0.056  0.1946  0.2066 -0.7721
17432SOL    HW155189   4.478  10.715   0.059  0.7733 -0.5203 -2.0891
17432SOL    HW255190   4.332  10.721   0.022 -0.8310  1.8830  3.5997
17433SOL     OW55191   8.635   7.703   9.028 -0.1322 -0.0846  0.0276
17433SOL    HW155192   8.584   7.712   8.947  0.2132  0.4545 -0.1323
17433SOL    HW255193   8.574   7.662   9.089 -0.4733 -0.2788 -0.4338
17434SOL     OW55194   2.496   8.055   2.864 -0.3024 -0.6539 -0.2455
17434SOL    HW155195   2.403   8.038   2.877 -0.0951 -1.1519  0.6877
17434SOL    HW255196   2.535   8.042   2.950  0.6392 -0.5004 -0.6350
17435SOL     OW55197   2.234   1.762   0.821 -0.0951 -0.5888  0.1475
17435SOL    HW155198   2.212   1.675   0.788 -0.8053 -0.3366 -0.0774
17435SOL    HW255199   2.158   1.788   0.873  0.1344 -0.1356  0.2670
17436SOL     OW55200   7.798   3.503   9.839 -0.1693  0.2373 -0.7585
17436SOL    HW155201   7.750   3.428   9.804  2.0127 -2.6335  1.9096
17436SOL    HW255202   7.748   3.530   9.916 -0.3323  0.7969 -1.0555
17437SOL     OW55203   5.533   1.767   6.559 -0.4721  0.2100 -0.2172
17437SOL    HW155204   5.527   1.862   6.544 -0.7542  0.1781 -0.3104
17437SOL    HW255205   5.560   1.731   6.474  1.8838  0.4259  0.3796
17438SOL     OW55206   8.264   2.827   1.519 -0.0757  0.2497 -0.3082
17438SOL    HW155207   8.250   2.827   1.425 -0.4903 -1.6517 -0.2914
17438SOL    HW255208   8.177   2.841   1.556 -0.9360 -3.8233 -0.2657
17439SOL     OW55209   6.377   1.900   8.746 -0.5555  0.2343  0.0165
17439SOL    HW155210   6.360   1.827   8.686  1.4896  1.0136 -1.6789
17439SOL    HW255211   6.471   1.918   8.735 -0.6335  2.0060  1.6860
17440SOL     OW55212   8.017   5.483  10.419  0.5003 -0.1884 -0.0461
17440SOL    HW155213   8.026   5.578  10.409 -1.4114  0.0092 -0.3838
17440SOL    HW255214   7.943   5.472  10.479  0.5784 -1.4743 -0.1507
17441SOL     OW55215   9.448   5.587  10.155 -0.5602 -0.1056 -0.4396
17441SOL    HW155216   9.386   5.597  10.227  1.5615  0.9899  1.3653
17441SOL    HW255217   9.483   5.675  10.140  0.2370 -0.6011 -1.6745
17442SOL     OW55218   2.316  10.637   6.400  0.6435  0.0051 -0.2029
17442SOL    HW155219   2.343  10.719   6.361 -0.4533 -0.2149 -1.4627
17442SOL    HW255220   2.228  10.653   6.435  0.3204 -0.6866 -0.6672
17443SOL     OW55221   3.504   7.550   1.454  0.3578  0.7426 -0.2315
17443SOL    HW155222   3.426   7.606   1.453 -0.0608  0.3149  2.0880
17443SOL    HW255223   3.470   7.463   1.477  1.4837  0.5484  0.8117
17444SOL     OW55224   4.447   7.407   7.069 -0.0826  0.0848  0.4324
17444SOL    HW155225   4.508   7.343   7.104  0.0944  0.3656  0.6403
17444SOL    HW255226   4.431   7.467   7.141  0.6008  0.8995 -0.0794
17445SOL     OW55227  10.179   4.377   7.332  0.7326  0.5661  0.1949
17445SOL    HW155228  10.099   4.333   7.362  0.4904  0.2231 -0.9318
17445SOL    HW255229  10.183   4.457   7.385 -0.7666  0.9754 -0.2386
17446SOL     OW55230   5.813   1.466   5.159  0.1550 -0.0045  0.2563
17446SOL    HW155231   5.828   1.411   5.082 -0.8277 -1.8788  1.3407
17446SOL    HW255232   5.901   1.484   5.193  0.4924 -2.0327  0.5887
17447SOL     OW55233   2.026   3.212   8.953  0.4426 -0.2253  0.1482
17447SOL    HW155234   2.068   3.295   8.976  1.4977 -0.1362 -1.9153
17447SOL    HW255235   1.938   3.237   8.927  0.7697  0.2718 -0.5150
17448SOL     OW55236   2.228   6.618   0.520  0.3165 -0.2745  0.3930
17448SOL    HW155237   2.302   6.614   0.460  0.2950  0.2254  0.3264
17448SOL    HW255238   2.253   6.683   0.586 -0.4573  0.6614 -0.2009
17449SOL     OW55239   0.673   8.987   3.272 -0.0858 -0.2895 -0.1317
17449SOL    HW155240   0.726   9.026   3.342  0.5781 -1.2878 -0.0692
17449SOL    HW255241   0.724   9.002   3.192  0.1156 -0.9231 -0.1226
17450SOL     OW55242   3.820   7.907   1.265  0.6860  0.3060 -0.4061
17450SOL    HW155243   3.881   7.849   1.311  1.2876  1.0829 -0.2136
17450SOL    HW255244   3.738   7.899   1.314  1.5207  1.7203  1.3094
17451SOL     OW55245   9.268   4.311   7.931  0.0546  0.0535  0.4023
17451SOL    HW155246   9.302   4.237   7.881  1.3713  0.0209  1.2889
17451SOL    HW255247   9.223   4.271   8.006 -0.0595  0.1425  0.3824
17452SOL     OW55248   2.721   2.785   3.335  0.9017 -0.3846  0.8302
17452SOL    HW155249   2.682   2.700   3.356  0.2420  0.0898  1.5655
17452SOL    HW255250   2.760   2.772   3.248 -1.5173 -0.7149 -0.3107
17453SOL     OW55251   3.772   9.112   4.406 -0.3323 -0.1118 -0.7032
17453SOL    HW155252   3.769   9.180   4.339  0.8446 -1.0986 -1.8144
17453SOL    HW255253   3.698   9.131   4.464 -1.0208  1.1150 -1.9419
17454SOL     OW55254   3.580   0.555  10.711 -0.2428  0.1953 -0.1988
17454SOL    HW155255   3.580   0.476  10.765 -0.7590  1.2194  1.3307
17454SOL    HW255256   3.649   0.610  10.748 -1.5045  1.4897  0.3109
17455SOL     OW55257   5.457   3.384   2.453 -0.0270  0.2864  0.4095
17455SOL    HW155258   5.460   3.360   2.545 -3.1985  2.6680  1.3372
17455SOL    HW255259   5.424   3.475   2.453  2.7873  1.5468 -2.9895
17456SOL     OW55260   9.847   0.119   2.886 -0.5219  0.0914  0.5164
17456SOL    HW155261   9.757   0.097   2.908 -0.6930  1.3545  1.1553
17456SOL    HW255262   9.873   0.184   2.952  0.8921 -0.3204  0.4154
17457SOL     OW55263   3.132   7.530   7.221  0.4215  0.0565 -0.0649
17457SOL    HW155264   3.050   7.566   7.254  1.8183  3.0202  0.5179
17457SOL    HW255265   3.134   7.440   7.254 -1.6939  0.5186  1.5296
17458SOL     OW55266  10.494   3.543  10.110 -0.3628  0.1130  0.6206
17458SOL    HW155267  10.571   3.561  10.164  0.4676  0.4647 -0.6356
17458SOL    HW255268  10.504   3.452  10.082 -0.4129  0.1554  0.4624
17459SOL     OW55269   1.122   1.677   7.528 -0.3727 -0.0509 -0.2309
17459SOL    HW155270   1.207   1.722   7.527 -0.5389  0.3026 -2.1305
17459SOL    HW255271   1.061   1.743   7.561  0.1414 -0.4680  1.6353
17460SOL     OW55272   2.613   2.294   7.849  0.2321 -0.3105  0.4645
17460SOL    HW155273   2.699   2.259   7.871 -0.3464 -2.2253 -0.1160
17460SOL    HW255274   2.580   2.329   7.931  0.3469 -2.3317  1.4372
17461SOL     OW55275   5.296   4.515   8.418 -0.3193 -0.0344  0.2785
17461SOL    HW155276   5.378   4.523   8.369 -0.6605  0.5776 -0.2016
17461SOL    HW255277   5.319   4.459   8.493  0.2988 -0.6536 -0.3561
17462SOL     OW55278   3.386   9.170   9.212  0.1598  0.2029 -0.7482
17462SOL    HW155279   3.321   9.226   9.257 -0.0030 -1.0114  0.5938
17462SOL    HW255280   3.373   9.189   9.119 -0.9717  1.2361 -0.4148
17463SOL     OW55281   0.792   5.804   8.986 -0.0239 -1.0388  0.1926
17463SOL    HW155282   0.771   5.897   8.978  0.5482 -0.9770 -0.7300
17463SOL    HW255283   0.741   5.774   9.062 -0.7526 -0.1356  0.0752
17464SOL     OW55284   1.358   7.530   5.293  0.2742 -0.2731  0.4317
17464SOL    HW155285   1.386   7.492   5.376 -0.6006  1.9410  1.8388
17464SOL    HW255286   1.439   7.537   5.241  1.0551 -0.5426  1.5725
17465SOL     OW55287   7.035   4.315   8.932  0.1333  0.2476 -0.0661
17465SOL    HW155288   7.017   4.237   8.984  0.3999 -0.7173 -1.3508
17465SOL    HW255289   6.967   4.377   8.957 -0.2568 -0.4954  0.7792
17466SOL     OW55290  10.711   3.079   2.436  0.3280 -0.0239 -0.0636
17466SOL    HW155291  10.790   3.071   2.489 -0.9853 -0.4334  1.9342
17466SOL    HW255292  10.722   3.161   2.388  1.4342  0.5341  1.1035
17467SOL     OW55293   0.752   0.254   2.586  0.4361  0.5113  0.1958
17467SOL    HW155294   0.808   0.248   2.664 -1.5801 -0.0946  1.6693
17467SOL    HW255295   0.734   0.163   2.563  1.4248  0.6700 -1.3501
17468SOL     OW55296   2.488  10.386   6.330 -0.0557  0.1596 -0.3732
17468SOL    HW155297   2.403  10.420   6.300  0.1482  0.4743 -0.6109
17468SOL    HW255298   2.508  10.439   6.407  1.2748  2.1615 -1.9560
17469SOL     OW55299   1.854   7.179   1.994  0.0639  0.3162 -0.2975
17469SOL    HW155300   1.821   7.257   2.039  2.3253  1.5226 -0.5349
17469SOL    HW255301   1.823   7.189   1.904 -2.8917 -1.1411  0.4331
17470SOL     OW55302   5.133   8.146   0.921  0.2495 -0.1339 -0.1067
17470SOL    HW155303   5.058   8.110   0.967 -0.0674 -1.6533 -1.6907
17470SOL    HW255304   5.160   8.221   0.974 -2.7334  0.8525  0.1869
17471SOL     OW55305   1.640   2.253   6.533  0.0941 -0.0335  0.4038
17471SOL    HW155306   1.623   2.219   6.621 -0.3983  0.3058  0.4457
17471SOL    HW255307   1.708   2.320   6.546 -0.3527  0.3852  0.6031
17472SOL     OW55308   6.231   2.771   1.849  0.7699 -0.1769 -0.4302
17472SOL    HW155309   6.187   2.723   1.919  0.8323  0.9631  0.4280
17472SOL    HW255310   6.301   2.713   1.821  0.3420 -0.9257 -0.0056
17473SOL     OW55311   4.548   7.007   0.046 -0.2854 -0.4805  0.0848
17473SOL    HW155312   4.513   6.952  -0.024 -0.1528  0.4240 -0.7128
17473SOL    HW255313   4.538   6.954   0.125 -1.3268 -1.1520 -0.4661
17474SOL     OW55314   1.539   0.134   5.830  0.0082 -0.3109 -0.0144
17474SOL    HW155315   1.466   0.191   5.807  0.7938  0.3704 -0.8503
17474SOL    HW255316   1.526   0.115   5.923  0.4444  2.3467  0.6784
17475SOL     OW55317   9.377   7.643   6.392 -0.3401  0.0635  0.3197
17475SOL    HW155318   9.292   7.610   6.361  0.1381 -0.5139 -0.4096
17475SOL    HW255319   9.359   7.678   6.479 -1.0399 -1.4352  0.8088
17476SOL     OW55320   5.484   4.659   2.164 -0.4986  0.1624 -0.6628
17476SOL    HW155321   5.533   4.712   2.102  1.5733 -0.3206  0.4606
17476SOL    HW255322   5.499   4.569   2.136  0.1674 -0.0422  0.2949
17477SOL     OW55323   2.911   2.994   0.004  0.5938 -0.1540  0.1473
17477SOL    HW155324   2.936   3.035  -0.079  0.4329 -0.6680 -0.1592
17477SOL    HW255325   2.855   2.921  -0.022 -0.1684  0.2038  0.7590
17478SOL     OW55326   5.998  10.684   5.809  0.1298 -0.4943 -0.7145
17478SOL    HW155327   5.955  10.748   5.866 -0.2052 -1.6589  0.3839
17478SOL    HW255328   6.000  10.726   5.723  0.1751  1.0932  0.0345
17479SOL     OW55329   9.349   7.765   1.869  0.2498  0.3135  0.0393
17479SOL    HW155330   9.348   7.774   1.965 -2.1161  0.6987  0.0520
17479SOL    HW255331   9.290   7.691   1.852 -2.6565  2.6862 -1.1771
17480SOL     OW55332  10.680   7.998  10.579 -0.5883  0.2625 -0.0571
17480SOL    HW155333  10.687   7.909  10.546  0.7897  0.5392 -0.5794
17480SOL    HW255334  10.588   8.008  10.603 -1.2832 -0.5579 -2.1398
17481SOL     OW55335   8.342   8.487   5.301 -0.3129  0.5892  0.3975
17481SOL    HW155336   8.256   8.459   5.269  0.5408 -1.8964  0.0907
17481SOL    HW255337   8.325   8.570   5.347 -2.7733  0.3906 -0.0347
17482SOL     OW55338   0.661   4.795   5.085 -0.1543 -0.8471 -0.0711
17482SOL    HW155339   0.694   4.730   5.147 -0.5809 -0.1668  0.8721
17482SOL    HW255340   0.583   4.754   5.047  1.0871 -2.0122 -1.5208
17483SOL     OW55341   5.957   6.792   3.816  0.5937 -0.3779 -0.5715
17483SOL    HW155342   6.029   6.821   3.760  1.7448 -2.2915 -0.1739
17483SOL    HW255343   5.916   6.872   3.846  1.6817  0.7440 -1.9461
17484SOL     OW55344   5.235   9.034   0.247  1.1059 -0.0992  0.6410
17484SOL    HW155345   5.256   8.979   0.172 -0.1548 -1.4993  1.2499
17484SOL    HW255346   5.184   8.977   0.305  0.5913  1.4330  1.7742
17485SOL     OW55347   2.323  10.349   0.268  0.0536 -0.1855  0.5568
17485SOL    HW155348   2.303  10.255   0.267 -1.1651 -0.0036 -2.1686
17485SOL    HW255349   2.417  10.354   0.252 -0.2342 -1.0022 -1.8071
17486SOL     OW55350   5.169   7.759   7.861  0.1095 -0.3543  0.0367
17486SOL    HW155351   5.138   7.751   7.951 -1.7051  0.2913 -0.4974
17486SOL    HW255352   5.193   7.851   7.852 -1.9346  0.1540 -0.7669
17487SOL     OW55353   9.671   9.371   5.727 -0.0208  0.1263 -0.3890
17487SOL    HW155354   9.656   9.282   5.762  0.2730 -0.5227 -1.8615
17487SOL    HW255355   9.759   9.368   5.691 -0.0306  1.0184 -0.4963
17488SOL     OW55356   1.546   8.402   6.488 -0.0149 -0.2946 -0.1450
17488SOL    HW155357   1.520   8.312   6.473 -0.7395 -0.4291  1.6118
17488SOL    HW255358   1.603   8.398   6.566 -2.3270  0.9874  1.7441
17489SOL     OW55359   0.217   3.616   7.385  0.2142  0.4387  0.0583
17489SOL    HW155360   0.161   3.538   7.384  0.3698  0.3098 -1.5157
17489SOL    HW255361   0.216   3.647   7.294  2.2433  0.7609  0.1012
17490SOL     OW55362   9.641   8.585   1.286 -0.2713 -0.6953  0.5262
17490SOL    HW155363   9.710   8.595   1.352 -0.1995 -2.2322  0.7160
17490SOL    HW255364   9.602   8.500   1.305 -1.8704 -0.0967  0.0653
17491SOL     OW55365   9.804  10.025  10.395  0.3942 -0.3681 -0.4574
17491SOL    HW155366   9.713  10.050  10.411  0.5675 -0.4796  0.8181
17491SOL    HW255367   9.821  10.052  10.305 -1.1547 -1.1073 -1.0099
17492SOL     OW55368  10.021   7.406   5.670  0.4061 -0.0807  0.3410
17492SOL    HW155369  10.058   7.411   5.758 -0.0808 -0.5917  0.5746
17492SOL    HW255370  10.086   7.357   5.620  0.1336 -0.8362  0.7108
17493SOL     OW55371   8.211   8.384   4.911  0.3485  0.4354  0.5179
17493SOL    HW155372   8.275   8.323   4.874  2.0856  0.7779  2.7221
17493SOL    HW255373   8.138   8.328   4.938 -0.1514 -0.0275 -1.6196
17494SOL     OW55374   1.026   1.567   9.184 -0.6908  0.1433  0.2134
17494SOL    HW155375   1.006   1.651   9.144 -1.3572  0.2223  0.6913
17494SOL    HW255376   0.941   1.525   9.196 -0.2764 -1.1898 -1.2453
17495SOL     OW55377   5.197   2.605   2.413 -0.0573 -0.0235  0.5064
17495SOL    HW155378   5.293   2.606   2.410 -0.0414  1.1500  0.8523
17495SOL    HW255379   5.173   2.688   2.454 -1.1969 -0.9334  1.7745
17496SOL     OW55380   7.681   5.138   7.419 -0.3378 -0.6336 -0.3981
17496SOL    HW155381   7.602   5.168   7.464 -1.0329 -0.4465 -1.6637
17496SOL    HW255382   7.744   5.210   7.429 -1.3073  0.4729 -1.7083
17497SOL     OW55383   5.008   0.001   8.355 -0.3851 -0.2989 -0.9140
17497SOL    HW155384   5.082  -0.038   8.402 -1.3376 -2.7502 -1.2800
17497SOL    HW255385   4.942   0.016   8.423 -0.6421 -0.9713 -1.0071
17498SOL     OW55386   4.417   6.450   6.729 -0.1596 -0.7133 -0.4488
17498SOL    HW155387   4.392   6.359   6.711  0.8195 -0.7753 -1.6074
17498SOL    HW255388   4.337   6.490   6.763 -1.3210 -1.3997 -2.2076
17499SOL     OW55389   7.519   9.936   0.973 -0.7969 -0.3939 -0.4603
17499SOL    HW155390   7.472   9.996   0.916 -0.9385 -1.4443 -1.4759
17499SOL    HW255391   7.543   9.862   0.917 -2.3317 -2.2095  1.1604
17500SOL     OW55392   0.389   2.242   8.360 -0.3194 -1.0380  0.7863
17500SOL    HW155393   0.453   2.306   8.327 -1.3077 -0.3883  0.0563
17500SOL    HW255394   0.318   2.245   8.296 -0.9965 -1.8913  1.4759
17501SOL     OW55395   5.995   5.479   1.695 -0.5378  0.2197 -0.2753
17501SOL    HW155396   5.987   5.415   1.624 -1.1652  0.1700 -0.1618
17501SOL    HW255397   5.953   5.558   1.662  0.5412  0.6957 -0.5458
17502SOL     OW55398   0.266   2.677   3.669 -0.3521 -0.4541 -0.0598
17502SOL    HW155399   0.319   2.602   3.643  2.0754  0.7554  1.1122
17502SOL    HW255400   0.283   2.687   3.763  1.8384  3.2747 -0.6841
17503SOL     OW55401   9.173   9.297   7.333  0.4704  0.3297  0.2377
17503SOL    HW155402   9.083   9.300   7.301  0.8035  1.2307 -0.7043
17503SOL    HW255403   9.202   9.207   7.317 -0.2866  0.0074  0.6418
17504SOL     OW55404   3.007   4.459   8.865 -0.1831  0.2328  0.0977
17504SOL    HW155405   2.928   4.441   8.813 -1.6024  0.7031  2.0068
17504SOL    HW255406   3.078   4.454   8.801 -1.6954 -0.5653 -1.6312
17505SOL     OW55407   3.655  10.148   0.675  0.3351  0.1364 -0.1552
17505SOL    HW155408   3.649  10.210   0.602 -1.6181  1.7737  1.2673
17505SOL    HW255409   3.747  10.147   0.699  0.5409  1.9122 -0.7314
17506SOL     OW55410   2.348   2.747   1.287  0.7433  0.2686 -0.1381
17506SOL    HW155411   2.407   2.672   1.295  1.7593  0.9256 -1.1514
17506SOL    HW255412   2.329   2.772   1.378 -1.7395 -2.7432  0.3242
17507SOL     OW55413   3.211   0.364   8.707  0.0467  0.0577 -0.8006
17507SOL    HW155414   3.216   0.454   8.739  1.2581  0.0669 -0.9666
17507SOL    HW255415   3.145   0.367   8.638 -0.5322  0.6284 -0.2409
17508SOL     OW55416   0.378   2.719   4.932  0.5216  0.2417  0.5000
17508SOL    HW155417   0.443   2.783   4.901 -0.3422  0.6487 -0.5436
17508SOL    HW255418   0.319   2.708   4.857  0.2166 -1.2157  0.9291
17509SOL     OW55419   2.354   3.590   4.352 -0.5879 -0.3716 -0.0688
17509SOL    HW155420   2.293   3.535   4.303  0.8220 -0.8121 -1.3911
17509SOL    HW255421   2.411   3.628   4.286  0.6040 -0.0058  1.1219
17510SOL     OW55422   9.546  10.378   1.082  0.2054 -0.6168  0.1436
17510SOL    HW155423   9.512  10.466   1.063  0.8289 -0.0076  1.6534
17510SOL    HW255424   9.473  10.319   1.062 -0.6056  0.3474  0.1540
17511SOL     OW55425   2.072   3.606   3.481  0.0126  0.3714 -0.2561
17511SOL    HW155426   2.006   3.551   3.522  0.4324  0.3662  0.4103
17511SOL    HW255427   2.154   3.584   3.525  0.1024  1.9060  0.4172
17512SOL     OW55428   4.625   2.972   0.308 -0.5731  0.1361 -0.2778
17512SOL    HW155429   4.611   2.888   0.263 -0.7379 -0.2432  0.4655
17512SOL    HW255430   4.641   3.034   0.238 -0.0013 -0.6080 -0.8212
17513SOL     OW55431   0.116   2.912   4.900 -0.6595  0.5404  0.6577
17513SOL    HW155432   0.102   2.993   4.851  2.4781  0.2266 -0.9860
17513SOL    HW255433   0.076   2.844   4.846  0.7406  0.4937 -0.3797
17514SOL     OW55434   2.349   8.394   0.104 -0.4585  0.4819  0.2815
17514SOL    HW155435   2.300   8.425   0.028 -0.5404  1.9396  0.8857
17514SOL    HW255436   2.333   8.460   0.172  2.8066  1.4445  0.3224
17515SOL     OW55437   9.369   6.272  10.417 -0.2752  0.0442 -0.1084
17515SOL    HW155438   9.318   6.352  10.421 -0.3508  0.0124 -0.3756
17515SOL    HW255439   9.349   6.225  10.498 -1.4849 -0.4551 -0.6777
17516SOL     OW55440   8.351   9.852  10.351 -0.1084  0.1774  0.3615
17516SOL    HW155441   8.260   9.845  10.379 -0.1144  1.0657  0.5963
17516SOL    HW255442   8.354   9.933  10.299  0.7264  0.6562  1.1105
17517SOL     OW55443   3.773   4.726   8.519  0.6296  0.6870  0.0153
17517SOL    HW155444   3.856   4.693   8.551 -0.5345 -0.0823  2.5261
17517SOL    HW255445   3.736   4.654   8.467  2.0130  1.5199 -2.3080
17518SOL     OW55446   2.016   1.982  10.435 -0.5610 -0.1929  0.2033
17518SOL    HW155447   2.015   1.975  10.530  1.5122  0.4525  0.3336
17518SOL    HW255448   2.032   1.893  10.404 -1.0196 -0.3671  0.4655
17519SOL     OW55449   8.738   0.024   0.717  0.2824  0.4728  0.2592
17519SOL    HW155450   8.743   0.110   0.758 -2.6371  0.8710  0.0549
17519SOL    HW255451   8.731   0.043   0.623 -0.7684  0.0793  0.2427
17520SOL     OW55452   4.599   6.668   7.162  0.5938 -0.5084 -0.0146
17520SOL    HW155453   4.638   6.614   7.230 -0.0228  0.0037  0.7558
17520SOL    HW255454   4.652   6.651   7.084  1.2929 -1.1078  0.5879
17521SOL     OW55455   1.151  10.049   2.845  0.1504 -0.2232  0.6135
17521SOL    HW155456   1.242  10.026   2.863  0.9051  1.3883 -0.8547
17521SOL    HW255457   1.156  10.132   2.798 -2.0443 -0.5421 -0.3066
17522SOL     OW55458   3.038   3.241   1.901  0.1525 -0.3071 -0.3161
17522SOL    HW155459   3.040   3.309   1.969 -4.2309  0.0584 -0.2935
17522SOL    HW255460   3.027   3.159   1.950  0.7147 -0.5066 -0.5151
17523SOL     OW55461  10.754   0.084   7.864 -0.0777  0.0753 -0.0344
17523SOL    HW155462  10.732   0.026   7.791  0.0200  0.0624 -0.0527
17523SOL    HW255463  10.734   0.033   7.942 -1.5111  0.5682 -0.0384
17524SOL     OW55464   6.193   9.861   3.077  0.3361 -0.4774  0.4643
17524SOL    HW155465   6.139   9.876   2.999 -1.7811  0.3049  1.9936
17524SOL    HW255466   6.167   9.774   3.107  1.6026 -1.0419  0.0001
17525SOL     OW55467   8.873   1.607  10.254 -0.2983  0.1731  0.0647
17525SOL    HW155468   8.943   1.560  10.209  0.2874  0.6347  0.4741
17525SOL    HW255469   8.814   1.636  10.184 -0.9037 -1.5063 -0.1668
17526SOL     OW55470   5.569   3.930   7.234  0.4671  0.0750 -0.4152
17526SOL    HW155471   5.506   3.926   7.307  1.4196  0.2157  0.4374
17526SOL    HW255472   5.652   3.902   7.273  0.8335 -0.6043 -1.6497
17527SOL     OW55473   7.233   4.167   6.194  0.0625 -0.3417  1.0500
17527SOL    HW155474   7.141   4.192   6.206  0.1407  1.2287 -1.0610
17527SOL    HW255475   7.283   4.242   6.226  0.4757  0.1123 -0.5713
17528SOL     OW55476   1.520   6.506   9.682 -0.3435 -0.5744 -0.2213
17528SOL    HW155477   1.549   6.558   9.607  0.5359 -0.2714  0.3088
17528SOL    HW255478   1.600   6.461   9.712 -0.3985  0.2582  1.2713
17529SOL     OW55479   4.439   2.051   4.653 -0.2441 -0.1409  0.6863
17529SOL    HW155480   4.384   2.079   4.580 -0.4356  0.6657  1.1236
17529SOL    HW255481   4.514   2.009   4.612 -1.2910 -1.5079  0.0868
17530SOL     OW55482   6.281   2.153   8.427 -0.1256 -0.5484  0.8664
17530SOL    HW155483   6.288   2.194   8.341  0.1326  1.2856  1.7150
17530SOL    HW255484   6.232   2.072   8.411  0.1361 -0.3869 -1.0230
17531SOL     OW55485   0.013   9.018   7.456 -0.8524  0.1715 -0.2548
17531SOL    HW155486  -0.030   9.084   7.510  2.0246  1.9274  0.0738
17531SOL    HW255487  -0.008   8.935   7.499 -1.7574  1.1777  1.3446
17532SOL     OW55488   4.612   9.528  10.225  0.2359  0.0097 -0.0152
17532SOL    HW155489   4.619   9.621  10.246 -0.2808 -0.1477  0.9163
17532SOL    HW255490   4.692   9.490  10.260 -0.1423 -0.0857  0.7711
17533SOL     OW55491   3.628   6.255  10.233 -0.4425 -0.0944  0.0414
17533SOL    HW155492   3.633   6.176  10.179 -1.7534 -0.5732  0.5834
17533SOL    HW255493   3.720   6.280  10.246 -0.0310  0.8151 -3.4335
17534SOL     OW55494   8.251   8.727   5.978  0.1088  0.4571  0.6203
17534SOL    HW155495   8.324   8.669   6.002 -0.0609  0.4548  1.1380
17534SOL    HW255496   8.248   8.791   6.049  0.8459  1.6278 -0.3730
17535SOL     OW55497   5.854   6.845   8.418 -0.2787  0.1941  0.4845
17535SOL    HW155498   5.840   6.773   8.479  1.4515 -1.2004 -0.6624
17535SOL    HW255499   5.935   6.887   8.449  1.0614 -1.0084 -1.1810
17536SOL     OW55500   5.828   6.397   6.460  0.1891  0.9957 -0.0550
17536SOL    HW155501   5.739   6.372   6.435  0.3151 -0.5872  0.9527
17536SOL    HW255502   5.838   6.487   6.428 -1.8255  1.2540 -0.0641
17537SOL     OW55503   5.217   6.258   5.658 -0.0402 -0.2256  0.0939
17537SOL    HW155504   5.195   6.272   5.750 -0.4572 -0.0180 -0.0337
17537SOL    HW255505   5.243   6.166   5.653 -0.0786 -0.2545  0.4039
17538SOL     OW55506   8.345   2.446   8.575 -0.7955 -0.2017  0.0235
17538SOL    HW155507   8.306   2.398   8.502  1.3115 -1.3743 -0.4216
17538SOL    HW255508   8.313   2.536   8.565 -0.5937 -0.3279 -2.3615
17539SOL     OW55509   2.074   4.587  10.724  0.3966 -0.2300 -0.4665
17539SOL    HW155510   2.077   4.544  10.639  1.8060 -0.5662 -0.2864
17539SOL    HW255511   2.131   4.533  10.780  0.1823  0.4623  0.4531
17540SOL     OW55512   8.240   4.705   6.502  0.1978  0.3492 -0.8481
17540SOL    HW155513   8.309   4.642   6.479  0.0987 -0.1542  0.2098
17540SOL    HW255514   8.273   4.749   6.580  0.2355  1.5866 -1.5356
17541SOL     OW55515   6.338   3.255   3.628 -0.1353  1.0785 -0.4815
17541SOL    HW155516   6.345   3.202   3.548 -1.8094 -0.4319  0.3165
17541SOL    HW255517   6.252   3.234   3.664  0.0486  2.7134  1.0616
17542SOL     OW55518   1.956   0.277   0.343 -0.8539 -0.6860  0.6777
17542SOL    HW155519   1.942   0.254   0.251 -2.3086  1.3853  0.3188
17542SOL    HW255520   1.905   0.212   0.392 -1.6235 -0.6628 -0.0706
17543SOL     OW55521   4.237   0.357   6.918 -0.1802  0.5584 -0.1032
17543SOL    HW155522   4.247   0.339   6.824  0.4385  0.6728 -0.0625
17543SOL    HW255523   4.169   0.425   6.922 -2.6150 -1.6755 -0.2624
17544SOL     OW55524   8.620   4.595  10.155 -0.8310  0.0601  0.0479
17544SOL    HW155525   8.563   4.637  10.219 -0.6662 -1.3124  1.1412
17544SOL    HW255526   8.569   4.596  10.074 -0.9896  1.9419  0.1185
17545SOL     OW55527  10.690   5.730   2.433 -0.2001  0.3018 -0.3137
17545SOL    HW155528  10.603   5.724   2.472 -1.8864  0.3593 -3.7288
17545SOL    HW255529  10.717   5.639   2.419 -0.2323  0.2989 -0.3547
17546SOL     OW55530   3.052   9.201   6.295 -0.1773  0.1968  0.0259
17546SOL    HW155531   3.089   9.133   6.238  0.3194  0.3262  0.1946
17546SOL    HW255532   2.958   9.181   6.298 -0.1551 -0.0166 -0.5616
17547SOL     OW55533   0.442   4.845   0.441 -0.0707  0.1210  0.2714
17547SOL    HW155534   0.458   4.893   0.360 -1.4413 -1.8193 -1.2406
17547SOL    HW255535   0.349   4.822   0.438  0.5443 -2.8498  0.7215
17548SOL     OW55536   4.591   5.151   9.962 -0.4866 -0.9617 -0.0194
17548SOL    HW155537   4.557   5.069   9.997 -0.4716 -0.0529  2.2695
17548SOL    HW255538   4.610   5.204  10.039  1.1055  0.5761 -1.3808
17549SOL     OW55539   4.856   2.609   1.225  0.0672  0.0993  0.7100
17549SOL    HW155540   4.893   2.687   1.184 -0.3381 -0.0671 -0.0030
17549SOL    HW255541   4.926   2.544   1.221  0.5195  0.5162  1.6084
17550SOL     OW55542   8.297   6.477   7.009  0.0712 -0.1583  0.1247
17550SOL    HW155543   8.372   6.466   6.951  1.2009  1.5248  1.1741
17550SOL    HW255544   8.293   6.395   7.059 -0.7522 -1.5250 -2.0238
17551SOL     OW55545   1.640   6.667   2.839 -0.1735 -0.0080  0.1552
17551SOL    HW155546   1.628   6.574   2.817  2.7059 -0.1620 -1.2389
17551SOL    HW255547   1.688   6.666   2.922  1.4142  0.1185 -0.7239
17552SOL     OW55548   8.549   7.620   1.088 -0.4772 -0.3614  0.0931
17552SOL    HW155549   8.622   7.599   1.147  0.6903 -1.0692 -1.5112
17552SOL    HW255550   8.491   7.545   1.093 -1.7995  0.7152  2.2914
17553SOL     OW55551   1.689   6.099   1.916 -0.1405  0.4848  0.2428
17553SOL    HW155552   1.744   6.113   1.992 -0.7630 -0.9041  0.9896
17553SOL    HW255553   1.640   6.180   1.905  0.0298  0.7265  1.2713
17554SOL     OW55554   1.542   6.175   0.573 -0.6238  0.2337  0.1405
17554SOL    HW155555   1.611   6.241   0.577  0.1645 -0.5970  0.5159
17554SOL    HW255556   1.462   6.225   0.559  0.1725  1.1425 -1.3874
17555SOL     OW55557   1.517  10.730   7.270 -0.1181  0.0600  0.3065
17555SOL    HW155558   1.533  10.783   7.347  0.4935 -0.5793  0.6346
17555SOL    HW255559   1.578  10.763   7.204 -0.5371  0.5070  0.1344
17556SOL     OW55560   3.705   5.638  10.146  0.8237  0.2023 -0.1731
17556SOL    HW155561   3.785   5.619  10.097  1.2058  1.8004 -0.2132
17556SOL    HW255562   3.695   5.733  10.141 -0.6742  0.1170  0.4723
17557SOL     OW55563  10.500   0.799   6.305 -0.2120 -0.3795  0.1011
17557SOL    HW155564  10.447   0.813   6.227  0.4964  2.2587  0.0105
17557SOL    HW255565  10.450   0.736   6.357 -2.0591 -0.0863 -1.2250
17558SOL     OW55566   5.015   5.008   0.141 -0.4973 -0.2197  0.5852
17558SOL    HW155567   5.047   5.071   0.076 -0.8176 -0.8702 -0.2258
17558SOL    HW255568   5.085   4.944   0.148 -1.0314 -0.9154 -0.1916
17559SOL     OW55569   5.750   7.901   8.287  0.2115 -0.1435 -0.2364
17559SOL    HW155570   5.811   7.892   8.360  2.7461 -1.3057 -2.3572
17559SOL    HW255571   5.683   7.962   8.319  2.3288  1.0303  2.3127
17560SOL     OW55572   6.892   3.237   7.537  0.0811  0.0491 -0.7294
17560SOL    HW155573   6.887   3.220   7.443  1.8396  0.0471 -0.8482
17560SOL    HW255574   6.978   3.275   7.550  1.0149 -2.4813  1.2302
17561SOL     OW55575   4.967   2.699  10.669  0.2507 -0.3524 -0.5664
17561SOL    HW155576   4.901   2.639  10.635  0.1977 -0.1327 -0.8565
17561SOL    HW255577   4.950   2.704  10.763 -1.3448  1.1691 -0.8946
17562SOL     OW55578  10.251   2.802   3.688 -0.2214 -0.9928  0.1893
17562SOL    HW155579  10.311   2.744   3.736 -1.2585 -1.4405  0.9875
17562SOL    HW255580  10.165   2.761   3.698 -0.6699 -0.3525 -0.9179
17563SOL     OW55581   4.339   5.633   6.013  0.0587 -0.0133 -0.2487
17563SOL    HW155582   4.341   5.716   6.060 -1.2624  0.1656 -0.4812
17563SOL    HW255583   4.410   5.582   6.052 -0.3350  0.5066  1.2199
17564SOL     OW55584   1.139   5.370   8.641  0.5954  0.3017 -0.0464
17564SOL    HW155585   1.132   5.285   8.597 -0.9828  0.7583 -0.7496
17564SOL    HW255586   1.094   5.357   8.724 -0.4787  0.6694 -0.5471
17565SOL     OW55587   8.565   4.316   7.800  0.5258 -0.4304  0.5526
17565SOL    HW155588   8.542   4.408   7.813 -0.3786 -0.8034  1.7490
17565SOL    HW255589   8.599   4.312   7.710 -1.3139  0.6895 -0.2404
17566SOL     OW55590   7.712   8.272  10.479 -0.1532  0.0996 -0.0358
17566SOL    HW155591   7.778   8.229  10.425  0.6305  1.6536 -0.3694
17566SOL    HW255592   7.702   8.359  10.440 -0.5935  0.7652  1.4829
17567SOL     OW55593   7.052   8.512   1.396 -0.0202 -0.4996 -0.4856
17567SOL    HW155594   7.123   8.554   1.445 -0.3331  0.2315 -0.6359
17567SOL    HW255595   7.050   8.422   1.428 -0.1009 -0.0870  0.7153
17568SOL     OW55596   5.360   6.612   1.027  0.1102 -0.2394 -0.4292
17568SOL    HW155597   5.407   6.581   1.104  3.1309  1.8772 -1.2299
17568SOL    HW255598   5.363   6.539   0.966 -0.7194 -1.3050  0.7546
17569SOL     OW55599   5.852   8.063   0.011 -0.0640 -0.3298 -0.0245
17569SOL    HW155600   5.778   8.101   0.057  0.3147  0.1712  0.1817
17569SOL    HW255601   5.845   7.969   0.028  1.0182 -0.0341  2.5452
17570SOL     OW55602   4.658   3.083  10.525  0.1301  1.0736  0.1282
17570SOL    HW155603   4.688   2.993  10.514  0.2034  1.3146 -2.0920
17570SOL    HW255604   4.604   3.100  10.448 -1.2257  2.4381  1.3031
17571SOL     OW55605   0.681   3.066   3.218  0.2159 -0.4338  0.0034
17571SOL    HW155606   0.760   3.019   3.245 -0.4444 -0.7784  1.4631
17571SOL    HW255607   0.669   3.043   3.126  1.0177 -1.5394  0.1529
17572SOL     OW55608   7.822   3.990  10.334 -0.1060 -0.1373 -0.3383
17572SOL    HW155609   7.856   3.972  10.246  0.6841  0.9855 -0.2843
17572SOL    HW255610   7.839   4.084  10.348  0.6920 -0.4859  1.3786
17573SOL     OW55611   6.311  10.795   6.674  0.2161 -0.2499  0.3314
17573SOL    HW155612   6.372  10.749   6.732 -0.4358 -2.7746 -0.8556
17573SOL    HW255613   6.247  10.834   6.734  1.2107 -0.2473  1.4345
17574SOL     OW55614   4.944   6.705   7.922  0.2271 -0.0760 -0.4124
17574SOL    HW155615   4.966   6.613   7.908  0.3141  0.1051 -1.5553
17574SOL    HW255616   5.006   6.754   7.867  0.2098  0.6660  0.2095
17575SOL     OW55617   4.583   3.639   7.530 -0.5907 -0.3609 -0.1346
17575SOL    HW155618   4.543   3.603   7.450  0.8505 -2.8095  0.1575
17575SOL    HW255619   4.530   3.603   7.601  0.7270 -1.8078  0.1563
17576SOL     OW55620   0.294   7.126   2.648  0.2009 -0.3630  0.2143
17576SOL    HW155621   0.236   7.054   2.671 -0.3362 -0.4625 -1.3220
17576SOL    HW255622   0.373   7.111   2.700 -0.7708 -0.7509  1.6259
17577SOL     OW55623   5.523   2.471   8.751 -0.3540  0.0334 -0.0630
17577SOL    HW155624   5.578   2.533   8.800 -0.1062  2.0957 -2.7298
17577SOL    HW255625   5.561   2.470   8.663 -2.5842 -1.0888 -1.0795
17578SOL     OW55626   0.590   0.599  10.286 -0.1053  0.2288  0.1212
17578SOL    HW155627   0.530   0.613  10.212  0.4012 -1.0889 -0.5725
17578SOL    HW255628   0.620   0.509  10.275  0.5413  0.2548  1.5409
17579SOL     OW55629   9.889   0.635   7.555 -0.1244  0.2692 -0.2710
17579SOL    HW155630   9.822   0.682   7.605  1.3363  1.5076  0.6147
17579SOL    HW255631   9.900   0.687   7.475 -0.4764 -0.1346 -0.5821
17580SOL     OW55632   4.086   3.254   0.540 -0.2319 -0.3204 -0.4433
17580SOL    HW155633   4.169   3.276   0.584  0.1969 -0.3773 -1.2014
17580SOL    HW255634   4.038   3.203   0.604  0.0081  0.3384  0.2765
17581SOL     OW55635   6.034   7.071   1.500 -0.1119 -0.1114  0.1732
17581SOL    HW155636   6.074   7.120   1.428 -0.9199 -1.3142 -1.1060
17581SOL    HW255637   6.090   6.994   1.510 -1.7090 -1.5178 -1.2541
17582SOL     OW55638   2.663   3.449   0.625  0.4250 -0.2856 -0.5397
17582SOL    HW155639   2.655   3.485   0.714 -1.0597 -1.5388 -0.1165
17582SOL    HW255640   2.627   3.517   0.568  2.3526  0.9724 -0.3423
17583SOL     OW55641   4.836   6.961   9.437  0.3219 -0.0646 -0.4238
17583SOL    HW155642   4.779   6.943   9.511 -1.1785  1.0379 -1.2645
17583SOL    HW255643   4.924   6.967   9.475 -0.1189 -1.4719  0.9407
17584SOL     OW55644   0.619   0.042   3.502  0.5960  0.2465 -0.6865
17584SOL    HW155645   0.665   0.125   3.493 -1.2542  1.3303 -0.5461
17584SOL    HW255646   0.559   0.055   3.576 -0.6809 -0.7266 -1.5057
17585SOL     OW55647   3.749   6.885   9.341 -0.5807 -0.2748  0.2218
17585SOL    HW155648   3.757   6.809   9.398 -0.4386 -1.4015 -1.2271
17585SOL    HW255649   3.730   6.957   9.400 -0.3807 -1.3632  1.6859
17586SOL     OW55650   5.776   4.644   7.212  0.2869 -0.4008  0.1580
17586SOL    HW155651   5.825   4.726   7.221 -0.3088 -0.0344  0.1187
17586SOL    HW255652   5.689   4.664   7.247 -0.4610 -0.4567 -1.5869
17587SOL     OW55653   7.509   0.094   5.337  0.5833  0.1102 -0.4358
17587SOL    HW155654   7.462   0.048   5.407 -0.4316  1.3837 -0.2434
17587SOL    HW255655   7.532   0.025   5.275  1.9277 -1.1416  1.3426
17588SOL     OW55656   2.718  10.498   1.440 -0.0988 -0.3523 -0.1591
17588SOL    HW155657   2.679  10.423   1.487  0.9276 -0.3268  0.7677
17588SOL    HW255658   2.652  10.522   1.375 -0.3171 -2.2838 -0.7185
17589SOL     OW55659   7.840   4.816  10.018 -0.2119 -0.0372  0.3636
17589SOL    HW155660   7.763   4.796   9.965 -1.2906  1.2349  1.3601
17589SOL    HW255661   7.882   4.889   9.972 -1.2973  1.2481  1.2995
17590SOL     OW55662   1.137   0.470   4.726  0.0145  0.2442 -0.0642
17590SOL    HW155663   1.042   0.482   4.723 -0.0166  0.1843  0.5428
17590SOL    HW255664   1.167   0.493   4.638 -0.4898  0.8823 -0.0758
17591SOL     OW55665   3.085   9.603   8.306 -0.2400 -0.0874  0.4836
17591SOL    HW155666   3.035   9.552   8.370  0.8037 -0.8041  0.7587
17591SOL    HW255667   3.028   9.609   8.229 -1.2864  0.3132  1.2775
17592SOL     OW55668   4.851   4.466   5.926 -0.4817 -0.1102  0.5700
17592SOL    HW155669   4.826   4.376   5.946 -1.0516  0.1460  1.0621
17592SOL    HW255670   4.816   4.482   5.838  1.1339 -0.9138 -0.2537
17593SOL     OW55671   0.861   0.540   0.945 -0.0016 -0.6005  0.0164
17593SOL    HW155672   0.819   0.546   1.031 -0.0463  0.5724 -0.0758
17593SOL    HW255673   0.879   0.630   0.920  1.2611 -0.9912 -0.6059
17594SOL     OW55674   3.325   6.979   8.048  0.8055 -0.4554 -0.2657
17594SOL    HW155675   3.415   7.007   8.030  0.5669 -0.4267 -1.5471
17594SOL    HW255676   3.274   7.061   8.047  0.6347 -0.5633 -0.4434
17595SOL     OW55677  10.004  10.694  10.631 -0.4504  0.3572 -0.4560
17595SOL    HW155678  10.026  10.741  10.711  1.6096 -1.4444  0.1528
17595SOL    HW255679   9.913  10.667  10.643 -0.2090  0.2131  1.2622
17596SOL     OW55680   6.302   5.015   2.436  0.2236  0.0164  0.1802
17596SOL    HW155681   6.305   5.097   2.388  0.0247 -0.6537 -1.0147
17596SOL    HW255682   6.348   4.952   2.380 -0.3416 -0.8777  0.6830
17597SOL     OW55683   2.067   5.663   0.751 -0.3419 -0.1833 -0.2261
17597SOL    HW155684   2.114   5.705   0.822  0.3946  0.0578 -0.8387
17597SOL    HW255685   1.999   5.725   0.726  0.8657  0.7828 -1.2626
17598SOL     OW55686   3.054   3.814   3.028 -0.4052  0.7588 -0.7193
17598SOL    HW155687   3.011   3.747   2.975  0.0947 -0.0701 -0.0989
17598SOL    HW255688   2.995   3.826   3.103  0.1713 -0.0187 -0.1215
17599SOL     OW55689   8.113   1.422   4.383  0.1694  0.1315 -0.6144
17599SOL    HW155690   8.095   1.495   4.324  2.2371 -0.0659 -1.5931
17599SOL    HW255691   8.109   1.460   4.471  1.1565  1.4294 -1.1086
17600SOL     OW55692   1.018   1.828   4.447 -0.6984  0.4503  0.5537
17600SOL    HW155693   1.075   1.825   4.524  1.4152  1.5627 -0.8667
17600SOL    HW255694   1.048   1.754   4.394  1.8312  2.8701 -1.6816
17601SOL     OW55695   5.434   6.874  10.183  0.1345 -0.1649  0.3391
17601SOL    HW155696   5.497   6.909  10.120 -0.4811  0.9473  0.3228
17601SOL    HW255697   5.415   6.785  10.152 -1.7721  1.0462 -2.2858
17602SOL     OW55698   9.936   4.206   5.241 -0.3865 -0.3007  0.1801
17602SOL    HW155699   9.868   4.195   5.174 -1.4138 -0.9644  1.3027
17602SOL    HW255700   9.990   4.127   5.233 -0.5260 -0.3939  0.1545
17603SOL     OW55701   7.477   2.423   7.661 -0.5634  0.5790  0.0763
17603SOL    HW155702   7.476   2.327   7.666  0.9391  0.5055 -0.3315
17603SOL    HW255703   7.388   2.447   7.637 -0.2869 -0.9481 -2.9235
17604SOL     OW55704   5.287   0.080   2.542 -0.5650  0.3920 -0.3073
17604SOL    HW155705   5.213   0.024   2.520  0.2023 -0.6094 -0.4105
17604SOL    HW255706   5.260   0.168   2.515 -0.8079 -0.3218 -2.5703
17605SOL     OW55707  10.451   3.836   3.837 -0.4386  0.2942  0.4559
17605SOL    HW155708  10.400   3.759   3.863 -0.6449  0.2150 -0.1573
17605SOL    HW255709  10.541   3.813   3.859 -0.4725 -0.2101  0.0933
17606SOL     OW55710   2.759   8.448   7.116 -0.0815 -0.0374  0.0061
17606SOL    HW155711   2.840   8.430   7.164  0.7540  3.9418  0.4424
17606SOL    HW255712   2.776   8.417   7.027  1.4084 -0.4914  0.4309
17607SOL     OW55713   5.853   6.923   6.995  0.3873 -0.6501  0.2719
17607SOL    HW155714   5.793   6.920   7.069  1.0343  0.8357  0.9202
17607SOL    HW255715   5.870   7.017   6.983 -0.1033 -0.8131 -2.1120
17608SOL     OW55716   7.419   4.884   5.811 -0.3135 -0.4374  0.6868
17608SOL    HW155717   7.413   4.885   5.716 -0.3181 -0.5510  0.6853
17608SOL    HW255718   7.368   4.808   5.837 -1.6854  0.5156  0.8815
17609SOL     OW55719   8.296   9.300   0.127  0.1348  0.4360 -0.0987
17609SOL    HW155720   8.283   9.311   0.033 -1.5438 -0.3228  0.0096
17609SOL    HW255721   8.209   9.280   0.162  0.7675  0.3962  1.5779
17610SOL     OW55722   7.758   6.598   8.947 -0.2370  0.0505  0.2912
17610SOL    HW155723   7.850   6.612   8.970 -0.5197 -0.0646  1.5649
17610SOL    HW255724   7.720   6.555   9.023 -1.9200  2.3014  0.8233
17611SOL     OW55725   5.000   1.320   7.924 -0.5049 -0.0838 -0.1270
17611SOL    HW155726   4.958   1.336   8.008 -0.3195  0.8115 -0.1889
17611SOL    HW255727   4.976   1.230   7.901  0.4310 -0.7932  1.4491
17612SOL     OW55728   8.886   3.869  10.571  0.7573 -0.2194  0.0451
17612SOL    HW155729   8.916   3.860  10.662  0.7888 -1.7414 -0.0922
17612SOL    HW255730   8.945   3.812  10.521  0.1606 -0.1106 -0.7992
17613SOL     OW55731   2.691   3.686   1.268  0.2704  0.2770  0.5094
17613SOL    HW155732   2.714   3.735   1.188 -0.9419 -0.5455 -0.3678
17613SOL    HW255733   2.612   3.729   1.300  1.4495  1.4373  2.0595
17614SOL     OW55734   8.063   9.283   8.377  0.2451  0.3883  0.0615
17614SOL    HW155735   8.143   9.323   8.411 -0.0344 -0.8232  2.3664
17614SOL    HW255736   7.996   9.303   8.443 -0.8304 -0.4289 -0.7481
17615SOL     OW55737   8.142   4.494   3.362  0.0183  0.1597  0.4484
17615SOL    HW155738   8.205   4.435   3.403 -0.3375  0.8479  2.1134
17615SOL    HW255739   8.096   4.441   3.297  1.7558 -0.5550 -0.2324
17616SOL     OW55740   4.083   8.859   4.620  0.2806  0.0369  0.2099
17616SOL    HW155741   4.114   8.916   4.690  0.0514  1.7031 -0.9650
17616SOL    HW255742   4.043   8.919   4.557  0.1285 -1.4344 -1.1631
17617SOL     OW55743   1.986   0.304  10.389  0.3047  0.5173 -0.3166
17617SOL    HW155744   1.913   0.272  10.336  1.5304 -0.7232 -1.3375
17617SOL    HW255745   2.018   0.381  10.343  0.8414 -0.0772 -0.9758
17618SOL     OW55746  10.560   3.254   5.983 -0.0414 -0.2613  0.0514
17618SOL    HW155747  10.580   3.214   6.067  0.9567  0.3089  0.1100
17618SOL    HW255748  10.496   3.322   6.003  1.3412  0.9175  0.6302
17619SOL     OW55749   5.939   3.436   0.986  0.0280 -0.2766  0.6344
17619SOL    HW155750   6.020   3.481   1.006 -0.2904  0.8052 -0.4627
17619SOL    HW255751   5.918   3.459   0.896 -1.7567 -0.1121  1.0403
17620SOL     OW55752   6.947   0.342   6.917 -0.2761  0.4972  0.5513
17620SOL    HW155753   6.878   0.397   6.880  1.1444  1.5586 -0.6439
17620SOL    HW255754   7.011   0.333   6.846  0.5937 -0.8526  1.4639
17621SOL     OW55755  10.339   6.821   1.310  0.4626  0.0001  0.8332
17621SOL    HW155756  10.256   6.793   1.349 -0.4328  2.5686  0.9224
17621SOL    HW255757  10.391   6.852   1.384 -0.3374  2.6908  0.3598
17622SOL     OW55758   7.859   1.561   2.015 -0.1177 -0.5366 -0.4973
17622SOL    HW155759   7.924   1.598   2.074 -2.0248 -0.2787  1.5726
17622SOL    HW255760   7.883   1.468   2.008 -0.7696 -0.9814  2.1287
17623SOL     OW55761   9.804  10.041   8.102  0.6592 -0.5059  0.4350
17623SOL    HW155762   9.842   9.955   8.119 -0.4074 -1.0596  0.1120
17623SOL    HW255763   9.878  10.101   8.105  1.4468 -1.4566  0.5034
17624SOL     OW55764   5.860   7.875   1.313  0.5309 -0.1587  0.5446
17624SOL    HW155765   5.944   7.896   1.353 -0.2141  0.1353  1.9954
17624SOL    HW255766   5.863   7.781   1.298  1.4615 -0.0145 -0.2619
17625SOL     OW55767   4.900   2.509   2.075  0.4637 -0.0091 -1.1137
17625SOL    HW155768   4.873   2.501   1.984 -2.1087  0.8441 -0.5098
17625SOL    HW255769   4.861   2.433   2.118 -1.7109  1.5621 -0.1013
17626SOL     OW55770  10.374   3.536   1.788  0.6254 -0.0603 -0.4496
17626SOL    HW155771  10.413   3.518   1.702  1.3667 -0.9365  0.0512
17626SOL    HW255772  10.309   3.604   1.771  0.1604 -0.8136 -1.8515
17627SOL     OW55773   4.793   6.193   6.669  0.6129 -0.9268 -0.3493
17627SOL    HW155774   4.704   6.163   6.690  0.0132  1.1376  0.3670
17627SOL    HW255775   4.790   6.211   6.575 -0.0408 -0.0149 -0.1706
17628SOL     OW55776   1.938   4.721   6.474  0.6765 -0.1045 -0.0233
17628SOL    HW155777   1.866   4.659   6.485  1.1113 -0.4070  1.3004
17628SOL    HW255778   1.954   4.722   6.380 -1.6126  0.6339 -0.4604
17629SOL     OW55779   0.887   2.286   6.684  0.4974  0.3609  0.3024
17629SOL    HW155780   0.857   2.202   6.648  1.0169  0.8540 -1.3679
17629SOL    HW255781   0.822   2.308   6.750  0.1640 -1.1916  0.5294
17630SOL     OW55782   7.764   7.824   1.513  0.0579  0.4180 -0.4137
17630SOL    HW155783   7.715   7.893   1.468 -0.5751 -0.1666 -0.6329
17630SOL    HW255784   7.749   7.745   1.461  1.2016  0.2122 -0.4557
17631SOL     OW55785   9.612   4.249   3.654 -0.0050  0.5599 -0.1370
17631SOL    HW155786   9.688   4.270   3.709 -1.9541  0.7091  2.7358
17631SOL    HW255787   9.595   4.330   3.606  1.2647  0.7144 -0.3752
17632SOL     OW55788   5.515   0.080  10.744  0.7003 -0.1688  0.0099
17632SOL    HW155789   5.444   0.017  10.730  0.8865 -0.3828  0.0295
17632SOL    HW255790   5.585   0.029  10.784  0.7753  0.0959  0.2172
17633SOL     OW55791   2.606   5.675   5.276 -0.4625  0.0753 -0.0791
17633SOL    HW155792   2.591   5.601   5.217  0.7189  1.8163 -2.7613
17633SOL    HW255793   2.590   5.753   5.222 -0.0689  1.7995  2.1429
17634SOL     OW55794   0.613  10.688   7.423  0.2194 -0.0812 -0.3324
17634SOL    HW155795   0.660  10.643   7.494 -1.1206 -0.8645  0.0997
17634SOL    HW255796   0.679  10.702   7.356  1.7768  1.5349  1.4235
17635SOL     OW55797   8.323   8.439   5.992 -0.4243  0.0609 -0.0566
17635SOL    HW155798   8.324   8.412   5.900  0.2270  1.0196 -0.3522
17635SOL    HW255799   8.402   8.493   6.002 -0.3751 -0.1968  1.1189
17636SOL     OW55800  10.661   7.454   6.352  0.1333  0.5036  0.4269
17636SOL    HW155801  10.754   7.464   6.331  0.1995  0.3903  0.6557
17636SOL    HW255802  10.642   7.361   6.334  0.1824  0.4139  0.8270
17637SOL     OW55803   2.946   2.771   5.452  0.0705  0.1184 -0.1629
17637SOL    HW155804   2.997   2.823   5.514 -1.3119 -1.1677  2.1697
17637SOL    HW255805   2.998   2.691   5.440 -0.0279  0.0330 -0.0283
17638SOL     OW55806   3.334   4.456   4.645  0.8238  0.5827 -0.2267
17638SOL    HW155807   3.421   4.421   4.666  0.2277 -1.7087 -1.2671
17638SOL    HW255808   3.279   4.426   4.718  0.4237 -0.1299 -0.8168
17639SOL     OW55809   3.885   3.895   8.173 -0.0127  0.1197 -0.0042
17639SOL    HW155810   3.839   3.929   8.250 -0.6581  0.6361 -0.6079
17639SOL    HW255811   3.907   3.973   8.122  0.2522 -0.2343 -0.4348
17640SOL     OW55812   1.473  10.687   6.898  0.5657  0.1530  0.3439
17640SOL    HW155813   1.449  10.690   6.990 -0.5500  0.5402  0.0605
17640SOL    HW255814   1.442  10.771   6.862 -0.5701 -0.6975 -0.7307
17641SOL     OW55815   5.243   4.886   8.907 -0.4884  0.3147 -0.1792
17641SOL    HW155816   5.177   4.851   8.846 -0.1256  0.8319 -0.8813
17641SOL    HW255817   5.327   4.859   8.870 -0.1260  2.6618 -1.2970
17642SOL     OW55818   7.130   6.111   5.822 -0.4094  0.1025 -0.5760
17642SOL    HW155819   7.155   6.196   5.856 -0.7069 -0.0265 -0.0235
17642SOL    HW255820   7.053   6.129   5.768 -0.7691  0.1258 -0.0678
17643SOL     OW55821   6.132   9.361   9.503 -0.0146 -0.6337  0.2646
17643SOL    HW155822   6.052   9.320   9.470 -0.1062 -1.9576  1.9216
17643SOL    HW255823   6.147   9.317   9.587  1.4561  0.8705  0.8406
17644SOL     OW55824  10.390   1.355   5.424  0.1167  0.4098 -0.1830
17644SOL    HW155825  10.476   1.388   5.449  0.3607 -0.4987  0.2116
17644SOL    HW255826  10.391   1.263   5.449 -0.6524  0.1647 -0.9829
17645SOL     OW55827   4.726   9.005   3.231 -0.1421  0.0320  0.0036
17645SOL    HW155828   4.647   9.034   3.278 -0.6007 -0.7023 -0.2904
17645SOL    HW255829   4.787   9.078   3.238 -0.9308  0.6927  0.0574
17646SOL     OW55830   9.836   2.932   6.661  0.6934 -0.5896  0.3163
17646SOL    HW155831   9.869   2.949   6.573 -0.3252 -0.4005 -0.0419
17646SOL    HW255832   9.822   3.019   6.699  0.5486 -0.6651  0.4387
17647SOL     OW55833   9.984   8.861   0.115  0.1622 -0.0253 -0.5692
17647SOL    HW155834  10.037   8.941   0.116 -0.0802  0.1346  0.3589
17647SOL    HW255835  10.029   8.801   0.174 -0.8873  0.2693  0.5874
17648SOL     OW55836   1.287   5.519   6.013 -0.3261  0.0764 -0.9108
17648SOL    HW155837   1.293   5.558   6.101 -0.3392 -0.8253 -0.4989
17648SOL    HW255838   1.344   5.442   6.017 -2.1012 -1.2978 -0.9572
17649SOL     OW55839   8.718   5.250   2.518  0.2434  0.2629  0.4569
17649SOL    HW155840   8.622   5.250   2.509  0.3347 -0.0452 -0.5782
17649SOL    HW255841   8.741   5.158   2.530  0.5150  0.1909 -0.5601
17650SOL     OW55842   0.982   6.248   0.614 -0.3845  0.2247 -0.1152
17650SOL    HW155843   1.012   6.307   0.682 -0.8546  0.2884  0.0439
17650SOL    HW255844   1.034   6.169   0.625 -0.4071  0.2646  0.2682
17651SOL     OW55845   0.087   1.574  10.313  0.2531 -0.4442 -0.6249
17651SOL    HW155846   0.181   1.571  10.329  0.3950 -0.2973 -1.3721
17651SOL    HW255847   0.074   1.657  10.267 -0.3012 -0.2839 -0.1897
17652SOL     OW55848   8.755   2.609   7.392 -0.0831 -0.0033  0.0602
17652SOL    HW155849   8.761   2.657   7.474 -3.0043 -0.7723  0.8272
17652SOL    HW255850   8.815   2.535   7.403 -0.0873  0.1630  1.2959
17653SOL     OW55851   6.093   2.364   6.593  0.4285  0.1685  0.2367
17653SOL    HW155852   6.120   2.430   6.530  0.7666  0.0737  0.2783
17653SOL    HW255853   6.158   2.294   6.584  0.7895  0.3806  1.0412
17654SOL     OW55854   9.010   4.078   5.282  0.6066  0.6898 -0.1224
17654SOL    HW155855   9.098   4.088   5.317  0.2488 -1.6792  1.7194
17654SOL    HW255856   9.017   4.103   5.190  2.6166  2.8160  0.5181
17655SOL     OW55857   2.348   1.034   8.048  0.0341  0.5162 -0.0500
17655SOL    HW155858   2.332   1.000   8.136  0.2991  1.3531  0.3275
17655SOL    HW255859   2.414   0.974   8.011 -0.5543 -0.2183  0.0735
17656SOL     OW55860   5.752   2.940   7.857  0.2718  0.1970  0.0066
17656SOL    HW155861   5.658   2.944   7.839  0.1407 -2.5800 -0.2883
17656SOL    HW255862   5.793   2.954   7.772  0.1733  1.5706  0.1614
17657SOL     OW55863   7.478   0.153  10.248 -0.0468  0.6193 -0.3343
17657SOL    HW155864   7.518   0.174  10.164 -1.1127 -0.4116 -1.1235
17657SOL    HW255865   7.496   0.230  10.303  1.0562  1.1122 -1.3427
17658SOL     OW55866   2.904   3.476   8.460 -0.0431 -0.0105 -0.1079
17658SOL    HW155867   2.896   3.386   8.428  0.6657  0.1277 -0.6901
17658SOL    HW255868   2.908   3.467   8.555  1.0330 -0.6909 -0.1957
17659SOL     OW55869   5.540  10.692   9.276  0.4196 -0.0148  0.1057
17659SOL    HW155870   5.551  10.621   9.213 -0.6983 -0.4267  0.3527
17659SOL    HW255871   5.462  10.740   9.245  0.3974  0.3217  0.6641
17660SOL     OW55872   7.678  10.630   1.427 -0.0676 -0.0654  0.1538
17660SOL    HW155873   7.704  10.607   1.516 -0.2766 -0.0408  0.2227
17660SOL    HW255874   7.586  10.657   1.435 -0.1530 -0.2787 -0.1052
17661SOL     OW55875   9.619   5.539   9.687 -0.5999 -0.0396  0.1870
17661SOL    HW155876   9.606   5.493   9.605 -0.1284  0.2517 -0.0536
17661SOL    HW255877   9.567   5.490   9.751  0.7902 -1.6144  0.1792
17662SOL     OW55878   9.095   3.231   3.791 -0.3473 -0.6625  0.1160
17662SOL    HW155879   9.180   3.245   3.749 -0.8572  0.4122 -0.6247
17662SOL    HW255880   9.115   3.184   3.872  1.1234  0.9649  0.7493
17663SOL     OW55881   1.571  10.065   0.353 -0.2074  0.5893 -0.1622
17663SOL    HW155882   1.572  10.060   0.258 -0.8486  0.4762 -0.1625
17663SOL    HW255883   1.664  10.065   0.378 -0.0445  0.3391 -0.7670
17664SOL     OW55884   7.516   6.218   4.102 -0.4974  0.3096  0.0379
17664SOL    HW155885   7.585   6.170   4.055 -1.1229 -1.7421  1.0830
17664SOL    HW255886   7.560   6.250   4.181 -0.6141 -0.6225  0.4919
17665SOL     OW55887   1.010   0.332  10.647 -0.3652  0.3021  0.2277
17665SOL    HW155888   0.977   0.416  10.615  1.2242 -0.0709 -2.7474
17665SOL    HW255889   0.933   0.276  10.651 -0.9701  1.0184 -0.9515
17666SOL     OW55890   6.042   5.601   4.987  0.2518 -0.6882 -0.0233
17666SOL    HW155891   5.996   5.680   5.017  2.9260  1.1211 -0.3585
17666SOL    HW255892   6.013   5.532   5.046 -1.5063  0.7263  0.8623
17667SOL     OW55893   6.345   9.500  10.222  0.3663 -0.0549 -0.2334
17667SOL    HW155894   6.276   9.481  10.286 -0.6354  0.0426 -1.2524
17667SOL    HW255895   6.326   9.441  10.149  1.0571  0.3580 -0.7509
17668SOL     OW55896   3.812   1.714   6.643 -0.2421 -0.1258  0.2212
17668SOL    HW155897   3.729   1.674   6.615 -1.0466  0.0442  2.2056
17668SOL    HW255898   3.856   1.645   6.693  0.0865  0.2923  0.5170
17669SOL     OW55899   8.479   2.152   3.745 -0.6471  0.3249 -0.1661
17669SOL    HW155900   8.489   2.231   3.799  2.0688  0.2768 -0.4613
17669SOL    HW255901   8.508   2.080   3.801  0.2527  0.0246 -0.9716
17670SOL     OW55902   9.558   2.984   6.597 -0.2489 -0.5024  0.2128
17670SOL    HW155903   9.557   3.064   6.649 -0.4715 -0.1055 -0.3874
17670SOL    HW255904   9.647   2.950   6.606 -0.3439 -0.5582  1.0175
17671SOL     OW55905   9.680   5.606   5.371  0.0306  0.6100  0.3302
17671SOL    HW155906   9.773   5.585   5.359 -0.0832 -1.2419  2.0971
17671SOL    HW255907   9.676   5.642   5.460 -1.0705 -0.2797  0.6552
17672SOL     OW55908   6.892   1.282   8.696  0.2650  0.3563 -0.1137
17672SOL    HW155909   6.912   1.197   8.736  1.0722  1.0841  1.1054
17672SOL    HW255910   6.798   1.293   8.709 -0.6337 -1.8613 -3.4162
17673SOL     OW55911   0.498   3.284   2.310  0.1589  0.8732  0.5974
17673SOL    HW155912   0.550   3.361   2.334  3.9085 -0.6190 -1.8394
17673SOL    HW255913   0.529   3.215   2.369  2.1066 -0.3521 -1.6998
17674SOL     OW55914   0.731   1.750   1.383 -0.3503 -0.0148  0.0856
17674SOL    HW155915   0.709   1.828   1.333  1.2275  0.3531 -0.0618
17674SOL    HW255916   0.735   1.780   1.474 -2.0452 -0.4386  0.3343
17675SOL     OW55917  10.054   7.960   6.193  0.0971  0.1403 -0.4938
17675SOL    HW155918  10.077   7.953   6.286  0.7667 -3.1785 -0.7890
17675SOL    HW255919  10.008   8.044   6.186  0.8116  0.9297  2.6293
17676SOL     OW55920   1.544   4.859   6.022  0.1666 -0.6553  0.4531
17676SOL    HW155921   1.505   4.796   6.084  0.8331 -1.6945 -0.1506
17676SOL    HW255922   1.625   4.817   5.994  0.2006  0.1081 -0.6300
17677SOL     OW55923   5.805   1.026   1.330  0.1960 -0.0031  0.1713
17677SOL    HW155924   5.875   1.092   1.332 -2.2700  2.8306  2.6555
17677SOL    HW255925   5.818   0.976   1.411  0.7278 -1.1961 -0.6128
17678SOL     OW55926   9.091   7.453   8.900  0.1444  0.7129 -0.2528
17678SOL    HW155927   9.071   7.363   8.875  0.8268  0.3564  0.4885
17678SOL    HW255928   9.122   7.493   8.818  2.2422 -0.4159 -0.0756
17679SOL     OW55929   6.137   2.307   5.188  0.3257 -0.4572 -0.2647
17679SOL    HW155930   6.209   2.246   5.175  0.2345 -0.4902 -0.6075
17679SOL    HW255931   6.083   2.266   5.256  0.0059 -1.0002 -0.8355
17680SOL     OW55932   9.062   1.801  10.753  0.7087  0.1164 -0.2128
17680SOL    HW155933   9.057   1.792  10.658 -0.2618 -0.0694 -0.1618
17680SOL    HW255934   8.988   1.749  10.785 -1.4925  3.2973  0.4239
17681SOL     OW55935   6.200   0.617   5.643  0.1846  0.1351  0.1414
17681SOL    HW155936   6.185   0.547   5.706 -0.0739  0.9000  0.9543
17681SOL    HW255937   6.174   0.579   5.559  0.3346 -0.8351  0.5187
17682SOL     OW55938   8.544   5.411   7.775 -0.3354  0.0706  0.2560
17682SOL    HW155939   8.630   5.443   7.800  0.0103 -0.3945 -0.3270
17682SOL    HW255940   8.488   5.488   7.779  0.0879  0.3618  0.7006
17683SOL     OW55941   7.002   0.057  10.514 -0.1886 -0.0217  0.4478
17683SOL    HW155942   6.912   0.079  10.490 -0.8352 -1.9371  0.9591
17683SOL    HW255943   7.004   0.065  10.610 -0.0949 -0.9270  0.5243
17684SOL     OW55944   6.894   1.194   0.687  0.0382  0.6663 -0.2162
17684SOL    HW155945   6.885   1.120   0.627 -2.0116 -0.1805  1.0039
17684SOL    HW255946   6.988   1.210   0.692  0.4996 -1.3740 -1.1090
17685SOL     OW55947   7.615   9.680  10.261  0.3317  0.2179  0.0817
17685SOL    HW155948   7.601   9.728  10.343  1.6801 -0.5782  0.8294
17685SOL    HW255949   7.643   9.747  10.198 -0.2882  0.7741  0.3861
17686SOL     OW55950   2.824   3.941   9.780 -0.2184 -0.3039 -0.1015
17686SOL    HW155951   2.808   3.878   9.850  2.2706  0.2293  1.0327
17686SOL    HW255952   2.904   3.987   9.806 -1.3704  2.6799 -1.3517
17687SOL     OW55953   0.371   0.644   6.717  0.0322 -0.0950  0.3488
17687SOL    HW155954   0.336   0.640   6.806  0.6586 -0.3842  0.5857
17687SOL    HW255955   0.440   0.578   6.715 -2.2275 -2.6525 -1.3544
17688SOL     OW55956   1.300   2.126   0.004  0.2510 -0.5535 -0.0804
17688SOL    HW155957   1.358   2.129   0.080  0.6700 -2.2803 -0.2874
17688SOL    HW255958   1.247   2.205   0.010  0.4043 -0.5649  1.9113
17689SOL     OW55959   6.505   3.785   1.820  0.2116 -0.1332  0.2667
17689SOL    HW155960   6.460   3.869   1.821 -0.2163 -0.3445  1.8349
17689SOL    HW255961   6.573   3.794   1.886  0.6912 -0.7494 -0.1382
17690SOL     OW55962   5.876   0.118   0.116 -0.0865  0.5242  0.4427
17690SOL    HW155963   5.942   0.135   0.184 -1.0149 -2.7536  2.4095
17690SOL    HW255964   5.805   0.179   0.137  1.0693  2.0317  0.1334
17691SOL     OW55965   4.700   3.637   6.180  0.0286  0.3002 -0.1926
17691SOL    HW155966   4.711   3.672   6.268 -2.1492  0.8555 -0.1000
17691SOL    HW255967   4.788   3.607   6.155  1.1046  2.0100  1.3396
17692SOL     OW55968   0.633   5.669   1.647 -0.1458 -0.2373  0.0487
17692SOL    HW155969   0.622   5.762   1.667  1.8833 -0.0223  0.2765
17692SOL    HW255970   0.604   5.661   1.556 -0.9254  0.4782  0.2210
17693SOL     OW55971   2.556   3.826   5.393  0.0798  0.2679 -0.0281
17693SOL    HW155972   2.632   3.785   5.351  0.9572  2.1157 -0.3225
17693SOL    HW255973   2.512   3.873   5.323 -1.8839 -1.4229 -0.0452
17694SOL     OW55974   2.226   1.741   9.444 -0.2124  0.0670 -0.6980
17694SOL    HW155975   2.222   1.652   9.409  0.6019  0.7857 -2.7879
17694SOL    HW255976   2.315   1.771   9.425 -0.7464  1.6387 -0.8846
17695SOL     OW55977   2.443   6.123   8.857 -0.0128 -0.2075  0.9228
17695SOL    HW155978   2.529   6.082   8.862  0.1863  0.2008  0.9310
17695SOL    HW255979   2.434   6.168   8.941  0.2191  0.6207  0.5155
17696SOL     OW55980   3.067   5.115   9.137  0.0571  0.0711  0.0410
17696SOL    HW155981   3.149   5.071   9.117  1.6140  2.0875  1.6453
17696SOL    HW255982   3.092   5.193   9.186 -2.7688  1.1826 -0.0790
17697SOL     OW55983   0.094   4.141   0.918 -0.5425 -0.1783  0.4929
17697SOL    HW155984   0.044   4.072   0.874 -1.3057  0.1012  0.8957
17697SOL    HW255985   0.030   4.211   0.932 -0.1210  0.0456  1.3438
17698SOL     OW55986   9.301   6.156   2.823 -0.4877  0.1022 -0.0882
17698SOL    HW155987   9.314   6.210   2.745  0.0926  0.5034  0.2845
17698SOL    HW255988   9.369   6.184   2.884 -1.6438  0.5947  1.0100
17699SOL     OW55989   8.831   1.084   2.878  0.4484  0.0962 -0.5242
17699SOL    HW155990   8.817   1.057   2.787 -0.6707  0.5651 -0.5032
17699SOL    HW255991   8.763   1.037   2.927  0.5183  0.4934 -0.0463
17700SOL     OW55992   4.017   8.974   7.788  0.4381  0.5610 -0.2547
17700SOL    HW155993   4.044   8.913   7.856  0.6415  0.2030 -0.6548
17700SOL    HW255994   4.070   9.052   7.803  0.3988  0.5269  0.0669
17701SOL     OW55995   5.518   7.084   4.917  0.3594  0.2154  0.1001
17701SOL    HW155996   5.602   7.056   4.953  0.0847  1.0432  1.4548
17701SOL    HW255997   5.540   7.161   4.863  0.5992 -0.2303 -0.4486
17702SOL     OW55998   9.083   1.038   2.735  0.1149  0.0735 -0.1557
17702SOL    HW155999   9.146   1.103   2.766  0.4864 -0.4823  0.2767
17702SOL    HW256000   9.026   1.022   2.810  0.2164 -0.3249 -0.1605
17703SOL     OW56001   5.768   5.762   9.945  0.1782  0.3367 -0.1765
17703SOL    HW156002   5.777   5.813   9.865 -2.2267 -1.4956 -1.7820
17703SOL    HW256003   5.787   5.672   9.918  0.6506 -0.1609  1.6733
17704SOL     OW56004   3.538   1.886  10.382  0.3148 -0.3308  0.7923
17704SOL    HW156005   3.508   1.953  10.320  2.2511 -1.5712 -1.6758
17704SOL    HW256006   3.473   1.817  10.375  0.4227 -0.3820  0.2831
17705SOL     OW56007   3.446   0.757   8.473  0.4416 -0.0299 -0.1879
17705SOL    HW156008   3.428   0.747   8.380  0.2056 -0.6201 -0.0829
17705SOL    HW256009   3.444   0.852   8.488 -2.6611  0.0171 -0.1871
17706SOL     OW56010   9.413   9.015   0.741 -0.3452  0.2395  0.5009
17706SOL    HW156011   9.473   8.958   0.789 -1.0896 -1.2742 -0.2507
17706SOL    HW256012   9.341   9.031   0.801  1.0629  2.6830  1.6775
17707SOL     OW56013   9.648   4.243  10.740 -0.1071 -0.5518 -0.7747
17707SOL    HW156014   9.555   4.252  10.761 -1.1011 -0.5724 -4.4413
17707SOL    HW256015   9.688   4.322  10.776 -1.3376 -0.8444  1.4505
17708SOL     OW56016   5.836   4.173   9.363 -0.2110 -0.4916 -0.2130
17708SOL    HW156017   5.923   4.142   9.338  0.6413  0.2324  1.7320
17708SOL    HW256018   5.783   4.158   9.284  1.7879 -0.3388 -1.6733
17709SOL     OW56019   6.611   7.466  10.160  0.4571 -0.1540 -0.2800
17709SOL    HW156020   6.598   7.525  10.234  1.4357  0.1096 -0.2942
17709SOL    HW256021   6.657   7.390  10.197 -1.1816 -1.1343 -0.1758
17710SOL     OW56022   3.685  10.096   5.786 -0.2804 -0.4641  0.1153
17710SOL    HW156023   3.768  10.089   5.739 -1.3724  0.6218 -2.1530
17710SOL    HW256024   3.703  10.158   5.857  0.7116  0.2258 -0.7082
17711SOL     OW56025   2.942   3.065   4.306 -0.0858 -0.1521  0.0532
17711SOL    HW156026   2.928   3.142   4.362  0.0735 -1.2044  1.5988
17711SOL    HW256027   3.014   3.018   4.348 -1.0401 -1.8160 -0.1129
17712SOL     OW56028   2.721   6.769   9.456  0.3890 -0.0695 -0.0439
17712SOL    HW156029   2.801   6.807   9.419  0.2207 -0.0959 -0.4471
17712SOL    HW256030   2.751   6.715   9.528  0.6893  0.3267  0.1353
17713SOL     OW56031   6.842   3.992   1.855 -0.1891  0.0790 -0.2602
17713SOL    HW156032   6.811   4.083   1.854 -1.0205 -0.1927 -0.7586
17713SOL    HW256033   6.780   3.946   1.912 -1.3062 -0.6584 -1.9922
17714SOL     OW56034  10.119   7.887  10.720  1.0212  0.2156  0.1504
17714SOL    HW156035  10.116   7.977  10.751  1.5715 -0.0721  1.0548
17714SOL    HW256036  10.163   7.838  10.789 -1.8237 -1.3130  1.0783
17715SOL     OW56037   7.660   1.238   2.398  0.7982  0.0696 -0.8602
17715SOL    HW156038   7.607   1.158   2.399 -0.7763  1.0745 -0.6908
17715SOL    HW256039   7.726   1.222   2.330  0.3701 -1.2689 -0.9940
17716SOL     OW56040   6.426   6.537   8.749 -0.1941  0.1688  0.2843
17716SOL    HW156041   6.373   6.544   8.670  0.4407  1.8163 -0.0230
17716SOL    HW256042   6.506   6.492   8.721  0.0923  0.8803 -0.0492
17717SOL     OW56043   8.922   9.584   8.477 -0.6059  0.2370  0.4013
17717SOL    HW156044   8.935   9.642   8.402  1.2487 -1.6912 -0.9100
17717SOL    HW256045   8.828   9.587   8.494 -1.3300 -0.1192 -2.8402
17718SOL     OW56046   2.300   1.590  10.175 -0.2608 -0.8640  0.1669
17718SOL    HW156047   2.327   1.569  10.086 -2.0904 -1.0827 -0.3756
17718SOL    HW256048   2.224   1.535  10.191 -0.0614 -0.7145  1.8279
17719SOL     OW56049   0.189   0.070  10.010  0.0263 -0.8604 -0.1607
17719SOL    HW156050   0.127   0.084  10.082 -1.8350 -0.3927 -1.7569
17719SOL    HW256051   0.244   0.149  10.010  1.0657 -1.5319  1.6350
17720SOL     OW56052   0.575   9.064   2.298 -0.2819  0.1363 -0.2389
17720SOL    HW156053   0.491   9.025   2.276 -0.0430  0.2563 -1.4363
17720SOL    HW256054   0.637   9.025   2.236  0.0851  1.8824 -1.0331
17721SOL     OW56055   5.400  10.782   4.212  0.0674  0.3756 -0.0102
17721SOL    HW156056   5.496  10.781   4.218 -0.0086 -0.7394  1.4449
17721SOL    HW256057   5.373  10.694   4.239 -1.3903  0.7877 -0.0492
17722SOL     OW56058   6.166   1.674   6.287 -0.5994  0.0220  0.1279
17722SOL    HW156059   6.108   1.633   6.223  0.7777 -1.9701  0.0901
17722SOL    HW256060   6.248   1.688   6.240  0.7208 -2.2622  1.5875
17723SOL     OW56061   3.060   9.783   5.239  0.2803  0.0533  0.3560
17723SOL    HW156062   3.146   9.809   5.208  0.3783  0.9812  1.3392
17723SOL    HW256063   3.014   9.753   5.161  0.2819  2.8851 -0.8577
17724SOL     OW56064   9.608   3.994   4.202  0.2491 -0.7600 -0.2377
17724SOL    HW156065   9.664   4.071   4.196  1.3897 -1.4773  0.6838
17724SOL    HW256066   9.529   4.018   4.155  1.0961  0.5022 -1.0800
17725SOL     OW56067   3.291   3.964   2.427  0.0655  0.5694 -0.4642
17725SOL    HW156068   3.226   3.912   2.379 -0.7723  0.0677  1.1288
17725SOL    HW256069   3.255   4.053   2.427 -0.4494  0.3679  0.0842
17726SOL     OW56070   2.295   2.579   5.898 -0.6243 -0.2891  0.5821
17726SOL    HW156071   2.211   2.543   5.925 -0.6744 -1.0814 -0.5665
17726SOL    HW256072   2.275   2.629   5.819  0.1239 -1.2922 -0.2641
17727SOL     OW56073   8.909  10.711   9.219 -0.5237 -0.3022 -0.3890
17727SOL    HW156074   8.887  10.739   9.308 -1.5348  1.1380 -1.0547
17727SOL    HW256075   8.842  10.751   9.164 -0.7833 -2.3343 -1.6805
17728SOL     OW56076   0.573   7.615   9.215  0.1996 -0.2420  0.0141
17728SOL    HW156077   0.599   7.602   9.124 -0.8479 -0.0260 -0.3239
17728SOL    HW256078   0.589   7.530   9.257 -1.2825 -0.9838 -0.8609
17729SOL     OW56079   3.820   1.444   2.025 -0.0898  0.3107  0.5867
17729SOL    HW156080   3.803   1.369   2.082  2.8228  0.3422  1.7116
17729SOL    HW256081   3.814   1.409   1.936  0.9603 -1.2601  1.0846
17730SOL     OW56082   5.474   8.279   5.827  0.3390  0.4317 -0.5067
17730SOL    HW156083   5.465   8.365   5.787 -0.0839  1.2982  1.3324
17730SOL    HW256084   5.389   8.261   5.867  0.9321 -0.0349  0.6149
17731SOL     OW56085   7.965   6.334   1.263 -0.2903  0.3232  0.0794
17731SOL    HW156086   7.985   6.256   1.210  1.4272  0.3944  0.5703
17731SOL    HW256087   8.011   6.319   1.346  0.8355  2.2431 -0.1485
17732SOL     OW56088   9.380   3.242   8.198 -0.0279 -0.3500  0.0350
17732SOL    HW156089   9.365   3.153   8.230  0.0384 -0.9160 -1.4335
17732SOL    HW256090   9.471   3.241   8.166 -0.0948  0.1724 -0.1875
17733SOL     OW56091   1.502   8.435   2.311 -0.1540 -0.2912 -0.1613
17733SOL    HW156092   1.415   8.475   2.306  0.4680  1.0334 -0.7162
17733SOL    HW256093   1.511   8.388   2.228 -0.5241 -0.8678  0.1133
17734SOL     OW56094   0.046   3.865   7.323 -0.2588 -0.4388 -0.3560
17734SOL    HW156095   0.016   3.832   7.408 -1.5862  0.1051 -0.5840
17734SOL    HW256096  -0.004   3.814   7.259  0.5570 -0.6778 -0.8208
17735SOL     OW56097   9.003   0.063   6.590 -0.4744  0.0238 -1.1458
17735SOL    HW156098   9.007   0.070   6.685 -3.6530 -0.9635 -0.8384
17735SOL    HW256099   9.043  -0.022   6.571 -0.5728 -0.1406 -0.6273
17736SOL     OW56100   7.477   1.641   0.169  0.3277  0.2377  0.5082
17736SOL    HW156101   7.543   1.585   0.209  0.5429 -0.9153 -1.3429
17736SOL    HW256102   7.493   1.728   0.206  0.4962 -0.7136  2.8426
17737SOL     OW56103   7.718  10.218   1.373  0.0718  0.5043  0.3070
17737SOL    HW156104   7.772  10.156   1.423  0.8107  0.4189 -0.5705
17737SOL    HW256105   7.691  10.169   1.295 -1.8858  0.3228  1.0396
17738SOL     OW56106   5.137   6.365   8.376  0.0774 -0.2524 -0.1597
17738SOL    HW156107   5.208   6.425   8.357 -0.1040  0.1499  0.4299
17738SOL    HW256108   5.181   6.283   8.399  0.3171 -0.7304 -2.1234
17739SOL     OW56109   8.096   5.168  10.535 -0.0242  0.4908 -0.0379
17739SOL    HW156110   8.156   5.160  10.462 -0.8187  0.9669 -0.7691
17739SOL    HW256111   8.152   5.185  10.611  0.8517 -0.5972 -0.4171
17740SOL     OW56112   5.522   8.106   9.170  0.4431  0.7336  0.4367
17740SOL    HW156113   5.565   8.022   9.188 -0.1384  0.7730  2.1833
17740SOL    HW256114   5.595   8.168   9.162  0.8242  0.4664  1.5095
17741SOL     OW56115   8.432   8.904  10.290 -0.2151 -0.0436  0.4611
17741SOL    HW156116   8.465   8.897  10.380  0.7148  1.3567  0.2569
17741SOL    HW256117   8.509   8.891  10.235 -1.3847 -5.3930 -0.4178
17742SOL     OW56118   3.536   6.745   6.375  0.3819  0.3812 -0.6427
17742SOL    HW156119   3.457   6.701   6.408  1.1827 -0.0034  0.8177
17742SOL    HW256120   3.607   6.685   6.398  1.3003  1.6006 -0.2541
17743SOL     OW56121   6.668   4.022   6.411 -0.1449  0.0230 -0.2654
17743SOL    HW156122   6.611   3.946   6.406 -2.2010  1.3102  1.7013
17743SOL    HW256123   6.634   4.082   6.344  0.2770 -0.0282 -0.5318
17744SOL     OW56124   0.740   3.694   3.355 -0.1975  0.9810  0.0031
17744SOL    HW156125   0.782   3.778   3.334  0.4435  0.7651  0.3889
17744SOL    HW256126   0.766   3.636   3.283  2.7040 -0.0004  1.6696
17745SOL     OW56127   8.456   8.492   7.677  0.2443  0.6607  0.5168
17745SOL    HW156128   8.468   8.550   7.752  3.4558  0.0928  0.5965
17745SOL    HW256129   8.430   8.551   7.606 -1.5037  1.3945  1.6993
17746SOL     OW56130   8.424   2.801   6.564  0.4542 -0.4648  0.6407
17746SOL    HW156131   8.496   2.841   6.515  0.4816  0.1892  1.2081
17746SOL    HW256132   8.402   2.722   6.514 -0.4945  0.9289 -1.2848
17747SOL     OW56133   6.479   5.714   4.307 -0.2024  0.0548  0.1871
17747SOL    HW156134   6.443   5.765   4.380 -3.0644  0.9113 -1.6691
17747SOL    HW256135   6.498   5.779   4.240  0.1588 -0.9402 -0.6921
17748SOL     OW56136   7.286   2.199  10.405 -0.6479 -0.2855 -0.7036
17748SOL    HW156137   7.382   2.197  10.410 -0.6895 -0.8433 -0.0221
17748SOL    HW256138   7.262   2.284  10.443 -0.4351 -0.2439 -0.6594
17749SOL     OW56139   1.692   7.370   9.954  0.3444 -0.5957 -0.0993
17749SOL    HW156140   1.738   7.292   9.986  2.3086  0.6871  0.3836
17749SOL    HW256141   1.746   7.401   9.881 -1.2989 -0.5665 -1.3657
17750SOL     OW56142   2.408   7.479   0.953 -0.3077 -0.7623  0.2668
17750SOL    HW156143   2.377   7.416   0.888  1.1136 -2.0183  0.7570
17750SOL    HW256144   2.498   7.452   0.973 -0.6276 -0.3289  2.6261
17751SOL     OW56145   3.131   3.760   6.385 -0.7427 -0.0575 -0.7049
17751SOL    HW156146   3.041   3.784   6.408 -0.0446  1.2631  0.8371
17751SOL    HW256147   3.165   3.717   6.464  0.0368 -0.3503 -1.1915
17752SOL     OW56148   4.494  10.389   7.047 -0.0971 -0.3382  0.2630
17752SOL    HW156149   4.464  10.438   7.123 -0.3406 -1.1534  0.7020
17752SOL    HW256150   4.416  10.381   6.991  0.3489  1.2632 -0.6466
17753SOL     OW56151   7.723   9.797   0.517  0.0847  0.7925  0.5291
17753SOL    HW156152   7.686   9.854   0.450  1.7457 -0.2117 -1.3635
17753SOL    HW256153   7.816   9.793   0.496  0.2484 -1.4958  1.4244
17754SOL     OW56154   2.039  10.097   2.415 -0.3025  0.0083  0.3782
17754SOL    HW156155   1.998  10.112   2.501 -1.4467 -0.2567 -0.1021
17754SOL    HW256156   2.133  10.090   2.434 -0.3210  1.8076  1.3781
17755SOL     OW56157   0.969   3.339   4.129  0.0034  0.3164 -0.3197
17755SOL    HW156158   0.926   3.420   4.159 -3.7971 -1.8924  0.7909
17755SOL    HW256159   0.928   3.319   4.045 -1.9520 -2.2785  1.1308
17756SOL     OW56160   1.839   9.822   4.181  0.0333  0.4027  0.4519
17756SOL    HW156161   1.840   9.726   4.173 -0.2528  0.1612  2.6962
17756SOL    HW256162   1.889   9.853   4.105 -4.0846 -1.1811 -3.3976
17757SOL     OW56163   3.923   9.186   3.654 -0.4023  0.2122  0.2776
17757SOL    HW156164   3.893   9.112   3.600 -0.1522  0.8581 -0.7884
17757SOL    HW256165   3.850   9.205   3.712 -0.9123 -0.1362 -0.2360
17758SOL     OW56166   8.903   5.081   4.226  0.0200  0.0409 -0.7456
17758SOL    HW156167   8.849   5.120   4.295  2.0648  3.6251 -0.9255
17758SOL    HW256168   8.859   5.106   4.145 -0.2144 -0.6446 -0.8350
17759SOL     OW56169   8.644   5.471   5.458  0.7525 -0.1173  0.0208
17759SOL    HW156170   8.714   5.520   5.501  1.0581  1.0255 -1.6814
17759SOL    HW256171   8.645   5.501   5.367 -0.9512 -1.2071 -0.4216
17760SOL     OW56172   2.147   8.087   7.294  0.0917 -0.8696  0.3169
17760SOL    HW156173   2.064   8.038   7.302 -0.1624 -0.2695  1.5630
17760SOL    HW256174   2.193   8.070   7.377 -0.7813  2.3458  1.6198
17761SOL     OW56175   0.313   4.764   7.408  0.4803 -0.3395  0.2149
17761SOL    HW156176   0.311   4.851   7.449  0.4786 -0.8457  1.3348
17761SOL    HW256177   0.240   4.765   7.347  1.0002  0.7404 -0.4266
17762SOL     OW56178   8.482  10.583   1.262  0.5269  0.3903 -0.0104
17762SOL    HW156179   8.563  10.533   1.275  0.7152  0.4203 -1.0287
17762SOL    HW256180   8.511  10.668   1.231  0.1651  0.8824  0.9698
17763SOL     OW56181   3.165   9.772   0.934  0.0295  0.4887 -0.2266
17763SOL    HW156182   3.114   9.760   1.014  0.0032 -2.1308 -0.5568
17763SOL    HW256183   3.254   9.745   0.957  0.9947  3.4272 -0.1110
17764SOL     OW56184   2.259   3.841   7.137 -0.2652  0.0102  0.1765
17764SOL    HW156185   2.350   3.871   7.137 -0.0274 -0.6531 -0.8781
17764SOL    HW256186   2.216   3.896   7.071 -0.4791 -0.0806  0.2389
17765SOL     OW56187   9.602   7.548   9.817  0.5192  0.1823 -0.4808
17765SOL    HW156188   9.608   7.478   9.752  0.8227 -0.8819  0.6313
17765SOL    HW256189   9.639   7.509   9.897 -0.1877  1.2987  0.4316
17766SOL     OW56190   6.350   8.351   0.970 -0.4105  0.3978 -0.2871
17766SOL    HW156191   6.388   8.439   0.973 -0.7426  0.5146  1.6234
17766SOL    HW256192   6.319   8.342   0.880  4.4058  0.1127 -2.2185
17767SOL     OW56193   4.927   9.697  10.464 -0.6283 -0.3577 -0.1476
17767SOL    HW156194   4.918   9.617  10.413 -0.7707 -1.0013  0.8480
17767SOL    HW256195   4.940   9.766  10.399  2.1767 -1.5138 -0.9591
17768SOL     OW56196   0.175   9.232   4.062  0.3711 -0.0326 -0.0653
17768SOL    HW156197   0.193   9.144   4.028  0.9502  0.6632 -1.6633
17768SOL    HW256198   0.254   9.255   4.111 -0.0124 -0.6062  0.8492
17769SOL     OW56199   7.989  10.178   3.561  0.6090  0.4257  0.0274
17769SOL    HW156200   8.003  10.189   3.655 -1.2132 -2.1787  0.7152
17769SOL    HW256201   7.926  10.245   3.538  1.6814  1.6109  0.4473
17770SOL     OW56202   6.599   6.344   4.648 -0.2265  0.3209 -0.1077
17770SOL    HW156203   6.511   6.351   4.683  0.1409 -2.7883  1.8824
17770SOL    HW256204   6.596   6.270   4.587  1.2329 -0.9722  1.2667
17771SOL     OW56205   6.416   5.990   8.513  0.0763 -0.4889 -0.7492
17771SOL    HW156206   6.386   6.015   8.600 -0.9670 -0.1873 -1.1811
17771SOL    HW256207   6.441   5.898   8.521 -0.4791 -0.5976 -0.2466
17772SOL     OW56208   8.819   9.794   4.786 -0.2150 -0.2373  0.3526
17772SOL    HW156209   8.765   9.853   4.732  0.1698 -1.0731 -1.0084
17772SOL    HW256210   8.763   9.718   4.801  0.2966 -0.7851 -0.4338
17773SOL     OW56211   4.213   3.236   1.301 -0.0203 -0.1853  0.0603
17773SOL    HW156212   4.277   3.191   1.246 -0.9386 -0.5699 -0.7116
17773SOL    HW256213   4.165   3.166   1.345 -1.4746  0.0021 -1.1699
17774SOL     OW56214   2.968  10.492   3.543 -0.0504 -0.1379  0.2927
17774SOL    HW156215   2.892  10.524   3.494  0.2571  0.5909  0.2669
17774SOL    HW256216   2.931  10.451   3.621 -0.5651 -1.5577 -0.6522
17775SOL     OW56217   0.774   5.223   3.998  0.2355 -0.1168  0.2930
17775SOL    HW156218   0.781   5.228   3.903 -1.0026  0.3396  0.2089
17775SOL    HW256219   0.734   5.137   4.015 -0.4688  0.2027  0.3207
17776SOL     OW56220   4.592   9.378   4.579 -0.1128  0.0769  0.2013
17776SOL    HW156221   4.538   9.326   4.638 -2.1360 -0.5354 -2.0084
17776SOL    HW256222   4.662   9.319   4.551 -0.0920 -0.1504  0.7342
17777SOL     OW56223   6.441   4.881   0.076 -0.3047  0.1374 -0.6875
17777SOL    HW156224   6.467   4.791   0.100 -1.8995 -0.3091 -0.4943
17777SOL    HW256225   6.351   4.889   0.109 -1.4716  0.6265 -3.6562
17778SOL     OW56226   0.754   9.671   6.638 -0.2927 -0.5003 -0.0057
17778SOL    HW156227   0.743   9.614   6.714  1.0537 -0.5746  0.1623
17778SOL    HW256228   0.849   9.687   6.633 -0.6248  1.8861  0.0652
17779SOL     OW56229   0.635   0.811   8.763  0.3179 -0.0696  0.5104
17779SOL    HW156230   0.700   0.874   8.794 -0.6876  1.1285  0.2711
17779SOL    HW256231   0.641   0.738   8.824  1.6486  0.1669  0.6840
17780SOL     OW56232   3.828   1.104  10.329  0.0761 -0.4224  0.1830
17780SOL    HW156233   3.887   1.041  10.288  1.4923  0.5425  0.6750
17780SOL    HW256234   3.884   1.178  10.353 -0.9987 -0.1982  2.2425
17781SOL     OW56235   5.226   5.948   7.281  0.0207  0.7276 -0.1258
17781SOL    HW156236   5.288   5.945   7.208 -1.6659  3.3473 -1.8764
17781SOL    HW256237   5.261   6.016   7.339  0.0257  0.5143  0.1185
17782SOL     OW56238   1.840   2.880  10.065 -0.4156  0.1765  0.1101
17782SOL    HW156239   1.754   2.881  10.108 -1.0799  0.4072 -1.1733
17782SOL    HW256240   1.867   2.972  10.063 -0.6808  0.2451 -0.5138
17783SOL     OW56241   0.009   4.504   6.675 -0.8583 -0.2703  0.0942
17783SOL    HW156242  -0.055   4.544   6.734 -1.7329  0.0782 -1.0479
17783SOL    HW256243  -0.032   4.509   6.588  1.0243  0.6545 -0.8043
17784SOL     OW56244   0.762   3.246   0.982 -0.3342  0.9314  0.3059
17784SOL    HW156245   0.676   3.270   1.016 -0.8281  0.2646 -0.4168
17784SOL    HW256246   0.785   3.166   1.030 -0.2879  0.9066  0.2423
17785SOL     OW56247   3.365   8.586   9.811 -0.4568 -0.2091 -0.3337
17785SOL    HW156248   3.390   8.540   9.891 -1.6407 -0.8476 -0.3091
17785SOL    HW256249   3.448   8.617   9.774  0.2891 -1.5561  0.1430
17786SOL     OW56250   2.018   9.564   0.794  0.2926  0.1028  0.1668
17786SOL    HW156251   2.039   9.549   0.886 -0.0265 -0.0580  0.2138
17786SOL    HW256252   1.961   9.491   0.770  0.4089  0.1194 -0.1701
17787SOL     OW56253   9.138  10.012   7.504  0.0830  0.2317  0.0458
17787SOL    HW156254   9.201  10.084   7.493  0.3904 -0.2905 -2.1486
17787SOL    HW256255   9.052  10.054   7.495  0.2433  0.4551 -0.5493
17788SOL     OW56256  10.757   8.700   8.606 -0.7702 -0.1894 -0.5864
17788SOL    HW156257  10.810   8.778   8.616 -0.3992 -0.6330  1.2908
17788SOL    HW256258  10.670   8.725   8.637 -0.6852 -0.4896 -0.1053
17789SOL     OW56259   9.663   2.460  10.274  0.0238 -0.2047  0.3334
17789SOL    HW156260   9.725   2.414  10.218  0.8791  3.2612 -1.8611
17789SOL    HW256261   9.715   2.528  10.317 -1.6348  0.5914  1.1707
17790SOL     OW56262   6.816   4.216   8.308  0.1461  0.6386  0.0633
17790SOL    HW156263   6.793   4.255   8.393  1.1746 -0.8813  1.1004
17790SOL    HW256264   6.776   4.129   8.310 -0.2591  0.7726 -1.2616
17791SOL     OW56265   1.377   3.465  10.344 -0.0332  0.0635  0.3144
17791SOL    HW156266   1.325   3.386  10.362  1.2281 -0.9776 -0.3878
17791SOL    HW256267   1.372   3.515  10.425 -1.6949 -0.2249  0.4363
17792SOL     OW56268   9.965   8.943   5.536 -0.3478  0.2024  0.5249
17792SOL    HW156269   9.891   8.983   5.489 -0.5050  1.4083  1.7458
17792SOL    HW256270   9.929   8.861   5.570  0.0745 -1.2687 -2.2855
17793SOL     OW56271   7.110   3.987   6.955 -0.0710  0.4074 -0.0997
17793SOL    HW156272   7.077   3.902   6.982 -1.7280  0.7398 -0.9836
17793SOL    HW256273   7.163   3.969   6.877 -0.0122  0.1327  0.0040
17794SOL     OW56274   7.402   2.586   8.355  0.3982  0.5783  0.2016
17794SOL    HW156275   7.460   2.630   8.417 -0.2392  0.9132  0.5578
17794SOL    HW256276   7.315   2.593   8.393  0.1976 -0.4913 -0.0122
17795SOL     OW56277   8.097   4.615   1.238 -0.2598 -0.2415 -0.0020
17795SOL    HW156278   8.009   4.616   1.276  0.1040 -2.9556  1.1682
17795SOL    HW256279   8.118   4.522   1.230  2.2447  0.3284 -0.9229
17796SOL     OW56280   2.240   5.828   0.912  0.7584  0.2460 -0.4005
17796SOL    HW156281   2.205   5.884   0.981  1.4946 -0.1416  0.3092
17796SOL    HW256282   2.295   5.765   0.958 -0.1006 -1.1163 -1.1660
17797SOL     OW56283   3.609   9.450   9.417 -0.5050 -0.8483 -0.4692
17797SOL    HW156284   3.554   9.475   9.342 -1.1152 -0.0394  0.2325
17797SOL    HW256285   3.651   9.532   9.444 -0.2912 -1.1350  0.0792
17798SOL     OW56286   2.644   5.321   0.605 -0.0357  0.2342  0.7176
17798SOL    HW156287   2.680   5.362   0.527 -0.4095  2.1548  1.5062
17798SOL    HW256288   2.696   5.356   0.677 -0.5470 -0.4895  1.4668
17799SOL     OW56289   6.149   9.038   4.764  0.7203 -0.1557 -0.1136
17799SOL    HW156290   6.111   8.998   4.686  0.6967  1.3837 -0.9180
17799SOL    HW256291   6.073   9.069   4.814  0.7680 -0.5141  0.1866
17800SOL     OW56292   6.769   9.092   5.262 -0.0883  0.3823 -0.6589
17800SOL    HW156293   6.767   9.144   5.342  2.4462  1.9366 -1.4624
17800SOL    HW256294   6.692   9.122   5.212 -0.0199  1.6224 -0.0641
17801SOL     OW56295   7.996   3.147   9.101 -0.0414 -0.1151  0.2422
17801SOL    HW156296   7.977   3.053   9.098  2.2850 -0.6560 -0.0356
17801SOL    HW256297   7.930   3.187   9.045 -1.2090 -1.5596  0.5394
17802SOL     OW56298   4.146  10.548   1.986 -0.8224  0.4351 -0.1304
17802SOL    HW156299   4.192  10.487   2.043  0.1825 -0.0665 -1.4450
17802SOL    HW256300   4.115  10.616   2.045 -1.4146 -0.9874  1.2832
17803SOL     OW56301   5.478   9.333  10.777 -0.7725  0.3797 -0.3487
17803SOL    HW156302   5.519   9.405  10.826 -1.0281 -0.3047  0.9162
17803SOL    HW256303   5.426   9.286  10.842  0.8655 -2.0772 -0.6554
17804SOL     OW56304  10.660   1.081   9.156 -0.6503  0.0591 -0.0217
17804SOL    HW156305  10.741   1.081   9.103 -0.7775  1.2568 -0.2548
17804SOL    HW256306  10.595   1.038   9.101 -0.4663  0.1860 -0.3422
17805SOL     OW56307   5.991   5.856   9.534 -0.0693  0.1525  0.0590
17805SOL    HW156308   6.072   5.817   9.567  0.1734  0.4572 -0.1655
17805SOL    HW256309   5.968   5.802   9.458  1.1329  1.3547 -1.2340
17806SOL     OW56310   3.825   1.724   2.044 -0.1623  0.1200  0.4267
17806SOL    HW156311   3.800   1.632   2.030  3.4323 -0.9680  0.1965
17806SOL    HW256312   3.868   1.725   2.130  1.4683  1.1341 -0.3462
17807SOL     OW56313   2.145   7.424   4.766 -0.0430 -0.3283  0.1221
17807SOL    HW156314   2.102   7.372   4.834 -0.9574 -0.8641 -0.8563
17807SOL    HW256315   2.172   7.504   4.812 -1.9233 -0.0393  0.8069
17808SOL     OW56316   1.143   5.621   3.240  0.4948  0.0347 -0.1539
17808SOL    HW156317   1.059   5.582   3.266  0.9786 -1.3239 -0.5357
17808SOL    HW256318   1.125   5.662   3.156 -0.1024  0.9589  0.3993
17809SOL     OW56319   2.025   2.941   0.059  0.0656  0.0541 -0.1300
17809SOL    HW156320   1.948   2.959   0.006 -1.0180 -0.9838  1.0155
17809SOL    HW256321   2.013   2.850   0.088  0.7078  0.5148  1.6904
17810SOL     OW56322   3.906   0.976   6.180  0.1890  0.7712  0.5470
17810SOL    HW156323   3.838   1.026   6.136  1.6314  1.6418 -0.8045
17810SOL    HW256324   3.983   0.986   6.124  1.3737 -0.3692  1.8895
17811SOL     OW56325   4.112   7.465  10.609 -0.3248 -0.4574 -0.0599
17811SOL    HW156326   4.048   7.481  10.679 -0.5631  0.4170 -0.4533
17811SOL    HW256327   4.082   7.384  10.568 -1.0769 -0.1769 -0.0979
17812SOL     OW56328   6.828   6.329   4.825 -0.7844 -0.2436  0.9622
17812SOL    HW156329   6.906   6.311   4.772 -1.3625 -2.1924  0.7085
17812SOL    HW256330   6.766   6.368   4.763  0.4602  2.9303  1.5059
17813SOL     OW56331   3.224   7.046  10.616 -0.1273 -0.3554  0.0929
17813SOL    HW156332   3.146   7.005  10.654 -0.2857  0.7877  1.0461
17813SOL    HW256333   3.222   7.019  10.524 -1.3831 -0.7474  0.2050
17814SOL     OW56334   1.750   1.836  10.110 -0.4407 -0.3641 -0.6142
17814SOL    HW156335   1.751   1.899  10.182  0.0488 -1.4446  0.3509
17814SOL    HW256336   1.836   1.847  10.068 -0.5119 -0.1157 -0.6979
17815SOL     OW56337   9.186   9.928   2.770 -0.6639  0.0244  0.2197
17815SOL    HW156338   9.180   9.993   2.699 -2.7001  0.4730  0.7429
17815SOL    HW256339   9.272   9.888   2.758 -0.1769  1.4114 -1.3498
17816SOL     OW56340   5.351   8.070   1.218 -0.8178  0.5397  0.1369
17816SOL    HW156341   5.438   8.108   1.228 -0.5957  0.7423 -2.1286
17816SOL    HW256342   5.291   8.141   1.243 -0.3572  0.8674  0.3222
17817SOL     OW56343   3.895   3.251   1.051 -0.2034  0.0906 -0.7673
17817SOL    HW156344   3.915   3.335   1.092  1.5446 -0.6106 -0.0708
17817SOL    HW256345   3.842   3.273   0.975  0.1959  1.8249 -0.5784
17818SOL     OW56346   5.290   8.710   1.492  0.1198 -0.1456  0.2318
17818SOL    HW156347   5.295   8.799   1.527 -1.0337 -0.6845  1.9097
17818SOL    HW256348   5.304   8.720   1.398  0.0427  1.8036  0.3905
17819SOL     OW56349   1.822  10.362   5.724 -0.4149  0.4387  0.0864
17819SOL    HW156350   1.899  10.418   5.713  1.3330 -1.7323  0.5282
17819SOL    HW256351   1.796  10.341   5.634 -0.6372  1.3566 -0.0718
17820SOL     OW56352   0.693   6.092   9.015  0.0262 -0.1660  0.7441
17820SOL    HW156353   0.673   6.072   8.923 -0.8882 -1.4070  1.1890
17820SOL    HW256354   0.781   6.130   9.012 -0.4795  1.0291 -0.7689
17821SOL     OW56355   7.931   3.343   6.914  0.1822 -0.2997  0.2715
17821SOL    HW156356   7.963   3.256   6.894 -1.2197 -0.6173 -0.7049
17821SOL    HW256357   8.007   3.390   6.948  1.6000 -1.0848 -1.6926
17822SOL     OW56358   7.284   6.437   1.206 -0.0883 -0.4336  0.6123
17822SOL    HW156359   7.361   6.381   1.210  0.3287  0.2002  1.7887
17822SOL    HW256360   7.314   6.517   1.163 -0.0415 -0.1218  1.2177
17823SOL     OW56361   8.788   0.787   4.599 -0.1063 -0.5473 -0.2605
17823SOL    HW156362   8.793   0.826   4.512  1.4300 -0.9620 -0.3826
17823SOL    HW256363   8.828   0.851   4.657 -2.2592  0.2987  0.3998
17824SOL     OW56364   4.752   5.344   8.295  0.3935  0.7485  0.0293
17824SOL    HW156365   4.820   5.316   8.234  0.5032  0.2206  0.3896
17824SOL    HW256366   4.689   5.272   8.296  0.0689  1.0297  0.0629
17825SOL     OW56367   0.937   8.693   3.162  0.0455  0.1008  0.2457
17825SOL    HW156368   0.962   8.614   3.210  1.1315 -0.4381 -1.1584
17825SOL    HW256369   0.900   8.660   3.080  1.7714  1.0317 -0.9558
17826SOL     OW56370  10.724   5.777  10.115 -0.7066  0.5827  0.0780
17826SOL    HW156371  10.766   5.695  10.140  0.9813  1.1715 -0.6840
17826SOL    HW256372  10.636   5.772  10.154 -1.1134 -2.0871 -0.9778
17827SOL     OW56373   9.955   8.623   7.244 -0.4804 -0.0351 -0.1781
17827SOL    HW156374   9.951   8.570   7.164  0.5638  2.4082 -2.0150
17827SOL    HW256375   9.880   8.682   7.237 -0.6110 -0.0672  0.8735
17828SOL     OW56376   0.500  10.102   3.703  0.2935 -0.1650 -0.4550
17828SOL    HW156377   0.533  10.182   3.743  0.1358 -0.7370  0.8672
17828SOL    HW256378   0.461  10.053   3.775  1.2552 -1.8919 -1.0480
17829SOL     OW56379   0.509  10.278   6.661  0.0453  0.1283  0.3159
17829SOL    HW156380   0.526  10.257   6.753  0.8684 -0.3317  0.0663
17829SOL    HW256381   0.533  10.370   6.652 -0.6448  0.3578  0.6970
17830SOL     OW56382  10.061   8.992   2.546 -0.4460 -0.0494  0.4621
17830SOL    HW156383  10.086   8.900   2.552  0.8210  0.2626  0.1265
17830SOL    HW256384  10.105   9.034   2.620  1.1230  0.7323 -0.8635
17831SOL     OW56385   9.499   9.218   6.790  0.4251 -0.5257 -0.0939
17831SOL    HW156386   9.502   9.190   6.881  2.9253 -2.4825 -0.6577
17831SOL    HW256387   9.528   9.309   6.792 -1.7694  0.2167  1.2018
17832SOL     OW56388   1.056   3.308   9.480 -0.2096  0.2181  0.8641
17832SOL    HW156389   1.142   3.303   9.439 -0.5551  1.1122  0.0084
17832SOL    HW256390   1.075   3.329   9.572  0.4698  0.7086  0.6158
17833SOL     OW56391   7.768   1.377   8.116  0.2616 -0.2536  0.1926
17833SOL    HW156392   7.782   1.471   8.123 -0.7644 -0.0069 -0.8218
17833SOL    HW256393   7.674   1.365   8.126  0.6067 -1.4362  2.6822
17834SOL     OW56394   2.469   3.743   0.736 -0.8397 -0.1770 -0.1137
17834SOL    HW156395   2.421   3.704   0.663  0.8072  0.1625 -1.4521
17834SOL    HW256396   2.512   3.670   0.779  1.0997 -0.0822 -1.7526
17835SOL     OW56397   8.780   8.725   2.503  0.5100  0.2529  0.0918
17835SOL    HW156398   8.747   8.814   2.491 -1.4674 -0.2769  1.1368
17835SOL    HW256399   8.716   8.684   2.561  2.5169 -1.2216  1.3715
17836SOL     OW56400   8.438   2.454   9.190  0.0466  0.3886 -0.3637
17836SOL    HW156401   8.469   2.364   9.178 -0.1044  0.5035 -1.7653
17836SOL    HW256402   8.463   2.476   9.280  0.8147 -0.7657 -0.2698
17837SOL     OW56403   1.072   2.757   6.242  0.3027  0.4040  0.2763
17837SOL    HW156404   1.167   2.756   6.232  0.1910  0.5867 -1.0121
17837SOL    HW256405   1.056   2.711   6.324  1.4307 -0.8848 -0.1866
17838SOL     OW56406   9.438   0.643   5.962 -0.1129 -0.6216 -0.3401
17838SOL    HW156407   9.350   0.676   5.948 -0.3513 -0.8900  0.4662
17838SOL    HW256408   9.449   0.574   5.896 -1.0183 -1.5310  0.4331
17839SOL     OW56409   3.172   6.891   9.181  0.7856  0.2304  0.0433
17839SOL    HW156410   3.265   6.879   9.203  0.8134  1.6523  0.8329
17839SOL    HW256411   3.147   6.972   9.225 -1.0081 -0.4313  0.3483
17840SOL     OW56412  10.058   3.352   6.055 -0.2411 -0.0207  0.5179
17840SOL    HW156413  10.126   3.402   6.011 -2.1688  0.7447 -1.8354
17840SOL    HW256414  10.060   3.266   6.012 -1.7063  0.5122 -0.6897
17841SOL     OW56415   7.021  10.075   5.985  0.1144 -0.7064  0.0941
17841SOL    HW156416   6.971   9.997   5.962 -0.3507  0.2900 -2.6835
17841SOL    HW256417   6.956  10.134   6.026 -0.0592 -0.8930  0.0896
17842SOL     OW56418  10.660   8.762   5.224  0.4466  0.1324 -0.5292
17842SOL    HW156419  10.627   8.715   5.301  0.0008 -0.7668 -1.2304
17842SOL    HW256420  10.755   8.755   5.230  0.3969 -0.4908 -0.3884
17843SOL     OW56421   2.747   2.567   6.924 -0.2168  0.0134  0.4221
17843SOL    HW156422   2.732   2.657   6.896  2.1450 -0.2714 -2.2020
17843SOL    HW256423   2.672   2.519   6.891  0.3442  0.4684 -1.6825
17844SOL     OW56424   4.982   0.067   0.724 -0.4524 -0.3962  0.5190
17844SOL    HW156425   4.938   0.146   0.756 -0.4787  0.0733 -0.6502
17844SOL    HW256426   5.068   0.097   0.695  0.2168 -1.1082  1.6532
17845SOL     OW56427   3.752   3.492   1.757  0.1693  0.1049 -0.0997
17845SOL    HW156428   3.841   3.473   1.728  0.0869 -0.2097 -0.1512
17845SOL    HW256429   3.763   3.533   1.843  0.6216  4.0735 -1.8530
17846SOL     OW56430   5.926   0.162   8.921 -0.1467 -0.0867  0.0905
17846SOL    HW156431   5.831   0.156   8.906  0.0877 -1.9450 -1.0266
17846SOL    HW256432   5.936   0.144   9.015 -1.0082  2.3775  0.7207
17847SOL     OW56433   0.059   0.585   5.148 -0.2618  0.0299  0.5650
17847SOL    HW156434  -0.027   0.568   5.110  0.7823 -0.0431 -1.9653
17847SOL    HW256435   0.045   0.658   5.208 -2.2467 -0.6439  0.9882
17848SOL     OW56436   4.021   3.311   8.390 -0.0363 -0.0675 -0.1728
17848SOL    HW156437   3.928   3.330   8.407 -0.2400 -0.5168 -0.7380
17848SOL    HW256438   4.053   3.389   8.346 -0.4437 -0.3400 -0.9844
17849SOL     OW56439   4.292   8.929   2.330  0.0311 -0.5548  0.1276
17849SOL    HW156440   4.278   8.945   2.237 -0.9075 -2.3817 -0.0803
17849SOL    HW256441   4.381   8.895   2.335 -0.4532 -1.9427 -0.3294
17850SOL     OW56442   0.969   0.957   1.804  0.1376  0.4608 -0.0963
17850SOL    HW156443   0.965   1.046   1.838  1.7905  0.0736  1.2325
17850SOL    HW256444   1.008   0.906   1.875  0.2449 -1.1067 -1.2337
17851SOL     OW56445   6.938   0.674   9.368 -0.1735 -0.1385  0.2202
17851SOL    HW156446   6.856   0.661   9.319 -0.6332 -3.0216  1.5104
17851SOL    HW256447   7.006   0.646   9.307 -0.4475 -0.5502  0.0930
17852SOL     OW56448  10.624   2.857   9.679 -0.2571 -0.1458 -0.3241
17852SOL    HW156449  10.670   2.925   9.729 -0.1177  0.0648 -0.7318
17852SOL    HW256450  10.609   2.897   9.593 -0.7955 -0.3802 -0.3428
17853SOL     OW56451   1.925   0.859  10.530 -0.2755 -0.0600  0.0974
17853SOL    HW156452   2.004   0.850  10.584 -0.4505 -1.4474  0.1649
17853SOL    HW256453   1.958   0.861  10.440 -0.1280 -0.0727  0.1505
17854SOL     OW56454   0.946   0.191   0.433  0.1547  0.3323 -0.3461
17854SOL    HW156455   0.927   0.220   0.344  0.3531  0.0431 -0.4854
17854SOL    HW256456   0.879   0.125   0.451  0.6578 -0.2697 -0.6235
17855SOL     OW56457   5.810   8.771  10.053 -0.3109 -0.1165 -0.2265
17855SOL    HW156458   5.899   8.785  10.020 -1.1384  1.4017 -1.9854
17855SOL    HW256459   5.814   8.801  10.144  0.5163  1.9756 -0.8963
17856SOL     OW56460   0.284   6.864   4.692 -0.2503  0.0086  0.3345
17856SOL    HW156461   0.285   6.921   4.615 -0.8276  0.5146  0.6959
17856SOL    HW256462   0.205   6.812   4.682 -1.0282  0.9750  1.2172
17857SOL     OW56463   0.892   1.012   2.315  0.0309 -0.0125 -0.0436
17857SOL    HW156464   0.963   0.983   2.258 -0.1875  0.7540 -0.7175
17857SOL    HW256465   0.920   0.986   2.403  1.4420  0.8302 -0.2114
17858SOL     OW56466   1.901   7.126   9.908 -0.2709 -0.2050  0.5747
17858SOL    HW156467   1.870   7.035   9.903  2.0439 -1.0133 -0.4665
17858SOL    HW256468   1.884   7.161   9.821  2.6470 -1.0624 -0.4412
17859SOL     OW56469   9.210   3.642   7.750 -0.1655 -0.0574 -0.1546
17859SOL    HW156470   9.285   3.620   7.806  0.5081  3.0977  0.3848
17859SOL    HW256471   9.215   3.579   7.678  1.0474 -1.9941  1.5190
17860SOL     OW56472   9.120   3.118   2.135  0.4593 -0.1860 -0.0079
17860SOL    HW156473   9.187   3.164   2.085 -0.0137  0.1773 -0.3104
17860SOL    HW256474   9.041   3.170   2.123  0.4552  0.2225  1.5688
17861SOL     OW56475   0.029   3.010   7.366  0.1908 -0.6532  0.2641
17861SOL    HW156476  -0.036   2.952   7.406  2.6986 -2.0094  2.7058
17861SOL    HW256477   0.034   3.085   7.425  1.3574 -0.9538  0.5837
17862SOL     OW56478   8.171   3.329   0.067 -0.4975 -0.0773  0.4457
17862SOL    HW156479   8.106   3.348   0.134  0.1848  0.0722  1.0763
17862SOL    HW256480   8.205   3.243   0.090 -1.0205 -0.5104 -0.3398
17863SOL     OW56481   5.394   1.858   9.356 -0.1523 -0.2073  0.4902
17863SOL    HW156482   5.434   1.806   9.286 -1.6612  0.4612 -0.9212
17863SOL    HW256483   5.356   1.793   9.416  1.0641 -0.7830  0.6755
17864SOL     OW56484   6.486   9.263   2.654  0.4199  0.1653  0.2170
17864SOL    HW156485   6.481   9.172   2.683 -0.2675  0.1210 -0.0245
17864SOL    HW256486   6.451   9.262   2.565  1.6490  0.4530 -0.2850
17865SOL     OW56487  10.407   0.410   9.175  0.2554  0.3947  0.0089
17865SOL    HW156488  10.426   0.491   9.127  0.4278  0.1384 -0.3596
17865SOL    HW256489  10.355   0.439   9.250 -1.5303  0.6150 -1.2461
17866SOL     OW56490  10.676   6.949   2.795 -0.4680  0.3294  0.2889
17866SOL    HW156491  10.604   6.999   2.756 -0.7355  0.5193  0.9962
17866SOL    HW256492  10.715   7.010   2.858 -1.3043 -0.5812  1.7593
17867SOL     OW56493   1.470   0.802   3.356 -0.1589 -0.2313  0.3969
17867SOL    HW156494   1.414   0.875   3.386  0.9870  0.0279  2.0164
17867SOL    HW256495   1.559   0.836   3.361  0.3980 -1.7070  1.0925
17868SOL     OW56496   2.746   9.302   6.667 -0.0799 -0.3163  0.0698
17868SOL    HW156497   2.710   9.224   6.709  1.6536 -0.5194  1.2473
17868SOL    HW256498   2.818   9.329   6.723  0.9354  0.7041 -1.6437
17869SOL     OW56499   5.265   5.289   8.183 -0.4653 -0.1751  0.8394
17869SOL    HW156500   5.293   5.363   8.237  0.5697 -0.0900  0.2211
17869SOL    HW256501   5.265   5.322   8.094 -0.4166 -0.7898  0.6032
17870SOL     OW56502   7.485   3.710   3.165 -0.7087 -0.1925 -0.3972
17870SOL    HW156503   7.469   3.623   3.127 -0.3952 -0.5623  0.2835
17870SOL    HW256504   7.416   3.765   3.129 -0.7651 -0.6662 -1.0338
17871SOL     OW56505   0.675   8.638   0.932  0.3176  0.7995 -0.0486
17871SOL    HW156506   0.660   8.714   0.876  0.2892  1.4990  0.8775
17871SOL    HW256507   0.590   8.595   0.939  0.7685 -0.7007 -2.4401
17872SOL     OW56508   2.997   2.312  10.786  0.6814  0.4723 -0.3568
17872SOL    HW156509   3.008   2.218  10.796  2.2279  0.7462  0.9241
17872SOL    HW256510   3.064   2.351  10.843  0.9207  2.3404 -1.7858
17873SOL     OW56511   3.065   2.091   4.242  0.1299  0.0281 -0.3620
17873SOL    HW156512   3.037   2.123   4.156  0.3075 -0.5308 -0.6313
17873SOL    HW256513   3.045   2.163   4.302 -1.4703 -0.1579 -0.6102
17874SOL     OW56514   6.672   5.714   1.309 -0.4494 -0.6346 -1.7127
17874SOL    HW156515   6.756   5.669   1.325  0.6806  2.3223  2.4851
17874SOL    HW256516   6.607   5.658   1.352  0.4236 -0.1117  0.4476
17875SOL     OW56517   5.463   2.570  10.060 -0.0898  0.1859 -0.2121
17875SOL    HW156518   5.535   2.548  10.001  1.8304  2.1212  1.2658
17875SOL    HW256519   5.432   2.656  10.030  1.0944  1.3282  1.6551
17876SOL     OW56520   5.326   0.381   2.558 -0.0280 -0.9830 -0.2481
17876SOL    HW156521   5.323   0.442   2.631  1.1848 -0.6212 -0.4766
17876SOL    HW256522   5.415   0.389   2.523  0.0676 -2.6482 -0.4783
17877SOL     OW56523   4.115   7.407   4.299 -0.7162  0.2961  0.3851
17877SOL    HW156524   4.105   7.427   4.206 -1.8650 -0.9821  0.2123
17877SOL    HW256525   4.209   7.395   4.311 -0.5981  0.0136 -0.7221
17878SOL     OW56526   6.222  10.668   3.669  0.0740 -0.0630  0.3464
17878SOL    HW156527   6.300  10.628   3.630 -0.8180 -0.1307 -1.4915
17878SOL    HW256528   6.232  10.762   3.650  1.3957  0.4895  3.2722
17879SOL     OW56529   1.905   0.731   0.010  0.3257 -0.4498  0.2984
17879SOL    HW156530   1.842   0.724   0.082 -0.1483 -0.4443 -0.1181
17879SOL    HW256531   1.874   0.670  -0.056  0.6468 -0.3010  0.0050
17880SOL     OW56532   6.590   7.300   4.881  0.2146 -0.0196 -0.1176
17880SOL    HW156533   6.568   7.390   4.904 -0.0169  0.2057 -1.1479
17880SOL    HW256534   6.599   7.301   4.785  0.2757 -1.0748 -0.1410
17881SOL     OW56535   9.362   3.265   3.731  0.0594 -0.4566 -0.1941
17881SOL    HW156536   9.431   3.308   3.680 -0.8185  0.4848 -0.6362
17881SOL    HW256537   9.393   3.271   3.822  0.8463 -0.6131 -0.4413
17882SOL     OW56538  10.763   8.756   7.727  0.6660 -0.3897 -0.2186
17882SOL    HW156539  10.718   8.690   7.779 -3.7685  0.3471 -2.6187
17882SOL    HW256540  10.788   8.710   7.647  3.2055 -0.4449  0.5334
17883SOL     OW56541   8.659   1.454  10.011 -0.7725  0.1088 -0.2497
17883SOL    HW156542   8.611   1.377   9.981 -1.0890  0.2757 -0.1776
17883SOL    HW256543   8.745   1.446   9.970 -1.1360  0.2388 -1.0538
17884SOL     OW56544   5.610   8.400   4.085  0.3070  0.1675 -0.3225
17884SOL    HW156545   5.647   8.333   4.028  0.9763 -0.5223  0.8783
17884SOL    HW256546   5.657   8.391   4.168 -3.6341 -2.0011  1.9914
17885SOL     OW56547   3.551   0.793   9.489  0.6215  0.2934 -0.6883
17885SOL    HW156548   3.641   0.778   9.518  0.9082 -0.8201 -2.0075
17885SOL    HW256549   3.537   0.887   9.497  2.3680  0.6698 -1.6482
17886SOL     OW56550   2.977   5.890   0.793  0.0376  0.3985 -0.0857
17886SOL    HW156551   3.060   5.875   0.838  0.2457 -1.3099 -0.9751
17886SOL    HW256552   2.973   5.822   0.726 -1.7701  0.8743 -0.5136
17887SOL     OW56553   2.366   9.749   2.636 -0.2848  0.9231  0.5166
17887SOL    HW156554   2.290   9.722   2.688 -0.4763 -0.6593 -0.4867
17887SOL    HW256555   2.442   9.723   2.688 -0.4300  1.8780  1.2172
17888SOL     OW56556   6.335   3.115   8.985 -0.2484 -0.2770 -0.2077
17888SOL    HW156557   6.257   3.157   8.949 -0.2887  1.7755  2.0429
17888SOL    HW256558   6.305   3.073   9.065  0.9288  0.6750  0.7737
17889SOL     OW56559   8.153   4.997   3.473 -0.1036  0.0861 -0.2714
17889SOL    HW156560   8.117   5.016   3.560  1.2183 -0.7960  0.5030
17889SOL    HW256561   8.131   4.905   3.458  1.2297 -0.2845 -0.0581
17890SOL     OW56562   9.512   8.700   0.127  0.2553  0.1171  0.4098
17890SOL    HW156563   9.516   8.734   0.217  1.2402  1.0873  0.0340
17890SOL    HW256564   9.426   8.661   0.119 -0.6241  1.7974  1.1841
17891SOL     OW56565   7.035   7.640   9.333 -0.5679  0.7386  0.1172
17891SOL    HW156566   7.094   7.664   9.404  0.2908  1.7509 -0.9120
17891SOL    HW256567   7.078   7.568   9.288  0.6732  2.4366 -1.5414
17892SOL     OW56568   5.234   1.629   6.859 -0.4882  0.4870  0.0860
17892SOL    HW156569   5.209   1.577   6.935 -0.2614  0.7973  0.3762
17892SOL    HW256570   5.329   1.636   6.864 -0.3242 -0.6352 -0.9834
17893SOL     OW56571   0.690   1.562   6.824  0.2357  0.2792  0.3014
17893SOL    HW156572   0.642   1.495   6.872  0.6776  0.0401  0.4220
17893SOL    HW256573   0.760   1.588   6.884  1.4937 -0.8400 -0.6260
17894SOL     OW56574   7.596   1.858   6.574  0.3984  0.0339  0.4746
17894SOL    HW156575   7.541   1.895   6.643  1.0306  0.5755  0.6978
17894SOL    HW256576   7.538   1.799   6.526 -0.0366 -0.4010  1.5023
17895SOL     OW56577   3.247   0.326   2.599  0.1620  0.0072 -0.7784
17895SOL    HW156578   3.282   0.408   2.561 -2.8999  3.5628  3.1326
17895SOL    HW256579   3.284   0.323   2.687 -2.4981 -0.8097  0.4091
17896SOL     OW56580   7.386   4.280   2.481 -0.2043  0.2250  0.2605
17896SOL    HW156581   7.317   4.337   2.447  1.0796  1.9296  0.4130
17896SOL    HW256582   7.463   4.301   2.429  0.3619 -1.2839  0.4412
17897SOL     OW56583   8.570   0.130   3.673  0.8249 -0.3757  0.5928
17897SOL    HW156584   8.480   0.127   3.704  0.6819 -0.7527  0.1494
17897SOL    HW256585   8.622   0.104   3.750  0.3673 -2.9360  0.1149
17898SOL     OW56586   7.974   7.154   0.440 -0.3387  0.2549  0.2983
17898SOL    HW156587   8.011   7.065   0.437  0.1363  0.4648 -0.1710
17898SOL    HW256588   8.022   7.196   0.512  0.4819  0.5833 -0.4266
17899SOL     OW56589   7.928   9.094   3.185  0.0752  0.5218  0.0094
17899SOL    HW156590   7.868   9.029   3.222 -2.3507  1.2171 -2.3112
17899SOL    HW256591   8.015   9.065   3.211 -1.0155 -2.6643  0.5495
17900SOL     OW56592   6.482   3.711   4.149  0.7497  0.4577  0.1564
17900SOL    HW156593   6.446   3.715   4.237 -0.7889  3.4183 -0.4904
17900SOL    HW256594   6.413   3.671   4.096  1.8091 -1.6627  0.2512
17901SOL     OW56595   4.423   3.801   2.988  0.0338 -0.2705 -0.4108
17901SOL    HW156596   4.404   3.864   3.057  1.5454  0.9387 -1.0460
17901SOL    HW256597   4.357   3.819   2.921 -0.5882 -0.5343  0.1152
17902SOL     OW56598   0.918   2.668   6.022 -0.1082 -0.8762 -0.1229
17902SOL    HW156599   0.973   2.656   6.100 -1.7044 -2.0345  0.8970
17902SOL    HW256600   0.868   2.748   6.039  0.4375 -0.4393 -0.5426
17903SOL     OW56601   6.860   4.625   1.100 -0.5638 -0.1190 -0.1052
17903SOL    HW156602   6.881   4.532   1.105 -1.7126 -0.4976 -1.6859
17903SOL    HW256603   6.888   4.652   1.013 -3.0179  0.2232 -0.8723
17904SOL     OW56604  10.311   7.206   0.170  0.0555 -0.3277  0.0531
17904SOL    HW156605  10.318   7.265   0.095  0.5885 -0.8013 -0.2770
17904SOL    HW256606  10.367   7.133   0.149 -1.1890 -1.3419  0.1123
17905SOL     OW56607   2.848   7.196   7.450  0.0946  0.1401 -0.1081
17905SOL    HW156608   2.906   7.162   7.518 -0.1020 -1.8981 -0.9136
17905SOL    HW256609   2.815   7.278   7.487  0.1531 -0.7887  2.1722
17906SOL     OW56610   1.974   3.853  10.224  0.6568 -0.0173  0.4306
17906SOL    HW156611   1.937   3.820  10.306  1.6170  1.1586  1.3798
17906SOL    HW256612   2.065   3.823  10.225  0.5517 -0.3898 -0.4449
17907SOL     OW56613   0.631   2.279   9.552 -0.4561  0.2438  0.6309
17907SOL    HW156614   0.584   2.296   9.634 -0.5269  0.5623  0.5261
17907SOL    HW256615   0.579   2.213   9.507 -0.4553  0.1196  0.8130
17908SOL     OW56616   8.044   2.040   8.482  0.1951 -0.3051 -0.2316
17908SOL    HW156617   8.099   1.975   8.525  0.1723 -0.0959  0.1265
17908SOL    HW256618   8.003   1.994   8.410  0.6468 -0.5305 -0.3496
17909SOL     OW56619   5.503  10.023   5.533  0.7671 -0.7129 -0.0436
17909SOL    HW156620   5.452   9.990   5.606  0.8954 -0.2237  0.2704
17909SOL    HW256621   5.541  10.106   5.565 -0.1704  0.1402 -1.0698
17910SOL     OW56622   2.843   9.873   8.293  0.0922  0.2533  0.0187
17910SOL    HW156623   2.866   9.792   8.248 -0.0796 -0.3182  0.9419
17910SOL    HW256624   2.791   9.922   8.229 -1.1399 -1.0483 -0.0418
17911SOL     OW56625   9.522   6.716   3.945 -0.5991  0.3372  0.3756
17911SOL    HW156626   9.537   6.802   3.985  2.1230  0.7820 -1.3763
17911SOL    HW256627   9.575   6.656   3.997  0.8020  0.4697 -0.8470
17912SOL     OW56628   7.153   9.848   0.616  1.0235  0.3340  0.5112
17912SOL    HW156629   7.132   9.861   0.524 -0.6940  0.1600  0.8370
17912SOL    HW256630   7.151   9.935   0.655 -1.7027  0.1267  1.0037
17913SOL     OW56631   6.921   9.747   5.009 -0.0652  0.0810  1.0970
17913SOL    HW156632   6.844   9.728   4.955  0.5392  3.1737 -1.1495
17913SOL    HW256633   6.962   9.662   5.023 -1.8313 -1.2082 -0.9339
17914SOL     OW56634   4.268   4.414   7.843  0.2524  0.2283 -0.0231
17914SOL    HW156635   4.355   4.447   7.821 -0.9808  1.9584 -3.1699
17914SOL    HW256636   4.219   4.493   7.868 -1.2328 -0.0244 -1.8309
17915SOL     OW56637   3.917   0.297   2.946 -0.7640 -0.1445 -0.9702
17915SOL    HW156638   3.915   0.349   2.866 -3.1421 -0.0087 -0.8955
17915SOL    HW256639   3.825   0.282   2.967 -0.1796 -1.4613  0.9225
17916SOL     OW56640   0.852  10.633   8.971 -0.2821  0.1462  0.3513
17916SOL    HW156641   0.932  10.654   9.019 -0.0507  0.0161  0.0317
17916SOL    HW256642   0.858  10.539   8.953 -0.3613  0.1926  0.0675
17917SOL     OW56643   5.088   8.789   0.232  0.2717 -0.2510  0.3028
17917SOL    HW156644   5.124   8.763   0.147 -2.7434  0.0692 -1.1921
17917SOL    HW256645   5.141   8.742   0.296  2.4306 -0.7704 -1.7323
17918SOL     OW56646   9.182   5.033   5.531 -0.1612 -0.4442  0.1872
17918SOL    HW156647   9.115   4.970   5.555  0.0561 -0.3552  1.0878
17918SOL    HW256648   9.245   5.030   5.603  1.1334 -0.9718 -0.9229
17919SOL     OW56649   2.161   4.447   6.233  0.1723  0.1026 -0.3682
17919SOL    HW156650   2.222   4.393   6.182 -0.1315 -0.2973 -0.3152
17919SOL    HW256651   2.090   4.387   6.256  0.0488  0.4169  0.0716
17920SOL     OW56652   6.496   4.766   8.538  0.2573 -0.4491 -0.3288
17920SOL    HW156653   6.404   4.743   8.520 -0.2499  1.5718 -0.5440
17920SOL    HW256654   6.528   4.694   8.592 -0.9101 -2.1084 -1.7166
17921SOL     OW56655   7.925   3.239   9.561 -0.2190 -0.7986  0.1593
17921SOL    HW156656   7.988   3.167   9.558  2.0376  0.9406  1.7347
17921SOL    HW256657   7.883   3.230   9.647 -2.6264 -2.2306 -1.0703
17922SOL     OW56658   2.376   5.396   9.991  0.7674  0.1613 -0.1538
17922SOL    HW156659   2.382   5.484  10.030  2.3721 -0.3475  0.8385
17922SOL    HW256660   2.306   5.354  10.040 -0.7444  1.2058 -1.3465
17923SOL     OW56661   4.460  10.539   2.203  0.6432 -0.4439  0.6762
17923SOL    HW156662   4.458  10.620   2.152 -1.3044 -1.1757 -0.4893
17923SOL    HW256663   4.551  10.509   2.196  0.8647  0.4713 -0.7736
17924SOL     OW56664   5.030   8.794   6.537  0.1769 -0.3202 -0.4909
17924SOL    HW156665   4.936   8.776   6.545  0.2055 -0.4896 -0.5412
17924SOL    HW256666   5.068   8.750   6.613 -0.0068  1.3755  0.6439
17925SOL     OW56667   7.669   3.609   3.580 -0.5363  0.1110  0.9673
17925SOL    HW156668   7.684   3.579   3.491 -1.5606  1.0455  0.4578
17925SOL    HW256669   7.637   3.532   3.626 -3.4233  0.3889 -0.3949
17926SOL     OW56670  10.189   3.061   1.191 -0.1839 -0.1416  0.0868
17926SOL    HW156671  10.135   3.008   1.250  1.6138 -1.5633  0.5616
17926SOL    HW256672  10.200   3.006   1.113 -1.1081  1.0141 -0.9007
17927SOL     OW56673   1.442   6.608   7.725 -0.1990  0.0086  0.2567
17927SOL    HW156674   1.485   6.526   7.701  0.0717  0.9220 -2.6633
17927SOL    HW256675   1.394   6.634   7.646  0.7085  3.2858  0.6673
17928SOL     OW56676   9.414  10.623   1.028  0.1879 -0.3491 -0.2133
17928SOL    HW156677   9.384  10.680   1.100  1.3931  2.2303 -1.6054
17928SOL    HW256678   9.334  10.592   0.987 -0.5598  0.9618  0.1869
17929SOL     OW56679   1.944  10.716   4.069 -0.4197 -0.0979  0.0341
17929SOL    HW156680   2.007  10.688   4.002  1.5173  4.3423 -0.3653
17929SOL    HW256681   1.867  10.743   4.019 -0.2616  0.1143 -0.0989
17930SOL     OW56682   7.324   6.175   9.496  0.8228 -0.3886  0.7203
17930SOL    HW156683   7.403   6.225   9.517  0.4609  1.3730 -1.7868
17930SOL    HW256684   7.253   6.237   9.507  0.0328 -1.2442  0.5136
17931SOL     OW56685   3.885   4.723   7.059  0.1366 -0.6754 -0.0226
17931SOL    HW156686   3.953   4.736   6.993  0.3921  1.5190  0.5766
17931SOL    HW256687   3.931   4.687   7.134  0.4792 -0.0996  0.0523
17932SOL     OW56688   5.750   7.273   0.075 -0.2032 -0.1418 -0.0011
17932SOL    HW156689   5.839   7.252   0.103 -0.7521 -3.7363 -0.5096
17932SOL    HW256690   5.697   7.267   0.154 -0.2954 -0.0542 -0.0548
17933SOL     OW56691   4.218   3.376   7.408 -0.1991  0.1547 -0.0204
17933SOL    HW156692   4.156   3.446   7.386 -0.2790  1.0283  2.6839
17933SOL    HW256693   4.164   3.302   7.433 -0.0988 -0.4159 -1.3823
17934SOL     OW56694   8.154   4.606   4.568 -0.5002  0.3364 -0.3155
17934SOL    HW156695   8.221   4.663   4.605 -0.5829  0.0686  0.2578
17934SOL    HW256696   8.077   4.621   4.624 -0.6282 -0.0643 -0.3836
17935SOL     OW56697   8.503   0.299   1.092  0.7300 -0.3286 -0.4579
17935SOL    HW156698   8.586   0.273   1.053  0.3218 -1.3457 -0.6742
17935SOL    HW256699   8.448   0.322   1.018  0.1653 -1.6397 -0.4736
17936SOL     OW56700   3.920  10.234   6.386 -0.2222 -0.2307  0.4414
17936SOL    HW156701   3.981  10.244   6.459 -0.2074  1.0158  0.2830
17936SOL    HW256702   3.848  10.293   6.407 -1.0936 -1.2068  0.3095
17937SOL     OW56703   1.564   1.108   4.916  0.0083 -0.3699 -0.2755
17937SOL    HW156704   1.571   1.016   4.942  1.2187 -0.3174 -0.3243
17937SOL    HW256705   1.621   1.115   4.839  1.0478  0.6959  0.5491
17938SOL     OW56706   4.805  10.303   4.535 -0.0684 -0.9870 -0.0862
17938SOL    HW156707   4.828  10.235   4.472 -0.4180  0.1576 -1.4969
17938SOL    HW256708   4.856  10.380   4.507 -0.5010 -0.3593  0.8111
17939SOL     OW56709   5.605   3.316   9.276 -0.1489 -0.5535 -0.3666
17939SOL    HW156710   5.621   3.378   9.347 -1.2893 -0.8088  0.1462
17939SOL    HW256711   5.591   3.370   9.199  1.2304 -0.2784 -0.4307
17940SOL     OW56712   9.806   4.121   8.046 -0.3678 -0.4411  0.1303
17940SOL    HW156713   9.792   4.041   7.994  0.3890  0.8907 -2.3092
17940SOL    HW256714   9.888   4.105   8.092 -0.4661 -1.2503  0.0412
17941SOL     OW56715  10.590   2.840   0.054 -0.0790 -0.4429  0.0874
17941SOL    HW156716  10.543   2.757   0.052 -3.0328  1.0511  1.3500
17941SOL    HW256717  10.619   2.848   0.145 -0.4329  0.2111  0.1457
17942SOL     OW56718   8.204   2.502   0.057  1.1284 -0.0860  0.5456
17942SOL    HW156719   8.214   2.438   0.128  0.2328  0.4044  1.1279
17942SOL    HW256720   8.292   2.509   0.019  1.7297 -0.0322  1.8866
17943SOL     OW56721   4.881   3.028   6.083  0.0222  0.2969  0.4841
17943SOL    HW156722   4.910   2.950   6.037  1.0100  2.0017 -1.9948
17943SOL    HW256723   4.898   3.100   6.022 -1.1723  2.4319  2.4921
17944SOL     OW56724   7.224   7.809   8.230  0.2377 -0.3054 -0.6468
17944SOL    HW156725   7.174   7.799   8.311  0.9042 -2.2667 -0.4358
17944SOL    HW256726   7.262   7.897   8.236 -2.7580  1.1246 -0.6320
17945SOL     OW56727   8.446   7.555   1.789  0.2601 -0.2403 -0.4734
17945SOL    HW156728   8.467   7.529   1.699  0.6967 -0.3291 -0.3507
17945SOL    HW256729   8.369   7.504   1.812  1.2267 -1.6214 -0.1628
17946SOL     OW56730   9.035   7.351   3.447 -0.4024 -0.8648 -0.2441
17946SOL    HW156731   9.059   7.444   3.443 -0.4612 -0.8857 -2.7003
17946SOL    HW256732   8.974   7.345   3.521 -2.0082  1.4785 -1.2404
17947SOL     OW56733   0.010  10.576   2.174 -0.2011 -0.4481  0.4266
17947SOL    HW156734   0.007  10.622   2.258  0.8598  1.2919 -0.4509
17947SOL    HW256735  -0.082  10.562   2.151 -0.5254  0.3979  1.1610
17948SOL     OW56736   3.447   0.650   1.623  0.3173  1.0062 -0.5541
17948SOL    HW156737   3.527   0.600   1.604 -0.2126 -0.0956  0.0612
17948SOL    HW256738   3.478   0.726   1.674  1.0846  1.1399 -1.1928
17949SOL     OW56739   6.259   8.374   0.698 -0.4408  0.0131 -0.1105
17949SOL    HW156740   6.225   8.448   0.648  0.2632 -0.1068 -0.7848
17949SOL    HW256741   6.216   8.297   0.659 -2.9987  0.1788  2.0987
17950SOL     OW56742   9.099   8.430   9.315 -0.0103 -0.0646  0.2767
17950SOL    HW156743   9.127   8.395   9.399 -0.4448  0.6572  0.7263
17950SOL    HW256744   9.165   8.495   9.293  0.5765 -0.8475 -0.3691
17951SOL     OW56745   4.463   9.285   7.628 -0.5413 -0.2766 -0.0015
17951SOL    HW156746   4.412   9.244   7.558 -0.3286  0.5221 -0.6435
17951SOL    HW256747   4.537   9.226   7.642 -0.8961 -0.7367 -0.0364
17952SOL     OW56748  10.369   6.118   1.983 -0.2038  0.6674  0.0331
17952SOL    HW156749  10.316   6.089   1.909 -0.6406 -3.1758  1.5975
17952SOL    HW256750  10.311   6.110   2.059  0.9632  1.9867  1.1092
17953SOL     OW56751   9.172   8.318   6.136  0.3689  0.1492  0.2290
17953SOL    HW156752   9.262   8.348   6.120  0.7641 -0.6265  0.9064
17953SOL    HW256753   9.167   8.232   6.095  0.7786 -0.9716  2.3754
17954SOL     OW56754   4.000   6.798   1.656  0.3656  0.2376 -0.1425
17954SOL    HW156755   3.917   6.751   1.643  0.6378 -0.4454  0.4985
17954SOL    HW256756   4.065   6.729   1.666  0.9498  0.7705 -0.2091
17955SOL     OW56757   5.149   0.022   4.127 -0.0942 -0.1412 -0.7886
17955SOL    HW156758   5.154   0.110   4.090  0.5390 -0.7616 -2.2229
17955SOL    HW256759   5.238   0.002   4.155 -0.3577 -0.1061  0.1366
17956SOL     OW56760   7.284   0.656   9.802 -0.1605  0.3051  0.6075
17956SOL    HW156761   7.234   0.713   9.744  1.1216  1.9447  1.0040
17956SOL    HW256762   7.373   0.659   9.766 -0.0639 -1.5201  0.6313
17957SOL     OW56763   8.236   0.534   7.607  0.7102 -0.4952 -0.3996
17957SOL    HW156764   8.185   0.598   7.656 -0.2934 -0.6456 -1.2111
17957SOL    HW256765   8.216   0.450   7.648  2.1899 -0.3023  0.7984
17958SOL     OW56766   2.722   6.752  10.167  0.1253 -0.0355 -0.3850
17958SOL    HW156767   2.775   6.809  10.223  0.3233  1.3587 -1.9177
17958SOL    HW256768   2.677   6.693  10.228  1.9433  0.0175  1.0726
17959SOL     OW56769   1.392   9.073   0.005  0.3108  0.1300  0.1029
17959SOL    HW156770   1.442   9.124   0.068 -0.5900 -0.0085  0.9636
17959SOL    HW256771   1.323   9.031   0.057 -1.9067  1.8202 -1.2697
17960SOL     OW56772   5.159   8.922   3.329  1.0388 -0.4327 -0.4168
17960SOL    HW156773   5.082   8.872   3.301  0.3539  0.1679  0.3510
17960SOL    HW256774   5.126   9.010   3.344  1.0471 -0.8951  3.3438
17961SOL     OW56775  10.636   5.056   3.422 -0.0297  0.7030  0.6729
17961SOL    HW156776  10.643   5.135   3.476 -1.3608  0.3411  1.4149
17961SOL    HW256777  10.574   5.000   3.468 -0.5478 -0.0000 -0.7941
17962SOL     OW56778   0.693   7.490   4.540 -0.3424 -0.0200  0.2049
17962SOL    HW156779   0.628   7.559   4.546  0.4877  0.9718 -1.5106
17962SOL    HW256780   0.773   7.534   4.510  1.1896 -1.1740  2.3209
17963SOL     OW56781   1.884   0.628   3.619 -0.5903 -0.0966 -0.3303
17963SOL    HW156782   1.935   0.593   3.692  0.2180  1.4460 -0.0945
17963SOL    HW256783   1.830   0.555   3.589 -0.3123 -0.9920  1.2604
17964SOL     OW56784   6.474  10.602   8.636  0.0748  0.1174  0.2613
17964SOL    HW156785   6.537  10.532   8.622 -0.7446 -0.5603 -0.1310
17964SOL    HW256786   6.400  10.579   8.579 -0.4830  0.9470  0.6350
17965SOL     OW56787   1.425   8.226  10.387  0.1606 -0.1463  0.0937
17965SOL    HW156788   1.398   8.188  10.470 -0.9950  0.3628 -0.0417
17965SOL    HW256789   1.511   8.186  10.370  1.2483  1.0410  2.3461
17966SOL     OW56790   1.262   9.346   5.283  0.0595 -0.4026 -0.7139
17966SOL    HW156791   1.280   9.311   5.370 -1.8784 -3.1832 -1.2638
17966SOL    HW256792   1.238   9.437   5.297  3.1654  0.2835  1.1558
17967SOL     OW56793   5.278   0.481   1.528  0.0191  0.1323 -0.3416
17967SOL    HW156794   5.207   0.493   1.591 -0.1300 -1.5603 -0.1247
17967SOL    HW256795   5.258   0.541   1.456 -1.5831 -0.2392 -0.2373
17968SOL     OW56796   2.272   9.290   3.193 -0.1258  0.0332  0.7720
17968SOL    HW156797   2.176   9.286   3.196 -0.1477  0.1255  0.2643
17968SOL    HW256798   2.297   9.206   3.154 -0.0281  0.2586  0.3543
17969SOL     OW56799   8.359   6.046   5.440  0.3977 -0.5564  0.1641
17969SOL    HW156800   8.287   6.088   5.393 -0.0281 -1.1287  0.2906
17969SOL    HW256801   8.331   6.044   5.531  0.2981 -1.3210  0.1257
17970SOL     OW56802   1.399   9.638   7.192 -0.4980  0.2632  0.1560
17970SOL    HW156803   1.441   9.627   7.277  2.2162 -1.5481 -1.2659
17970SOL    HW256804   1.442   9.714   7.153  0.4838 -0.6966 -0.7144
17971SOL     OW56805   0.058   3.738   0.615  0.0594  0.2877  0.2402
17971SOL    HW156806   0.026   3.781   0.536  2.3538  1.5225 -0.1171
17971SOL    HW256807   0.026   3.648   0.609 -1.7021  0.9336 -0.9166
17972SOL     OW56808   3.483   6.920   8.661  0.7312  0.0637 -0.0318
17972SOL    HW156809   3.462   6.975   8.586  1.8833  0.5148 -0.0446
17972SOL    HW256810   3.398   6.899   8.701  0.2255  1.1497 -0.5119
17973SOL     OW56811   3.486   8.714   1.912  0.1858 -0.6365 -0.4459
17973SOL    HW156812   3.516   8.698   2.001 -0.7382  0.2149  0.0308
17973SOL    HW256813   3.394   8.737   1.921  0.2382  0.0814 -1.5593
17974SOL     OW56814   8.426   0.109   0.206  0.0018 -0.4848 -0.5176
17974SOL    HW156815   8.485   0.052   0.158 -0.0670 -0.5805 -0.4893
17974SOL    HW256816   8.393   0.055   0.278 -1.6872 -1.1159 -1.6827
17975SOL     OW56817  10.517   4.974   9.665 -0.0594  0.7837 -0.4648
17975SOL    HW156818  10.431   5.011   9.683  0.0149  0.3121  0.9455
17975SOL    HW256819  10.573   5.005   9.736  0.6425  0.0998 -0.7036
17976SOL     OW56820  10.680   9.216   0.875  0.2414 -0.1842 -0.4658
17976SOL    HW156821  10.616   9.271   0.922 -0.2772 -0.4886 -0.8060
17976SOL    HW256822  10.678   9.133   0.921  1.3654  0.2119  0.3334
17977SOL     OW56823   0.736   0.012   0.944  0.3258  0.2578 -0.3593
17977SOL    HW156824   0.738   0.009   1.039 -1.5192 -0.8292 -0.3273
17977SOL    HW256825   0.718   0.104   0.923 -0.7189  0.2398  0.3961
17978SOL     OW56826   8.166   3.989   1.625 -0.4727 -0.0025  0.8024
17978SOL    HW156827   8.211   3.905   1.636 -1.7203 -0.9858 -1.1281
17978SOL    HW256828   8.236   4.054   1.627  0.5951 -1.1298  1.6426
17979SOL     OW56829  10.498   8.166   1.658  0.0775 -0.9138  0.2021
17979SOL    HW156830  10.419   8.131   1.699 -0.4900  1.4989  1.3639
17979SOL    HW256831  10.562   8.172   1.729  0.0270  0.6467  0.1520
17980SOL     OW56832   3.692   0.579   2.025  0.3534 -0.4159  0.0460
17980SOL    HW156833   3.708   0.651   2.086  0.3660 -0.4616  0.0962
17980SOL    HW256834   3.610   0.603   1.981  0.9826  0.2302 -0.8126
17981SOL     OW56835   0.015   8.561   1.201  0.0304 -0.1443 -0.6199
17981SOL    HW156836  -0.055   8.499   1.180 -0.2736 -0.4086  1.0338
17981SOL    HW256837   0.095   8.510   1.194 -0.1641 -0.5624  0.0283
17982SOL     OW56838   9.361   9.602   2.888  0.1683 -0.0715 -0.2195
17982SOL    HW156839   9.407   9.675   2.929  1.1041 -0.3305 -0.7723
17982SOL    HW256840   9.429   9.535   2.874  0.1404  0.3555 -3.0180
17983SOL     OW56841   1.717   3.341   1.776 -0.0847 -0.0958  0.4075
17983SOL    HW156842   1.638   3.375   1.733 -1.4933 -2.4778  0.9439
17983SOL    HW256843   1.749   3.415   1.828 -1.9997  0.9371  0.2385
17984SOL     OW56844   9.609  10.794   4.862 -0.1978  0.0355  0.5625
17984SOL    HW156845   9.666  10.735   4.911  1.4232  0.9443 -0.1711
17984SOL    HW256846   9.590  10.866   4.922  0.6534  0.4550  0.3467
17985SOL     OW56847   6.428   6.605   7.146 -0.2098  0.3313  0.1254
17985SOL    HW156848   6.387   6.692   7.152  0.1193  0.3962  1.9379
17985SOL    HW256849   6.404   6.562   7.228 -0.5778 -1.4062 -0.8556
17986SOL     OW56850   3.653   2.565   0.800  0.3786  0.0973  0.0281
17986SOL    HW156851   3.684   2.607   0.720  0.5777 -0.8567 -0.4014
17986SOL    HW256852   3.561   2.591   0.807  0.6979  1.2376  0.1951
17987SOL     OW56853   3.591   5.170   5.520  0.0044 -0.5162 -0.4207
17987SOL    HW156854   3.593   5.256   5.563  0.4646 -0.1260 -1.2004
17987SOL    HW256855   3.619   5.109   5.588 -3.0564 -0.4958  1.0457
17988SOL     OW56856   9.739   2.231   6.440  0.3392 -0.1146 -0.0618
17988SOL    HW156857   9.738   2.224   6.345  0.5874 -2.2973  0.0495
17988SOL    HW256858   9.708   2.146   6.471 -0.1675  0.6961  1.8182
17989SOL     OW56859   5.547   6.782   0.903  0.2690  0.2526  0.3835
17989SOL    HW156860   5.478   6.727   0.939 -0.8233 -0.6805 -2.8105
17989SOL    HW256861   5.501   6.854   0.860  1.3383  0.3560 -0.6468
17990SOL     OW56862  10.133   1.821   5.911  0.0251 -0.1715 -0.0133
17990SOL    HW156863  10.160   1.766   5.984 -0.6043  1.5411  1.5684
17990SOL    HW256864  10.168   1.908   5.931 -1.7163  0.7657 -0.7922
17991SOL     OW56865   4.789   9.081   6.141 -0.3853  0.0517 -0.0516
17991SOL    HW156866   4.785   8.994   6.101 -0.3859  0.4655 -0.9784
17991SOL    HW256867   4.739   9.072   6.223 -0.8625 -0.6733 -0.4076
17992SOL     OW56868   2.857   6.926   6.478 -0.1260  0.5074 -0.2782
17992SOL    HW156869   2.769   6.963   6.473  0.3708  1.9045  0.5099
17992SOL    HW256870   2.867   6.901   6.570 -0.5771 -2.0678 -0.8483
17993SOL     OW56871   5.846   0.811   3.875 -0.4595 -0.0772  0.5214
17993SOL    HW156872   5.927   0.812   3.925 -0.3246 -1.6317  0.3745
17993SOL    HW256873   5.779   0.786   3.939 -0.5663 -0.3434  0.3080
17994SOL     OW56874   5.013   5.121   0.426  0.2065  0.7159  0.4827
17994SOL    HW156875   5.092   5.167   0.398  0.2183 -0.3896 -1.5303
17994SOL    HW256876   4.989   5.067   0.350 -1.7300  0.0216  1.5172
17995SOL     OW56877   8.335   3.447   7.229  0.1325  0.1068  0.6236
17995SOL    HW156878   8.301   3.358   7.219 -0.7700  0.3630  1.2440
17995SOL    HW256879   8.423   3.436   7.264 -0.4315 -0.5393  1.9107
17996SOL     OW56880  10.211   6.033   1.777 -0.1733  0.3861 -0.2610
17996SOL    HW156881  10.169   5.956   1.815 -0.0705 -0.6591 -2.1260
17996SOL    HW256882  10.154   6.058   1.704  0.8307  0.8084 -0.9298
17997SOL     OW56883   4.368  10.123   7.953  0.1384 -0.1527  0.1059
17997SOL    HW156884   4.275  10.114   7.975 -0.1460  0.6935 -0.6714
17997SOL    HW256885   4.411  10.053   8.000 -0.7850 -0.0016  1.2083
17998SOL     OW56886   0.350   7.428   9.723 -0.3086  0.3724 -0.0294
17998SOL    HW156887   0.373   7.518   9.698  0.5509  0.4453  0.9774
17998SOL    HW256888   0.262   7.415   9.688 -0.1114  1.3183 -0.9107
17999SOL     OW56889   7.539   2.334   2.783 -0.5368  0.4058 -0.2785
17999SOL    HW156890   7.460   2.361   2.830 -2.0297 -3.8557  0.1323
17999SOL    HW256891   7.507   2.270   2.719  2.5521 -1.6435  0.0426
18000SOL     OW56892   1.919   3.183   7.776 -0.1778 -0.5629  0.3370
18000SOL    HW156893   1.891   3.213   7.862  2.8990 -0.4009  1.4163
18000SOL    HW256894   2.011   3.159   7.788 -0.0198 -1.8780 -2.6059
18001SOL     OW56895   5.527   1.001   3.589 -0.2237 -0.1185 -0.1469
18001SOL    HW156896   5.578   0.959   3.519 -1.5193 -1.1746 -0.4858
18001SOL    HW256897   5.591   1.018   3.658  1.3023  1.7939 -1.8739
18002SOL     OW56898  10.113   6.839   3.324  0.6362 -0.4764  0.1930
18002SOL    HW156899  10.144   6.927   3.303 -1.9334  0.2836 -0.7393
18002SOL    HW256900  10.123   6.789   3.243 -1.9628  0.2534 -0.6601
18003SOL     OW56901   3.044   6.233   9.111  0.0375  0.4175  0.4321
18003SOL    HW156902   2.967   6.216   9.057 -0.3466 -1.7966  1.5438
18003SOL    HW256903   3.118   6.220   9.052 -0.4001 -0.9200  0.1324
18004SOL     OW56904   2.973   9.732   2.122  0.2700  0.3585  0.0981
18004SOL    HW156905   3.031   9.774   2.059  0.6773  0.9226  0.8469
18004SOL    HW256906   2.994   9.772   2.206 -0.2005 -0.4571  0.6217
18005SOL     OW56907   2.081   2.912   1.694  0.3604 -0.2268 -0.8671
18005SOL    HW156908   2.139   2.837   1.678  0.5873  0.2647 -2.5277
18005SOL    HW256909   2.120   2.955   1.770  2.0410 -0.0811 -1.7550
18006SOL     OW56910   3.541   4.312  10.410  0.0926  0.0374  0.3068
18006SOL    HW156911   3.476   4.380  10.424  1.1490  1.0727  0.3312
18006SOL    HW256912   3.594   4.344  10.336  1.8636  0.2641  1.5915
18007SOL     OW56913   6.224   5.125   8.239  0.0547 -0.3583  0.3277
18007SOL    HW156914   6.192   5.198   8.186 -0.0399 -0.2516  0.5332
18007SOL    HW256915   6.241   5.055   8.175 -1.3224 -0.6852  0.2983
18008SOL     OW56916   5.731   1.659   4.960 -0.2917  0.5019 -0.1730
18008SOL    HW156917   5.748   1.612   5.042 -3.1126  1.0636  0.8462
18008SOL    HW256918   5.638   1.643   4.942 -0.0151  1.3447 -2.6629
18009SOL     OW56919   3.534   0.763   6.597  0.0918  0.1061 -0.0221
18009SOL    HW156920   3.561   0.707   6.670 -0.3197  0.7814  0.6629
18009SOL    HW256921   3.599   0.747   6.529 -0.4234 -1.7656 -0.1375
18010SOL     OW56922   5.342   4.518   2.659  0.2752  0.2176  0.2536
18010SOL    HW156923   5.425   4.525   2.612  1.0243  0.2816  1.5433
18010SOL    HW256924   5.310   4.608   2.665 -0.2710  0.1203 -0.8597
18011SOL     OW56925   4.599   8.229   7.052  0.6132 -0.1758 -0.1724
18011SOL    HW156926   4.673   8.191   7.005  0.1874 -0.2250 -0.8058
18011SOL    HW256927   4.573   8.160   7.114  0.7332 -0.3750 -0.3429
18012SOL     OW56928   0.406   5.526   6.546 -0.6249 -0.0802  0.0380
18012SOL    HW156929   0.348   5.504   6.473 -0.0442  0.3946 -0.5810
18012SOL    HW256930   0.480   5.572   6.505  0.1730 -0.6388  0.8107
18013SOL     OW56931   9.296   3.011   6.553 -0.0487 -0.1137 -0.7986
18013SOL    HW156932   9.281   3.074   6.623 -0.2079 -1.3185  0.2859
18013SOL    HW256933   9.390   2.997   6.553 -0.1783 -1.1332  0.1286
18014SOL     OW56934   0.172   5.128   8.186  0.1428 -0.0952  0.6388
18014SOL    HW156935   0.232   5.054   8.171 -0.6916 -0.7153  0.2927
18014SOL    HW256936   0.218   5.203   8.149  1.1637 -0.3629  1.3034
18015SOL     OW56937   4.145   2.801   6.655  0.3184  0.1219 -0.1004
18015SOL    HW156938   4.166   2.819   6.564 -2.4091  0.2150 -0.7703
18015SOL    HW256939   4.163   2.883   6.701 -0.2916  0.7381 -0.9434
18016SOL     OW56940   7.181   9.569   2.098 -0.9539  0.3554 -0.5145
18016SOL    HW156941   7.113   9.523   2.147  0.4148  0.7360  1.8914
18016SOL    HW256942   7.235   9.499   2.061 -1.5847  0.0550 -0.8807
18017SOL     OW56943   8.320   9.267   1.785 -0.2854 -0.0136  0.6606
18017SOL    HW156944   8.259   9.321   1.736 -0.9317 -0.0127  1.4382
18017SOL    HW256945   8.362   9.328   1.846 -1.1611 -0.3998  1.6755
18018SOL     OW56946   8.621   0.556   8.870  0.2877 -0.1346  0.7731
18018SOL    HW156947   8.674   0.578   8.947 -1.7967 -0.6297  2.4346
18018SOL    HW256948   8.535   0.592   8.889 -1.2126 -3.1293  0.2324
18019SOL     OW56949   8.800   5.933   5.845  0.4092 -0.6177  0.3927
18019SOL    HW156950   8.845   5.959   5.765 -0.3856  0.3873  0.2531
18019SOL    HW256951   8.763   6.015   5.880  1.3061 -0.9200  2.1451
18020SOL     OW56952   5.254   0.879   1.197 -0.0926  0.0088  0.0202
18020SOL    HW156953   5.297   0.923   1.124 -1.0489 -0.3431 -0.7824
18020SOL    HW256954   5.245   0.947   1.264  1.0816  0.2528 -0.0523
18021SOL     OW56955   3.856   6.424   8.453  0.2824  0.0177  0.0188
18021SOL    HW156956   3.796   6.499   8.453  1.7746  1.2999  1.8570
18021SOL    HW256957   3.875   6.410   8.360 -1.4517  0.6821 -0.4922
18022SOL     OW56958   6.226   9.157   8.445  0.3821  0.3784  0.1942
18022SOL    HW156959   6.141   9.199   8.459  0.5331  1.4779 -1.7989
18022SOL    HW256960   6.244   9.110   8.526 -2.3947 -0.3903  0.4528
18023SOL     OW56961   5.456   4.258   8.199 -0.0754  0.0994 -0.1873
18023SOL    HW156962   5.502   4.279   8.118  0.3070 -0.2435 -0.0624
18023SOL    HW256963   5.365   4.243   8.172  0.0250  0.1054 -0.5294
18024SOL     OW56964   9.336   6.971  10.408 -0.2562  0.3029 -0.4313
18024SOL    HW156965   9.374   6.975  10.496  0.0833 -0.5158 -0.5337
18024SOL    HW256966   9.264   7.034  10.410 -1.4343 -1.0187  1.0207
18025SOL     OW56967   1.455   7.960   5.380  0.4068  0.5074  0.5895
18025SOL    HW156968   1.507   7.902   5.325 -0.1869 -1.2064  1.7282
18025SOL    HW256969   1.435   8.036   5.325  1.0653 -0.4566 -1.0271
18026SOL     OW56970   6.247   3.071   6.205 -0.2916  0.1967  0.3333
18026SOL    HW156971   6.289   3.135   6.263  0.3111 -0.5627  0.7547
18026SOL    HW256972   6.319   3.018   6.171 -0.7950 -0.3616  0.1095
18027SOL     OW56973   1.446   7.938   1.582  0.7428 -0.2962 -0.5599
18027SOL    HW156974   1.380   7.972   1.642  0.4617 -2.2296  0.2959
18027SOL    HW256975   1.445   7.999   1.508 -0.1864  1.1202  0.5657
18028SOL     OW56976   2.981   1.567   6.360 -0.4048  0.3830  0.2439
18028SOL    HW156977   2.994   1.583   6.267 -0.6401 -1.4124 -0.1281
18028SOL    HW256978   2.886   1.568   6.372 -0.3694  2.1793  0.8150
18029SOL     OW56979   3.235   3.817   0.842  0.0360  0.4083  0.2584
18029SOL    HW156980   3.163   3.754   0.841 -0.3564  0.8443 -0.9091
18029SOL    HW256981   3.280   3.802   0.925 -0.9984 -0.3283  0.6949
18030SOL     OW56982   8.802   6.071   9.527 -0.6334 -0.8045 -0.1387
18030SOL    HW156983   8.893   6.070   9.558 -0.2338 -3.2363 -1.1481
18030SOL    HW256984   8.777   6.164   9.528  0.8992 -0.3070  2.7678
18031SOL     OW56985   7.149   8.045  10.215 -1.1377  0.2141 -0.5567
18031SOL    HW156986   7.224   8.012  10.265 -1.8440 -0.1775  0.2659
18031SOL    HW256987   7.170   8.024  10.124 -1.1544 -1.7359 -0.1476
18032SOL     OW56988   5.164   4.409   7.232 -0.3922  0.2740  0.2743
18032SOL    HW156989   5.074   4.410   7.198 -0.2108 -0.3837 -0.2733
18032SOL    HW256990   5.188   4.316   7.230 -0.1115  0.3040  1.5522
18033SOL     OW56991   8.056  10.354   2.250 -0.1914  0.5156  0.5512
18033SOL    HW156992   8.119  10.283   2.253  0.7346  1.2367 -0.6495
18033SOL    HW256993   8.092  10.422   2.307 -0.5758  0.3980  0.9354
18034SOL     OW56994   9.895   1.124   1.480  0.5507 -0.8626  0.4521
18034SOL    HW156995   9.863   1.075   1.556  2.6374 -0.4143  1.7025
18034SOL    HW256996   9.964   1.068   1.444 -0.0871 -0.8368 -0.8511
18035SOL     OW56997   4.094   9.386   2.682  0.0279 -0.0694 -0.4402
18035SOL    HW156998   4.159   9.333   2.635  0.3134  0.1822 -0.3389
18035SOL    HW256999   4.110   9.368   2.775 -0.2480 -0.2350 -0.4239
18036SOL     OW57000  10.376   5.910   4.486 -0.1727  0.1704  0.0518
18036SOL    HW157001  10.395   5.956   4.568  0.2656 -1.0141  0.6446
18036SOL    HW257002  10.313   5.966   4.441 -1.5314  0.1919  1.8451
18037SOL     OW57003   0.878   8.254   3.762  0.2740  0.1896 -0.0370
18037SOL    HW157004   0.805   8.222   3.815  0.0093  0.7295 -0.0685
18037SOL    HW257005   0.852   8.343   3.736  0.4171 -0.0427 -1.0361
18038SOL     OW57006   1.789   3.013  10.785  0.7473 -0.2066 -0.1377
18038SOL    HW157007   1.807   3.074  10.856  0.3688  0.2214 -0.4101
18038SOL    HW257008   1.694   3.001  10.788  0.5465  0.8983 -1.4545
18039SOL     OW57009   9.877   4.382   2.662 -0.8989  0.0460 -0.5405
18039SOL    HW157010   9.828   4.382   2.744  0.3608  1.0411  0.2481
18039SOL    HW257011   9.836   4.313   2.610  0.1955 -2.7714  2.0436
18040SOL     OW57012   6.393   4.021  10.364  0.2173  0.1944 -0.3602
18040SOL    HW157013   6.340   3.943  10.383 -1.0801  1.2736  0.6322
18040SOL    HW257014   6.464   4.017  10.427  0.1644 -0.1895 -0.3180
18041SOL     OW57015  10.131   1.924  10.349  0.0693 -0.2581 -0.1732
18041SOL    HW157016  10.221   1.956  10.341 -0.1674  0.9959  1.6986
18041SOL    HW257017  10.137   1.849  10.408 -0.1907  0.3332  0.6240
18042SOL     OW57018   4.536   4.311   1.761 -0.2476  0.0401  0.3609
18042SOL    HW157019   4.574   4.228   1.788  0.3363 -0.6219 -2.1978
18042SOL    HW257020   4.452   4.287   1.721  0.0018  0.6123 -0.5548
18043SOL     OW57021   8.392   9.884   0.812  0.3247  0.0033  0.1945
18043SOL    HW157022   8.303   9.847   0.816 -0.0429  0.7671 -0.6807
18043SOL    HW257023   8.406   9.903   0.720  1.9914 -1.4642  0.0790
18044SOL     OW57024   1.169   0.749   3.341 -0.4864  0.3785  0.5125
18044SOL    HW157025   1.121   0.802   3.404  0.2355  0.8798  0.6531
18044SOL    HW257026   1.159   0.794   3.258 -0.8230  0.1126  0.4053
18045SOL     OW57027   3.725   9.444   7.972 -0.5431  0.4375  0.9035
18045SOL    HW157028   3.689   9.527   7.942  0.7455  1.0657  1.0073
18045SOL    HW257029   3.686   9.378   7.915 -0.8742  1.2177  0.2190
18046SOL     OW57030   7.587   4.288   5.729 -0.8067 -0.1509 -0.1585
18046SOL    HW157031   7.589   4.265   5.822  0.4122 -2.8135 -0.7277
18046SOL    HW257032   7.512   4.240   5.694 -0.8771  0.3216 -0.6680
18047SOL     OW57033   3.523  10.124   1.822  0.1964  0.0512 -0.4751
18047SOL    HW157034   3.467  10.144   1.747  0.1610  0.2396 -0.3988
18047SOL    HW257035   3.607  10.164   1.801 -0.1888  1.2292  0.1594
18048SOL     OW57036  10.606   6.328   2.425  0.1835  0.0504 -0.4469
18048SOL    HW157037  10.613   6.409   2.476  0.8022 -1.0198  1.2740
18048SOL    HW257038  10.638   6.260   2.484 -0.1960 -1.4504 -1.8876
18049SOL     OW57039   8.348   9.126   6.819  0.4263  0.9219  0.5381
18049SOL    HW157040   8.425   9.163   6.777  2.1303 -0.7788  1.9837
18049SOL    HW257041   8.327   9.186   6.890  1.9232  0.2127  1.6176
18050SOL     OW57042   8.198  10.296   7.501 -0.0058 -0.4072  0.0019
18050SOL    HW157043   8.268  10.233   7.482  1.6359  1.1115  0.7633
18050SOL    HW257044   8.173  10.331   7.415  1.2088  0.0781 -0.1719
18051SOL     OW57045   2.753   1.983   4.712 -0.1486 -0.3059 -0.0137
18051SOL    HW157046   2.727   1.907   4.764  0.6529 -0.9053 -0.4618
18051SOL    HW257047   2.840   2.005   4.743 -1.0655  1.6120  1.3908
18052SOL     OW57048   3.564  10.045  10.163  0.0502 -0.4369 -0.4536
18052SOL    HW157049   3.554  10.108  10.092 -0.1720  0.7074  0.5674
18052SOL    HW257050   3.640   9.993  10.138 -0.7346 -0.8596 -2.1025
18053SOL     OW57051   0.259   5.469   6.318  0.1866 -0.0608  0.7439
18053SOL    HW157052   0.281   5.377   6.302  0.4782  0.0292  0.6082
18053SOL    HW257053   0.209   5.495   6.240  2.4142  0.6412 -0.5388
18054SOL     OW57054   7.506   6.418   3.021  0.0623  0.0067  0.1285
18054SOL    HW157055   7.531   6.506   3.047  0.9948 -0.3210  0.3869
18054SOL    HW257056   7.519   6.364   3.099 -0.9189 -0.2978  0.1037
18055SOL     OW57057   0.870   1.123  10.582 -0.6449  0.0031  0.3277
18055SOL    HW157058   0.876   1.218  10.575  1.4682 -0.1192 -0.5508
18055SOL    HW257059   0.870   1.093  10.491 -1.5823 -0.8320  0.5917
18056SOL     OW57060   8.054  10.418   5.285 -0.1132  0.1467  0.4229
18056SOL    HW157061   7.961  10.426   5.264  0.3460 -0.2131 -2.0450
18056SOL    HW257062   8.093  10.497   5.247  0.6859 -0.0801  0.7601
18057SOL     OW57063   6.592  10.524   5.142  0.8631  0.1632 -0.3187
18057SOL    HW157064   6.648  10.446   5.139 -0.5145 -0.8254 -1.4088
18057SOL    HW257065   6.626  10.580   5.073  1.1063 -0.0107 -0.3428
18058SOL     OW57066   7.074  10.793   5.048  0.5613  0.3854 -0.5130
18058SOL    HW157067   6.988  10.807   5.087  0.1104 -0.3406 -1.2178
18058SOL    HW257068   7.101  10.880   5.018 -0.6601  0.3807 -1.7371
18059SOL     OW57069   9.817   8.676   4.296  0.0713 -0.7332  0.0271
18059SOL    HW157070   9.765   8.605   4.333  0.2380 -0.4253  0.8842
18059SOL    HW257071   9.850   8.642   4.214 -2.0473 -0.7155 -0.9093
18060SOL     OW57072   3.076   5.930   2.201  0.6028  0.3589 -0.2870
18060SOL    HW157073   3.122   6.008   2.234  0.8248  0.3417 -0.5519
18060SOL    HW257074   2.988   5.961   2.180  0.5149  0.4117  0.1414
18061SOL     OW57075   7.624   6.745   2.300 -0.9274 -0.0581  0.1825
18061SOL    HW157076   7.593   6.817   2.245  0.1681  0.6714  0.4889
18061SOL    HW257077   7.706   6.717   2.258 -1.2560 -1.0209  0.1632
18062SOL     OW57078  10.266   3.940   2.009 -0.0211  0.1550  0.0728
18062SOL    HW157079  10.330   3.891   2.060 -1.3622  0.7277  2.4765
18062SOL    HW257080  10.187   3.886   2.011 -0.9594  1.4883  1.1715
18063SOL     OW57081   5.617   9.515   4.075 -0.1480 -0.0428  0.6218
18063SOL    HW157082   5.692   9.500   4.018  0.3541  2.1089  0.6232
18063SOL    HW257083   5.542   9.482   4.027  0.8649 -3.5515  1.1973
18064SOL     OW57084   3.775   7.314   4.138  0.6006 -0.0337 -0.2318
18064SOL    HW157085   3.815   7.365   4.209  0.9034  1.1835 -1.2417
18064SOL    HW257086   3.761   7.378   4.068 -0.9909 -0.9193 -0.7586
18065SOL     OW57087   0.277   2.708   5.532 -0.0446 -0.4145  0.9899
18065SOL    HW157088   0.355   2.757   5.558  0.1674  0.0207 -0.3864
18065SOL    HW257089   0.264   2.644   5.602  1.4135 -0.3504  1.3467
18066SOL     OW57090   0.494   6.804   9.895 -0.1563 -0.0860 -0.5179
18066SOL    HW157091   0.509   6.898   9.878 -0.5873 -0.2765 -2.1768
18066SOL    HW257092   0.565   6.780   9.954 -0.0257  1.2882 -0.0642
18067SOL     OW57093   3.793   4.944   1.562 -0.5386  0.7473 -0.3914
18067SOL    HW157094   3.717   4.921   1.615 -0.4283 -1.4491 -1.0764
18067SOL    HW257095   3.862   4.884   1.591 -0.0393  0.5136 -1.9514
18068SOL     OW57096   8.906   1.777   8.325 -0.1668 -0.3912 -0.2108
18068SOL    HW157097   8.919   1.758   8.232 -2.1019 -2.2263 -0.1819
18068SOL    HW257098   8.869   1.865   8.326 -0.6496 -0.5656 -1.2484
18069SOL     OW57099   8.012   6.624   8.237 -0.0111  0.3697  0.7830
18069SOL    HW157100   7.926   6.588   8.215 -0.9157  0.8373  3.1537
18069SOL    HW257101   8.068   6.600   8.164 -2.4377  1.1860 -1.5059
18070SOL     OW57102   0.453   9.006   3.416 -0.2501 -0.1931 -0.2467
18070SOL    HW157103   0.490   9.034   3.499 -1.3847  2.8388 -0.6358
18070SOL    HW257104   0.526   9.014   3.354 -0.0760  0.1501 -0.0042
18071SOL     OW57105   2.497   0.088   4.443  0.7224 -0.2480  0.0674
18071SOL    HW157106   2.472   0.130   4.361  0.0030 -0.4884  0.1532
18071SOL    HW257107   2.458   0.000   4.437 -0.0254  0.0027  1.0034
18072SOL     OW57108   2.895   7.075   7.186 -0.2864  0.2636  0.1090
18072SOL    HW157109   2.949   7.030   7.251 -0.5866  2.0414  1.6610
18072SOL    HW257110   2.828   7.121   7.236 -1.4619  0.5141 -1.5750
18073SOL     OW57111   8.405   1.161   1.203 -0.3605 -0.0291 -0.4949
18073SOL    HW157112   8.477   1.106   1.233 -2.0923 -2.3566 -0.3656
18073SOL    HW257113   8.367   1.112   1.130 -2.0826  0.8991 -0.2621
18074SOL     OW57114   9.735  10.132   9.193  0.2219  0.1702 -0.7033
18074SOL    HW157115   9.783  10.075   9.253 -0.7082 -1.2465 -1.2587
18074SOL    HW257116   9.736  10.218   9.236 -0.5977 -0.8332  1.4913
18075SOL     OW57117   4.430   8.777   5.371  0.0013 -0.3631  0.1462
18075SOL    HW157118   4.340   8.754   5.349 -0.3176  0.1825  0.8495
18075SOL    HW257119   4.454   8.845   5.309 -0.3458  0.0437  0.4509
18076SOL     OW57120   0.574   2.499   3.773 -0.3246  0.6447  0.5204
18076SOL    HW157121   0.482   2.475   3.780 -0.4810  1.4966  1.7357
18076SOL    HW257122   0.619   2.440   3.834 -0.2372  1.0609  0.8607
18077SOL     OW57123   6.420   2.985   1.861  0.4878  0.3496 -0.4147
18077SOL    HW157124   6.360   2.910   1.858  1.9195 -0.8398 -0.8778
18077SOL    HW257125   6.450   2.995   1.771 -1.5959  3.2013 -0.9172
18078SOL     OW57126   2.311   1.063   7.229 -0.1745 -0.5218  0.2664
18078SOL    HW157127   2.404   1.082   7.216 -0.4317  0.2392 -0.5439
18078SOL    HW257128   2.287   1.008   7.154  0.1764 -2.8495  1.7516
18079SOL     OW57129   6.244  10.382   5.336 -0.4980 -0.1103 -0.5263
18079SOL    HW157130   6.203  10.467   5.319  0.1093  0.5041  0.9107
18079SOL    HW257131   6.178  10.334   5.387 -0.6632 -0.3323 -0.9471
18080SOL     OW57132  10.728   4.632  10.782 -0.3463  0.2282 -0.0715
18080SOL    HW157133  10.677   4.684  10.844 -0.9934  0.7753 -1.0459
18080SOL    HW257134  10.808   4.684  10.768 -0.5589  0.4991 -0.3007
18081SOL     OW57135   8.341   3.541   8.148 -0.2606 -0.0772  0.0603
18081SOL    HW157136   8.301   3.609   8.202  0.7572  1.9279 -1.5861
18081SOL    HW257137   8.313   3.561   8.059  0.6729 -1.3785 -0.5575
18082SOL     OW57138   9.954   0.983   4.907 -0.3208 -0.3055  0.3676
18082SOL    HW157139   9.904   1.027   4.976  0.6072 -0.3560  1.0810
18082SOL    HW257140   9.930   0.891   4.915  2.7475 -1.0357  3.3252
18083SOL     OW57141   2.423   4.841   1.481  0.5654  0.1288  0.0608
18083SOL    HW157142   2.378   4.777   1.426  2.8301 -2.2489  0.7535
18083SOL    HW257143   2.384   4.829   1.568  0.0015  0.7394 -0.1045
18084SOL     OW57144   5.759   2.842   8.111  0.6726 -0.4001 -0.3964
18084SOL    HW157145   5.667   2.838   8.135  0.8765 -2.3403  0.2564
18084SOL    HW257146   5.759   2.870   8.019 -0.5819 -0.7485 -0.5156
18085SOL     OW57147   3.249   1.655   2.183 -0.0048  0.2192  0.2250
18085SOL    HW157148   3.215   1.735   2.223 -1.2169  0.1052 -0.5505
18085SOL    HW257149   3.339   1.649   2.217 -0.0870  1.5700  0.7757
18086SOL     OW57150   3.598   4.555   9.348 -0.4874 -0.1185 -0.3521
18086SOL    HW157151   3.579   4.464   9.327 -2.2745  0.2403 -0.5123
18086SOL    HW257152   3.689   4.568   9.321 -0.4721 -1.6069 -1.1310
18087SOL     OW57153   3.445   0.355   6.260 -0.3244  0.1447 -0.3717
18087SOL    HW157154   3.484   0.289   6.203 -1.0824 -0.4205 -0.2437
18087SOL    HW257155   3.351   0.352   6.241 -0.5615  0.1331  0.7169
18088SOL     OW57156   6.918   6.694  10.200  0.0902 -0.0545  0.1859
18088SOL    HW157157   6.963   6.722  10.280  0.9693 -0.3900 -0.1784
18088SOL    HW257158   6.872   6.772  10.169  3.0801  1.3109 -1.2208
18089SOL     OW57159   8.504  10.626   5.339 -0.3239  0.4777  0.3380
18089SOL    HW157160   8.574  10.610   5.402  0.5781 -0.4930 -0.8501
18089SOL    HW257161   8.427  10.645   5.392  0.9062  1.9664  1.6879
18090SOL     OW57162  10.249   2.177   8.474  0.3996 -0.6857 -0.0826
18090SOL    HW157163  10.171   2.206   8.522 -1.7819 -2.3921 -2.3614
18090SOL    HW257164  10.303   2.134   8.541 -2.1062 -2.2250  1.1054
18091SOL     OW57165   8.915   5.118   4.919  0.0338 -0.2194  0.0890
18091SOL    HW157166   8.979   5.187   4.900  0.0360 -0.3670 -0.4425
18091SOL    HW257167   8.940   5.046   4.862 -1.6347  0.3380 -1.4188
18092SOL     OW57168   2.002   1.783   1.031  0.2049  0.5175 -0.2785
18092SOL    HW157169   1.996   1.734   1.114  1.6108 -0.3336 -0.6457
18092SOL    HW257170   2.034   1.869   1.057  0.4904  0.3076  0.0747
18093SOL     OW57171  10.553   2.629   2.797  0.3909  0.1146 -0.5396
18093SOL    HW157172  10.630   2.677   2.827  0.3606  0.7863 -1.4711
18093SOL    HW257173  10.479   2.683   2.826  0.2859 -0.3005 -0.0312
18094SOL     OW57174   1.471   1.662   5.629  0.3074 -0.2670  0.7848
18094SOL    HW157175   1.383   1.697   5.615  0.8890  0.9764  0.0809
18094SOL    HW257176   1.478   1.590   5.566 -0.0201 -0.0565  0.5060
18095SOL     OW57177   7.733   7.709   1.076 -0.0313 -0.0986  0.0852
18095SOL    HW157178   7.685   7.787   1.103  0.5244  0.1116  0.4772
18095SOL    HW257179   7.732   7.651   1.152 -0.4415 -0.4805 -0.2039
18096SOL     OW57180   1.036   8.672   6.264  0.2937 -0.0152  0.4312
18096SOL    HW157181   1.060   8.719   6.344 -0.3341 -0.3019  0.7916
18096SOL    HW257182   0.940   8.671   6.265  0.2896 -0.1999 -0.2194
18097SOL     OW57183   0.231   5.650   8.660 -0.1314  0.2698 -0.3566
18097SOL    HW157184   0.249   5.727   8.714 -0.5978 -0.3960  0.8079
18097SOL    HW257185   0.313   5.601   8.661 -0.4824 -0.3402  0.8137
18098SOL     OW57186   0.997   4.441   3.180 -0.1435  0.2776 -0.6341
18098SOL    HW157187   0.931   4.468   3.116 -0.4976 -1.3976 -1.0430
18098SOL    HW257188   1.026   4.355   3.148  1.4648  0.5110  0.1287
18099SOL     OW57189   7.476   1.938   6.240 -0.3760  0.2840 -0.7173
18099SOL    HW157190   7.521   1.986   6.309  0.1706 -1.3547  0.1369
18099SOL    HW257191   7.546   1.914   6.178 -0.4278 -0.4088 -0.5150
18100SOL     OW57192  10.249   5.679   4.470 -0.0772 -0.2920  0.2087
18100SOL    HW157193  10.193   5.681   4.392  1.3031  1.1529 -0.7913
18100SOL    HW257194  10.304   5.756   4.462  3.2657 -2.4725  0.2479
18101SOL     OW57195   3.108   6.818   2.064  0.4228  0.0600  0.1119
18101SOL    HW157196   3.013   6.820   2.074  0.5428  1.5408  1.3896
18101SOL    HW257197   3.134   6.729   2.086 -0.5215  0.1202  1.5491
18102SOL     OW57198   4.926  10.245  10.213 -0.6101 -0.0664  0.1457
18102SOL    HW157199   4.996  10.292  10.167 -1.2820  1.8143  0.9808
18102SOL    HW257200   4.846  10.289  10.187 -1.4569 -1.6863 -0.1479
18103SOL     OW57201   9.931   7.210   2.092  0.1550  0.3165 -0.8301
18103SOL    HW157202   9.924   7.191   2.186  2.7801 -1.7529 -0.9401
18103SOL    HW257203   9.912   7.127   2.049  0.5712  0.8266 -2.0555
18104SOL     OW57204  10.666   3.483   9.081 -0.2642 -0.0027 -0.3995
18104SOL    HW157205  10.618   3.518   9.157  0.3136  2.0287 -0.8965
18104SOL    HW257206  10.758   3.497   9.103 -0.0674 -0.1819 -1.1102
18105SOL     OW57207   1.848   6.408   2.370 -0.0406  0.2627  0.5738
18105SOL    HW157208   1.779   6.381   2.310 -0.1468 -1.4230  1.4040
18105SOL    HW257209   1.927   6.409   2.316 -0.4565  0.7401 -0.0381
18106SOL     OW57210   2.320   1.789   3.764  0.0884  0.3460 -0.1780
18106SOL    HW157211   2.226   1.772   3.771  0.3778 -1.1480  0.4750
18106SOL    HW257212   2.329   1.841   3.684 -1.1777 -0.5274 -0.9145
18107SOL     OW57213   2.839   3.716   8.139  0.4199  0.1961  0.0598
18107SOL    HW157214   2.811   3.703   8.230  0.7520  0.0627  0.1439
18107SOL    HW257215   2.757   3.724   8.090  0.2304 -0.3821  0.2746
18108SOL     OW57216   0.442   1.426   9.284  0.1658  0.3969 -0.1039
18108SOL    HW157217   0.388   1.487   9.334 -0.4284 -1.0049  1.0420
18108SOL    HW257218   0.380   1.373   9.235  0.3979 -1.3721  1.3860
18109SOL     OW57219   0.134   8.061   1.869  0.3155  0.5557  0.0912
18109SOL    HW157220   0.155   7.981   1.821  1.8504  1.3717 -0.6515
18109SOL    HW257221   0.076   8.110   1.811 -1.6177 -0.4961  1.0369
18110SOL     OW57222   7.880   6.362   0.094 -0.4540 -0.1150 -0.7190
18110SOL    HW157223   7.859   6.408   0.175 -1.4960 -0.1811 -0.9345
18110SOL    HW257224   7.971   6.334   0.105 -0.5109  0.0709  0.3333
18111SOL     OW57225   9.668   6.300  10.628 -0.4146 -0.1729 -1.2097
18111SOL    HW157226   9.636   6.220  10.587 -0.5054 -0.5507 -0.4150
18111SOL    HW257227   9.611   6.314  10.703 -0.3612  0.6115 -1.2975
18112SOL     OW57228   0.737   0.343   4.991 -0.2204  0.1895 -0.2779
18112SOL    HW157229   0.827   0.321   5.018 -0.2792  0.1214 -0.1355
18112SOL    HW257230   0.713   0.416   5.049  0.0690  0.8071 -0.9232
18113SOL     OW57231   3.098   7.859   5.995 -0.1213 -0.3652  1.0192
18113SOL    HW157232   3.178   7.907   5.974 -0.0423 -1.0939 -0.4661
18113SOL    HW257233   3.027   7.913   5.961 -0.1367 -0.5823  0.7053
18114SOL     OW57234   0.719   9.091   8.996  0.7267  0.5421 -0.5275
18114SOL    HW157235   0.757   9.019   8.947  2.2988  2.2648 -1.9723
18114SOL    HW257236   0.626   9.070   9.001  1.1065 -1.4435 -1.1129
18115SOL     OW57237   1.794   4.140   6.064 -0.2323 -0.3461 -0.5918
18115SOL    HW157238   1.799   4.215   6.005  1.9393  0.1504  0.1362
18115SOL    HW257239   1.701   4.135   6.088 -0.4638  2.1225 -0.6663
18116SOL     OW57240   7.427   9.957   7.705 -0.0264 -0.3875  0.3072
18116SOL    HW157241   7.427   9.866   7.734 -1.2306 -0.8505 -1.0466
18116SOL    HW257242   7.488   9.959   7.632  2.1407  0.5380  2.0259
18117SOL     OW57243   1.477   2.001   4.011 -0.0742 -0.6338 -0.4216
18117SOL    HW157244   1.460   1.950   4.090  1.5893  0.1441  0.4830
18117SOL    HW257245   1.457   1.941   3.939 -0.4478 -1.7623  0.5875
18118SOL     OW57246   3.369   1.412   3.022  0.3749 -0.1094 -0.3152
18118SOL    HW157247   3.384   1.407   3.116 -1.0765  1.5481  0.0555
18118SOL    HW257248   3.366   1.320   2.993  1.2483 -0.6273  1.1573
18119SOL     OW57249   2.182   9.935   6.915  0.6471  0.3875 -0.1236
18119SOL    HW157250   2.262   9.882   6.907 -0.1295 -0.9234  0.5178
18119SOL    HW257251   2.175   9.953   7.009  1.3091  2.3421 -0.3916
18120SOL     OW57252   0.188   8.687   9.487  0.0433 -0.3764  0.0815
18120SOL    HW157253   0.222   8.756   9.429  0.0198  0.6324  1.2139
18120SOL    HW257254   0.129   8.636   9.432 -0.2227  0.7460 -0.7102
18121SOL     OW57255   6.155   0.077   1.367 -0.1617  0.3087  0.2351
18121SOL    HW157256   6.097   0.042   1.434  0.7345 -0.1567  0.7923
18121SOL    HW257257   6.188   0.159   1.405  0.6231 -0.1345  0.5275
18122SOL     OW57258   7.449   5.362   4.167  0.2898  0.0597 -0.7286
18122SOL    HW157259   7.537   5.369   4.205  0.9785  1.0853 -2.4190
18122SOL    HW257260   7.456   5.288   4.106 -0.1854 -0.1893 -0.4866
18123SOL     OW57261   7.098   3.018   1.513 -0.0338  0.1335  0.7041
18123SOL    HW157262   7.155   2.981   1.580 -1.5822 -1.3800  1.2541
18123SOL    HW257263   7.010   3.012   1.550 -0.7522  0.8161 -0.7985
18124SOL     OW57264   0.735   7.431   0.543 -0.0071 -0.0514  0.0542
18124SOL    HW157265   0.724   7.347   0.500  1.1037 -0.1561 -0.0652
18124SOL    HW257266   0.788   7.412   0.620 -2.7136 -0.0271  2.0776
18125SOL     OW57267   6.094   5.542   5.615  0.1836  0.3298  0.5775
18125SOL    HW157268   6.114   5.548   5.522 -0.3076  1.2839  0.5218
18125SOL    HW257269   6.018   5.485   5.620 -0.4060  1.0834  0.2965
18126SOL     OW57270   1.184   1.612   3.186 -0.3432  0.2243  0.6371
18126SOL    HW157271   1.278   1.620   3.166 -0.8335  1.3657 -1.4395
18126SOL    HW257272   1.175   1.655   3.272  1.0987 -0.3719  1.1152
18127SOL     OW57273   0.751   3.554   9.701 -0.0372 -0.0017  0.0555
18127SOL    HW157274   0.842   3.578   9.720 -0.3337  0.7888  0.4668
18127SOL    HW257275   0.743   3.465   9.736  0.7771 -0.3605 -0.6208
18128SOL     OW57276   1.648   2.062   2.585 -0.3294 -0.0017 -0.1818
18128SOL    HW157277   1.610   2.064   2.497 -0.2167  1.4366 -0.2192
18128SOL    HW257278   1.574   2.071   2.644 -0.3078 -0.0063 -0.1536
18129SOL     OW57279   6.883   6.765   7.837 -0.0025  0.1257 -0.6269
18129SOL    HW157280   6.855   6.742   7.749  1.4701 -0.9949 -0.8527
18129SOL    HW257281   6.964   6.816   7.824 -0.7357  1.5221  0.0424
18130SOL     OW57282   3.616   1.097   7.732 -0.5171  0.0655 -0.5291
18130SOL    HW157283   3.621   1.026   7.796 -2.4326  0.7137  0.4269
18130SOL    HW257284   3.528   1.089   7.694  0.6186 -0.3864 -3.2357
18131SOL     OW57285   9.790   4.980   9.417 -0.3876  0.0723  0.4228
18131SOL    HW157286   9.782   5.018   9.504 -1.0725  0.8141  0.0512
18131SOL    HW257287   9.848   4.905   9.429  0.3276  0.7465  1.3233
18132SOL     OW57288   4.811   0.671   2.605 -0.1573 -0.1437  0.4189
18132SOL    HW157289   4.896   0.659   2.562 -0.0065 -1.1657  0.9604
18132SOL    HW257290   4.786   0.582   2.633 -1.4596  0.1302  0.1636
18133SOL     OW57291   0.413   6.883  10.473 -0.6633 -0.2458 -0.2684
18133SOL    HW157292   0.431   6.911  10.383 -1.5009 -1.3794 -0.8161
18133SOL    HW257293   0.445   6.954  10.527 -0.9604  0.8706 -1.5107
18134SOL     OW57294   4.827   5.701   9.870  0.1459 -0.1316  0.3962
18134SOL    HW157295   4.821   5.674   9.778  0.9856 -0.8069  0.5274
18134SOL    HW257296   4.743   5.743   9.888 -0.6768 -1.4452 -0.2341
18135SOL     OW57297   1.717   3.738   2.632  0.1557 -0.0410 -0.5180
18135SOL    HW157298   1.776   3.709   2.701 -0.6192  1.2588  0.7541
18135SOL    HW257299   1.710   3.663   2.573  2.0160 -0.6766 -0.0142
18136SOL     OW57300   4.751   1.132   9.719  0.0786  0.1726 -0.0887
18136SOL    HW157301   4.670   1.178   9.694  0.2609 -0.7001 -2.5772
18136SOL    HW257302   4.744   1.047   9.676  1.5585 -0.5845  1.1055
18137SOL     OW57303  10.127   3.740   0.374  0.1786 -0.4038 -0.0512
18137SOL    HW157304  10.143   3.834   0.379  0.8017 -0.4007 -1.5278
18137SOL    HW257305  10.088   3.717   0.458  0.8028  1.0211  0.6487
18138SOL     OW57306   1.051   0.332   1.004  0.1880  0.0005  0.5488
18138SOL    HW157307   1.011   0.396   1.063 -3.7572 -3.1644  1.7518
18138SOL    HW257308   1.093   0.269   1.063  2.4696  0.3917 -0.5293
18139SOL     OW57309   5.459   2.620   4.414 -0.5955  0.4933 -0.3770
18139SOL    HW157310   5.463   2.693   4.352 -1.5229  1.8938  1.1076
18139SOL    HW257311   5.519   2.645   4.484  0.6691 -1.2078 -0.8036
18140SOL     OW57312   5.010   0.958   9.371 -0.0194  0.2635 -0.0584
18140SOL    HW157313   4.938   0.906   9.335  0.3722  0.0176 -0.4850
18140SOL    HW257314   4.993   1.047   9.339 -1.5321  0.7400  1.9046
18141SOL     OW57315   1.007   7.777  10.097  0.2255  0.1995  0.4990
18141SOL    HW157316   1.099   7.786  10.072  0.4054  0.7424  1.3097
18141SOL    HW257317   1.010   7.751  10.189 -0.4094 -1.9803 -0.0513
18142SOL     OW57318   1.637  10.541   3.814  0.1387 -0.3387 -0.0394
18142SOL    HW157319   1.552  10.585   3.814  0.1463 -0.2937  0.8468
18142SOL    HW257320   1.701  10.612   3.804  0.1164 -0.2252  0.5707
18143SOL     OW57321   5.420   4.837   0.374  0.6592  0.2378 -0.1511
18143SOL    HW157322   5.441   4.898   0.303 -1.6644  0.8400 -0.4282
18143SOL    HW257323   5.328   4.856   0.395  0.6537 -1.3913  1.5736
18144SOL     OW57324   5.549  10.621   3.319  0.4966 -0.2288 -0.4660
18144SOL    HW157325   5.622  10.676   3.290 -1.3179  2.1101 -0.8667
18144SOL    HW257326   5.540  10.641   3.413 -1.0517  1.3393 -0.9030
18145SOL     OW57327  10.202   7.606   0.898 -0.0548  0.0279 -0.1875
18145SOL    HW157328  10.192   7.634   0.807 -0.9084  0.4532  0.0349
18145SOL    HW257329  10.117   7.572   0.923  0.2350 -0.2928  0.3889
18146SOL     OW57330   9.478   2.225   4.032 -0.2383  0.2047  0.5711
18146SOL    HW157331   9.522   2.199   4.113 -1.3170  0.8889  1.3863
18146SOL    HW257332   9.422   2.298   4.056 -2.4568 -1.1101 -0.2482
18147SOL     OW57333   7.365   2.199   1.705 -0.2496 -0.0094  0.0773
18147SOL    HW157334   7.392   2.111   1.732  0.7823  0.1460 -0.3942
18147SOL    HW257335   7.431   2.257   1.742  1.7254  0.1623 -3.2581
18148SOL     OW57336   1.689   9.028   2.125 -0.4657  0.4209 -0.1035
18148SOL    HW157337   1.635   9.105   2.107 -1.5657  0.2327  2.0929
18148SOL    HW257338   1.710   8.993   2.038  0.0306  3.1277 -1.1832
18149SOL     OW57339   7.699   8.706   8.278  0.4011  0.1950  0.1096
18149SOL    HW157340   7.790   8.682   8.260  0.0406 -0.0942 -1.4238
18149SOL    HW257341   7.694   8.798   8.255  0.6620  0.6425  1.6984
18150SOL     OW57342   1.607   9.657   5.667 -0.0095  0.3296  0.1364
18150SOL    HW157343   1.584   9.571   5.700 -0.4232  0.7229  0.9156
18150SOL    HW257344   1.523   9.704   5.662  0.0289  0.2601 -1.5652
18151SOL     OW57345  10.293   2.036   3.905 -0.2680 -0.4426  0.2054
18151SOL    HW157346  10.250   1.958   3.939 -1.0468  0.6626  1.8788
18151SOL    HW257347  10.308   2.091   3.982 -0.5335  1.4483 -1.0255
18152SOL     OW57348   1.837   2.407   6.894 -0.0792 -0.2149 -0.0706
18152SOL    HW157349   1.893   2.394   6.971  1.8046 -2.7976 -1.6843
18152SOL    HW257350   1.777   2.332   6.895 -0.2199 -0.1224 -0.9503
18153SOL     OW57351   1.119  10.111   9.256  0.2906  0.6640 -0.8597
18153SOL    HW157352   1.112  10.206   9.246 -2.3602  0.4524 -1.9379
18153SOL    HW257353   1.038  10.086   9.301  2.0698 -0.8884  1.7843
18154SOL     OW57354   9.610   5.952   4.601  0.4453 -0.1713  0.5546
18154SOL    HW157355   9.599   6.027   4.543  0.5057 -1.0921 -0.6778
18154SOL    HW257356   9.545   5.888   4.571 -0.8301  0.0102  2.6941
18155SOL     OW57357   0.083   7.002   1.662 -0.2956 -0.2197 -0.0057
18155SOL    HW157358   0.129   6.950   1.596 -1.8054  0.0470 -1.3513
18155SOL    HW257359   0.039   6.937   1.717 -1.5532 -0.4227 -1.2102
18156SOL     OW57360   9.238   0.466   2.901 -0.2596  0.1354  0.0394
18156SOL    HW157361   9.151   0.479   2.865  0.1447  1.1907 -0.5873
18156SOL    HW257362   9.295   0.459   2.825  0.3634  0.5808  0.4566
18157SOL     OW57363   0.597   1.769   4.835  0.6082  0.4437  0.0564
18157SOL    HW157364   0.691   1.761   4.849  1.1647 -0.4506 -3.2368
18157SOL    HW257365   0.585   1.860   4.806  0.7529  0.1186 -1.0631
18158SOL     OW57366   7.663   2.445  10.654  0.1167 -0.5380  0.4617
18158SOL    HW157367   7.664   2.525  10.706  0.3745  1.1733 -2.0215
18158SOL    HW257368   7.755   2.419  10.648  0.3617  0.5568 -0.9425
18159SOL     OW57369   4.349   6.355  10.592  0.4508  0.2183 -0.0878
18159SOL    HW157370   4.253   6.357  10.586  0.2755 -1.5163  1.3193
18159SOL    HW257371   4.366   6.330  10.683  2.3038  2.4366  0.2547
18160SOL     OW57372   9.729   9.390   4.794  0.1164  0.5950  0.1802
18160SOL    HW157373   9.801   9.392   4.731 -0.8997 -1.9178 -1.2190
18160SOL    HW257374   9.744   9.311   4.845 -0.6167  1.1018  1.2169
18161SOL     OW57375   0.703   9.833   1.844 -0.4818 -0.1963  0.3828
18161SOL    HW157376   0.638   9.778   1.890  0.2126  0.2404  1.9523
18161SOL    HW257377   0.665   9.920   1.845 -0.3700 -0.1462  0.2894
18162SOL     OW57378   6.214   5.089   1.542  0.0349  0.6671  0.1727
18162SOL    HW157379   6.139   5.121   1.491  1.2776 -0.4119 -2.5396
18162SOL    HW257380   6.212   4.994   1.530  1.6471  0.5939  0.3055
18163SOL     OW57381  10.077   8.868   3.076 -0.1831  0.3475 -0.1641
18163SOL    HW157382  10.009   8.935   3.062  0.2415  1.2148  1.5547
18163SOL    HW257383  10.050   8.824   3.157  0.9985  0.3524  0.2547
18164SOL     OW57384   1.366  10.479   3.587 -0.0985 -0.0860  0.0428
18164SOL    HW157385   1.359  10.422   3.664  1.1747  0.6728  0.7493
18164SOL    HW257386   1.275  10.494   3.561 -0.4943 -3.2080 -0.8018
18165SOL     OW57387   1.106   1.221   9.309 -0.4381 -0.1898  0.0845
18165SOL    HW157388   1.186   1.203   9.358 -1.0978 -2.1597  0.5101
18165SOL    HW257389   1.076   1.306   9.343  0.6620 -0.1384  0.9832
18166SOL     OW57390   6.037   3.518   0.327 -0.1528  0.8258 -0.0875
18166SOL    HW157391   6.062   3.582   0.260 -2.4198 -0.7620 -2.6386
18166SOL    HW257392   5.946   3.539   0.348  0.0229  0.2823  1.3427
18167SOL     OW57393   0.592   4.998   7.592  0.3502  0.5650 -0.0605
18167SOL    HW157394   0.627   4.915   7.558  0.7474  1.8726 -3.1837
18167SOL    HW257395   0.504   5.004   7.554  0.6022  1.8550 -0.4882
18168SOL     OW57396   5.133   7.669   2.341  0.1519 -0.0306  0.3675
18168SOL    HW157397   5.040   7.649   2.329 -0.3108  0.6424  2.4287
18168SOL    HW257398   5.151   7.644   2.431  2.2993 -1.1842 -0.3175
18169SOL     OW57399   1.584   4.377   0.776  0.5270 -0.1686  0.7079
18169SOL    HW157400   1.513   4.417   0.825 -0.2021 -1.0445  0.4011
18169SOL    HW257401   1.590   4.430   0.696  0.7428  0.3746  1.0801
18170SOL     OW57402   6.245   4.306   0.304  0.0639 -0.4383  0.0181
18170SOL    HW157403   6.153   4.299   0.331  0.1099 -0.9538  0.0594
18170SOL    HW257404   6.280   4.377   0.357 -0.0825 -0.8471  0.6750
18171SOL     OW57405   8.604   5.028  10.493 -0.1554  0.1398 -0.3976
18171SOL    HW157406   8.669   4.959  10.480 -0.6660 -0.2830 -0.7423
18171SOL    HW257407   8.625   5.066  10.579  1.7772  1.3603 -1.3538
18172SOL     OW57408   6.364   9.810   8.562  0.3016 -0.5493  0.5941
18172SOL    HW157409   6.457   9.811   8.584  0.5219 -2.5480 -0.0344
18172SOL    HW257410   6.327   9.882   8.611  2.0068 -0.3891  1.7228
18173SOL     OW57411   4.058   7.698   7.095 -0.4933  0.5316 -0.3547
18173SOL    HW157412   3.991   7.632   7.081 -1.0894  1.1840 -0.6665
18173SOL    HW257413   4.102   7.707   7.010  0.0595  0.0415 -0.1288
18174SOL     OW57414   9.522   4.784   6.826  0.3256 -0.8441 -0.5248
18174SOL    HW157415   9.486   4.818   6.744  0.2338 -1.8574 -0.9132
18174SOL    HW257416   9.582   4.853   6.855 -1.1967  0.4532 -0.3452
18175SOL     OW57417   4.424   3.559   7.328  0.0312 -0.0910  0.1607
18175SOL    HW157418   4.361   3.534   7.395 -0.3828  1.4781  0.4021
18175SOL    HW257419   4.385   3.530   7.246 -1.4262  1.5102  0.2283
18176SOL     OW57420   4.543   1.037   4.529 -0.8515  0.5295 -0.1016
18176SOL    HW157421   4.530   1.126   4.561  2.1407  1.4320 -1.0733
18176SOL    HW257422   4.635   1.017   4.549 -1.4905 -2.4771  0.3324
18177SOL     OW57423   7.388   8.032   4.889  0.1884 -0.0154  0.1351
18177SOL    HW157424   7.397   8.114   4.840  1.6411 -0.0447  0.3147
18177SOL    HW257425   7.444   8.043   4.966 -2.0079  0.0191  1.8610
18178SOL     OW57426   8.793  10.781   3.398  0.2382  0.1925 -0.3279
18178SOL    HW157427   8.886  10.783   3.421  0.3406  0.9834 -0.7599
18178SOL    HW257428   8.775  10.868   3.362 -0.5531 -0.1141 -0.7149
18179SOL     OW57429   3.400   7.973   3.312 -0.5314  0.1289  0.3804
18179SOL    HW157430   3.406   8.059   3.353 -2.0008  0.5975 -0.2973
18179SOL    HW257431   3.365   7.916   3.381 -0.5275  0.3182  0.5393
18180SOL     OW57432  10.126   1.658  10.471 -0.6652  0.1141 -0.1896
18180SOL    HW157433  10.122   1.563  10.460 -0.9978 -0.3677  3.0100
18180SOL    HW257434  10.036   1.684  10.491 -0.1775  0.6042  1.5927
18181SOL     OW57435   3.695   4.726   6.203 -0.0303 -0.2862 -0.0964
18181SOL    HW157436   3.759   4.656   6.198  0.1568 -0.2552  1.5481
18181SOL    HW257437   3.624   4.691   6.257 -0.1217  0.6313  0.4062
18182SOL     OW57438   2.490   5.770   1.161 -0.3182  0.6470  0.4676
18182SOL    HW157439   2.418   5.740   1.106 -0.7193  0.9835  0.8016
18182SOL    HW257440   2.555   5.700   1.156 -0.1580  0.8583 -0.7849
18183SOL     OW57441   1.253   6.423   4.404  0.1983  0.0734  0.3830
18183SOL    HW157442   1.243   6.329   4.391 -0.2682  0.1936 -0.1398
18183SOL    HW257443   1.177   6.448   4.457 -1.5265  0.7005 -2.1991
18184SOL     OW57444   6.575   8.940   3.246 -0.0555  0.2029 -0.3452
18184SOL    HW157445   6.631   9.007   3.283  1.0260 -1.0131  0.2964
18184SOL    HW257446   6.631   8.863   3.237 -1.6894 -1.2076  0.7354
18185SOL     OW57447   8.847  10.132   8.593  0.3651 -0.2281  0.2407
18185SOL    HW157448   8.774  10.193   8.602  0.2704  0.0179 -1.6953
18185SOL    HW257449   8.917  10.170   8.645  0.4622  1.8423 -1.2662
18186SOL     OW57450   1.191   8.225   5.455  0.2562  0.3528  0.7912
18186SOL    HW157451   1.113   8.225   5.510  1.3316  2.3079  2.4326
18186SOL    HW257452   1.159   8.244   5.367 -1.3570 -1.5707  0.9013
18187SOL     OW57453   5.979   9.859   5.884  0.3363  0.4043  0.1725
18187SOL    HW157454   6.060   9.842   5.836  0.5074 -0.8381  0.8561
18187SOL    HW257455   5.965   9.953   5.876  1.2356  0.4637 -0.9067
18188SOL     OW57456   3.185   4.165   1.098  0.3575 -0.6388 -0.0164
18188SOL    HW157457   3.148   4.085   1.135  1.1062 -1.5223 -1.0861
18188SOL    HW257458   3.193   4.225   1.172 -1.7888 -0.9315  0.5131
18189SOL     OW57459   0.658   2.056   3.247  0.5242 -0.1962  0.0686
18189SOL    HW157460   0.606   2.022   3.320  2.0298 -1.0467  0.8158
18189SOL    HW257461   0.611   2.133   3.217 -0.9390 -0.7174  0.9395
18190SOL     OW57462   3.971  10.796   0.738 -0.1194  0.4624 -0.5397
18190SOL    HW157463   4.052  10.792   0.686 -0.4871 -1.6511 -1.0528
18190SOL    HW257464   3.961  10.707   0.772 -1.9778  0.8136 -0.1034
18191SOL     OW57465   2.657   6.165   1.578  0.0175 -0.2575  0.6971
18191SOL    HW157466   2.695   6.145   1.663 -0.3105 -2.5472  0.3603
18191SOL    HW257467   2.567   6.133   1.582  0.0235 -0.4961 -0.5179
18192SOL     OW57468   2.311   5.043   2.343 -0.3510  0.6962 -0.2856
18192SOL    HW157469   2.268   5.022   2.425  1.5756 -1.1689  0.3348
18192SOL    HW257470   2.401   5.061   2.367  0.3019 -0.0881 -1.9869
18193SOL     OW57471   5.043   0.721   4.423 -0.1387 -0.2849  0.2397
18193SOL    HW157472   5.119   0.665   4.440  0.9774  0.0627 -2.9481
18193SOL    HW257473   5.068   0.805   4.462  1.1587 -0.1961 -0.6867
18194SOL     OW57474   5.777   8.273   3.030 -0.1882  0.3097 -0.2130
18194SOL    HW157475   5.769   8.363   3.061  2.5306  1.1272 -1.5424
18194SOL    HW257476   5.730   8.272   2.947 -3.4821 -0.6483  1.4741
18195SOL     OW57477   1.513   2.434   4.089 -0.5392 -0.3670  0.3883
18195SOL    HW157478   1.506   2.458   4.182  3.3212  0.1967  0.7239
18195SOL    HW257479   1.594   2.476   4.060 -1.2692 -1.0729 -3.1208
18196SOL     OW57480   7.735   1.200   9.291  0.1638  0.0981 -0.4326
18196SOL    HW157481   7.783   1.251   9.357  0.4704  1.2622 -1.5170
18196SOL    HW257482   7.643   1.207   9.318  0.2570  0.8002 -0.2741
18197SOL     OW57483   6.319   9.293   6.488 -0.0002 -0.1095 -0.0561
18197SOL    HW157484   6.346   9.226   6.551 -0.4378  0.5739  0.8958
18197SOL    HW257485   6.241   9.257   6.445  0.4239 -0.6680 -0.3638
18198SOL     OW57486   9.425   7.268  10.066 -0.1774  0.6570  0.4077
18198SOL    HW157487   9.499   7.243  10.120  0.1606  1.5890  0.3894
18198SOL    HW257488   9.369   7.321  10.124  0.7577  2.6567 -0.4156
18199SOL     OW57489   3.301  10.740   5.150 -0.3461  0.6957 -0.3788
18199SOL    HW157490   3.233  10.705   5.093  0.0445 -0.5138 -0.1255
18199SOL    HW257491   3.276  10.711   5.238 -0.2903  1.5171 -0.0790
18200SOL     OW57492   6.000  10.417   3.228  0.1900  0.5650 -0.0649
18200SOL    HW157493   6.046  10.464   3.297  0.1468 -0.7378  0.9005
18200SOL    HW257494   5.918  10.388   3.269  0.1835 -0.2795 -0.6422
18201SOL     OW57495   6.307   8.235   2.532 -0.1786  0.3145 -0.3737
18201SOL    HW157496   6.212   8.218   2.531 -0.1616  0.1898 -0.1001
18201SOL    HW257497   6.332   8.237   2.439 -0.3076 -0.4989 -0.4413
18202SOL     OW57498   0.971   4.087   0.964 -0.0846 -0.0735 -0.3463
18202SOL    HW157499   0.971   4.070   0.869  1.0610 -1.9034 -0.0768
18202SOL    HW257500   0.891   4.045   0.996 -0.2539  0.1763 -0.4367
18203SOL     OW57501   1.929   6.960   8.493  0.5294 -0.1788  0.1900
18203SOL    HW157502   1.945   6.977   8.586 -0.3158 -0.0845  0.3302
18203SOL    HW257503   1.933   7.046   8.452  0.1098 -0.1152  0.2748
18204SOL     OW57504   5.567   4.693  10.531 -0.0154  0.4884  0.0347
18204SOL    HW157505   5.536   4.702  10.621 -0.3961  1.4323 -0.1756
18204SOL    HW257506   5.501   4.739  10.478  0.5232  0.4772 -0.6648
18205SOL     OW57507   4.696   1.379   7.817  0.1830  0.9587 -0.0554
18205SOL    HW157508   4.726   1.293   7.847 -1.8104  0.0374 -0.5531
18205SOL    HW257509   4.743   1.394   7.735 -0.6371 -0.4258 -0.8074
18206SOL     OW57510   7.960   5.876   6.226 -0.9005  0.7262  0.0424
18206SOL    HW157511   8.015   5.955   6.220 -0.7504  0.6985  0.8586
18206SOL    HW257512   7.894   5.899   6.291 -1.0697  0.2971  0.0203
18207SOL     OW57513   1.748   9.983   8.256  0.4792  0.4005 -0.5290
18207SOL    HW157514   1.724  10.074   8.270  1.0632  0.3858  0.7328
18207SOL    HW257515   1.763   9.949   8.344 -0.8776 -1.2512 -0.8839
18208SOL     OW57516   8.576   8.256   5.866  0.0307 -0.1617 -0.1356
18208SOL    HW157517   8.567   8.236   5.959 -1.8891  0.9496 -0.0373
18208SOL    HW257518   8.637   8.330   5.864 -0.0880 -0.0501  0.2603
18209SOL     OW57519   0.788   7.219   4.445 -0.1912  0.4269 -0.0385
18209SOL    HW157520   0.719   7.231   4.380  1.4669  0.6585 -1.8410
18209SOL    HW257521   0.836   7.302   4.444  0.0745  0.3067  1.2555
18210SOL     OW57522   7.199   7.646   2.658  0.2040  0.0143 -0.1442
18210SOL    HW157523   7.288   7.636   2.624  0.8454  1.2250  1.0822
18210SOL    HW257524   7.153   7.567   2.630  1.8459 -0.9349 -0.2463
18211SOL     OW57525   9.400   1.709  10.474  0.5676 -0.1340 -0.5284
18211SOL    HW157526   9.319   1.754  10.450  2.3113  2.2285 -2.4467
18211SOL    HW257527   9.395   1.700  10.569 -1.1831  1.5541 -0.3945
18212SOL     OW57528  10.275   5.736   4.830 -0.8312  0.0055 -0.3256
18212SOL    HW157529  10.183   5.756   4.818 -1.0428 -0.4068  0.5600
18212SOL    HW257530  10.299   5.684   4.753 -1.3367  0.1034 -0.5522
18213SOL     OW57531   7.137   1.443   9.192 -0.1405 -0.2143 -0.2170
18213SOL    HW157532   7.072   1.394   9.243  1.1371 -1.6841  0.0689
18213SOL    HW257533   7.192   1.485   9.257 -1.4397  2.0251 -0.4581
18214SOL     OW57534   3.543   0.536   3.866 -0.1669 -0.1515  0.1798
18214SOL    HW157535   3.618   0.596   3.872  0.7399 -0.8596 -2.5888
18214SOL    HW257536   3.579   0.451   3.889 -0.2022 -0.4177 -0.7155
18215SOL     OW57537   2.141  10.230   9.550 -0.0966  0.3865  0.5799
18215SOL    HW157538   2.160  10.139   9.529  1.0297  0.8005 -0.3291
18215SOL    HW257539   2.094  10.227   9.633 -1.4507 -1.1046 -0.2028
18216SOL     OW57540  10.059   8.522   4.421  0.1767 -0.3919 -0.7680
18216SOL    HW157541  10.040   8.428   4.423  0.2290 -0.4014  0.6691
18216SOL    HW257542   9.976   8.563   4.448  0.4256 -0.0874 -0.4575
18217SOL     OW57543   2.324   7.667   6.504  0.0607  0.5826 -0.6874
18217SOL    HW157544   2.404   7.640   6.549 -0.7179 -2.7755 -1.0904
18217SOL    HW257545   2.349   7.676   6.412  0.4318  1.9633 -0.4815
18218SOL     OW57546   7.376   9.269  10.039 -0.5847 -0.5227  0.4623
18218SOL    HW157547   7.313   9.236   9.976  0.4146 -0.2701 -0.7016
18218SOL    HW257548   7.323   9.308  10.109 -1.7048 -1.1748 -0.0116
18219SOL     OW57549   8.536   1.589   8.804 -0.8738 -0.2154 -0.5988
18219SOL    HW157550   8.501   1.526   8.868 -0.9891  0.3144 -0.1263
18219SOL    HW257551   8.552   1.668   8.856  1.6945 -0.6323 -0.6460
18220SOL     OW57552   1.656   2.262   3.197  0.7012  0.5026 -0.0363
18220SOL    HW157553   1.723   2.269   3.265 -0.8892 -0.6978  1.7699
18220SOL    HW257554   1.579   2.304   3.236  0.2445  1.4503 -1.8719
18221SOL     OW57555   5.841   6.487   0.073  0.5018 -0.3713  0.1887
18221SOL    HW157556   5.867   6.426   0.004 -0.2706 -1.3053  0.6908
18221SOL    HW257557   5.834   6.432   0.151  2.4463  0.8598  1.2881
18222SOL     OW57558   3.814   2.122   1.699  0.0833  0.3661  0.0003
18222SOL    HW157559   3.788   2.183   1.767 -0.8749  0.8140 -0.7555
18222SOL    HW257560   3.811   2.036   1.742  0.2751  0.7205  0.7367
18223SOL     OW57561   4.690   3.211   5.649  0.4699  0.3678  0.7948
18223SOL    HW157562   4.644   3.285   5.609  0.7736  0.6575  0.9758
18223SOL    HW257563   4.641   3.192   5.729 -0.0526 -0.1174  0.3654
18224SOL     OW57564   6.970   4.628   6.475 -0.6008 -0.7323  0.0483
18224SOL    HW157565   7.044   4.682   6.503  0.6307 -2.2056 -0.2650
18224SOL    HW257566   6.894   4.667   6.519  0.1782  1.4166 -0.4094
18225SOL     OW57567   1.318   9.497   7.496 -0.3583 -0.5698  0.8164
18225SOL    HW157568   1.320   9.444   7.576 -0.2752 -1.5105  0.2039
18225SOL    HW257569   1.275   9.441   7.431  0.5461 -0.2318 -0.0984
18226SOL     OW57570   8.290   9.572   0.762 -0.0396 -0.6150  0.4114
18226SOL    HW157571   8.321   9.540   0.678 -0.0700 -0.2236  0.2489
18226SOL    HW257572   8.250   9.657   0.743  1.6380  0.3810  1.0813
18227SOL     OW57573   9.883   2.181   5.001 -0.6359  0.3678 -0.2289
18227SOL    HW157574   9.851   2.210   5.086  0.0658 -0.0218  0.1800
18227SOL    HW257575   9.910   2.090   5.015  0.0556  0.4873 -0.7145
18228SOL     OW57576   9.429   2.001   8.186  0.4155 -0.0794 -0.0711
18228SOL    HW157577   9.476   2.084   8.188 -1.3985  0.9871  1.0233
18228SOL    HW257578   9.452   1.962   8.101  2.1460  0.9969 -0.1397
18229SOL     OW57579   3.638   4.155   8.947 -0.1439 -0.5808  0.6152
18229SOL    HW157580   3.705   4.188   9.007  0.3699  1.0345 -0.7566
18229SOL    HW257581   3.674   4.173   8.860 -0.9621 -2.6325 -0.1896
18230SOL     OW57582   8.487   1.585   4.644  0.2578 -0.4784 -0.5492
18230SOL    HW157583   8.478   1.497   4.608 -2.1681 -0.1567 -0.9130
18230SOL    HW257584   8.579   1.591   4.669  1.0679 -2.2580 -2.6811
18231SOL     OW57585   0.563   3.486   9.308  0.3735  0.0152 -0.3214
18231SOL    HW157586   0.509   3.408   9.323  1.5251 -0.8030 -0.2120
18231SOL    HW257587   0.639   3.453   9.261  3.5840 -0.0997  4.2386
18232SOL     OW57588   2.501   5.560   1.609 -0.0185  0.1142 -0.1321
18232SOL    HW157589   2.581   5.613   1.616  1.2172 -1.6116 -0.5239
18232SOL    HW257590   2.473   5.547   1.699  3.0760 -3.3968  0.5578
18233SOL     OW57591   1.473  10.720   2.046 -0.3174  0.4338 -0.2221
18233SOL    HW157592   1.446  10.667   2.121  0.4085 -0.2090 -0.4015
18233SOL    HW257593   1.483  10.809   2.082 -2.2490  0.6354 -0.0777
18234SOL     OW57594   4.971   8.603   7.184  0.0479  0.0119 -0.1513
18234SOL    HW157595   5.025   8.667   7.138  1.8386 -0.1736  1.5580
18234SOL    HW257596   4.972   8.632   7.276 -1.1085 -1.1218  0.2519
18235SOL     OW57597   3.797   5.334   7.128  0.1777  0.2439  1.0784
18235SOL    HW157598   3.714   5.340   7.176  0.0255 -0.6145  0.9387
18235SOL    HW257599   3.779   5.273   7.057  0.7087  0.6722  0.5657
18236SOL     OW57600   7.207   9.740   5.873  0.4079 -0.0677 -0.1572
18236SOL    HW157601   7.153   9.814   5.844  1.2470  0.1877 -1.1509
18236SOL    HW257602   7.211   9.748   5.968 -0.7383  0.2919 -0.1267
18237SOL     OW57603  10.193   6.046   4.177 -0.0542 -0.1566  0.1618
18237SOL    HW157604  10.120   6.090   4.222  0.1839 -1.1227  1.5582
18237SOL    HW257605  10.271   6.092   4.207  0.0352 -0.1620 -0.0602
18238SOL     OW57606   4.108   0.934   4.760 -0.6432  0.3060  0.1937
18238SOL    HW157607   4.149   0.862   4.712 -1.2550 -0.3086  0.5704
18238SOL    HW257608   4.175   1.003   4.763  1.1759 -1.3709  2.5233
18239SOL     OW57609   9.401   2.639   3.051 -0.3033 -0.3476  0.0373
18239SOL    HW157610   9.318   2.684   3.066  0.2810  0.8440 -0.1475
18239SOL    HW257611   9.399   2.614   2.958 -1.3111 -2.1986  0.5171
18240SOL     OW57612   6.351   2.475   1.235  0.0924  0.3007 -0.4563
18240SOL    HW157613   6.283   2.542   1.245  0.1451  0.5030 -1.3290
18240SOL    HW257614   6.430   2.515   1.272 -0.3337 -0.0831  0.9127
18241SOL     OW57615   0.428   3.140  10.435 -0.5897 -0.1205 -0.0819
18241SOL    HW157616   0.355   3.109  10.380  0.3363  1.6757 -2.5032
18241SOL    HW257617   0.457   3.062  10.481 -3.4661 -1.0811  0.3286
18242SOL     OW57618   1.403   3.370   9.098 -0.4694 -0.3767  0.4785
18242SOL    HW157619   1.486   3.417   9.089  0.9196 -2.7639  0.1666
18242SOL    HW257620   1.386   3.335   9.011 -2.9980  1.7943 -0.0434
18243SOL     OW57621   6.665   1.493   3.133  0.7742  0.0106 -0.2699
18243SOL    HW157622   6.643   1.509   3.041  0.2145  2.9642  0.2691
18243SOL    HW257623   6.758   1.470   3.131  1.1599  1.4803 -1.5092
18244SOL     OW57624   8.233   0.217   7.369  0.1684  0.0522  0.0197
18244SOL    HW157625   8.286   0.270   7.429 -0.8954  0.3447  0.7211
18244SOL    HW257626   8.146   0.215   7.408 -0.1241 -1.2130 -0.6210
18245SOL     OW57627   6.508   3.708   1.445 -0.1105  0.1464 -0.7590
18245SOL    HW157628   6.498   3.755   1.362 -1.7378  2.4255  0.5946
18245SOL    HW257629   6.598   3.726   1.472 -0.3209  1.5193 -0.8912
18246SOL     OW57630   7.674   9.412   5.342  0.5015 -0.0999 -0.2546
18246SOL    HW157631   7.644   9.354   5.411 -1.3246  0.0325 -0.8914
18246SOL    HW257632   7.743   9.362   5.297  0.7541 -0.7174  0.7891
18247SOL     OW57633   3.048   6.697   0.604 -0.1296  0.5436  0.7019
18247SOL    HW157634   2.966   6.745   0.615 -0.0003  1.0640 -0.4131
18247SOL    HW257635   3.114   6.765   0.587  0.7923  0.2368  2.7642
18248SOL     OW57636   7.170  10.026   2.468  0.5378  0.9606  0.0640
18248SOL    HW157637   7.262  10.005   2.458  0.9751  2.4040  0.7972
18248SOL    HW257638   7.168  10.103   2.525 -1.0390  1.7186 -0.9175
18249SOL     OW57639   9.184   2.063   9.041  0.3424 -0.1043 -0.1269
18249SOL    HW157640   9.117   2.084   8.975 -0.6581  0.4692  1.0334
18249SOL    HW257641   9.260   2.037   8.990 -0.2244  0.8606 -1.5214
18250SOL     OW57642   2.379   2.301   8.496  0.2717 -0.2927 -0.6837
18250SOL    HW157643   2.339   2.308   8.409 -0.3412 -0.4805 -0.4174
18250SOL    HW257644   2.312   2.334   8.556  1.1314  1.0057 -0.3827
18251SOL     OW57645   0.705   2.967   0.056  0.8699 -0.3222  0.0449
18251SOL    HW157646   0.615   2.997   0.072  1.3008  0.8801  0.2570
18251SOL    HW257647   0.704   2.875   0.084 -0.5616 -0.6469 -0.9323
18252SOL     OW57648   4.079   8.801   7.997 -0.2212 -0.1475  0.4873
18252SOL    HW157649   4.154   8.754   7.960 -0.2577  0.2171 -0.0530
18252SOL    HW257650   4.116   8.854   8.067  0.1099  0.4176 -0.1092
18253SOL     OW57651   0.351   6.569   7.929 -0.1895  0.0104  0.0201
18253SOL    HW157652   0.383   6.600   7.845 -0.9575  0.2405 -0.1964
18253SOL    HW257653   0.415   6.601   7.993  0.4816 -0.3072 -0.4831
18254SOL     OW57654   3.653   8.079   5.381 -0.4145 -0.8870 -0.0391
18254SOL    HW157655   3.586   8.113   5.321 -1.3406 -1.7298  0.5000
18254SOL    HW257656   3.728   8.138   5.368 -1.3997  0.3423 -0.3356
18255SOL     OW57657   7.951   3.609   5.722  0.2074 -0.2676  0.6132
18255SOL    HW157658   8.002   3.620   5.802  0.7668  0.1463  0.2137
18255SOL    HW257659   7.876   3.668   5.733 -0.1893 -0.8694  1.1982
18256SOL     OW57660   6.230   2.351   6.141 -0.1626 -0.8923  0.0224
18256SOL    HW157661   6.251   2.409   6.068 -1.3336  0.3477  0.6128
18256SOL    HW257662   6.134   2.347   6.142 -0.1280 -1.8842  0.7284
18257SOL     OW57663   4.592   9.966   4.116  0.4689  0.1358  0.3207
18257SOL    HW157664   4.631  10.050   4.141  2.0832 -0.6062  0.3731
18257SOL    HW257665   4.576   9.921   4.198 -0.3346  0.3378  0.2880
18258SOL     OW57666   7.449   5.311   6.731  0.3651  0.2073  0.6962
18258SOL    HW157667   7.373   5.289   6.785 -0.2836 -1.0750 -0.6569
18258SOL    HW257668   7.415   5.374   6.667  0.4641 -0.2654  0.1727
18259SOL     OW57669   0.778   1.541   7.546 -0.3768  0.2346 -0.2245
18259SOL    HW157670   0.686   1.563   7.532  0.0002  1.2029 -1.3956
18259SOL    HW257671   0.810   1.517   7.459  0.5519  0.2303  0.1092
18260SOL     OW57672   2.542   0.818   4.831  0.3506 -0.3118 -0.3129
18260SOL    HW157673   2.581   0.742   4.788 -0.8134  0.8175 -3.7795
18260SOL    HW257674   2.467   0.840   4.775  0.7806  3.4790  0.3480
18261SOL     OW57675   5.849   9.565   9.204 -0.3328  0.2200 -0.0315
18261SOL    HW157676   5.763   9.591   9.171 -0.6486 -3.6120 -2.9185
18261SOL    HW257677   5.832   9.535   9.293 -1.6697  0.9336 -0.0137
18262SOL     OW57678   9.777   7.615   8.312 -0.7732 -0.5845 -0.0539
18262SOL    HW157679   9.705   7.621   8.375 -1.3817 -2.8593 -0.4450
18262SOL    HW257680   9.850   7.578   8.362 -0.3245  0.3245 -0.0189
18263SOL     OW57681   5.198   2.280   0.467  0.1619 -0.2475  0.4966
18263SOL    HW157682   5.274   2.243   0.422 -0.0612  1.0635 -1.0585
18263SOL    HW257683   5.218   2.373   0.475 -0.0540 -0.3315  2.7303
18264SOL     OW57684  10.520   0.773  10.256  0.3866  0.0205 -0.3869
18264SOL    HW157685  10.452   0.798  10.319  0.6239  0.6146 -0.3626
18264SOL    HW257686  10.475   0.770  10.172 -0.0198 -1.1426 -0.1480
18265SOL     OW57687  10.778   7.050   7.965  0.6824  0.2006  0.0992
18265SOL    HW157688  10.703   6.992   7.959  0.8184  0.0477 -0.1599
18265SOL    HW257689  10.839   7.005   8.023  0.1465  0.8071  1.1555
18266SOL     OW57690   7.000   5.144   4.806  0.7532  0.2855  0.0475
18266SOL    HW157691   7.086   5.132   4.845  1.0385  1.4881 -0.1655
18266SOL    HW257692   7.013   5.130   4.712  0.9200  1.3548 -0.0989
18267SOL     OW57693   5.513  10.198   3.515  0.0355 -0.2070  0.2425
18267SOL    HW157694   5.547  10.124   3.566 -2.4126 -0.9741  0.9014
18267SOL    HW257695   5.512  10.271   3.577  0.9831 -0.0152  0.0453
18268SOL     OW57696   5.958  10.106   3.612  0.2204 -0.7800 -0.3378
18268SOL    HW157697   6.036  10.053   3.621  0.6432 -0.4144 -1.6432
18268SOL    HW257698   5.962  10.142   3.523 -0.2773  1.0604  0.3185
18269SOL     OW57699   1.458   9.662   3.220  0.0206  0.2038  0.7011
18269SOL    HW157700   1.510   9.617   3.286 -1.4300 -1.8637  0.5171
18269SOL    HW257701   1.381   9.692   3.267  0.2956  1.2653  0.5060
18270SOL     OW57702   5.519   5.820   7.912  0.0541 -0.5607 -0.1977
18270SOL    HW157703   5.449   5.875   7.876 -0.3203 -0.7629  0.2125
18270SOL    HW257704   5.544   5.863   7.993 -0.5778 -1.2523  0.3716
18271SOL     OW57705   6.649   4.479   1.416 -0.0478  0.5720 -0.4365
18271SOL    HW157706   6.650   4.536   1.339  2.7724  1.6398  0.2384
18271SOL    HW257707   6.558   4.479   1.446 -1.1610  0.3827 -3.5216
18272SOL     OW57708   8.434   4.326   3.712 -0.2958  0.6859  0.7114
18272SOL    HW157709   8.471   4.403   3.669 -3.3395  1.2065 -1.3063
18272SOL    HW257710   8.384   4.362   3.785 -2.0314  0.7717 -0.4565
18273SOL     OW57711   9.743   8.104   9.937  0.4309 -0.5292 -0.1434
18273SOL    HW157712   9.758   8.076  10.027 -0.8098  0.4958  0.4185
18273SOL    HW257713   9.648   8.103   9.927  0.3116  2.3561 -0.3641
18274SOL     OW57714  10.164   3.138   4.056  0.1484  0.7145  0.5977
18274SOL    HW157715  10.238   3.128   4.116 -0.0026  1.4016  0.9093
18274SOL    HW257716  10.155   3.053   4.014 -0.9968 -0.4482  3.0126
18275SOL     OW57717   4.481   7.559   1.399  0.2606  0.3109 -0.0533
18275SOL    HW157718   4.390   7.581   1.421  0.1509 -0.4642  0.2913
18275SOL    HW257719   4.497   7.476   1.444  1.5604  1.0866  1.0054
18276SOL     OW57720   7.409   8.112   6.626 -0.6759  0.3903 -0.1785
18276SOL    HW157721   7.403   8.020   6.598  0.5129 -0.2171  1.3575
18276SOL    HW257722   7.332   8.154   6.589 -2.0114 -1.5544  0.2033
18277SOL     OW57723   0.685   5.454   7.338 -0.3220 -0.0907 -0.4054
18277SOL    HW157724   0.664   5.528   7.395 -1.0269  1.7996 -2.9413
18277SOL    HW257725   0.768   5.479   7.297 -0.0629 -1.1927 -0.5844
18278SOL     OW57726   5.421   5.757   7.539 -0.0592 -0.1168 -0.0547
18278SOL    HW157727   5.512   5.772   7.563 -0.6212  1.9786  0.9928
18278SOL    HW257728   5.402   5.824   7.472 -1.2268  0.5314  0.8813
18279SOL     OW57729   2.920   7.915   1.387  0.3054 -0.5435 -0.5026
18279SOL    HW157730   2.937   7.822   1.401 -0.6984 -0.6275  0.3048
18279SOL    HW257731   2.909   7.924   1.293 -2.7688 -1.8774 -0.4022
18280SOL     OW57732   3.773   1.717   1.105  0.5308 -0.0737  0.3305
18280SOL    HW157733   3.713   1.675   1.167 -0.0576 -2.3686 -1.6164
18280SOL    HW257734   3.720   1.783   1.061  0.9459  1.5552  2.1440
18281SOL     OW57735   6.569   8.562   2.392  0.3733  0.4936  0.3329
18281SOL    HW157736   6.636   8.613   2.347  0.6027  1.2626  1.5032
18281SOL    HW257737   6.619   8.492   2.435  0.3826  0.8536  0.9082
18282SOL     OW57738   2.843   7.724   5.397  0.7656  0.2721 -0.0736
18282SOL    HW157739   2.873   7.803   5.442 -0.7755 -0.1288  1.7822
18282SOL    HW257740   2.876   7.652   5.451 -0.3257 -0.2501 -0.0924
18283SOL     OW57741   6.269   2.998   5.320 -0.4173 -0.3509 -0.2744
18283SOL    HW157742   6.350   2.961   5.285 -0.3184 -0.8832  0.4836
18283SOL    HW257743   6.255   2.951   5.403 -1.7321 -0.5966 -0.6006
18284SOL     OW57744   9.664   7.325   9.684  0.3041 -0.2220 -0.1008
18284SOL    HW157745   9.757   7.303   9.676  0.3048  0.0867 -1.1311
18284SOL    HW257746   9.619   7.253   9.638  0.1479  0.4853 -1.0848
18285SOL     OW57747  10.688   0.407   0.754  0.5893 -0.0305  0.0646
18285SOL    HW157748  10.741   0.349   0.808  0.9850 -0.5495 -0.8538
18285SOL    HW257749  10.610   0.356   0.732  0.0558  0.4611  0.7910
18286SOL     OW57750   0.814   2.205   5.961  0.0683 -0.2530 -0.0883
18286SOL    HW157751   0.746   2.203   6.027  0.3825 -0.8267  0.2219
18286SOL    HW257752   0.797   2.129   5.906  0.5109 -0.4501  0.0455
18287SOL     OW57753   4.799   2.771   4.345  0.2385 -0.6277  0.1401
18287SOL    HW157754   4.769   2.684   4.374  1.7749 -0.7562  1.5104
18287SOL    HW257755   4.836   2.810   4.424  1.2700  0.5396 -0.8890
18288SOL     OW57756   4.301   5.181   0.886 -0.3618  0.2142 -0.1687
18288SOL    HW157757   4.395   5.182   0.867 -0.1399 -1.6832  0.6944
18288SOL    HW257758   4.295   5.158   0.978 -1.6911 -3.4745 -1.0002
18289SOL     OW57759   9.988   1.496   6.800 -0.3741  0.1987  0.0924
18289SOL    HW157760   9.906   1.545   6.796  0.0352  1.0105  1.0714
18289SOL    HW257761   9.964   1.413   6.842 -0.5285  0.8868  1.4479
18290SOL     OW57762   9.619   0.839   2.522 -0.9394 -0.1794 -0.3318
18290SOL    HW157763   9.595   0.882   2.439 -0.4195  2.2375  0.6909
18290SOL    HW257764   9.618   0.745   2.501 -0.4150  0.3484 -3.1811
18291SOL     OW57765   0.366   1.520   4.088 -0.7566 -0.2119  0.3862
18291SOL    HW157766   0.274   1.505   4.112 -0.1444 -0.7089  2.7396
18291SOL    HW257767   0.363   1.590   4.024 -2.8007 -0.3768  0.2379
18292SOL     OW57768   7.866  10.061   0.879 -0.3103 -0.5577  0.3923
18292SOL    HW157769   7.957  10.080   0.903  0.3713  0.7859 -2.8070
18292SOL    HW257770   7.859   9.966   0.887  0.5970 -0.4890  2.9630
18293SOL     OW57771   6.675   6.109   6.716  0.2381  0.2361 -0.2195
18293SOL    HW157772   6.614   6.181   6.734 -0.4872  0.1255 -2.0146
18293SOL    HW257773   6.688   6.068   6.801 -1.3985  0.8945  0.4073
18294SOL     OW57774   5.216   7.778   7.572  0.2373 -0.0911  0.5909
18294SOL    HW157775   5.297   7.828   7.579  0.3071 -0.1599  0.2526
18294SOL    HW257776   5.210   7.731   7.656  0.0045  0.7301  1.0440
18295SOL     OW57777   7.064   6.327   2.990  0.2652  0.2121 -0.0500
18295SOL    HW157778   7.135   6.262   3.001 -1.1939 -1.0798  3.1228
18295SOL    HW257779   7.014   6.296   2.915  0.2835 -1.7699  0.6900
18296SOL     OW57780   4.615   9.517   5.508 -0.1149 -0.3928  0.1865
18296SOL    HW157781   4.709   9.536   5.513 -0.1616 -0.4937  1.5882
18296SOL    HW257782   4.609   9.423   5.529 -0.6759  0.0139  1.9853
18297SOL     OW57783   9.924   6.384   6.014  0.7304 -0.3914  0.3333
18297SOL    HW157784   9.914   6.315   5.948 -0.4342  1.8337 -2.0081
18297SOL    HW257785   9.993   6.441   5.979 -0.1054  1.0005  0.8628
18298SOL     OW57786   6.838   7.685   0.783 -0.1747  0.2742  0.7234
18298SOL    HW157787   6.762   7.740   0.804  0.5217  0.9200  1.6723
18298SOL    HW257788   6.908   7.748   0.768 -0.3662 -0.1546 -2.8530
18299SOL     OW57789   6.836   2.348   2.237  0.4614  0.1548 -0.3667
18299SOL    HW157790   6.778   2.400   2.181 -0.0445  0.9057  0.8229
18299SOL    HW257791   6.826   2.258   2.206 -0.6098  0.4079 -0.7831
18300SOL     OW57792   8.630   2.722   7.174  0.1659 -0.3165  0.1729
18300SOL    HW157793   8.628   2.811   7.210  1.7204 -0.6446  1.1619
18300SOL    HW257794   8.676   2.671   7.240  0.5803 -1.5551 -1.0437
18301SOL     OW57795   7.593   0.993   5.062 -0.3335  0.2110  0.0368
18301SOL    HW157796   7.528   0.951   5.118  0.7068 -0.5317  0.7239
18301SOL    HW257797   7.561   1.082   5.050 -0.7375  0.3034  1.5864
18302SOL     OW57798   6.228   7.764  10.225 -0.8743 -0.1527  0.3212
18302SOL    HW157799   6.144   7.750  10.269 -0.3342 -1.3919  1.0029
18302SOL    HW257800   6.285   7.696  10.260 -0.0868 -0.4740 -1.4799
18303SOL     OW57801   9.679   9.849   0.779 -0.6376 -0.1298 -0.3979
18303SOL    HW157802   9.755   9.896   0.815  0.2751 -2.1609  0.4875
18303SOL    HW257803   9.615   9.851   0.850 -0.3014 -0.8608 -0.0673
18304SOL     OW57804   3.317   3.593   1.911  0.0667  0.5583  0.5586
18304SOL    HW157805   3.256   3.662   1.887  1.1612  1.7335  1.0151
18304SOL    HW257806   3.306   3.527   1.843  0.8503  2.3645 -1.4678
18305SOL     OW57807   7.799   3.867   5.353 -0.2015  0.1039  0.5389
18305SOL    HW157808   7.739   3.934   5.319  1.0982  1.1825  0.3152
18305SOL    HW257809   7.860   3.915   5.409  1.2064 -0.7698 -0.1946
18306SOL     OW57810   9.191  10.613   4.867  0.6288 -0.2675  0.0468
18306SOL    HW157811   9.150  10.669   4.933  0.1673 -0.6213  0.0623
18306SOL    HW257812   9.125  10.604   4.798  1.8961  1.9790 -1.5926
18307SOL     OW57813   1.440   1.622   0.803 -0.3282 -0.3509  0.6852
18307SOL    HW157814   1.428   1.639   0.709  2.5618  1.4391  0.5431
18307SOL    HW257815   1.510   1.557   0.807 -0.8058 -0.8285  1.6187
18308SOL     OW57816   2.793   3.546   2.638  0.2228 -0.4049  0.3189
18308SOL    HW157817   2.884   3.515   2.638 -0.2186 -1.8055  1.3203
18308SOL    HW257818   2.790   3.610   2.709  0.4945 -0.1111  0.0700
18309SOL     OW57819   4.755  10.693   0.819 -0.2851 -0.4131  0.2886
18309SOL    HW157820   4.723  10.708   0.908 -1.5172 -1.3866  0.0423
18309SOL    HW257821   4.780  10.780   0.788 -0.9652  0.1261  1.1715
18310SOL     OW57822   3.652   1.713   4.074 -0.1610  0.4945  0.0314
18310SOL    HW157823   3.677   1.744   3.987 -0.4345  0.0522 -0.2109
18310SOL    HW257824   3.721   1.652   4.099  0.3630  1.2617  0.4963
18311SOL     OW57825  10.172   3.300   6.556  0.1207  0.0553  0.1771
18311SOL    HW157826  10.077   3.287   6.561 -0.4317  2.3962 -2.2330
18311SOL    HW257827  10.207   3.215   6.532 -1.5805 -0.4291 -0.6827
18312SOL     OW57828   1.784   3.505   3.281  0.3747 -0.4511  0.4162
18312SOL    HW157829   1.812   3.475   3.195  0.1584 -0.9957  0.5295
18312SOL    HW257830   1.799   3.430   3.338  0.3783 -0.1423  0.8255
18313SOL     OW57831   5.682   2.826   8.660 -0.3883  0.4728 -0.3759
18313SOL    HW157832   5.621   2.860   8.725 -0.6362 -0.5273 -0.0683
18313SOL    HW257833   5.755   2.887   8.661 -0.1262  0.1815  1.2506
18314SOL     OW57834   9.262   8.369   2.527 -0.1605 -1.2542  0.5949
18314SOL    HW157835   9.176   8.340   2.558  0.1893 -0.9564  1.9117
18314SOL    HW257836   9.322   8.299   2.553  0.2255 -0.7455  1.1155
18315SOL     OW57837   4.656   9.253   4.279 -0.1525  0.5101  0.2042
18315SOL    HW157838   4.671   9.206   4.197  0.3714  1.3759 -0.2160
18315SOL    HW257839   4.743   9.261   4.318 -0.6137 -1.6119  1.8563
18316SOL     OW57840   5.717   3.228   2.824  0.5872 -0.2701 -0.1298
18316SOL    HW157841   5.697   3.320   2.805  1.8251  0.1840  0.6681
18316SOL    HW257842   5.750   3.193   2.741  0.6046  0.1482 -0.3021
18317SOL     OW57843   7.712   5.569  10.475 -0.0832 -0.2245 -0.2499
18317SOL    HW157844   7.751   5.651  10.506 -0.0565  0.1744 -1.3087
18317SOL    HW257845   7.664   5.594  10.396 -0.7209 -1.0971 -0.1502
18318SOL     OW57846   0.320   4.358   0.461 -0.1342  0.8261  0.2570
18318SOL    HW157847   0.301   4.375   0.553 -0.0888  2.1751  0.0397
18318SOL    HW257848   0.381   4.427   0.436  0.8473 -0.2761 -0.4656
18319SOL     OW57849   6.881   6.139   1.677  0.1112 -0.3267  0.2133
18319SOL    HW157850   6.791   6.171   1.668  0.6914  0.8377 -2.0362
18319SOL    HW257851   6.871   6.054   1.719 -1.8311  0.7950  2.3101
18320SOL     OW57852  10.406   0.911   1.999 -0.0554  0.1319 -0.3173
18320SOL    HW157853  10.311   0.925   1.993 -0.1483 -0.1335  0.4854
18320SOL    HW257854  10.441   0.955   1.921 -0.6380  2.1486  0.4862
18321SOL     OW57855   8.749   6.505   1.566  0.1029  0.6445 -0.3857
18321SOL    HW157856   8.820   6.569   1.554  1.6084 -0.4198  2.0348
18321SOL    HW257857   8.741   6.496   1.661 -0.5421 -2.1861 -0.6215
18322SOL     OW57858   5.444   2.186   4.776  0.1020  0.2933  0.4690
18322SOL    HW157859   5.389   2.108   4.767 -1.0108  0.8994  1.6809
18322SOL    HW257860   5.452   2.199   4.870  0.7244  1.3466  0.2843
18323SOL     OW57861   3.476   8.353   9.545 -0.2074  0.7269 -0.0648
18323SOL    HW157862   3.545   8.419   9.553  1.0804 -0.6577  0.7036
18323SOL    HW257863   3.454   8.331   9.635 -0.6330  0.0996 -0.3169
18324SOL     OW57864   8.101   0.191   5.686 -0.0322 -0.2756 -0.1582
18324SOL    HW157865   8.109   0.221   5.776  0.7724 -1.2526  0.1068
18324SOL    HW257866   8.156   0.251   5.635  1.0290 -0.8763  0.2690
18325SOL     OW57867   3.965   4.169   5.219  0.0930 -0.3160 -0.1285
18325SOL    HW157868   3.936   4.126   5.299 -1.3627  0.9112  0.0385
18325SOL    HW257869   4.038   4.225   5.246 -0.0682 -0.2844  0.2416
18326SOL     OW57870   0.225   2.744   6.853  0.4468 -0.5013  0.0040
18326SOL    HW157871   0.314   2.745   6.818  0.4130  0.8090 -0.0941
18326SOL    HW257872   0.199   2.652   6.851  2.0269 -0.9893  0.6256
18327SOL     OW57873  10.556   7.089   5.544 -0.5962 -0.2412  0.2230
18327SOL    HW157874  10.484   7.047   5.498 -1.1518 -0.3708  1.1807
18327SOL    HW257875  10.560   7.178   5.507 -0.2760 -0.6934 -0.8651
18328SOL     OW57876   5.493   4.378   0.318  0.7914 -0.1121  0.5786
18328SOL    HW157877   5.493   4.469   0.287 -1.3789 -0.8196 -1.9849
18328SOL    HW257878   5.416   4.373   0.375  1.3847 -0.1636  1.3779
18329SOL     OW57879   2.527   3.824   3.824 -0.4893  0.4256  0.3056
18329SOL    HW157880   2.439   3.862   3.827 -0.7170 -0.1708  1.5559
18329SOL    HW257881   2.512   3.730   3.814 -0.0973  0.0231  2.8643
18330SOL     OW57882   5.732   8.400   2.547 -0.1907 -0.8652  0.0709
18330SOL    HW157883   5.769   8.397   2.459 -0.2475  1.3865 -0.0975
18330SOL    HW257884   5.697   8.489   2.556  1.0913 -0.5150  2.8710
18331SOL     OW57885   1.694   7.974   8.075  0.1371 -0.5034 -0.2816
18331SOL    HW157886   1.642   8.002   8.151 -0.7241  0.8294 -1.3245
18331SOL    HW257887   1.695   7.878   8.082 -1.2651 -0.4961  0.5563
18332SOL     OW57888   1.618   6.365  10.689  0.1241 -0.1345 -0.1233
18332SOL    HW157889   1.712   6.347  10.692  0.5565  1.9214 -0.0073
18332SOL    HW257890   1.580   6.304  10.753  1.5858  0.1137  1.0344
18333SOL     OW57891   5.740   1.775   5.353  0.4533  0.2911  0.0853
18333SOL    HW157892   5.655   1.735   5.370  1.5285 -1.9540  0.5043
18333SOL    HW257893   5.803   1.707   5.373  2.4418  2.2367  0.8631
18334SOL     OW57894   8.728   5.534   7.359 -0.4551  0.0344 -0.4231
18334SOL    HW157895   8.696   5.618   7.391 -0.6152  0.2182 -1.0560
18334SOL    HW257896   8.822   5.548   7.345  0.1973 -0.7839  2.3690
18335SOL     OW57897   6.448   7.029   8.329  0.0937 -0.1012 -0.4505
18335SOL    HW157898   6.542   7.016   8.339  0.2316  0.9199 -0.3145
18335SOL    HW257899   6.411   7.005   8.414  0.4002  0.9358 -0.0139
18336SOL     OW57900   0.574   4.333   9.753 -0.3625 -0.1677  0.5901
18336SOL    HW157901   0.495   4.361   9.799  0.2185  2.2924  0.2600
18336SOL    HW257902   0.554   4.344   9.660  0.8363  2.1534  0.5350
18337SOL     OW57903   4.159   5.195   5.249  0.1178 -0.0622 -0.1680
18337SOL    HW157904   4.145   5.146   5.329  1.6894 -0.4218 -0.0857
18337SOL    HW257905   4.077   5.242   5.234 -0.1743  0.0499  1.6656
18338SOL     OW57906   7.591   7.744   3.632 -0.3724  0.3394 -0.1927
18338SOL    HW157907   7.596   7.652   3.657  1.8785  0.2184 -0.9213
18338SOL    HW257908   7.497   7.765   3.636 -0.8115 -1.6563  1.0435
18339SOL     OW57909   0.399   7.613  10.307  0.2311 -0.2370  0.0381
18339SOL    HW157910   0.320   7.559  10.303  2.0191 -3.1032  0.1422
18339SOL    HW257911   0.394   7.656  10.392 -1.0003 -0.7519  0.2523
18340SOL     OW57912   4.744   7.865   7.132 -0.2083 -0.4467 -0.5758
18340SOL    HW157913   4.762   7.906   7.048 -1.3058  0.1118 -0.5524
18340SOL    HW257914   4.660   7.901   7.159  0.6464  0.2844  1.3199
18341SOL     OW57915   2.581   8.240   0.088  0.0395  0.2339 -0.2195
18341SOL    HW157916   2.617   8.225   0.001 -0.1347  0.2753 -0.3008
18341SOL    HW257917   2.512   8.306   0.074 -0.3837 -0.1844 -0.1446
18342SOL     OW57918   4.984   1.830   3.356 -0.3761  0.0561 -0.5031
18342SOL    HW157919   4.976   1.758   3.420 -1.2020 -0.1154 -0.7818
18342SOL    HW257920   4.972   1.788   3.271 -1.8755  0.6462 -0.6188
18343SOL     OW57921   1.204   7.872   6.988  0.4721 -0.3787 -0.5848
18343SOL    HW157922   1.199   7.781   7.017  0.0938 -0.1736  0.0039
18343SOL    HW257923   1.291   7.901   7.015  0.2274 -0.2744  0.1115
18344SOL     OW57924   5.884   1.019   8.455  0.1484 -0.2081  0.6316
18344SOL    HW157925   5.868   1.087   8.390  0.4027  0.1225  0.9069
18344SOL    HW257926   5.844   1.054   8.535 -1.0017 -1.0321  0.4335
18345SOL     OW57927   8.135   2.574   9.364 -0.0125 -0.1935 -0.7929
18345SOL    HW157928   8.154   2.603   9.275  0.1030  0.9419 -0.4197
18345SOL    HW257929   8.077   2.500   9.354 -0.6625  0.4345 -1.7994
18346SOL     OW57930   7.220   7.532  10.378  0.6085  0.0036  0.2032
18346SOL    HW157931   7.238   7.555  10.287  0.8905  1.9341  0.7004
18346SOL    HW257932   7.125   7.539  10.386  0.4350 -1.4481 -0.2239
18347SOL     OW57933   7.667   8.628   7.518 -0.5338 -0.0657 -0.0568
18347SOL    HW157934   7.747   8.641   7.569 -1.4361  0.0333  1.4073
18347SOL    HW257935   7.651   8.534   7.522 -0.1755 -0.1619 -0.8523
18348SOL     OW57936   8.484   2.367   3.878 -0.0570 -0.1027 -0.5100
18348SOL    HW157937   8.500   2.344   3.969 -2.4786  0.9824  0.2851
18348SOL    HW257938   8.518   2.456   3.869 -1.9675  0.7631  0.1298
18349SOL     OW57939   3.124   9.474   6.980  0.1715 -0.3089  0.5925
18349SOL    HW157940   3.153   9.546   6.923  1.0004 -0.3429  0.9602
18349SOL    HW257941   3.087   9.518   7.056  2.7323 -0.2068  1.8730
18350SOL     OW57942   0.429   9.202   5.242 -0.1300  0.3067 -0.1128
18350SOL    HW157943   0.400   9.274   5.299  1.3731  0.7995  0.0674
18350SOL    HW257944   0.520   9.223   5.223  0.0574 -1.0997 -0.7964
18351SOL     OW57945   1.297   2.048   5.010 -0.2472  0.4849 -0.8184
18351SOL    HW157946   1.290   2.134   5.050  1.0753 -0.1309  0.8621
18351SOL    HW257947   1.363   2.002   5.063 -3.4939 -2.8601  0.7590
18352SOL     OW57948   0.461   4.863   2.594  0.1812  0.4695 -0.5943
18352SOL    HW157949   0.506   4.790   2.550 -1.1898  0.4742 -2.0886
18352SOL    HW257950   0.368   4.842   2.587 -0.1806  1.7191  0.1389
18353SOL     OW57951   0.627   3.194   6.933 -0.0797  0.6904  0.0235
18353SOL    HW157952   0.677   3.147   7.000 -0.3468  0.6412  0.1899
18353SOL    HW257953   0.625   3.284   6.964 -0.2461  0.6580  0.1072
18354SOL     OW57954   1.855   9.339   0.737 -0.0541  0.1588 -0.0682
18354SOL    HW157955   1.892   9.264   0.691 -0.7152 -0.5923  0.5728
18354SOL    HW257956   1.847   9.309   0.828  1.1895  1.5819  0.5509
18355SOL     OW57957   9.775   6.511   1.390  0.0613 -0.1038  0.5204
18355SOL    HW157958   9.828   6.574   1.341 -0.0917 -0.3798 -0.0008
18355SOL    HW257959   9.784   6.539   1.481  0.1581  0.5568  0.3148
18356SOL     OW57960   2.321   8.730   4.894  0.6007  0.3653 -0.1996
18356SOL    HW157961   2.331   8.802   4.956  1.5153  0.5934 -0.5887
18356SOL    HW257962   2.258   8.762   4.830  0.8853  0.7681 -0.2827
18357SOL     OW57963   9.532   5.881   0.494  0.1253  0.3903  0.3102
18357SOL    HW157964   9.606   5.821   0.498 -0.6287 -0.5136  1.2846
18357SOL    HW257965   9.548   5.934   0.417  2.5157  1.1972  1.2913
18358SOL     OW57966   4.062  10.339   3.209 -0.5427 -0.3229 -0.1489
18358SOL    HW157967   4.093  10.319   3.120  2.3807 -0.9793  0.8768
18358SOL    HW257968   4.040  10.253   3.246 -0.1070 -0.2656  0.2607
18359SOL     OW57969   3.768   4.970   1.081 -0.5103  0.2178 -0.6767
18359SOL    HW157970   3.861   4.983   1.101 -0.5844  0.0761 -0.2290
18359SOL    HW257971   3.758   4.875   1.079 -0.8096  0.2309  0.0603
18360SOL     OW57972   0.775   4.266   3.287  0.1492 -0.6175 -0.2834
18360SOL    HW157973   0.805   4.253   3.377 -0.4968 -0.2770 -0.0098
18360SOL    HW257974   0.844   4.317   3.245  0.5879 -1.0258 -0.0671
18361SOL     OW57975   2.517   9.759   9.347  0.5487 -0.0414  0.1345
18361SOL    HW157976   2.607   9.790   9.346  0.4412  0.2942  0.7678
18361SOL    HW257977   2.502   9.725   9.258  0.8582  1.1422 -0.3847
18362SOL     OW57978   0.707   0.819   4.944 -0.2139 -0.3425  0.3841
18362SOL    HW157979   0.757   0.806   4.863 -0.3222 -0.3307  0.3152
18362SOL    HW257980   0.770   0.801   5.014 -0.3062 -1.0361  0.2955
18363SOL     OW57981   8.922   0.635   9.973 -0.6652  0.1294 -0.7991
18363SOL    HW157982   9.007   0.628  10.017 -0.4155 -1.8559 -1.5195
18363SOL    HW257983   8.941   0.684   9.892 -0.2590 -0.0907 -0.8388
18364SOL     OW57984   9.685   8.130   1.766 -0.4342  0.0425  0.4362
18364SOL    HW157985   9.678   8.128   1.671 -0.2803 -0.2438  0.4298
18364SOL    HW257986   9.606   8.176   1.795 -1.4417 -1.5184  0.2709
18365SOL     OW57987   5.194   0.524   2.046 -0.0483 -0.2130 -0.1019
18365SOL    HW157988   5.217   0.463   2.116  1.4714  1.1615  0.6664
18365SOL    HW257989   5.276   0.567   2.024 -0.7814  0.4422 -1.7239
18366SOL     OW57990   9.581   5.435   5.669  0.3878 -0.4002 -0.4525
18366SOL    HW157991   9.492   5.406   5.650  0.4597 -0.6104 -0.4752
18366SOL    HW257992   9.587   5.523   5.632  0.3892 -0.6334 -1.0128
18367SOL     OW57993   5.684   7.680   8.749  0.1797 -0.5241  0.1787
18367SOL    HW157994   5.756   7.729   8.789  0.1402  2.2202 -2.6799
18367SOL    HW257995   5.613   7.685   8.813  0.4478  2.6694  0.3940
18368SOL     OW57996   7.719   2.326   8.047  0.5121  0.3310 -0.3073
18368SOL    HW157997   7.789   2.359   7.991  0.0557  0.8602 -0.5704
18368SOL    HW257998   7.674   2.261   7.993 -0.4329  1.4172 -0.8729
18369SOL     OW57999   1.723   7.574   8.696 -0.1098  0.3349  0.1522
18369SOL    HW158000   1.770   7.635   8.754 -0.5540  1.7985 -0.9578
18369SOL    HW258001   1.756   7.488   8.721  2.6203  1.2111 -0.0403
18370SOL     OW58002   6.770   7.218   9.148  0.6572  0.7891  0.0014
18370SOL    HW158003   6.753   7.202   9.055 -0.8325 -1.0405  0.5139
18370SOL    HW258004   6.859   7.188   9.162  0.2363 -0.7703 -0.4820
18371SOL     OW58005   2.353   6.057   4.402  0.1896 -0.1553  0.3554
18371SOL    HW158006   2.282   6.095   4.351  0.2425 -1.3763 -0.6711
18371SOL    HW258007   2.310   6.010   4.473  0.0607  0.4326  0.6780
18372SOL     OW58008   1.650   7.064   4.855 -0.1840  0.0837  0.0511
18372SOL    HW158009   1.584   7.106   4.801  1.3143  2.4045 -0.0969
18372SOL    HW258010   1.610   6.982   4.883 -2.6219  0.8426 -1.0160
18373SOL     OW58011   4.775   3.388   6.836 -0.0465  0.7234 -0.3331
18373SOL    HW158012   4.806   3.298   6.825 -0.2539  0.5911  0.1689
18373SOL    HW258013   4.683   3.385   6.809 -0.8739  0.1735  2.2727
18374SOL     OW58014   0.982   1.397   9.687  0.1416  0.3472 -0.9447
18374SOL    HW158015   1.073   1.414   9.664  0.5734  1.2765  1.2230
18374SOL    HW258016   0.932   1.434   9.614  1.4139  2.0363 -1.0240
18375SOL     OW58017   7.243   2.428   4.159 -0.5832  0.2952 -0.1110
18375SOL    HW158018   7.236   2.513   4.204 -0.5783  1.2763 -1.8491
18375SOL    HW258019   7.159   2.386   4.175  0.1859 -0.4262  2.6348
18376SOL     OW58020   2.636  10.384   9.842 -0.2266 -0.2842 -0.1365
18376SOL    HW158021   2.727  10.402   9.866 -0.0324  0.1364 -1.1137
18376SOL    HW258022   2.636  10.293   9.814  0.5278  0.4475 -2.7850
18377SOL     OW58023   8.104  10.643   6.824 -0.2311  0.4677 -0.4493
18377SOL    HW158024   8.132  10.639   6.732 -0.6543  0.7890 -0.5999
18377SOL    HW258025   8.102  10.737   6.843 -0.0534  0.3976 -0.0793
18378SOL     OW58026   4.172   6.564   9.529 -0.0923 -0.2611 -0.0753
18378SOL    HW158027   4.115   6.548   9.454  0.5013  0.4716 -0.6928
18378SOL    HW258028   4.231   6.489   9.531 -1.5268 -1.4424  1.0433
18379SOL     OW58029   4.083  10.594  10.591  0.7856 -0.2398  0.5074
18379SOL    HW158030   3.988  10.604  10.601  0.4116  0.8833 -2.7572
18379SOL    HW258031   4.099  10.500  10.600 -0.3922 -0.2923  2.4365
18380SOL     OW58032   5.923   0.016   6.212 -0.6724  0.0801  0.3334
18380SOL    HW158033   5.889  -0.060   6.163 -2.3777  0.6473  0.5766
18380SOL    HW258034   5.939  -0.018   6.300  0.1671 -0.3731  0.0230
18381SOL     OW58035  10.206   1.334   1.941  0.3134 -0.2492  0.1891
18381SOL    HW158036  10.125   1.302   1.900  0.2625  0.2347 -0.0872
18381SOL    HW258037  10.183   1.343   2.033 -0.2429  0.8003 -0.0374
18382SOL     OW58038   1.282   8.765   0.300  0.5935  0.1367  0.5297
18382SOL    HW158039   1.276   8.806   0.387 -0.8877  1.0383  0.0460
18382SOL    HW258040   1.214   8.698   0.301  1.4366 -0.7317  0.4937
18383SOL     OW58041   2.305   6.910   7.306  1.0717 -0.3899 -0.2105
18383SOL    HW158042   2.246   6.961   7.251 -0.3506 -1.7706 -0.0444
18383SOL    HW258043   2.355   6.976   7.354 -1.7702  0.9881  1.1698
18384SOL     OW58044   7.900  10.356   5.911  0.0606  0.1084 -0.2972
18384SOL    HW158045   7.884  10.448   5.890 -1.4993 -0.3958 -1.4833
18384SOL    HW258046   7.839  10.308   5.855 -0.3477 -1.5968  1.5252
18385SOL     OW58047   8.785   8.990   2.866 -0.3226 -0.8076 -0.4004
18385SOL    HW158048   8.873   9.025   2.878 -0.2071 -1.0306 -0.5812
18385SOL    HW258049   8.780   8.915   2.926  0.2871 -1.9843 -1.7600
18386SOL     OW58050   2.278   8.897   6.487 -0.3190 -0.1960 -0.1286
18386SOL    HW158051   2.323   8.917   6.405 -1.1841  0.9466 -0.3531
18386SOL    HW258052   2.347   8.902   6.554 -0.0202  1.1826 -0.5026
18387SOL     OW58053   1.890   4.204   2.465 -0.3252  0.0204  0.3169
18387SOL    HW158054   1.830   4.274   2.439  1.4989  1.0571 -1.3977
18387SOL    HW258055   1.834   4.128   2.477 -2.1127  1.2106 -0.0504
18388SOL     OW58056   3.835   4.234   6.044  0.1741 -1.0549 -0.2689
18388SOL    HW158057   3.925   4.214   6.071 -0.0865 -2.1622 -0.1508
18388SOL    HW258058   3.820   4.179   5.967  0.0361  0.1331 -1.1096
18389SOL     OW58059   0.175   7.447   4.333 -0.3908 -0.0759  0.7400
18389SOL    HW158060   0.235   7.417   4.401 -1.2151 -0.0513  1.4972
18389SOL    HW258061   0.215   7.419   4.251  0.1600 -0.9325  1.2891
18390SOL     OW58062   1.721   4.150  10.410  0.2585 -0.1299  0.4059
18390SOL    HW158063   1.644   4.110  10.368  0.9031 -2.4397  1.2324
18390SOL    HW258064   1.684   4.212  10.473 -0.9682 -0.9414  0.5443
18391SOL     OW58065   7.105   9.503   4.142 -0.5223  0.0513 -0.0799
18391SOL    HW158066   7.122   9.557   4.219  1.1905 -0.4713 -0.0602
18391SOL    HW258067   7.189   9.498   4.096 -0.7024 -2.2717 -0.2864
18392SOL     OW58068   9.280   2.752   8.127 -0.3246 -0.0778 -0.1152
18392SOL    HW158069   9.282   2.832   8.179  0.1869 -0.1035 -0.0874
18392SOL    HW258070   9.299   2.682   8.190 -1.6846 -0.3359  0.0445
18393SOL     OW58071   0.360   8.105   3.018 -0.1681 -0.2889  0.2706
18393SOL    HW158072   0.395   8.194   3.031 -0.9923  0.1929 -0.6952
18393SOL    HW258073   0.427   8.048   3.055  0.6759  0.7123  0.3389
18394SOL     OW58074   3.040   0.715   6.212  0.1026  0.4645 -0.0734
18394SOL    HW158075   3.128   0.680   6.195 -0.4843 -0.4704 -1.4019
18394SOL    HW258076   3.055   0.796   6.259  1.7241  0.7546 -1.0123
18395SOL     OW58077   8.354   8.044   9.201  0.4520 -0.0925 -0.4553
18395SOL    HW158078   8.321   7.971   9.149  2.0875 -1.9236  0.9571
18395SOL    HW258079   8.449   8.043   9.188  0.7381  0.3768  1.2978
18396SOL     OW58080   8.356   4.207   4.570  0.3252  0.2163 -0.0603
18396SOL    HW158081   8.272   4.170   4.598  0.9546 -2.3310 -1.2559
18396SOL    HW258082   8.416   4.182   4.640  0.4626  0.2893 -0.1539
18397SOL     OW58083   1.656   1.417   1.432  0.5543 -0.7083 -0.6652
18397SOL    HW158084   1.718   1.479   1.471  0.6532 -0.9360 -0.4532
18397SOL    HW258085   1.708   1.367   1.370  0.5515 -0.8105 -0.5846
18398SOL     OW58086   9.632   0.287   7.426 -0.1724 -0.2086  0.8228
18398SOL    HW158087   9.721   0.305   7.394 -0.0729 -1.5482  0.2835
18398SOL    HW258088   9.620   0.347   7.500  1.3642 -0.3292  1.2010
18399SOL     OW58089   6.225   3.700   5.669  0.3628 -0.1512  0.6627
18399SOL    HW158090   6.181   3.643   5.606 -0.1160 -0.2413  1.0706
18399SOL    HW258091   6.285   3.642   5.716  1.2089  0.0433 -0.1458
18400SOL     OW58092   5.652   3.176   8.255 -0.1744 -0.2831 -0.0958
18400SOL    HW158093   5.557   3.187   8.250 -0.0725  0.7148 -0.0345
18400SOL    HW258094   5.665   3.102   8.315 -0.8482  2.1432  3.3063
18401SOL     OW58095  10.538   1.737   7.793  0.2243  0.3133 -0.3955
18401SOL    HW158096  10.453   1.713   7.831  0.4282 -2.4948 -1.4715
18401SOL    HW258097  10.602   1.719   7.861  0.3064 -1.8009 -0.9726
18402SOL     OW58098   0.399   2.139   4.768 -0.5976 -0.7737 -0.5512
18402SOL    HW158099   0.335   2.200   4.805 -0.4486 -1.1436  0.3558
18402SOL    HW258100   0.380   2.056   4.813  0.4199 -0.9222 -0.3852
18403SOL     OW58101   1.105   2.381   2.669  0.5191  0.2482  0.3946
18403SOL    HW158102   1.112   2.382   2.764  0.0705 -0.0275  0.4325
18403SOL    HW258103   1.092   2.288   2.647  0.6741  0.3020  0.0593
18404SOL     OW58104   1.888   9.085   1.394 -0.0895 -0.0448 -0.7402
18404SOL    HW158105   1.981   9.069   1.403 -0.2673 -0.7411 -0.0811
18404SOL    HW258106   1.856   9.095   1.483 -0.4283  1.5728 -1.0049
18405SOL     OW58107   6.759   0.818   7.259  0.7026  0.2918  0.0004
18405SOL    HW158108   6.793   0.797   7.172  1.2351 -0.0131  0.2741
18405SOL    HW258109   6.805   0.758   7.318  0.0072  0.1686  0.4404
18406SOL     OW58110   2.802   4.388   4.359 -0.2674 -0.1875  0.4401
18406SOL    HW158111   2.789   4.457   4.423  2.1734  0.6905  0.1187
18406SOL    HW258112   2.752   4.415   4.282  0.4743  1.1466  0.3988
18407SOL     OW58113   7.676   3.636   5.466  0.1038  1.1014  0.5041
18407SOL    HW158114   7.717   3.721   5.447  0.2065  1.0572  0.5272
18407SOL    HW258115   7.620   3.653   5.542  0.3426  1.0828  0.6857
18408SOL     OW58116   3.903   8.910   0.094  0.0614  0.5226  0.3140
18408SOL    HW158117   3.988   8.873   0.115  0.1564 -0.6324 -1.8080
18408SOL    HW258118   3.918   8.963   0.015 -1.0938  0.6433  0.1530
18409SOL     OW58119   4.430   0.444   9.223 -0.1756 -0.0443 -0.3314
18409SOL    HW158120   4.457   0.359   9.188 -0.3093  0.1911 -1.0229
18409SOL    HW258121   4.344   0.460   9.184 -0.6799 -0.1126  0.7035
18410SOL     OW58122   3.168   9.755   1.335 -0.1040 -0.1541  0.2755
18410SOL    HW158123   3.165   9.662   1.312 -0.7827 -1.2998  4.2136
18410SOL    HW258124   3.109   9.763   1.410  0.8719  3.2174  0.8557
18411SOL     OW58125   2.632  10.197   8.401  0.4076  0.6953  0.0866
18411SOL    HW158126   2.563  10.246   8.446  1.1662  0.8955  1.0598
18411SOL    HW258127   2.672  10.144   8.469 -0.6376 -1.6286 -1.0093
18412SOL     OW58128   1.984   4.229   1.722  0.2169  0.4382 -0.0817
18412SOL    HW158129   1.943   4.171   1.786  0.1555  0.9041  0.3006
18412SOL    HW258130   1.910   4.274   1.681  0.2536  0.1222 -0.5063
18413SOL     OW58131  10.467   8.284   2.001  0.5553  0.2508 -0.0923
18413SOL    HW158132  10.478   8.368   2.047  0.5472  0.3869 -0.3369
18413SOL    HW258133  10.381   8.253   2.030  1.9644 -1.3953  2.7637
18414SOL     OW58134   6.505   5.140   7.521 -0.2559 -0.4271  0.3362
18414SOL    HW158135   6.415   5.117   7.544  0.0125 -1.0545  0.7910
18414SOL    HW258136   6.513   5.232   7.548 -0.8637 -0.2581 -0.0385
18415SOL     OW58137   9.716   6.312   1.703  0.7947 -0.1421 -0.1919
18415SOL    HW158138   9.719   6.377   1.633 -0.7538 -0.4905 -0.6397
18415SOL    HW258139   9.764   6.237   1.669  1.8450  0.4355 -0.0175
18416SOL     OW58140   1.961   8.894   2.230 -0.1373  0.1889 -0.7396
18416SOL    HW158141   1.922   8.954   2.167  0.3675  0.0120 -1.2200
18416SOL    HW258142   2.034   8.942   2.268  1.3974 -0.7132 -2.4121
18417SOL     OW58143   2.820  10.476   1.856 -0.0198  0.3852 -0.3471
18417SOL    HW158144   2.891  10.472   1.791 -1.2283  0.3459 -1.7045
18417SOL    HW258145   2.760  10.542   1.821 -0.9586 -0.0241  0.4701
18418SOL     OW58146   0.233   0.663   6.966 -0.0488 -0.7940  0.1924
18418SOL    HW158147   0.152   0.616   6.946  0.0636 -0.6939 -0.5162
18418SOL    HW258148   0.205   0.754   6.979  0.0007 -0.6764 -0.4892
18419SOL     OW58149   7.155   7.650   8.023  0.2339  0.0686 -0.6332
18419SOL    HW158150   7.199   7.565   8.026  0.8155  0.3783 -0.0299
18419SOL    HW258151   7.184   7.695   8.102 -1.4629  0.1568 -0.0089
18420SOL     OW58152   6.630   9.715   7.222 -0.2578  0.1111  0.4391
18420SOL    HW158153   6.644   9.643   7.283 -0.2653 -0.4495 -0.2131
18420SOL    HW258154   6.637   9.676   7.136 -1.6805  0.5944  0.0634
18421SOL     OW58155   1.087   3.502   0.419  0.1258 -0.1389 -0.3602
18421SOL    HW158156   1.170   3.515   0.374 -0.4731 -2.2650 -2.2279
18421SOL    HW258157   1.111   3.460   0.501  0.9475  0.3308 -0.3463
18422SOL     OW58158   3.472   8.838   3.818 -0.4985  0.6818 -0.2904
18422SOL    HW158159   3.453   8.932   3.808  0.6214  1.0356  0.6231
18422SOL    HW258160   3.454   8.801   3.732 -2.2353  1.4869 -0.3254
18423SOL     OW58161   1.763   9.160   2.678 -0.4603  0.5706 -0.1259
18423SOL    HW158162   1.826   9.144   2.607 -0.2469 -2.0822  0.5585
18423SOL    HW258163   1.771   9.253   2.697  1.5610  0.7646 -1.6625
18424SOL     OW58164  10.373   1.557   4.331 -0.1926  0.1398  0.2687
18424SOL    HW158165  10.345   1.533   4.419  1.5700  1.5056  1.2534
18424SOL    HW258166  10.300   1.608   4.295 -0.1930  1.1493  1.6534
18425SOL     OW58167   2.127   3.486   0.820  0.2535 -0.2723  0.2696
18425SOL    HW158168   2.221   3.471   0.819  0.4190  0.6059  1.2196
18425SOL    HW258169   2.115   3.566   0.768  0.0936 -0.0713  0.6144
18426SOL     OW58170   4.569   6.460   8.386  0.0359 -0.2578 -0.4836
18426SOL    HW158171   4.614   6.544   8.400  1.5603 -0.6818 -2.3465
18426SOL    HW258172   4.604   6.403   8.454 -0.0093  0.2600 -0.0180
18427SOL     OW58173   6.614   2.763   4.677  0.1816  0.2302  0.4871
18427SOL    HW158174   6.547   2.824   4.706 -0.5160 -0.4136  0.2579
18427SOL    HW258175   6.573   2.716   4.605  0.8548 -0.2315  0.4012
18428SOL     OW58176   0.961   8.688   7.211  0.1243  0.2070 -0.4087
18428SOL    HW158177   0.978   8.665   7.302 -3.8253 -2.7076 -0.1524
18428SOL    HW258178   0.915   8.772   7.215 -1.4411 -0.6542  0.5114
18429SOL     OW58179   7.616   7.094   5.205 -0.1839 -0.0649 -0.9572
18429SOL    HW158180   7.610   7.121   5.114 -0.5553 -1.3048 -1.3193
18429SOL    HW258181   7.630   6.999   5.201  0.4718 -0.0466  0.2612
18430SOL     OW58182   6.107   3.684   3.108  0.5983 -0.0742  0.3942
18430SOL    HW158183   6.015   3.661   3.099 -0.5216  3.7840  0.2583
18430SOL    HW258184   6.123   3.682   3.203  0.3873 -0.6985  0.4214
18431SOL     OW58185   9.852   6.627   2.228  0.1739 -0.3065 -0.1550
18431SOL    HW158186   9.852   6.635   2.324  2.4509  0.3471 -0.1575
18431SOL    HW258187   9.944   6.619   2.205 -0.3040 -0.0024 -2.3467
18432SOL     OW58188   8.535   0.459   0.464  0.0187 -0.3087  0.5732
18432SOL    HW158189   8.440   0.449   0.452 -0.2409  2.7437 -0.7437
18432SOL    HW258190   8.572   0.432   0.381  0.1014  0.4370  0.3613
18433SOL     OW58191   4.720   3.294   4.013  0.4467  0.0017  0.0424
18433SOL    HW158192   4.652   3.361   4.017  0.0889 -0.1802 -2.0360
18433SOL    HW258193   4.761   3.306   3.927  1.4794 -1.3870  0.3031
18434SOL     OW58194   7.440   6.631   6.941  0.0465 -0.0364 -0.2172
18434SOL    HW158195   7.375   6.567   6.914 -0.7726 -0.0712  1.6364
18434SOL    HW258196   7.511   6.579   6.978 -0.1879  0.0774  0.4068
18435SOL     OW58197   0.204   2.255   7.410 -0.2110 -0.3814 -0.5024
18435SOL    HW158198   0.130   2.209   7.371  0.4864 -1.0475 -1.0629
18435SOL    HW258199   0.177   2.347   7.409 -1.3148 -0.6740 -0.0328
18436SOL     OW58200   4.761   3.363   3.747 -0.3295 -0.3862 -0.2948
18436SOL    HW158201   4.802   3.405   3.672 -0.6390  2.1694  0.8564
18436SOL    HW258202   4.671   3.347   3.719 -1.3238  3.2627  0.3351
18437SOL     OW58203   8.514   7.323   9.565  0.1580  0.2508  0.3248
18437SOL    HW158204   8.420   7.339   9.562  0.3114  1.1604 -0.4580
18437SOL    HW258205   8.538   7.300   9.475  0.7271  0.3415  0.4439
18438SOL     OW58206   5.189   1.417  10.724 -0.6621  0.2613  0.8469
18438SOL    HW158207   5.140   1.486  10.768 -0.0816  0.4497  1.2065
18438SOL    HW258208   5.278   1.426  10.756 -0.8420 -1.5722  2.0319
18439SOL     OW58209  10.112   0.259   1.702 -0.0905 -0.2972  0.3080
18439SOL    HW158210  10.156   0.258   1.617 -0.4090  1.7217  0.0712
18439SOL    HW258211  10.043   0.325   1.693  0.5532  0.7567  2.4542
18440SOL     OW58212   7.640   4.889   4.665  0.2249 -0.0531 -0.0076
18440SOL    HW158213   7.597   4.807   4.640  0.6545 -0.1599 -0.4334
18440SOL    HW258214   7.589   4.957   4.622  0.9612 -0.2370 -1.2270
18441SOL     OW58215   4.222   9.626   3.757  0.5136 -0.5927 -0.1749
18441SOL    HW158216   4.286   9.651   3.823 -1.1636 -0.3711  1.4191
18441SOL    HW258217   4.250   9.539   3.729  1.8502 -0.2513  0.0164
18442SOL     OW58218  10.293   8.734   2.655 -0.0011  0.5973  0.1985
18442SOL    HW158219  10.252   8.647   2.654 -0.1991  0.6939 -0.8775
18442SOL    HW258220  10.298   8.757   2.748  0.8148 -0.9192  0.5601
18443SOL     OW58221  10.391   1.586   8.395 -0.0696  0.2856 -0.0837
18443SOL    HW158222  10.362   1.646   8.463 -2.7436 -1.0482  0.1296
18443SOL    HW258223  10.405   1.641   8.318  1.1949  1.5820  1.0372
18444SOL     OW58224   8.850   7.608   0.654 -0.2792  0.1723  0.2503
18444SOL    HW158225   8.929   7.569   0.615  0.1351  1.1610  0.0779
18444SOL    HW258226   8.799   7.533   0.683  0.7882 -0.4897  0.4825
18445SOL     OW58227   4.693   0.796   9.966 -0.1764  0.1560  0.0081
18445SOL    HW158228   4.609   0.826   9.932 -0.6244  3.2533  3.2521
18445SOL    HW258229   4.673   0.712  10.007 -1.1352 -0.1917 -1.0961
18446SOL     OW58230   7.796   4.986   0.085  0.1213  0.1711  0.3504
18446SOL    HW158231   7.855   4.978   0.159  0.1108  1.2490  0.4888
18446SOL    HW258232   7.729   5.047   0.114  0.3623  0.9567 -0.6879
18447SOL     OW58233   0.543  10.647   0.622 -0.0917 -0.1568  0.2041
18447SOL    HW158234   0.506  10.645   0.710 -0.5066 -0.8753  0.0205
18447SOL    HW258235   0.501  10.574   0.577  0.7456 -0.3119 -0.3434
18448SOL     OW58236   7.211   5.357   9.896 -0.9309  0.0484 -0.2399
18448SOL    HW158237   7.262   5.324   9.970 -0.6908  0.5077 -0.1933
18448SOL    HW258238   7.144   5.413   9.937  0.4130  1.8925 -0.4565
18449SOL     OW58239   2.977   0.348   4.579  0.3914 -0.6932  0.1176
18449SOL    HW158240   2.891   0.330   4.541 -0.3847  1.7649  0.4939
18449SOL    HW258241   2.960   0.356   4.673  1.0791 -0.4450  0.2248
18450SOL     OW58242   6.727   3.041   9.185 -0.3146 -0.6536  0.3297
18450SOL    HW158243   6.785   3.024   9.259  0.6822 -0.1383 -0.3113
18450SOL    HW258244   6.669   3.111   9.216  2.0088  1.6998 -0.2771
18451SOL     OW58245   7.677  10.460   4.598  0.0271 -0.2350  0.5956
18451SOL    HW158246   7.584  10.441   4.604  0.3228 -2.0438 -0.0429
18451SOL    HW258247   7.697  10.508   4.679 -1.4221  0.1339  0.7579
18452SOL     OW58248   5.681   0.529   7.864  0.2873  0.1167 -0.8619
18452SOL    HW158249   5.731   0.448   7.853 -0.1561 -0.1729 -0.7706
18452SOL    HW258250   5.607   0.520   7.803  0.2838  0.4900 -0.9160
18453SOL     OW58251   9.560  10.335   2.439  0.3226 -0.2123 -0.4224
18453SOL    HW158252   9.493  10.347   2.373  0.1735 -0.6514 -0.3570
18453SOL    HW258253   9.634  10.298   2.392  0.9040  1.2247 -0.6882
18454SOL     OW58254   1.765   9.966   6.086 -0.0427  0.1152 -0.6586
18454SOL    HW158255   1.739   9.899   6.023  1.0646 -0.0659 -0.9482
18454SOL    HW258256   1.857   9.984   6.065  0.2404  0.3116  0.6686
18455SOL     OW58257   0.440   0.202   2.809  0.5839  0.0183 -0.4539
18455SOL    HW158258   0.349   0.201   2.779  0.5177  0.8944 -0.3211
18455SOL    HW258259   0.471   0.290   2.788  1.3203 -0.1899 -0.2606
18456SOL     OW58260   1.119   2.101   1.262  0.5723  0.5123 -0.1239
18456SOL    HW158261   1.149   2.188   1.235 -0.4580  0.2757 -2.1495
18456SOL    HW258262   1.194   2.064   1.309  1.6261  1.8464 -0.6854
18457SOL     OW58263   9.024   1.375   7.878  0.6160  0.6107 -0.4333
18457SOL    HW158264   8.980   1.302   7.922 -0.4845  0.8292 -1.1461
18457SOL    HW258265   9.069   1.422   7.949  0.3411 -0.0620  0.1948
18458SOL     OW58266   0.689   1.497   1.597 -0.8026  0.7141  0.3414
18458SOL    HW158267   0.684   1.559   1.524  2.6978  0.9722  0.1662
18458SOL    HW258268   0.640   1.539   1.668 -2.0562  1.6574 -1.0135
18459SOL     OW58269   2.520   6.388   2.280 -0.1079 -0.3901  0.3862
18459SOL    HW158270   2.594   6.367   2.223  1.6835 -0.2345  2.5391
18459SOL    HW258271   2.460   6.315   2.268  1.2466 -1.4773 -0.0309
18460SOL     OW58272  10.337   7.624   3.127 -0.1044  0.1413  0.5878
18460SOL    HW158273  10.260   7.670   3.094 -0.6224 -1.3505 -0.4348
18460SOL    HW258274  10.409   7.653   3.070 -0.2621  0.3191  0.4793
18461SOL     OW58275   6.468   1.253   3.787 -0.1787  0.1823 -0.3196
18461SOL    HW158276   6.460   1.161   3.759  0.9251 -0.0753  0.1760
18461SOL    HW258277   6.379   1.278   3.811 -0.5505 -0.6583 -0.7766
18462SOL     OW58278   0.546   8.626   2.645  0.0885  0.5716 -0.0472
18462SOL    HW158279   0.495   8.545   2.647  0.0068  0.4907 -2.5010
18462SOL    HW258280   0.492   8.688   2.596  0.3929  1.9679  1.3052
18463SOL     OW58281   2.453   2.745   5.444 -0.2999  0.2222 -0.4047
18463SOL    HW158282   2.405   2.828   5.449  0.9737  1.0310 -1.0549
18463SOL    HW258283   2.534   2.761   5.492 -0.5736 -1.0724  0.5471
18464SOL     OW58284   6.430   4.802   2.913 -0.5160  0.0026 -0.8438
18464SOL    HW158285   6.394   4.718   2.885  0.0865  0.0197 -1.7386
18464SOL    HW258286   6.377   4.868   2.868 -0.4113  0.0690 -0.8721
18465SOL     OW58287   2.749   6.016   0.741  0.3609 -0.2154  0.1666
18465SOL    HW158288   2.696   5.943   0.710  1.7337 -0.0839 -2.8672
18465SOL    HW258289   2.839   5.983   0.738  0.8374  0.9808  0.7181
18466SOL     OW58290   4.655   9.677   7.831  0.6148 -1.1176 -0.3806
18466SOL    HW158291   4.727   9.615   7.841  1.3181 -0.4340 -1.0310
18466SOL    HW258292   4.584   9.641   7.884  0.4887 -3.2469 -1.8826
18467SOL     OW58293  10.727  10.073   0.159 -0.0285  0.1436  0.1711
18467SOL    HW158294  10.804  10.060   0.214  0.4315 -1.0126 -0.6810
18467SOL    HW258295  10.758  10.055   0.070 -0.3898  3.3215 -0.7311
18468SOL     OW58296   5.220   0.592   0.633 -0.4416 -0.3234  0.6725
18468SOL    HW158297   5.231   0.544   0.551 -0.0046 -0.9658  1.1037
18468SOL    HW258298   5.306   0.588   0.675  0.1864  2.4585 -0.1322
18469SOL     OW58299   0.951   5.000   7.037  0.1162  0.3094 -0.2330
18469SOL    HW158300   1.034   4.990   6.991  0.9765 -0.1207  1.3294
18469SOL    HW258301   0.931   4.913   7.071 -0.7970  0.4799 -0.3001
18470SOL     OW58302  10.398   4.776   7.314 -0.1378  0.5473 -0.1851
18470SOL    HW158303  10.340   4.851   7.329  0.1910  0.9862 -1.0693
18470SOL    HW258304  10.456   4.776   7.390 -1.1930  0.1784  0.6478
18471SOL     OW58305   7.330   9.857   8.147 -0.2660 -0.4727 -0.3550
18471SOL    HW158306   7.292   9.937   8.182  1.0112 -1.1417  2.8750
18471SOL    HW258307   7.256   9.797   8.137 -0.6604 -0.4271  1.8876
18472SOL     OW58308  10.638   8.113   2.312 -0.3873 -0.9431  0.3709
18472SOL    HW158309  10.679   8.129   2.397  0.8372  2.9725 -0.7133
18472SOL    HW258310  10.711   8.094   2.253 -0.3221  2.4383 -0.8554
18473SOL     OW58311  10.216   0.082   0.078  0.6008 -0.3867  0.0939
18473SOL    HW158312  10.244   0.122   0.161 -1.7299 -1.9944  1.8176
18473SOL    HW258313  10.166   0.151   0.034 -0.6768 -0.3598  1.5041
18474SOL     OW58314   7.789   7.355   0.386  0.5503 -0.1586  0.1972
18474SOL    HW158315   7.862   7.293   0.389  1.5200  0.9695  1.8026
18474SOL    HW258316   7.813   7.423   0.450 -1.1452  1.1066 -0.4387
18475SOL     OW58317   3.765   5.220   5.845  0.7589  0.0278 -0.0394
18475SOL    HW158318   3.742   5.278   5.773  0.0932 -0.9149 -0.6129
18475SOL    HW258319   3.682   5.202   5.889  0.9771 -0.3578  0.2219
18476SOL     OW58320   1.864   7.027   8.141  0.2152 -0.0552  0.0601
18476SOL    HW158321   1.825   6.943   8.115  0.1380 -0.0681  0.2199
18476SOL    HW258322   1.801   7.066   8.201  0.9633 -0.6280  1.2788
18477SOL     OW58323   4.954   2.455   4.678  0.5982  0.3185  0.2648
18477SOL    HW158324   4.922   2.401   4.605  1.8878  0.6529 -0.5708
18477SOL    HW258325   4.994   2.393   4.738 -0.0389  0.0974  0.4765
18478SOL     OW58326   4.072   3.331   2.514 -0.2595  0.6259  0.1909
18478SOL    HW158327   4.139   3.267   2.489  0.3796  1.6022 -0.6574
18478SOL    HW258328   4.001   3.316   2.452 -0.3063  0.4247  0.2925
18479SOL     OW58329   7.237   7.015   5.204 -0.7629 -0.4966  0.5928
18479SOL    HW158330   7.247   6.930   5.248 -0.9088  0.5774  2.8682
18479SOL    HW258331   7.148   7.042   5.225 -1.5688 -0.7769 -2.1148
18480SOL     OW58332   4.087   1.642   6.115  0.2945 -0.2404 -0.5230
18480SOL    HW158333   4.078   1.682   6.029 -1.3356 -0.9976 -0.7339
18480SOL    HW258334   4.075   1.548   6.100 -0.6017 -0.3246  0.5876
18481SOL     OW58335   1.777  10.602   5.500 -0.5365 -0.2419 -0.4312
18481SOL    HW158336   1.760  10.616   5.593  0.4741  0.5973 -0.3459
18481SOL    HW258337   1.820  10.517   5.496 -0.1057 -0.0496 -0.0578
18482SOL     OW58338   8.375  10.261   4.223  0.5633 -0.0672  0.8685
18482SOL    HW158339   8.445  10.319   4.193  0.4966 -0.6176 -0.4358
18482SOL    HW258340   8.316  10.318   4.271  0.9688  0.7707  0.4079
18483SOL     OW58341   9.799   6.411   9.786  0.4718 -0.1297 -0.3948
18483SOL    HW158342   9.747   6.488   9.809  1.6571  0.5237  0.1708
18483SOL    HW258343   9.777   6.394   9.694 -0.9111 -0.0353 -0.1106
18484SOL     OW58344   8.744   0.325   0.811  0.3015 -0.1955 -0.6400
18484SOL    HW158345   8.771   0.356   0.724  0.7414 -0.4652 -0.6013
18484SOL    HW258346   8.710   0.403   0.855  0.9845  0.1460 -0.6994
18485SOL     OW58347   3.186   4.815   5.338 -0.5307 -0.6966 -0.3389
18485SOL    HW158348   3.096   4.843   5.355 -0.2791 -0.0969  0.0524
18485SOL    HW258349   3.237   4.855   5.409  0.2657  0.2388 -1.3937
18486SOL     OW58350   7.778  10.794   0.581  0.0758 -0.1107 -0.7569
18486SOL    HW158351   7.780  10.855   0.507 -0.7792 -0.5216 -1.1410
18486SOL    HW258352   7.856  10.740   0.570  0.6685  0.6944 -0.5948
18487SOL     OW58353   8.892   3.287   2.148  0.3580  0.4000  0.3440
18487SOL    HW158354   8.801   3.259   2.133  0.2362  0.5616  0.7619
18487SOL    HW258355   8.884   3.381   2.164  0.5063  0.2619  1.2301
18488SOL     OW58356   4.989   7.928   6.871  0.6083 -0.2231  0.3910
18488SOL    HW158357   4.992   7.864   6.943 -2.9489 -0.0941  0.8677
18488SOL    HW258358   4.968   8.011   6.914  0.5713  0.2988 -0.6044
18489SOL     OW58359  10.284   9.503   0.681  0.3385 -0.1971 -0.0646
18489SOL    HW158360  10.272   9.461   0.766  0.0757 -0.5230 -0.2565
18489SOL    HW258361  10.279   9.431   0.618  0.1897  0.0834 -0.3780
18490SOL     OW58362   3.858  10.132   8.575  0.1390  0.0288 -0.3232
18490SOL    HW158363   3.939  10.087   8.601 -0.6797 -1.0508  0.4382
18490SOL    HW258364   3.819  10.074   8.510  0.2259  0.8115 -1.0844
18491SOL     OW58365   6.651   5.233   4.532  0.3671 -0.2085 -0.6577
18491SOL    HW158366   6.679   5.324   4.542  0.2004 -0.1165 -1.0176
18491SOL    HW258367   6.572   5.238   4.478 -0.0563 -0.5087 -0.0651
18492SOL     OW58368   7.041   9.443   2.344 -0.2342  0.6081  0.1611
18492SOL    HW158369   6.948   9.449   2.365 -0.2054  1.2710  0.1247
18492SOL    HW258370   7.079   9.523   2.380  0.5569 -0.2601  1.3304
18493SOL     OW58371   7.363   5.563   4.337 -0.6314  0.1278  0.1123
18493SOL    HW158372   7.380   5.487   4.282 -0.4565  0.2680 -0.0271
18493SOL    HW258373   7.271   5.555   4.361 -0.4185 -0.5501  0.7474
18494SOL     OW58374   7.870   8.112   8.444  0.2194  0.0051  0.4562
18494SOL    HW158375   7.937   8.181   8.448 -0.6311  0.7910  2.3409
18494SOL    HW258376   7.918   8.034   8.416  1.4081  1.1040 -0.7646
18495SOL     OW58377   4.445   9.183   1.783  0.2451  0.4694  0.4175
18495SOL    HW158378   4.507   9.228   1.725  1.6759 -0.9648  0.7717
18495SOL    HW258379   4.372   9.160   1.726  1.6626 -0.9992 -0.9235
18496SOL     OW58380   0.166   6.917  10.138 -0.2178  0.2218 -0.2423
18496SOL    HW158381   0.169   6.888  10.047 -2.1523  3.6025 -1.5692
18496SOL    HW258382   0.079   6.956  10.147  0.1582  0.5524  2.9080
18497SOL     OW58383   1.750   0.813   8.873  0.2354 -0.1059 -1.0222
18497SOL    HW158384   1.776   0.823   8.782 -2.9637  1.3878 -1.9185
18497SOL    HW258385   1.800   0.879   8.920 -0.0452  0.9659 -2.1890
18498SOL     OW58386   0.441   4.217   7.329  0.4360 -0.3536  0.3297
18498SOL    HW158387   0.367   4.167   7.296  0.1591 -0.2707  0.8180
18498SOL    HW258388   0.404   4.274   7.396  0.6490  0.9161 -0.6003
18499SOL     OW58389   0.114   8.724   5.297 -0.2926 -0.8691  0.2187
18499SOL    HW158390   0.150   8.639   5.323 -2.5849 -1.9555  0.0996
18499SOL    HW258391   0.178   8.759   5.236  1.6651 -1.5826  1.7270
18500SOL     OW58392   4.364   5.368  10.675  0.3260  0.5910 -0.3885
18500SOL    HW158393   4.316   5.432  10.728 -2.0805 -0.6192 -0.9592
18500SOL    HW258394   4.414   5.318  10.739 -0.8644  0.5278  0.5493
18501SOL     OW58395   4.714   7.656   9.094  0.4166 -0.6459 -0.8103
18501SOL    HW158396   4.659   7.580   9.109  0.1854 -0.0785  1.6230
18501SOL    HW258397   4.749   7.678   9.181  1.1767  1.4748 -1.5920
18502SOL     OW58398   3.252  10.453   6.063  0.4063  0.0258 -0.1337
18502SOL    HW158399   3.192  10.523   6.037 -0.0985 -0.7738 -1.1709
18502SOL    HW258400   3.339  10.491   6.050  0.1461  0.2171 -1.4612
18503SOL     OW58401   9.807   0.884   2.716 -0.2248 -0.0097 -0.1232
18503SOL    HW158402   9.745   0.854   2.650  0.5940 -0.8983 -0.5073
18503SOL    HW258403   9.794   0.979   2.721 -1.2891 -0.1278 -0.5178
18504SOL     OW58404   2.882   0.377   2.164  0.0353  0.4464 -0.3806
18504SOL    HW158405   2.857   0.386   2.072  0.3353 -0.3174 -0.5485
18504SOL    HW258406   2.799   0.365   2.210 -0.0756  0.2079 -0.6365
18505SOL     OW58407   2.791   3.679   2.383  0.2290  0.6813 -0.0793
18505SOL    HW158408   2.784   3.625   2.462  0.0993  0.6804 -0.0914
18505SOL    HW258409   2.725   3.643   2.324 -0.0461  1.0317  0.0149
18506SOL     OW58410   1.599   5.949   0.450  0.4329  0.0401  0.5680
18506SOL    HW158411   1.546   5.924   0.374  0.4565 -1.1264  0.9240
18506SOL    HW258412   1.564   6.034   0.477 -1.2599 -0.6959  0.7934
18507SOL     OW58413   6.025   1.796   0.678  0.2636 -0.1223 -0.4579
18507SOL    HW158414   6.005   1.837   0.762  1.7726  1.3764 -0.7669
18507SOL    HW258415   6.014   1.702   0.694 -1.1992  0.2333  0.8863
18508SOL     OW58416   4.500  10.601   4.312 -0.0834  0.0422 -0.0132
18508SOL    HW158417   4.528  10.510   4.322  2.4833  0.5195 -1.7887
18508SOL    HW258418   4.545  10.648   4.382  1.1530  0.3328 -0.9525
18509SOL     OW58419   9.172   3.423   9.251 -0.6151 -0.0394 -0.0421
18509SOL    HW158420   9.254   3.374   9.254 -1.6762 -2.0258 -1.3821
18509SOL    HW258421   9.108   3.361   9.218 -2.1753  2.1362 -1.3873
18510SOL     OW58422   9.811   5.123   5.983  0.3278  0.2657  0.7420
18510SOL    HW158423   9.857   5.107   6.065 -0.1997  3.0546  1.7111
18510SOL    HW258424   9.768   5.208   5.996 -1.1283  0.0415 -1.8463
18511SOL     OW58425   0.092   9.842   9.821  0.5373 -0.4775  0.6068
18511SOL    HW158426   0.151   9.769   9.838  0.5746 -0.0267  2.6790
18511SOL    HW258427   0.113   9.907   9.888 -0.8470  0.6006  0.0652
18512SOL     OW58428   7.023   5.819   8.724  0.1514  0.3834  0.6723
18512SOL    HW158429   7.100   5.771   8.694 -0.7434 -0.4543 -0.3568
18512SOL    HW258430   6.956   5.802   8.658 -1.1204  0.5921  1.8417
18513SOL     OW58431   9.784   8.599   3.821 -0.0755 -0.4330  0.6143
18513SOL    HW158432   9.842   8.646   3.761 -1.0463  0.1692  0.1300
18513SOL    HW258433   9.696   8.612   3.785 -0.8024  0.7358  2.6446
18514SOL     OW58434  10.718   0.795   5.774 -0.6484 -0.4267  0.3664
18514SOL    HW158435  10.687   0.836   5.854  0.9273 -0.7164  1.1455
18514SOL    HW258436  10.786   0.853   5.741 -1.5247 -0.1208 -0.9854
18515SOL     OW58437   3.863   3.702   5.675  0.1422 -0.7716 -0.0349
18515SOL    HW158438   3.844   3.656   5.756 -1.6952 -0.4460 -0.2391
18515SOL    HW258439   3.777   3.727   5.640  0.9679  1.0970 -0.9132
18516SOL     OW58440   9.799  10.270   8.550 -0.2230  0.2799  0.0999
18516SOL    HW158441   9.712  10.295   8.582 -0.2227  0.5880 -0.1360
18516SOL    HW258442   9.842  10.353   8.531 -0.4952  0.1073 -1.4122
18517SOL     OW58443   1.390   9.546   1.025  0.1825 -0.7424  0.4105
18517SOL    HW158444   1.324   9.615   1.032 -1.6352 -2.5545  3.1274
18517SOL    HW258445   1.441   9.554   1.106  2.0566 -0.6253 -0.7395
18518SOL     OW58446   4.503   0.046   3.832  0.1363  0.5744 -0.2610
18518SOL    HW158447   4.542   0.077   3.914  1.0965  0.5688 -0.6974
18518SOL    HW258448   4.563   0.077   3.764  0.5007 -1.2090 -0.8043
18519SOL     OW58449   1.892   7.489   5.692  0.2755  0.5564 -0.5180
18519SOL    HW158450   1.958   7.420   5.684 -0.3227 -0.1600  0.4574
18519SOL    HW258451   1.894   7.534   5.608 -0.4970 -1.7459 -1.8810
18520SOL     OW58452   0.508   1.398   2.081  0.2796 -0.1560  0.2713
18520SOL    HW158453   0.532   1.306   2.092 -0.7119 -0.7193 -1.7915
18520SOL    HW258454   0.415   1.401   2.104  0.3093  0.3353  0.3395
18521SOL     OW58455   3.201  10.764   5.616 -0.0548  0.0952 -0.1629
18521SOL    HW158456   3.230  10.700   5.681 -0.8807  0.5125  0.6375
18521SOL    HW258457   3.127  10.809   5.657 -1.4883 -0.5426 -1.8972
18522SOL     OW58458   1.922   9.831   1.078 -0.2387 -0.1385 -0.4454
18522SOL    HW158459   1.831   9.807   1.063 -0.6618  1.4173 -0.5893
18522SOL    HW258460   1.964   9.823   0.992 -0.6990  0.9100 -0.7830
18523SOL     OW58461   8.105   8.264   9.560  0.2348 -0.4101 -0.1088
18523SOL    HW158462   8.147   8.198   9.505  1.5848  0.1455  0.1905
18523SOL    HW258463   8.162   8.270   9.637 -1.5847 -1.1490  1.3742
18524SOL     OW58464   2.686   2.640   4.130 -0.7684  0.2431 -0.2643
18524SOL    HW158465   2.744   2.716   4.131 -1.6127  0.8948 -0.0832
18524SOL    HW258466   2.626   2.656   4.057 -1.7798  0.3927  0.5770
18525SOL     OW58467   7.133   1.155   8.043 -0.0747 -0.2644 -0.1435
18525SOL    HW158468   7.076   1.166   8.119  1.1230 -0.1106  0.7578
18525SOL    HW258469   7.199   1.092   8.071  2.0831  1.8950  0.0118
18526SOL     OW58470   7.060   7.092   8.995  0.4621  0.7126 -0.1905
18526SOL    HW158471   7.044   7.119   8.905  0.5027 -1.0400 -0.7693
18526SOL    HW258472   7.075   6.997   8.989  0.2560  0.5230  1.6853
18527SOL     OW58473   7.452   8.384   4.168 -0.8824  0.1334 -0.4542
18527SOL    HW158474   7.396   8.369   4.092 -0.8947  2.1481 -0.9066
18527SOL    HW258475   7.533   8.421   4.132 -0.5118  0.2259  0.4283
18528SOL     OW58476   9.930  10.067   4.908  0.1650 -0.0913  0.5395
18528SOL    HW158477  10.026  10.062   4.908  0.3031  1.4431  1.8530
18528SOL    HW258478   9.906  10.072   4.815  1.3636 -0.3677  0.1957
18529SOL     OW58479   1.570   6.667   5.162  0.4352 -0.2791  0.1897
18529SOL    HW158480   1.588   6.649   5.070 -0.4548 -0.8962  0.1254
18529SOL    HW258481   1.475   6.674   5.167  0.4929  0.0770  1.0060
18530SOL     OW58482   7.209   7.697   0.585  0.7120 -0.3311  0.1343
18530SOL    HW158483   7.233   7.775   0.535  1.3076 -0.2558  0.5160
18530SOL    HW258484   7.229   7.624   0.527 -1.7758 -0.1733 -1.0213
18531SOL     OW58485   4.691   0.316   7.506 -0.2418  0.2361  0.3152
18531SOL    HW158486   4.603   0.313   7.542 -0.0482 -0.8287  0.7331
18531SOL    HW258487   4.679   0.308   7.412 -0.7221  2.5472  0.1090
18532SOL     OW58488   5.310   6.433   4.485  0.1428 -1.0662 -0.3889
18532SOL    HW158489   5.287   6.510   4.434  0.7679  0.1583  1.0757
18532SOL    HW258490   5.226   6.393   4.508 -0.2408 -0.3297 -0.4645
18533SOL     OW58491   6.384   6.913   8.100  0.1574  0.6680 -0.0445
18533SOL    HW158492   6.431   6.964   8.166  0.9582 -1.4329  1.0879
18533SOL    HW258493   6.293   6.913   8.131  0.2773  0.8094  0.3164
18534SOL     OW58494   0.534   3.793   7.623  0.5738  0.0332  0.3568
18534SOL    HW158495   0.620   3.764   7.651  0.7929  0.4635  0.1382
18534SOL    HW258496   0.502   3.722   7.567  0.5636 -0.3583  0.8504
18535SOL     OW58497   1.640   5.633   4.008  0.1523  0.0922  0.3836
18535SOL    HW158498   1.609   5.620   4.097  1.3791 -0.9431  0.6871
18535SOL    HW258499   1.611   5.555   3.961  0.4171  0.1395  0.1392
18536SOL     OW58500   9.944   0.735   6.283 -0.0427 -0.2646  0.7105
18536SOL    HW158501  10.006   0.800   6.250  0.6605 -1.5073 -0.5642
18536SOL    HW258502   9.996   0.679   6.341 -0.3604 -0.3879  0.8821
18537SOL     OW58503   0.311   4.120   5.282 -0.1816  0.3442  0.1454
18537SOL    HW158504   0.293   4.149   5.192 -1.6380  0.3619  0.4165
18537SOL    HW258505   0.237   4.063   5.304  1.4993 -1.8695  0.4049
18538SOL     OW58506   6.314   0.251   3.127  0.4474  0.1336 -0.1019
18538SOL    HW158507   6.312   0.314   3.055  0.8074  0.2779  0.0097
18538SOL    HW258508   6.342   0.169   3.087 -0.9053 -0.2002 -0.4194
18539SOL     OW58509   5.667   1.491   4.674  0.0074  0.2252  0.4188
18539SOL    HW158510   5.671   1.586   4.667  1.7581  0.1151 -0.5876
18539SOL    HW258511   5.758   1.463   4.682 -0.4719 -1.3776  0.6619
18540SOL     OW58512   9.910   9.421   6.960 -0.2486 -0.1941 -0.0966
18540SOL    HW158513   9.893   9.374   7.042 -0.6915  0.9620  0.4968
18540SOL    HW258514   9.830   9.473   6.945 -0.7984 -1.4718 -2.0536
18541SOL     OW58515   1.071   9.588   0.574 -0.4910 -0.1637  0.6132
18541SOL    HW158516   1.099   9.676   0.599 -2.0452  0.1825  1.1887
18541SOL    HW258517   1.061   9.542   0.657 -0.0099 -0.8014  0.3245
18542SOL     OW58518   4.085   5.076   5.480 -0.5158 -0.0912  0.0722
18542SOL    HW158519   4.155   5.010   5.477 -1.2537 -0.9152 -2.9080
18542SOL    HW258520   4.059   5.080   5.572  4.1641  1.1717  1.6418
18543SOL     OW58521   3.408   4.232   7.105  0.1670  0.2768 -0.1550
18543SOL    HW158522   3.428   4.224   7.198 -0.9802 -2.7637 -0.0741
18543SOL    HW258523   3.493   4.250   7.064  0.8918  0.4111  1.3445
18544SOL     OW58524   2.622   4.156   5.059  0.3266  0.3244 -0.0512
18544SOL    HW158525   2.710   4.146   5.093  0.7160  1.0210 -0.8235
18544SOL    HW258526   2.578   4.213   5.122  0.5869  0.3961  0.0666
18545SOL     OW58527   4.709   6.518   7.367  0.6915 -0.0460  1.0028
18545SOL    HW158528   4.790   6.491   7.324 -0.8121 -2.2032 -0.6552
18545SOL    HW258529   4.707   6.468   7.448  0.2729 -1.2672  0.2605
18546SOL     OW58530   4.673   4.992   4.426  0.0467 -0.0533  0.2529
18546SOL    HW158531   4.606   5.028   4.483 -0.3934  2.6865 -1.7704
18546SOL    HW258532   4.747   5.052   4.436  0.7570 -0.7867 -0.4441
18547SOL     OW58533   7.650  10.521   3.157  0.0850  0.3567 -0.4383
18547SOL    HW158534   7.620  10.503   3.068 -0.7260 -0.8787  0.0512
18547SOL    HW258535   7.741  10.493   3.158  0.2344  0.8136 -0.9990
18548SOL     OW58536   1.108  10.773   6.250 -0.3598  0.2746  0.1142
18548SOL    HW158537   1.198  10.751   6.274 -0.1732  1.0000  0.0967
18548SOL    HW258538   1.076  10.695   6.205  1.4176  1.1734 -3.0837
18549SOL     OW58539   7.264   8.788   1.346  0.6084 -0.1684  0.1498
18549SOL    HW158540   7.241   8.842   1.422  0.4780  0.0927 -0.0742
18549SOL    HW258541   7.355   8.811   1.327 -0.1034  1.6501 -1.3204
18550SOL     OW58542   0.982   6.646   0.750 -0.0529 -0.0345  0.1071
18550SOL    HW158543   1.003   6.709   0.681 -0.1984  1.9073  1.7377
18550SOL    HW258544   0.887   6.654   0.762  0.2316  1.2126  1.8872
18551SOL     OW58545   4.466   9.330   7.283 -0.0112  0.2993  0.2546
18551SOL    HW158546   4.416   9.273   7.341 -0.4831  2.4731  2.1031
18551SOL    HW258547   4.406   9.349   7.211 -0.7272  0.3861  0.8610
18552SOL     OW58548   1.170   7.054   2.238 -0.4740 -0.5079 -0.0195
18552SOL    HW158549   1.204   7.142   2.227  0.9988 -1.0322  0.1805
18552SOL    HW258550   1.104   7.062   2.307 -1.2507  0.6403 -0.8707
18553SOL     OW58551   4.333   4.358   6.847 -0.4922 -0.6773  0.1194
18553SOL    HW158552   4.363   4.405   6.925 -0.1571  0.0088 -0.4104
18553SOL    HW258553   4.410   4.309   6.818 -0.3201 -0.1499 -0.3399
18554SOL     OW58554   1.788   9.309   7.567 -0.2531  0.1959  0.3401
18554SOL    HW158555   1.846   9.384   7.580 -0.8899  0.8030 -0.2327
18554SOL    HW258556   1.703   9.338   7.599 -0.5238 -0.2502  0.0388
18555SOL     OW58557   2.025   7.116   0.032 -0.3032  0.3153 -0.0946
18555SOL    HW158558   2.082   7.074   0.096  0.4780  2.6152  0.8288
18555SOL    HW258559   1.950   7.147   0.084  0.0341  1.6454 -0.3707
18556SOL     OW58560   6.697   4.061   1.275 -0.5574  0.3182  0.0906
18556SOL    HW158561   6.761   3.993   1.297  1.7016  2.2353 -0.0546
18556SOL    HW258562   6.723   4.091   1.188  1.8385  4.5771  1.9006
18557SOL     OW58563   8.988   8.483   3.922  0.2670  0.2823  0.1714
18557SOL    HW158564   9.033   8.410   3.966 -0.3424 -1.4043 -1.8407
18557SOL    HW258565   9.039   8.497   3.842 -0.9856  0.4332 -0.6258
18558SOL     OW58566   8.657   1.337   7.334 -0.6687  0.2504  0.0170
18558SOL    HW158567   8.587   1.381   7.383 -1.5312  0.8795 -1.6855
18558SOL    HW258568   8.737   1.385   7.359 -1.0621  0.4881  0.8647
18559SOL     OW58569   3.121   6.619   2.551 -0.0847  0.4654  0.1041
18559SOL    HW158570   3.054   6.687   2.550 -0.0209  0.5249 -0.3468
18559SOL    HW258571   3.090   6.552   2.489  1.2789  1.4991 -1.8271
18560SOL     OW58572   1.799   2.389   2.913  0.5565 -0.7162 -0.2838
18560SOL    HW158573   1.751   2.426   2.987  0.9470  0.6635 -0.6892
18560SOL    HW258574   1.742   2.319   2.880 -0.6592  0.1327 -0.0595
18561SOL     OW58575   6.741   9.728   8.861 -0.3681 -0.5612 -0.1128
18561SOL    HW158576   6.768   9.758   8.774 -2.8475 -1.6325 -1.3463
18561SOL    HW258577   6.657   9.686   8.847 -1.9321  1.1076  3.1594
18562SOL     OW58578   5.010   9.263   1.736 -0.0595 -0.0716  0.2517
18562SOL    HW158579   4.955   9.284   1.812 -0.7032  1.0972 -0.5086
18562SOL    HW258580   5.018   9.167   1.738 -0.6641 -0.1100  1.3791
18563SOL     OW58581  10.187   1.435   5.252 -0.3312 -0.1940 -0.2540
18563SOL    HW158582  10.187   1.363   5.189  0.8618  0.2640 -0.8164
18563SOL    HW258583  10.251   1.409   5.318  0.1395  0.3580 -0.4851
18564SOL     OW58584   2.811   8.519   6.313  0.2553  0.2229 -0.4676
18564SOL    HW158585   2.766   8.603   6.319  2.1950  1.2235  1.4965
18564SOL    HW258586   2.743   8.455   6.335 -1.1816  1.2526 -1.7027
18565SOL     OW58587   3.398   4.492   2.996  0.3304 -0.2159  0.0282
18565SOL    HW158588   3.465   4.505   3.063 -1.8974 -0.7423  2.5399
18565SOL    HW258589   3.425   4.412   2.950  1.7005 -0.0955  0.5790
18566SOL     OW58590   5.166   0.034   7.476 -0.0905 -0.0102 -0.2485
18566SOL    HW158591   5.164  -0.016   7.557  0.8756  1.0183  0.4436
18566SOL    HW258592   5.106   0.107   7.491 -1.3404 -0.8103 -1.1760
18567SOL     OW58593  10.695   5.223   1.337 -0.1318 -0.1763  0.1832
18567SOL    HW158594  10.644   5.143   1.324 -0.0835  0.0178 -1.3754
18567SOL    HW258595  10.752   5.227   1.261  1.0159  0.5101  1.0587
18568SOL     OW58596   4.282   0.208   3.531  0.4996  0.4403  0.2066
18568SOL    HW158597   4.353   0.176   3.477 -0.0310 -0.8442  0.2410
18568SOL    HW258598   4.229   0.131   3.551 -1.6108  1.5067 -0.8551
18569SOL     OW58599   6.466   5.208   6.074 -0.1398 -0.2434 -0.1711
18569SOL    HW158600   6.451   5.135   6.133 -1.7927 -0.3892 -0.7271
18569SOL    HW258601   6.433   5.178   5.989  0.9277  0.4615 -0.8622
18570SOL     OW58602   1.896   7.853  10.683 -0.3837  0.1033 -0.4178
18570SOL    HW158603   1.899   7.764  10.649 -2.0923 -0.0259 -0.3027
18570SOL    HW258604   1.859   7.905  10.612 -2.3356  0.1375  0.5657
18571SOL     OW58605   8.068   5.705   7.100  0.1291 -0.3557  0.2832
18571SOL    HW158606   8.002   5.774   7.092  0.7860  0.0290 -3.4738
18571SOL    HW258607   8.033   5.632   7.048  2.6814  0.0101 -2.1842
18572SOL     OW58608   8.714   5.271   6.551  0.0610  0.2096  0.2871
18572SOL    HW158609   8.738   5.318   6.631 -1.7196  2.1071 -0.2238
18572SOL    HW258610   8.680   5.187   6.582  0.1754  0.5724  1.4524
18573SOL     OW58611   9.177   3.534   9.986  0.1232 -0.1287  0.0476
18573SOL    HW158612   9.096   3.484   9.984 -0.3989  0.6910  0.3188
18573SOL    HW258613   9.156   3.613  10.036  1.1639 -0.0387  0.3808
18574SOL     OW58614   3.648   8.209   4.201 -0.8628 -0.6013 -0.6379
18574SOL    HW158615   3.710   8.138   4.219 -1.5095 -0.6636  1.7240
18574SOL    HW258616   3.703   8.283   4.174  0.1769 -0.9643  0.3944
18575SOL     OW58617   7.167   8.021   0.508 -0.3212  0.1191 -0.3262
18575SOL    HW158618   7.251   8.031   0.462  0.6713 -1.4518  1.0312
18575SOL    HW258619   7.112   8.091   0.472  1.0909  0.3242 -2.2741
18576SOL     OW58620  10.391   3.024   2.199  0.0405  0.2990 -0.2507
18576SOL    HW158621  10.324   2.986   2.141  0.0816 -0.4674  0.1926
18576SOL    HW258622  10.454   3.064   2.140 -0.2796  0.1264 -0.7153
18577SOL     OW58623   8.549   6.833   2.609 -0.0595 -0.5335 -0.3858
18577SOL    HW158624   8.525   6.840   2.702 -1.6971  0.5592 -0.8404
18577SOL    HW258625   8.645   6.831   2.609 -0.0091  0.0291  1.2914
18578SOL     OW58626  10.725   3.753  10.105  0.0204  0.5033  0.0275
18578SOL    HW158627  10.709   3.699  10.183 -1.3813  0.3168 -0.3754
18578SOL    HW258628  10.746   3.840  10.140 -0.0560  0.2882  0.6189
18579SOL     OW58629   7.328   1.358   3.979  0.3131 -0.4709  0.0160
18579SOL    HW158630   7.390   1.341   3.908  1.8730 -0.5635  1.3479
18579SOL    HW258631   7.293   1.272   4.001  1.4346 -0.7410  0.7699
18580SOL     OW58632   6.327   2.089   6.877  0.5075 -0.4213 -0.0323
18580SOL    HW158633   6.344   2.065   6.968 -0.0889  0.1836  0.2464
18580SOL    HW258634   6.305   2.182   6.881 -1.9496 -0.9340 -0.4722
18581SOL     OW58635   4.522   2.043   6.247 -0.1675  0.5511 -0.2022
18581SOL    HW158636   4.526   2.123   6.195 -3.8115  2.8380  2.5788
18581SOL    HW258637   4.590   2.055   6.314  1.9820 -0.6856 -2.0279
18582SOL     OW58638   7.150   4.198   1.683  0.3015 -0.0363 -0.0556
18582SOL    HW158639   7.130   4.184   1.591  1.1093  1.7203 -0.5353
18582SOL    HW258640   7.185   4.287   1.687 -0.3638  0.1856  2.0568
18583SOL     OW58641   7.533   2.202   7.023  0.3355 -0.2516  0.5427
18583SOL    HW158642   7.468   2.252   7.071  0.7589 -0.5342  1.4280
18583SOL    HW258643   7.553   2.127   7.079  1.1801 -0.3422  0.1424
18584SOL     OW58644   8.711   7.572   0.266 -0.4436  0.4099  0.1997
18584SOL    HW158645   8.682   7.483   0.248 -1.3881  0.6250  0.6097
18584SOL    HW258646   8.802   7.562   0.296 -1.0379 -0.5985  1.8376
18585SOL     OW58647   6.379   6.534   3.506 -0.4286  0.3965 -1.0487
18585SOL    HW158648   6.356   6.547   3.413  0.2425 -0.5712 -1.3689
18585SOL    HW258649   6.402   6.441   3.511  0.1956  0.6013 -0.0450
18586SOL     OW58650   8.279   9.766   6.019 -0.0236  0.0770 -0.6264
18586SOL    HW158651   8.295   9.710   5.943  1.5878 -1.9816  1.0930
18586SOL    HW258652   8.360   9.761   6.070 -0.8692  1.7742  1.0190
18587SOL     OW58653   8.574   8.615  10.428  0.0892  0.5594  0.3336
18587SOL    HW158654   8.517   8.551  10.386 -0.0423  0.7543  0.2138
18587SOL    HW258655   8.514   8.683  10.461 -0.0928 -0.7828  3.0726
18588SOL     OW58656   2.311   2.249   8.959 -0.4292  0.1390 -0.0386
18588SOL    HW158657   2.244   2.313   8.981 -0.4855 -0.1672  0.7317
18588SOL    HW258658   2.393   2.296   8.968 -0.4754  0.1351  0.4457
18589SOL     OW58659   5.284   2.079   5.006  0.3354  0.0299  0.0593
18589SOL    HW158660   5.328   2.150   5.052  2.9224 -0.7537 -0.9996
18589SOL    HW258661   5.341   2.003   5.020 -1.4392 -1.4370 -0.2718
18590SOL     OW58662   8.223   0.918   7.252  0.4730  0.0837  0.1500
18590SOL    HW158663   8.260   0.997   7.212 -0.7524 -0.3972 -2.1125
18590SOL    HW258664   8.298   0.875   7.292  1.3810  1.7720  0.3798
18591SOL     OW58665   1.321   6.528   5.551 -0.3219  0.2517  0.1666
18591SOL    HW158666   1.231   6.525   5.583  0.2095  0.9645  1.8530
18591SOL    HW258667   1.325   6.609   5.501 -0.7795 -0.1296 -0.5091
18592SOL     OW58668   4.447   1.087   2.712  0.4449 -0.2165 -0.7732
18592SOL    HW158669   4.488   1.013   2.668  0.8571  0.0342 -0.8222
18592SOL    HW258670   4.434   1.151   2.642 -1.1869 -0.7623 -1.0075
18593SOL     OW58671   8.010   8.746   2.637  0.0091  0.2731 -0.3305
18593SOL    HW158672   8.077   8.801   2.598 -0.4797  0.2356 -1.2420
18593SOL    HW258673   7.950   8.726   2.565  1.0127 -2.7964 -0.4409
18594SOL     OW58674   3.569   7.147  10.429  0.0388  0.0030 -0.3587
18594SOL    HW158675   3.502   7.098  10.380 -0.8294 -0.6455  1.3807
18594SOL    HW258676   3.567   7.235  10.391 -1.7723 -0.0152 -0.3970
18595SOL     OW58677   3.678   5.108   1.391  0.2783  0.3006  0.4986
18595SOL    HW158678   3.739   5.047   1.434  0.0904 -0.5475 -0.3949
18595SOL    HW258679   3.591   5.072   1.411  0.2032 -0.3431 -0.8994
18596SOL     OW58680  10.049   4.855   7.237  0.2038 -0.2094 -0.2542
18596SOL    HW158681  10.070   4.817   7.152  1.1295  1.2840 -0.7291
18596SOL    HW258682  10.123   4.912   7.257 -0.2882 -0.0670  1.2663
18597SOL     OW58683   7.399   0.818   5.608  0.3903  0.1446 -0.2468
18597SOL    HW158684   7.419   0.737   5.654  0.5627 -0.2821 -1.0641
18597SOL    HW258685   7.324   0.796   5.552  1.9778 -0.1545 -2.3403
18598SOL     OW58686   1.718   2.623   9.331 -0.7982 -0.0997 -0.4730
18598SOL    HW158687   1.685   2.672   9.256 -0.5820  0.3013 -0.3081
18598SOL    HW258688   1.641   2.579   9.368 -0.8927 -0.3484 -0.9639
18599SOL     OW58689   5.744   7.896   1.922 -0.2480  0.3184  0.0536
18599SOL    HW158690   5.702   7.873   1.839 -0.4084  1.4865 -0.2134
18599SOL    HW258691   5.678   7.877   1.988 -1.1814  1.9912 -0.3502
18600SOL     OW58692   7.546   3.241   0.492 -0.0220 -0.5277  0.0595
18600SOL    HW158693   7.564   3.174   0.426  2.4790  0.3341 -0.2481
18600SOL    HW258694   7.612   3.226   0.559  2.0193  2.7450 -0.9710
18601SOL     OW58695  10.655  10.671   7.703  0.2200 -0.6742 -0.6235
18601SOL    HW158696  10.657  10.601   7.638  0.4573 -1.1919 -0.0679
18601SOL    HW258697  10.581  10.726   7.677  1.2924  0.0472 -2.2662
18602SOL     OW58698   7.958   2.982  10.443  0.0286  0.3438 -0.0065
18602SOL    HW158699   7.888   2.931  10.482  0.6621 -1.2442 -0.8784
18602SOL    HW258700   7.961   3.062  10.495 -0.4632 -0.8308  1.9029
18603SOL     OW58701   5.205  10.167   7.805 -0.2776  0.2268 -0.0924
18603SOL    HW158702   5.210  10.085   7.855 -0.1156 -0.8909 -1.8517
18603SOL    HW258703   5.261  10.152   7.729 -0.7731  1.7373 -0.7964
18604SOL     OW58704   2.009   6.114   9.402  0.0076 -0.1341  0.6270
18604SOL    HW158705   1.995   6.103   9.307  0.9560  1.5145  0.2714
18604SOL    HW258706   1.948   6.052   9.442  0.2465 -1.5372 -1.0710
18605SOL     OW58707   0.524   9.161   7.262 -0.1764 -0.2068 -0.2073
18605SOL    HW158708   0.549   9.233   7.205  1.7346 -0.4963  0.2041
18605SOL    HW258709   0.514   9.086   7.204 -2.7315  0.4206 -0.7197
18606SOL     OW58710   2.954   9.960   1.240 -0.1880  0.0496  0.1379
18606SOL    HW158711   3.004   9.890   1.282 -0.1829  0.1707  0.3336
18606SOL    HW258712   2.904   9.915   1.172  0.2051 -0.0670 -0.0737
18607SOL     OW58713   3.793   1.306   4.323  0.4243  0.5326 -0.4066
18607SOL    HW158714   3.861   1.278   4.261 -0.5129  0.1215 -1.2704
18607SOL    HW258715   3.791   1.236   4.389  1.7566  1.2054  0.3944
18608SOL     OW58716   2.475   6.155   0.380  0.1928  0.0303 -0.0187
18608SOL    HW158717   2.509   6.201   0.457  0.9454 -0.8469  0.1780
18608SOL    HW258718   2.390   6.197   0.363  0.5683  1.0453  0.5512
18609SOL     OW58719   8.596   9.436   3.175 -0.1753 -0.5341  0.1921
18609SOL    HW158720   8.521   9.377   3.179 -0.0669 -0.6951 -0.0679
18609SOL    HW258721   8.661   9.388   3.122 -0.2079 -0.0503 -0.2971
18610SOL     OW58722   0.173   9.101   3.478  0.6406  0.1703  0.5931
18610SOL    HW158723   0.256   9.059   3.454  0.6034  0.6153 -0.4079
18610SOL    HW258724   0.182   9.122   3.571  2.0324  1.0089  0.3054
18611SOL     OW58725  10.137   9.222   0.388  0.5817 -0.0816 -0.1346
18611SOL    HW158726  10.127   9.176   0.471  1.2450 -0.7075 -0.3852
18611SOL    HW258727  10.211   9.282   0.402 -0.6391  1.3714  0.3722
18612SOL     OW58728   4.058   0.067   3.886 -0.0568 -0.0324 -0.0377
18612SOL    HW158729   3.981   0.117   3.912 -0.2194 -0.4575  0.3011
18612SOL    HW258730   4.132   0.125   3.906 -0.3098  0.5793 -0.8364
18613SOL     OW58731   3.759  10.204   1.420 -0.2252  0.3614 -0.4710
18613SOL    HW158732   3.715  10.125   1.450  1.3790 -0.2060  0.5531
18613SOL    HW258733   3.742  10.207   1.326  0.1360 -1.5188 -0.6368
18614SOL     OW58734  10.354   2.558   0.395 -0.6880  0.1666  0.1278
18614SOL    HW158735  10.345   2.654   0.395 -1.0845  0.1526 -0.8535
18614SOL    HW258736  10.268   2.527   0.366 -0.0113 -0.3937 -1.3710
18615SOL     OW58737   6.927   8.250   3.901 -0.5611 -0.7930  0.2652
18615SOL    HW158738   6.990   8.254   3.973 -0.7051  0.2629  0.3622
18615SOL    HW258739   6.944   8.330   3.851 -2.6896  0.2235  1.0584
18616SOL     OW58740   0.917   1.621   3.918 -0.1383 -0.0794  0.3052
18616SOL    HW158741   0.909   1.699   3.973  0.1544 -0.8547  1.4711
18616SOL    HW258742   0.937   1.550   3.979  0.9602 -0.8360 -0.8834
18617SOL     OW58743   6.128   0.425   5.828 -0.4179 -0.0982  0.1751
18617SOL    HW158744   6.129   0.347   5.772  0.4295  0.0571 -0.0518
18617SOL    HW258745   6.178   0.399   5.905  0.6632  0.4887 -0.3066
18618SOL     OW58746   2.887   7.360   7.960 -0.4803 -0.1704 -0.1604
18618SOL    HW158747   2.919   7.270   7.970 -0.9146 -0.3323 -0.2110
18618SOL    HW258748   2.922   7.406   8.036 -1.9551 -0.8782  1.0013
18619SOL     OW58749   2.389   4.646   8.998  0.2226  0.0459 -0.7971
18619SOL    HW158750   2.461   4.693   9.040  1.4586 -1.3797 -1.2506
18619SOL    HW258751   2.314   4.705   9.007  1.3870  1.5029 -0.1604
18620SOL     OW58752   5.037   1.958   9.039 -0.3781  0.1086 -0.0759
18620SOL    HW158753   5.092   2.017   8.989  0.5094 -0.5796  0.0587
18620SOL    HW258754   4.987   2.015   9.098  2.8317  0.6137  2.4485
18621SOL     OW58755  10.339   0.504   9.409 -0.2561 -0.5136  1.0644
18621SOL    HW158756  10.252   0.527   9.441  0.2254  2.4177  0.5046
18621SOL    HW258757  10.367   0.432   9.467 -2.2600 -0.2584  2.4756
18622SOL     OW58758   9.279   2.168   0.297 -0.5294  0.8166 -0.2595
18622SOL    HW158759   9.303   2.083   0.261  2.4692  0.8210  1.4428
18622SOL    HW258760   9.334   2.231   0.251  2.1441  0.9957  2.8069
18623SOL     OW58761   4.539   3.415   5.570  0.4000 -0.1684  0.0735
18623SOL    HW158762   4.530   3.507   5.545  0.9954 -0.6933 -2.3591
18623SOL    HW258763   4.450   3.381   5.566  0.4319 -0.1645 -1.2327
18624SOL     OW58764   2.973   1.685   2.843  0.2846  0.1273 -0.2597
18624SOL    HW158765   3.006   1.710   2.756 -0.0616  0.0059 -0.4280
18624SOL    HW258766   2.896   1.631   2.824  1.2482 -1.4245  0.0772
18625SOL     OW58767   9.533   1.096   2.665  0.9541  0.6688 -0.5855
18625SOL    HW158768   9.560   1.018   2.618 -2.0101 -1.5104  1.0142
18625SOL    HW258769   9.577   1.168   2.620  2.3820 -1.7145 -3.2781
18626SOL     OW58770   4.387   5.327   1.792 -0.1152  0.1665  0.1836
18626SOL    HW158771   4.319   5.268   1.824  0.5352 -1.4723 -1.2430
18626SOL    HW258772   4.418   5.286   1.710  1.9231  1.3269  0.2846
18627SOL     OW58773   0.760   8.642   6.240 -0.1885 -0.3408  0.4518
18627SOL    HW158774   0.760   8.553   6.203 -1.1545  0.3310 -1.2911
18627SOL    HW258775   0.681   8.683   6.204  1.0855  1.7555 -0.1574
18628SOL     OW58776   4.380   0.823   9.531 -0.0238  0.3881 -0.0397
18628SOL    HW158777   4.382   0.811   9.626 -0.3618  1.3975  0.1058
18628SOL    HW258778   4.289   0.805   9.507 -0.1082  0.8388 -0.0667
18629SOL     OW58779   6.684   6.778   4.269  0.5065 -0.0910  0.2226
18629SOL    HW158780   6.678   6.717   4.342 -0.4527  0.8168  0.9398
18629SOL    HW258781   6.595   6.783   4.234  0.8334 -0.0646 -0.6283
18630SOL     OW58782   8.929   2.983   4.900 -0.6281  0.2693 -0.4989
18630SOL    HW158783   8.902   3.065   4.859  1.0819  1.0379 -0.1850
18630SOL    HW258784   8.998   3.008   4.961 -0.5024 -1.3334  0.0722
18631SOL     OW58785   8.259   4.524   0.696 -0.0398  0.3545 -0.3800
18631SOL    HW158786   8.219   4.454   0.644  0.6192 -0.3689  0.0661
18631SOL    HW258787   8.351   4.524   0.670  0.4212 -0.3726  1.1264
18632SOL     OW58788   6.638   5.756   7.782 -0.3686 -0.2421 -0.0078
18632SOL    HW158789   6.592   5.724   7.859  1.3662 -0.0297  1.1773
18632SOL    HW258790   6.701   5.687   7.761  0.4120  0.4868 -0.1050
18633SOL     OW58791   5.327   5.622   2.409  0.5459  0.9636 -0.7186
18633SOL    HW158792   5.391   5.586   2.347  0.8077  1.4645 -0.7393
18633SOL    HW258793   5.256   5.558   2.409  1.8121 -0.5206  0.6558
18634SOL     OW58794   8.968   5.927   6.544 -0.4054  0.6232 -0.0640
18634SOL    HW158795   9.062   5.941   6.551 -0.5795  1.8369  0.0830
18634SOL    HW258796   8.951   5.922   6.450  0.0430 -1.5788 -0.0846
18635SOL     OW58797   6.229   1.424   8.722  0.6460  0.1594 -0.2600
18635SOL    HW158798   6.142   1.414   8.762  1.4739  0.6272  1.7487
18635SOL    HW258799   6.224   1.506   8.674 -0.0062  0.1989 -0.1377
18636SOL     OW58800  10.528   5.457   1.642 -0.0943  0.9206  0.0435
18636SOL    HW158801  10.611   5.416   1.665  0.9152  1.9594 -1.5651
18636SOL    HW258802  10.540   5.487   1.552 -1.8367  2.0557  0.1438
18637SOL     OW58803   5.493   3.596  10.508  0.7463  0.0011 -0.0435
18637SOL    HW158804   5.510   3.649  10.430  0.0071  1.9987  1.0840
18637SOL    HW258805   5.517   3.652  10.581 -1.1010 -0.8111  1.2627
18638SOL     OW58806   2.138   8.406   4.893  0.2778 -0.0080  0.6229
18638SOL    HW158807   2.086   8.486   4.904 -0.6292 -0.3138 -1.0298
18638SOL    HW258808   2.196   8.425   4.819  0.5903 -0.6169  0.7072
18639SOL     OW58809   0.857   1.942   3.593  0.4664  0.3987 -0.1228
18639SOL    HW158810   0.851   1.929   3.688  0.0942 -0.7289 -0.2853
18639SOL    HW258811   0.868   1.854   3.557  2.3828  0.9607 -1.0215
18640SOL     OW58812   4.254   9.756  10.620  0.0212 -0.1171 -0.0151
18640SOL    HW158813   4.333   9.811  10.613  0.7692 -0.7788  2.3132
18640SOL    HW258814   4.286   9.674  10.655 -1.3337 -1.5382 -1.8967
18641SOL     OW58815   6.426   7.400   4.079 -0.0278 -0.3448  0.4853
18641SOL    HW158816   6.460   7.409   4.169 -2.8195  1.0441  1.5287
18641SOL    HW258817   6.503   7.412   4.024  1.3230  2.2979  2.6451
18642SOL     OW58818   3.240   6.093   6.390  0.3262  0.0941  0.1177
18642SOL    HW158819   3.305   6.046   6.442  0.4939 -1.8466 -1.6835
18642SOL    HW258820   3.169   6.030   6.378 -0.1024  0.7928 -1.2086
18643SOL     OW58821   3.808   1.084   1.216  0.0481  0.4212  0.1807
18643SOL    HW158822   3.892   1.061   1.255  0.9354  0.8091 -1.3977
18643SOL    HW258823   3.831   1.138   1.140 -1.6250  0.4614 -0.3405
18644SOL     OW58824   2.781   0.029   3.289 -0.5513 -0.0367  0.4739
18644SOL    HW158825   2.788  -0.004   3.200  3.1458 -1.0371  0.9712
18644SOL    HW258826   2.851   0.094   3.296  1.5238 -2.3093  3.4337
18645SOL     OW58827   9.587   2.633   6.795  0.3977 -0.2727  0.0340
18645SOL    HW158828   9.598   2.681   6.713 -1.2493 -0.0726 -0.1049
18645SOL    HW258829   9.563   2.700   6.859 -2.4111 -0.8748 -0.2660
18646SOL     OW58830   6.925   5.611   1.396 -0.1329 -0.2300 -0.4500
18646SOL    HW158831   6.998   5.671   1.380  0.0961 -0.1065  0.8990
18646SOL    HW258832   6.962   5.524   1.383  0.0117 -0.1350 -0.6739
18647SOL     OW58833  10.371   0.516   1.158  0.0229  0.0590 -0.4374
18647SOL    HW158834  10.278   0.519   1.183 -0.2099 -0.2083 -1.2374
18647SOL    HW258835  10.383   0.428   1.123  0.1795  0.6092 -1.8199
18648SOL     OW58836   9.117   6.122   6.921 -0.3650 -0.5991  0.1885
18648SOL    HW158837   9.056   6.164   6.982  0.4214 -0.0193  0.5970
18648SOL    HW258838   9.118   6.030   6.948 -0.8207 -0.5543  0.3746
18649SOL     OW58839   4.952   1.527   6.673  0.0910 -0.2236 -0.4235
18649SOL    HW158840   5.043   1.511   6.649  0.4155 -0.0559  0.6449
18649SOL    HW258841   4.946   1.500   6.765 -0.8945 -0.0804 -0.4361
18650SOL     OW58842   3.606   7.614   5.731 -0.1131  0.2981  0.6025
18650SOL    HW158843   3.686   7.664   5.716 -0.0452 -0.3714 -1.6962
18650SOL    HW258844   3.579   7.638   5.819  1.2822  2.4186  0.5318
18651SOL     OW58845   0.849   5.386   6.921  0.3463 -0.0536 -0.3955
18651SOL    HW158846   0.897   5.348   6.847  0.6624  2.5577 -1.6342
18651SOL    HW258847   0.908   5.454   6.955  0.1630 -1.1063  2.2546
18652SOL     OW58848   9.801   7.267   9.274  0.6770  0.2598  0.4869
18652SOL    HW158849   9.765   7.347   9.312  0.2659 -0.0829  0.8322
18652SOL    HW258850   9.806   7.205   9.347  0.6877 -0.1306  0.1649
18653SOL     OW58851   1.267  10.599   8.235 -0.0422 -0.3439 -0.2598
18653SOL    HW158852   1.199  10.665   8.224  0.2492 -0.1286 -0.8241
18653SOL    HW258853   1.343  10.635   8.189  0.1422 -1.0436 -0.5121
18654SOL     OW58854   8.396  10.755   4.005 -0.0038  0.5232 -0.0465
18654SOL    HW158855   8.355  10.747   4.092 -2.0162 -0.5011 -1.0011
18654SOL    HW258856   8.490  10.754   4.022 -0.3408  1.5619  2.1975
18655SOL     OW58857   0.118   1.064  10.751 -0.8172  0.0352  0.1487
18655SOL    HW158858   0.031   1.079  10.714 -0.4602  1.6708 -0.1121
18655SOL    HW258859   0.103   1.053  10.845 -1.5142 -2.0575 -0.1649
18656SOL     OW58860   2.067   1.697  10.481 -0.1588 -0.6678  0.4687
18656SOL    HW158861   2.133   1.653  10.534 -2.6311 -0.8319  3.7191
18656SOL    HW258862   2.048   1.636  10.410  1.9908 -1.2558  0.3200
18657SOL     OW58863   8.696   7.251   2.397  0.1292  0.8355 -0.3592
18657SOL    HW158864   8.772   7.295   2.436  0.0796  1.0532 -0.5101
18657SOL    HW258865   8.644   7.223   2.473 -0.1722  1.6143 -0.2642
18658SOL     OW58866   3.450  10.315   3.292  0.7034  0.5527  0.0642
18658SOL    HW158867   3.401  10.303   3.373  0.3117 -2.7996 -0.5273
18658SOL    HW258868   3.539  10.286   3.312  1.1520  1.6657 -0.2216
18659SOL     OW58869   0.027   9.680   8.676 -0.0045 -0.2209  1.0776
18659SOL    HW158870   0.111   9.705   8.716 -0.6077 -0.2509  2.4383
18659SOL    HW258871   0.037   9.587   8.657  0.3318 -0.1832  1.0534
18660SOL     OW58872   4.291   5.096  10.576  0.3501  0.1764  0.4718
18660SOL    HW158873   4.195   5.087  10.578  0.3972 -0.2800  1.1332
18660SOL    HW258874   4.306   5.189  10.592 -0.0363  0.7910 -2.1856
18661SOL     OW58875   1.442  10.622   5.226 -0.5411  0.3269 -0.4836
18661SOL    HW158876   1.392  10.677   5.166  0.4356  0.5719 -1.0937
18661SOL    HW258877   1.520  10.597   5.177 -0.5469 -0.9002  0.0894
18662SOL     OW58878   8.396   5.859  10.355 -0.0699  0.4047 -0.0524
18662SOL    HW158879   8.341   5.801  10.302 -1.4925  2.5469 -1.0481
18662SOL    HW258880   8.337   5.894  10.422  1.5432 -1.7618  2.7493
18663SOL     OW58881   8.761   2.173   3.818  0.2715 -0.0084 -0.2080
18663SOL    HW158882   8.778   2.219   3.901  1.8818 -1.3070  0.2414
18663SOL    HW258883   8.691   2.223   3.777  0.9373  1.9565  0.9251
18664SOL     OW58884   6.630   6.138   3.540 -0.2285 -0.0849  0.4133
18664SOL    HW158885   6.640   6.200   3.468 -0.2223 -1.4251 -0.7741
18664SOL    HW258886   6.696   6.166   3.604  1.6070 -0.4141 -1.2345
18665SOL     OW58887   2.079   9.720   3.535  0.1958  0.5581  0.3950
18665SOL    HW158888   2.168   9.753   3.525  0.1054  0.8713  0.5981
18665SOL    HW258889   2.024   9.788   3.495  0.0722  0.1903 -0.0709
18666SOL     OW58890   0.559   9.182  10.620 -0.3643 -0.0882  0.3790
18666SOL    HW158891   0.470   9.215  10.634  0.3003  1.2011  1.9600
18666SOL    HW258892   0.574   9.122  10.694  0.2298  0.0663  0.3877
18667SOL     OW58893   6.673   2.168   6.576 -0.7623  0.4832  0.3336
18667SOL    HW158894   6.757   2.126   6.594 -2.0034 -1.4119  2.0508
18667SOL    HW258895   6.652   2.215   6.656 -1.0237  1.5868 -0.3561
18668SOL     OW58896   7.596   2.355   1.779 -0.0698  0.7011 -0.3850
18668SOL    HW158897   7.658   2.339   1.850 -0.7844  0.6713  0.2483
18668SOL    HW258898   7.584   2.450   1.778 -2.7740  0.5284  1.9772
18669SOL     OW58899   5.242   9.994   2.440  0.2563  0.4227 -0.2162
18669SOL    HW158900   5.176   9.935   2.404 -0.9480  1.1586  0.6990
18669SOL    HW258901   5.325   9.954   2.417 -0.4094  0.5557 -3.2643
18670SOL     OW58902   3.281   5.569   5.331 -0.0737 -0.5935  0.0271
18670SOL    HW158903   3.343   5.616   5.386  1.6121 -1.3767 -1.0844
18670SOL    HW258904   3.293   5.606   5.243  0.0891 -1.9078 -0.5405
18671SOL     OW58905   6.344   3.098   7.734 -0.1780 -0.1714 -0.4365
18671SOL    HW158906   6.422   3.043   7.744  0.0827  0.1248 -0.7756
18671SOL    HW258907   6.365   3.177   7.784 -0.5121 -0.3396 -0.0267
18672SOL     OW58908   2.729  10.574   3.391  0.0786 -0.1962 -0.7666
18672SOL    HW158909   2.750  10.661   3.357 -0.2781  0.0691 -0.3304
18672SOL    HW258910   2.695  10.526   3.316  1.2989 -0.3124 -1.2579
18673SOL     OW58911  10.116   2.589  10.100 -0.1852  0.3599  0.2591
18673SOL    HW158912  10.140   2.673  10.060 -0.3894  0.1977 -0.2094
18673SOL    HW258913  10.177   2.526  10.062 -0.0414  0.2921  0.6000
18674SOL     OW58914   0.142   5.881   8.252  0.0044 -0.2588 -0.2487
18674SOL    HW158915   0.156   5.892   8.346  0.8569 -1.5290 -0.2117
18674SOL    HW258916   0.048   5.898   8.240 -0.2065 -0.5223  0.9035
18675SOL     OW58917  10.377   5.809   1.211 -0.2294  0.3332 -0.2670
18675SOL    HW158918  10.459   5.839   1.172 -0.9901  1.7409 -0.8658
18675SOL    HW258919  10.309   5.837   1.149 -1.3634  1.4019  1.3727
18676SOL     OW58920   7.065   7.238  10.238 -0.1300  0.8214 -0.0364
18676SOL    HW158921   7.139   7.179  10.225  1.0453  2.4937 -1.2816
18676SOL    HW258922   7.024   7.206  10.319  0.3510 -1.7405 -0.7088
18677SOL     OW58923   4.502   3.265   9.322 -0.2804 -0.0182 -0.0091
18677SOL    HW158924   4.416   3.303   9.339 -0.7175 -1.0402  0.1645
18677SOL    HW258925   4.546   3.328   9.266 -1.4137  0.1971 -0.6863
18678SOL     OW58926   4.601   1.153   0.249 -0.5689 -0.2376  0.3134
18678SOL    HW158927   4.511   1.146   0.216 -0.4393  0.3016 -0.1873
18678SOL    HW258928   4.621   1.067   0.285 -0.7439 -0.8487 -0.9972
18679SOL     OW58929   6.070   1.597  10.560 -0.4005 -0.3850  0.1309
18679SOL    HW158930   5.979   1.617  10.582 -0.1394 -0.8260  1.7111
18679SOL    HW258931   6.071   1.504  10.541 -0.2111 -0.4721  0.5507
18680SOL     OW58932   2.502   9.098   9.312  0.5055  0.0214 -0.1513
18680SOL    HW158933   2.498   9.193   9.323 -1.3557  0.1416 -1.4013
18680SOL    HW258934   2.534   9.065   9.396  1.1804  1.7404  0.3030
18681SOL     OW58935   2.759   2.626   4.879 -0.0028 -0.2073 -0.2585
18681SOL    HW158936   2.797   2.612   4.792 -0.5758 -0.0620 -0.5373
18681SOL    HW258937   2.833   2.620   4.939  0.1733 -1.9565 -0.6020
18682SOL     OW58938   7.167   0.594   2.196 -0.2212  0.4543  0.5081
18682SOL    HW158939   7.099   0.609   2.262 -0.4360  0.7335  0.2276
18682SOL    HW258940   7.128   0.623   2.114  0.7446  2.0267  0.5606
18683SOL     OW58941   0.921   9.988   7.478 -0.0635  0.4373 -0.0224
18683SOL    HW158942   0.914   9.993   7.573  0.7764 -0.7311  0.1088
18683SOL    HW258943   0.891   9.900   7.456 -1.1058  0.9914 -0.9394
18684SOL     OW58944   2.997   8.520   4.636  0.3331  0.1594 -0.2181
18684SOL    HW158945   3.062   8.588   4.650  1.0692 -0.3510 -1.0462
18684SOL    HW258946   2.989   8.515   4.541  1.7201 -2.2038 -0.2834
18685SOL     OW58947   3.961  10.336   7.457 -0.1846  0.7008 -0.1144
18685SOL    HW158948   4.012  10.357   7.379 -1.3493  0.1300 -1.0561
18685SOL    HW258949   3.870  10.351   7.431 -0.6661 -0.4478  0.8243
18686SOL     OW58950   3.201   0.731  10.041  0.1372 -0.1258 -0.3956
18686SOL    HW158951   3.247   0.746   9.958  0.4808 -1.6279 -0.5083
18686SOL    HW258952   3.266   0.687  10.096 -0.9105 -1.5992 -0.2914
18687SOL     OW58953   6.627   8.849   5.397  0.2229  0.3957  0.7571
18687SOL    HW158954   6.531   8.849   5.405  0.2101  1.4776  0.8274
18687SOL    HW258955   6.650   8.942   5.397  1.1857  0.1676 -0.4878
18688SOL     OW58956   1.368   3.167   3.520  0.1750 -0.1756 -0.3755
18688SOL    HW158957   1.437   3.189   3.583  0.1521  1.0338 -0.7383
18688SOL    HW258958   1.361   3.245   3.464 -1.4310 -0.2965 -0.3938
18689SOL     OW58959   8.349   8.890   5.797  0.2286 -0.1670  0.0878
18689SOL    HW158960   8.302   8.817   5.837 -1.2706  0.0459 -1.1771
18689SOL    HW258961   8.323   8.966   5.848 -1.5450  0.0786 -1.0746
18690SOL     OW58962   5.282   4.136   7.233 -0.3533  0.1761 -0.1497
18690SOL    HW158963   5.198   4.090   7.236 -0.7927  0.9744 -0.0698
18690SOL    HW258964   5.332   4.100   7.307 -0.5561 -0.4223 -0.3009
18691SOL     OW58965   5.963   0.071   7.947  0.4535 -0.3954 -0.7427
18691SOL    HW158966   5.942   0.059   8.040 -0.3266  0.0354 -0.8549
18691SOL    HW258967   6.051   0.035   7.938  0.6680 -0.1588  0.2327
18692SOL     OW58968   6.635   0.301   8.270 -0.0689  0.5764 -0.0313
18692SOL    HW158969   6.558   0.312   8.326 -0.2623  2.5841 -0.5961
18692SOL    HW258970   6.663   0.391   8.250  0.6340 -0.0682 -2.2425
18693SOL     OW58971   7.816  10.777   5.266 -0.6874 -0.0201  0.4630
18693SOL    HW158972   7.883  10.846   5.274 -0.5466 -0.0475 -0.3727
18693SOL    HW258973   7.826  10.725   5.346  0.7136 -0.3868  0.0699
18694SOL     OW58974   1.558   4.394   4.315  0.2315  0.3907 -0.0481
18694SOL    HW158975   1.607   4.473   4.338  0.8074 -0.3274  1.3079
18694SOL    HW258976   1.558   4.341   4.395 -0.5652 -0.7722 -0.7796
18695SOL     OW58977   9.411   7.315   4.881  0.3443 -0.3444 -0.2454
18695SOL    HW158978   9.461   7.233   4.880  1.2670  0.1717  0.9545
18695SOL    HW258979   9.475   7.382   4.901 -0.4765  0.6418 -0.7999
18696SOL     OW58980   8.057   7.480   7.159 -0.4137 -0.3623  0.2266
18696SOL    HW158981   8.129   7.416   7.160 -0.1695 -0.1839 -1.6593
18696SOL    HW258982   7.979   7.427   7.146 -0.5972 -0.4986  1.6639
18697SOL     OW58983   4.897  10.298   6.257  0.0708 -0.0064 -0.6440
18697SOL    HW158984   4.804  10.312   6.236 -0.1521 -0.8936 -0.3158
18697SOL    HW258985   4.922  10.224   6.201  0.3602 -0.2684 -0.1717
18698SOL     OW58986   2.848   6.446   8.905  0.0798 -0.0696  0.3271
18698SOL    HW158987   2.846   6.354   8.878  1.0774 -0.7652  2.4484
18698SOL    HW258988   2.756   6.466   8.924 -0.4194 -0.0359 -1.8041
18699SOL     OW58989   0.585   3.470   5.147  0.0018 -0.1436 -0.0381
18699SOL    HW158990   0.527   3.474   5.071 -1.3779  0.2874  1.0057
18699SOL    HW258991   0.628   3.556   5.147  0.6877 -0.4650 -0.8133
18700SOL     OW58992   6.425  10.474   2.211  0.1710 -0.1274  0.2801
18700SOL    HW158993   6.389  10.516   2.133 -2.0184 -0.8907  0.7999
18700SOL    HW258994   6.487  10.538   2.246 -1.4107  1.7779 -0.1737
18701SOL     OW58995   2.096   2.588   3.286  0.1810  0.4521 -0.0701
18701SOL    HW158996   2.009   2.567   3.251 -0.6411  1.3453  1.3005
18701SOL    HW258997   2.097   2.546   3.373  1.0880  0.5451 -0.0260
18702SOL     OW58998   8.147   2.045   7.280  0.2423 -0.2028 -0.2577
18702SOL    HW158999   8.100   1.962   7.271 -0.1348 -0.0286  0.1220
18702SOL    HW259000   8.222   2.024   7.336 -0.4240 -0.0587  0.7036
18703SOL     OW59001   7.769   8.454   1.159  0.0285 -0.3439  0.3646
18703SOL    HW159002   7.676   8.438   1.179 -0.3759 -1.5371 -2.0625
18703SOL    HW259003   7.778   8.427   1.068  2.8443 -0.4385  0.6061
18704SOL     OW59004   9.287   3.013   1.177  0.7337 -0.5383  0.0095
18704SOL    HW159005   9.226   3.025   1.250  0.5613 -1.8225  0.1029
18704SOL    HW259006   9.321   3.101   1.159 -1.0008  0.1904  0.0824
18705SOL     OW59007   7.330   8.973   8.132  0.2685  0.1091 -0.3656
18705SOL    HW159008   7.413   8.944   8.169  0.6054  0.8445 -0.5246
18705SOL    HW259009   7.276   8.894   8.129  0.5993 -0.1678  0.7022
18706SOL     OW59010   1.094   9.106   0.187 -0.3834  0.0047  0.2235
18706SOL    HW159011   1.132   9.195   0.189  0.5269 -0.3642  2.1637
18706SOL    HW259012   1.037   9.103   0.264 -0.6155 -1.0031  0.0207
18707SOL     OW59013   5.425   2.746   8.398  0.1381  0.3236 -0.9307
18707SOL    HW159014   5.339   2.706   8.409 -0.1069  0.6347 -1.7016
18707SOL    HW259015   5.476   2.714   8.473 -0.2945 -0.7712 -1.0936
18708SOL     OW59016   5.828   6.880   0.344 -0.8828  0.4962  0.2550
18708SOL    HW159017   5.897   6.903   0.405 -0.6340 -1.9077  0.9746
18708SOL    HW259018   5.863   6.905   0.258  1.9972 -2.5889  0.2881
18709SOL     OW59019  10.442   8.458   9.402 -0.1711  0.0118 -0.1068
18709SOL    HW159020  10.365   8.474   9.458 -0.5075 -0.9158 -0.2982
18709SOL    HW259021  10.516   8.458   9.463 -0.4444 -0.1983  0.2266
18710SOL     OW59022   2.340   3.182   9.796  0.0918  0.3726 -0.3898
18710SOL    HW159023   2.323   3.275   9.786  3.2322  1.0910 -0.1438
18710SOL    HW259024   2.307   3.143   9.715 -0.6830  1.7831 -0.7801
18711SOL     OW59025   5.486   8.831   6.779 -0.3860 -0.1279 -0.3037
18711SOL    HW159026   5.529   8.769   6.838 -0.3489 -0.6877 -0.9101
18711SOL    HW259027   5.460   8.904   6.835 -2.6036 -1.7457  0.8961
18712SOL     OW59028   5.778   7.784   0.091 -0.5105  0.0706  0.0214
18712SOL    HW159029   5.766   7.713   0.027  0.5645  0.6816 -0.8901
18712SOL    HW259030   5.848   7.753   0.148 -1.9690 -0.8006  1.4385
18713SOL     OW59031   7.436   4.471   8.225 -0.2281  0.2494  0.2595
18713SOL    HW159032   7.349   4.473   8.184  0.1079  0.6770 -0.4400
18713SOL    HW259033   7.490   4.421   8.164  0.2355  0.7526  0.2508
18714SOL     OW59034   5.935   9.688   4.597  0.1099 -0.5786 -0.2438
18714SOL    HW159035   5.872   9.632   4.641 -0.3976  0.7314  0.7660
18714SOL    HW259036   5.883   9.762   4.565  0.6797 -0.8724 -1.9790
18715SOL     OW59037   4.212   5.714   9.686  0.1444 -0.7636 -0.1577
18715SOL    HW159038   4.196   5.782   9.751  1.2084 -1.5048  0.9169
18715SOL    HW259039   4.164   5.638   9.717  2.1489 -1.7092  0.8464
18716SOL     OW59040   0.841   0.028   4.562 -0.6969  0.4198  0.3339
18716SOL    HW159041   0.881  -0.011   4.484  0.3549  2.0644 -0.0009
18716SOL    HW259042   0.909   0.022   4.629 -0.1949  2.3021  0.0551
18717SOL     OW59043   1.405   5.381   8.531  0.0010 -0.7930  0.1984
18717SOL    HW159044   1.314   5.380   8.560 -1.3535  2.9504 -3.1203
18717SOL    HW259045   1.409   5.318   8.459  0.1118 -1.0256  0.4032
18718SOL     OW59046   4.909   1.443   8.989  0.7032 -0.2106 -0.5097
18718SOL    HW159047   4.933   1.474   9.076  0.3848 -1.3242 -0.0190
18718SOL    HW259048   4.910   1.522   8.935 -2.2204  1.0774  1.1339
18719SOL     OW59049   9.579   7.664   2.952 -0.3673  0.6695  0.1350
18719SOL    HW159050   9.594   7.583   3.000  0.9074  0.5650 -0.4080
18719SOL    HW259051   9.603   7.734   3.012  1.9236  0.5228 -0.5217
18720SOL     OW59052   9.595   4.681  10.349  0.4052  0.6110  0.1566
18720SOL    HW159053   9.560   4.712  10.265  0.4131 -0.6218 -0.3191
18720SOL    HW259054   9.688   4.703  10.345  0.4749  0.2560 -0.3105
18721SOL     OW59055   5.233   9.276   0.114 -0.2564  0.3224  0.0679
18721SOL    HW159056   5.143   9.309   0.121 -0.4635 -0.3065  0.4599
18721SOL    HW259057   5.230   9.190   0.156  1.0604  1.2884  2.3046
18722SOL     OW59058   5.985   2.603   4.697  0.3847 -0.3194  0.2478
18722SOL    HW159059   5.910   2.551   4.726 -1.3788  1.0452 -1.5971
18722SOL    HW259060   5.970   2.690   4.734 -0.4877  0.7112 -2.3107
18723SOL     OW59061   3.190   0.922   7.433  0.1474 -0.3586  0.1314
18723SOL    HW159062   3.181   0.827   7.441  0.9252 -0.6299 -1.6845
18723SOL    HW259063   3.101   0.955   7.436 -0.3215 -1.3876 -1.4687
18724SOL     OW59064   8.548   2.644   0.309 -0.5179  0.2858 -0.3549
18724SOL    HW159065   8.520   2.554   0.327  0.6635 -0.0862 -0.2764
18724SOL    HW259066   8.620   2.634   0.247 -0.2364  1.1640 -0.1780
18725SOL     OW59067   8.958   3.196   6.022  0.0479  0.0588  0.3372
18725SOL    HW159068   8.863   3.187   6.029 -0.0016  0.1527 -0.1457
18725SOL    HW259069   8.977   3.282   6.058 -0.3016  0.9231 -1.4167
18726SOL     OW59070   7.486   6.716   8.519  0.3619 -0.2085  0.3314
18726SOL    HW159071   7.504   6.646   8.582 -0.4345 -2.3402 -1.6602
18726SOL    HW259072   7.391   6.712   8.505  0.7114 -0.9271 -2.1797
18727SOL     OW59073   9.857   9.106   2.704  0.3480 -0.1670 -0.2139
18727SOL    HW159074   9.946   9.089   2.673  0.1955  0.0037 -0.7417
18727SOL    HW259075   9.822   9.020   2.726  1.1715 -0.1243  1.4732
18728SOL     OW59076   3.857   5.605   0.742  0.4469 -0.0396  0.3354
18728SOL    HW159077   3.820   5.573   0.659  0.4970 -0.2017  0.3748
18728SOL    HW259078   3.786   5.655   0.782  0.1029 -0.7578  0.6380
18729SOL     OW59079   3.909   9.566   8.379  0.1873 -0.4227  0.1319
18729SOL    HW159080   3.836   9.547   8.438  0.0001 -0.4496 -0.1077
18729SOL    HW259081   3.932   9.482   8.341  0.5361 -0.4642  0.4248
18730SOL     OW59082   9.522   8.725   7.388 -0.7907 -0.2148  0.4763
18730SOL    HW159083   9.555   8.815   7.393  0.9352 -0.5923 -2.1435
18730SOL    HW259084   9.440   8.733   7.338 -2.1400  0.1212  2.5931
18731SOL     OW59085   7.201   4.587   4.083  0.5945  0.4547  0.5328
18731SOL    HW159086   7.229   4.644   4.155  0.6618  0.8181  0.2204
18731SOL    HW259087   7.279   4.536   4.062  0.4996  0.1555  0.8965
18732SOL     OW59088   5.048   3.086   1.946 -0.6864 -0.0352  0.0111
18732SOL    HW159089   5.034   3.012   2.006  0.3074 -0.0488  0.2456
18732SOL    HW259090   5.088   3.046   1.869  0.0452  0.2861  0.2239
18733SOL     OW59091  10.685   4.148   2.894 -0.8575 -0.2243 -0.0597
18733SOL    HW159092  10.609   4.191   2.855 -1.0750 -0.6025 -0.0580
18733SOL    HW259093  10.687   4.180   2.984 -1.3761 -0.6713  0.1199
18734SOL     OW59094   3.004   1.161   4.955  0.0358 -0.9084 -0.1455
18734SOL    HW159095   3.079   1.220   4.960 -0.7680  0.1987 -0.5597
18734SOL    HW259096   2.960   1.172   5.040  0.4731 -1.7505  0.1971
18735SOL     OW59097   2.047   6.741   0.983  0.4596  0.5629  0.0200
18735SOL    HW159098   1.964   6.762   0.941  0.3595 -1.0968 -0.7028
18735SOL    HW259099   2.065   6.651   0.955 -0.6596 -1.5828  5.1181
18736SOL     OW59100   2.890  10.782   2.603  0.5531  0.4408 -0.3877
18736SOL    HW159101   2.969  10.821   2.642  1.9329 -0.8667 -1.7033
18736SOL    HW259102   2.882  10.825   2.518 -0.4751  0.9248 -0.0550
18737SOL     OW59103   8.794   4.810   4.264 -0.1496  0.1860  0.4926
18737SOL    HW159104   8.871   4.761   4.236 -0.8351 -0.8883  0.4396
18737SOL    HW259105   8.817   4.902   4.249  0.3583 -0.2162 -1.4475
18738SOL     OW59106   6.597   1.528   1.532 -0.1187 -0.7384 -0.8183
18738SOL    HW159107   6.516   1.530   1.481 -0.8731  2.6243  0.2166
18738SOL    HW259108   6.667   1.541   1.467 -0.9220  1.7700 -1.2856
18739SOL     OW59109   0.360   9.838   8.374 -0.5493 -0.7542  0.0832
18739SOL    HW159110   0.306   9.917   8.367 -0.5526 -0.6682  1.0579
18739SOL    HW259111   0.353   9.797   8.287  2.1347  2.0033 -1.6423
18740SOL     OW59112   9.312   2.548   4.870 -0.6970  0.8516 -0.0295
18740SOL    HW159113   9.225   2.555   4.829 -1.2361 -0.0398  0.9025
18740SOL    HW259114   9.363   2.619   4.831 -1.4838  0.6663 -1.4740
18741SOL     OW59115   5.609   4.334   1.362 -0.4338  0.2408 -0.2683
18741SOL    HW159116   5.647   4.421   1.375  0.7315  0.2841 -3.1212
18741SOL    HW259117   5.514   4.349   1.366 -0.2634  1.7164 -0.9485
18742SOL     OW59118   3.405   4.610   0.223  0.0873  0.1764  0.0174
18742SOL    HW159119   3.407   4.547   0.294 -0.4679 -0.1727 -0.2650
18742SOL    HW259120   3.404   4.557   0.143  2.4442  0.5643 -0.3371
18743SOL     OW59121  10.722   5.607   6.314  0.2996  0.3492 -0.2425
18743SOL    HW159122  10.705   5.540   6.380 -0.2845  0.1564 -0.5778
18743SOL    HW259123  10.780   5.670   6.357 -0.7716  0.6922  0.7503
18744SOL     OW59124   4.688   6.082   5.985  0.1832  0.6132  0.2124
18744SOL    HW159125   4.772   6.076   5.940  0.4598  1.5872  0.5587
18744SOL    HW259126   4.643   6.000   5.965  0.5863  0.7188 -1.2486
18745SOL     OW59127   6.798   4.285  10.361 -0.4451 -0.2920 -0.1430
18745SOL    HW159128   6.815   4.191  10.371 -0.5435 -0.2239  0.7102
18745SOL    HW259129   6.710   4.298  10.397 -0.5406  0.0851 -0.5015
18746SOL     OW59130   0.859   0.303   0.209  1.0875 -0.4565  0.1101
18746SOL    HW159131   0.879   0.383   0.160  0.7758  0.8811  2.0442
18746SOL    HW259132   0.765   0.309   0.227  1.3506 -0.4066  1.6270
18747SOL     OW59133   0.135   7.690   1.204  0.2285  0.1095 -0.0780
18747SOL    HW159134   0.129   7.741   1.285 -1.7132 -0.3608  0.1337
18747SOL    HW259135   0.188   7.614   1.226  2.0072  1.2942 -0.0289
18748SOL     OW59136  10.025   5.707   6.458  0.5610  0.7895  0.0534
18748SOL    HW159137  10.042   5.679   6.368  0.9361  1.7081 -0.1773
18748SOL    HW259138   9.948   5.763   6.452 -0.1418 -0.0971  0.4954
18749SOL     OW59139   9.608   5.730   5.630 -0.4480 -0.0082  0.3604
18749SOL    HW159140   9.574   5.719   5.718 -0.2953  0.2279  0.4514
18749SOL    HW259141   9.602   5.825   5.614 -1.7005 -0.1856 -0.3788
18750SOL     OW59142   3.523   1.089   2.173  0.3705 -0.0224 -0.2782
18750SOL    HW159143   3.575   1.054   2.101  0.0769  0.3925 -0.6977
18750SOL    HW259144   3.442   1.120   2.132 -1.3212 -2.8570  0.6694
18751SOL     OW59145   1.015   5.008   4.450  0.0726 -0.4032  0.0824
18751SOL    HW159146   1.094   5.054   4.423  0.2326 -0.7118  0.0214
18751SOL    HW259147   0.999   5.039   4.539 -0.0547  0.0805 -0.1075
18752SOL     OW59148   4.058   2.222   7.757 -0.2174  0.1236  0.5372
18752SOL    HW159149   3.992   2.291   7.762 -0.4979  0.2898 -2.7839
18752SOL    HW259150   4.011   2.141   7.775 -0.8349  0.4554  0.4404
18753SOL     OW59151   2.382   5.645   8.060 -0.1781 -0.0195  0.1271
18753SOL    HW159152   2.371   5.706   7.987 -2.2532 -0.0365  0.3450
18753SOL    HW259153   2.401   5.561   8.018  0.5401  0.3343 -0.2799
18754SOL     OW59154   7.320   2.433   1.121 -0.1415 -0.4797  0.3431
18754SOL    HW159155   7.295   2.477   1.039 -2.0438 -3.2730 -0.7275
18754SOL    HW259156   7.271   2.480   1.189  0.1192  0.8030 -0.3280
18755SOL     OW59157  10.183   9.291   6.073 -0.0483  0.2746 -0.3332
18755SOL    HW159158  10.200   9.315   5.981 -0.2667  0.3642 -0.3510
18755SOL    HW259159  10.116   9.353   6.101  0.3252  0.5278  0.0175
18756SOL     OW59160   2.656   2.450   5.136  0.1732 -0.3894 -0.4151
18756SOL    HW159161   2.666   2.364   5.177 -1.1040 -0.3101  0.0970
18756SOL    HW259162   2.741   2.493   5.151  0.8185 -1.5271 -0.6428
18757SOL     OW59163   6.638   2.538   7.909 -0.1104 -0.0920 -0.1073
18757SOL    HW159164   6.639   2.549   8.004  1.3959  0.0298 -0.1130
18757SOL    HW259165   6.689   2.459   7.894 -1.2806 -0.7490 -0.7714
18758SOL     OW59166   3.116   2.511   7.834 -0.5490 -0.3229 -0.2572
18758SOL    HW159167   3.131   2.577   7.767 -0.2959 -1.2140 -1.1013
18758SOL    HW259168   3.046   2.456   7.798 -1.1251 -0.2172  0.6625
18759SOL     OW59169   9.589   8.040   2.566  0.2694 -0.4624 -0.3187
18759SOL    HW159170   9.669   8.046   2.513  0.3125  1.4085 -0.0894
18759SOL    HW259171   9.582   7.946   2.587  2.8531 -0.5979  0.3354
18760SOL     OW59172   1.386   8.715   5.951 -0.3886 -0.3389 -0.0205
18760SOL    HW159173   1.444   8.659   6.002 -0.8917 -0.8134  0.0275
18760SOL    HW259174   1.298   8.696   5.983 -0.7127 -0.6354 -1.0441
18761SOL     OW59175   4.502   7.686   4.237  0.0889 -0.0999  0.1896
18761SOL    HW159176   4.533   7.596   4.240 -1.4640 -0.6335  1.7330
18761SOL    HW259177   4.450   7.691   4.158 -0.1279 -0.6691  0.2948
18762SOL     OW59178   7.514   7.338   3.225 -0.3063  0.1100  0.2555
18762SOL    HW159179   7.485   7.362   3.137  0.1597 -0.6525 -0.1187
18762SOL    HW259180   7.587   7.277   3.210 -0.3070 -0.1224  1.1667
18763SOL     OW59181   0.268   0.829   4.119 -0.2340  0.1863 -0.1459
18763SOL    HW159182   0.320   0.850   4.041 -0.3527 -1.1085 -0.6062
18763SOL    HW259183   0.304   0.885   4.188  0.5369  0.6341 -0.8946
18764SOL     OW59184   0.710   1.153  10.188 -0.5212  0.3516 -0.0947
18764SOL    HW159185   0.782   1.098  10.219 -1.3278 -2.1263 -2.2299
18764SOL    HW259186   0.641   1.141  10.253  0.5893  1.9748  1.4583
18765SOL     OW59187   4.820   9.749   6.166 -0.1197  0.3392  0.8677
18765SOL    HW159188   4.910   9.721   6.182  0.2121  1.5565  1.2396
18765SOL    HW259189   4.772   9.668   6.149  0.8729 -0.3994  1.5054
18766SOL     OW59190   2.973   6.223   6.120 -0.4748 -0.0630 -0.3487
18766SOL    HW159191   2.984   6.129   6.134 -0.7861 -0.1745 -0.8287
18766SOL    HW259192   2.878   6.237   6.127 -0.2485  0.6365  2.2409
18767SOL     OW59193   7.277   7.261   7.193 -0.2139 -0.1059 -0.2296
18767SOL    HW159194   7.341   7.330   7.211  1.1023 -1.8879  2.7163
18767SOL    HW259195   7.194   7.308   7.182  0.3934  1.9930  2.7465
18768SOL     OW59196   9.716   8.959  10.534  1.0655 -0.2883 -0.4604
18768SOL    HW159197   9.713   8.864  10.540 -1.1859 -0.2059  0.8636
18768SOL    HW259198   9.631   8.984  10.498  0.1705  1.3026  2.3768
18769SOL     OW59199   5.692   0.733   5.647  0.1908  0.5574  0.0226
18769SOL    HW159200   5.708   0.695   5.561 -2.5564 -0.6146 -0.0626
18769SOL    HW259201   5.754   0.687   5.705  0.0749 -0.7540 -0.8569
18770SOL     OW59202   1.109   1.639   7.165 -0.0909 -0.7370  0.1978
18770SOL    HW159203   1.096   1.578   7.238 -1.4426  1.2639  1.7396
18770SOL    HW259204   1.116   1.725   7.207  0.2856  0.3557 -1.9835
18771SOL     OW59205   4.917   1.024   3.240 -0.2818  0.3000 -0.3314
18771SOL    HW159206   4.923   1.101   3.296 -2.3084  0.0261  0.3890
18771SOL    HW259207   4.875   1.055   3.160 -0.3108  0.1278 -0.3849
18772SOL     OW59208   1.835   7.560   7.603 -0.2825 -0.0611 -0.1902
18772SOL    HW159209   1.830   7.645   7.647  0.2755  0.2910 -0.7948
18772SOL    HW259210   1.880   7.503   7.666  0.6502  0.4842 -0.3454
18773SOL     OW59211   3.567   5.950   5.329  0.1884 -0.1521  0.0501
18773SOL    HW159212   3.619   5.965   5.250 -2.1169 -0.3994 -1.6169
18773SOL    HW259213   3.631   5.944   5.400  2.2744  1.0566 -1.6420
18774SOL     OW59214   5.217   4.407  10.060 -0.1188 -0.0052  0.3194
18774SOL    HW159215   5.153   4.478  10.053 -1.7214 -1.5101 -1.1283
18774SOL    HW259216   5.164   4.328  10.069  1.4973 -1.3856 -1.4663
18775SOL     OW59217   0.778   8.030   6.383  0.2763 -0.3922  0.4399
18775SOL    HW159218   0.835   7.992   6.450 -0.0358 -0.1579  0.8451
18775SOL    HW259219   0.690   8.000   6.407  0.1039  0.0937  0.4227
18776SOL     OW59220   4.734   6.374   8.612  0.3698  0.1781 -0.1079
18776SOL    HW159221   4.763   6.306   8.673  1.8984  1.3611  0.5419
18776SOL    HW259222   4.804   6.439   8.614 -0.7681  1.4804 -1.1792
18777SOL     OW59223   0.026   7.674  10.391  0.1420  0.4239 -0.4501
18777SOL    HW159224   0.077   7.679  10.472  0.7672  1.9117 -0.9081
18777SOL    HW259225   0.063   7.599  10.344  0.1981 -0.0574  0.3372
18778SOL     OW59226   5.965   4.313   1.402  0.2276  0.0986 -0.0247
18778SOL    HW159227   5.907   4.236   1.404 -3.1666  2.4282  0.0253
18778SOL    HW259228   5.961   4.344   1.312  0.3593  1.0220  0.2730
18779SOL     OW59229   7.657   3.354  10.425  0.5363 -0.3838 -0.1380
18779SOL    HW159230   7.584   3.379  10.480  0.3576  1.4053 -1.0876
18779SOL    HW259231   7.719   3.426  10.433  0.5851 -0.1382 -2.0724
18780SOL     OW59232   4.589  10.005   6.954 -0.3283 -0.1130 -0.4699
18780SOL    HW159233   4.680  10.029   6.936 -0.4776  0.5438 -0.3796
18780SOL    HW259234   4.537  10.074   6.913 -0.7614 -0.0404  0.1823
18781SOL     OW59235   6.226   4.666   8.580  0.3787 -0.1250 -0.1248
18781SOL    HW159236   6.177   4.584   8.568 -2.8813  1.4069  1.4949
18781SOL    HW259237   6.229   4.678   8.675  0.7051  1.6609 -0.3339
18782SOL     OW59238   6.554   2.582   8.574  0.0803  0.4262  0.1680
18782SOL    HW159239   6.499   2.504   8.568 -0.5440  0.8533  0.1859
18782SOL    HW259240   6.494   2.650   8.605  0.7383  0.7883  0.6538
18783SOL     OW59241  10.532   3.723   1.669  0.3541  0.1446  0.3744
18783SOL    HW159242  10.510   3.687   1.754  0.7928 -1.0753 -0.0147
18783SOL    HW259243  10.511   3.816   1.676  0.5436  0.0856  1.8508
18784SOL     OW59244   1.516   9.750   5.202  0.0789  0.0240  0.2438
18784SOL    HW159245   1.423   9.730   5.200  0.2146 -0.5713 -1.1583
18784SOL    HW259246   1.544   9.745   5.111  1.6829 -0.7341  0.7447
18785SOL     OW59247   4.893   1.689   4.475 -0.1039 -0.0495 -0.0717
18785SOL    HW159248   4.925   1.742   4.402  2.0882 -0.2319  0.6726
18785SOL    HW259249   4.913   1.599   4.448 -0.3698 -0.2064  0.2552
18786SOL     OW59250   3.714   1.297   2.908  0.3892 -0.2008 -0.5705
18786SOL    HW159251   3.736   1.209   2.879  3.2824  0.0782  0.4367
18786SOL    HW259252   3.693   1.287   3.001  1.1001  0.2010 -0.3603
18787SOL     OW59253   8.825   2.871   0.912  0.7459  0.0434 -0.3533
18787SOL    HW159254   8.888   2.920   0.858  1.1437  0.6425  0.6384
18787SOL    HW259255   8.857   2.880   1.001 -0.8951  0.6272  0.2257
18788SOL     OW59256  10.120   3.037   8.863 -0.0012 -0.0460 -0.1412
18788SOL    HW159257  10.204   3.014   8.823 -0.5302  0.3684 -1.5484
18788SOL    HW259258  10.130   3.012   8.954  1.5809 -0.1997 -0.3207
18789SOL     OW59259   7.771   1.456   3.324  0.2469 -0.6210  0.3055
18789SOL    HW159260   7.732   1.536   3.290  1.7800 -0.6381 -1.7323
18789SOL    HW259261   7.792   1.476   3.415  1.4431  1.6763 -0.3878
18790SOL     OW59262   4.242   2.132   3.688  0.3969  0.4611 -0.8413
18790SOL    HW159263   4.168   2.167   3.638  0.6439  1.3605 -0.5810
18790SOL    HW259264   4.223   2.154   3.779  1.0715  0.8562 -0.7903
18791SOL     OW59265   2.596  10.728  10.124  0.0792  0.2391 -0.0398
18791SOL    HW159266   2.575  10.821  10.129 -1.2269 -0.0676  0.5755
18791SOL    HW259267   2.561  10.699  10.040 -1.1195 -0.0548  0.5403
18792SOL     OW59268   8.156   8.988   6.492 -0.1484  0.3314  0.1704
18792SOL    HW159269   8.095   9.061   6.481 -1.4456 -0.4129  1.8846
18792SOL    HW259270   8.243   9.029   6.492 -0.7893  1.7595  0.2726
18793SOL     OW59271   2.005   1.685   6.731  0.4681 -0.0784  0.4788
18793SOL    HW159272   2.007   1.765   6.785 -3.0727 -0.2729  1.1844
18793SOL    HW259273   1.958   1.622   6.786 -0.7872 -1.1788 -1.7489
18794SOL     OW59274   0.624   5.838   2.044  0.3972 -0.6471  0.6200
18794SOL    HW159275   0.708   5.805   2.015  0.8251  0.4350  0.5844
18794SOL    HW259276   0.589   5.886   1.969  0.3768  0.0510  1.0619
18795SOL     OW59277   8.887   3.553   2.190  0.0463 -0.0936  0.0423
18795SOL    HW159278   8.962   3.573   2.247 -0.2403  0.5998  0.1830
18795SOL    HW259279   8.811   3.572   2.245 -0.2387  0.8530 -0.6556
18796SOL     OW59280   2.847   2.195   7.915 -0.3975 -0.0911  0.4263
18796SOL    HW159281   2.893   2.111   7.920 -0.5909 -0.1945  0.4990
18796SOL    HW259282   2.883   2.247   7.986  2.2919  1.2016 -1.6730
18797SOL     OW59283   0.547   4.873   8.737 -0.2357 -0.0436  0.0006
18797SOL    HW159284   0.566   4.966   8.749 -2.3878  0.4872 -0.2014
18797SOL    HW259285   0.583   4.831   8.815  1.5865  0.7882 -0.3332
18798SOL     OW59286   3.505   1.232   1.864  0.0240 -0.4571  0.1040
18798SOL    HW159287   3.578   1.170   1.859  1.1233  0.8192 -0.0418
18798SOL    HW259288   3.533   1.306   1.810 -1.9696 -0.5075 -1.1034
18799SOL     OW59289   3.413   0.428   4.566  0.2701  0.0221  0.6283
18799SOL    HW159290   3.403   0.333   4.566  0.5681 -0.0332 -0.8390
18799SOL    HW259291   3.506   0.442   4.582  0.6517 -0.0390 -1.3339
18800SOL     OW59292   5.943   7.992   3.243 -0.1641  0.6406 -0.5814
18800SOL    HW159293   5.956   8.035   3.159  0.4900  0.1098 -0.7632
18800SOL    HW259294   5.922   8.064   3.304  0.3265  1.1453 -0.9951
18801SOL     OW59295   5.676   7.195   0.315  0.3242  0.3218  0.0306
18801SOL    HW159296   5.599   7.173   0.366 -0.2127  2.9835  0.5322
18801SOL    HW259297   5.750   7.171   0.371 -0.2022  0.5633  0.8378
18802SOL     OW59298  10.690   2.210   7.058 -0.1935 -0.2912 -0.1664
18802SOL    HW159299  10.607   2.174   7.028  0.7519 -1.7645 -1.1952
18802SOL    HW259300  10.677   2.305   7.057 -1.3510 -0.4061 -1.9597
18803SOL     OW59301   3.564   3.944   0.311 -0.2515 -0.5227  0.6901
18803SOL    HW159302   3.497   3.924   0.376 -1.3147  0.4269 -0.0696
18803SOL    HW259303   3.556   4.038   0.295  2.3133 -0.0568  1.6764
18804SOL     OW59304   4.163   9.996   4.141  0.4219  0.3807  0.0552
18804SOL    HW159305   4.108  10.068   4.173  1.1937  1.0544 -0.1058
18804SOL    HW259306   4.108   9.951   4.077  0.1941  1.3033 -0.4246
18805SOL     OW59307   3.578   1.329  10.496  0.4604  0.0428 -0.0573
18805SOL    HW159308   3.598   1.242  10.530 -0.0996 -0.2911 -0.5675
18805SOL    HW259309   3.652   1.383  10.524 -0.0859 -0.1544  1.8937
18806SOL     OW59310   7.897   6.891   9.756  0.2386 -0.0060  0.1861
18806SOL    HW159311   7.868   6.834   9.826 -1.7314 -0.7364 -1.1614
18806SOL    HW259312   7.865   6.978   9.781 -0.7246 -0.3170  0.0712
18807SOL     OW59313   2.540  10.720   5.420  0.3165  0.0154 -0.1111
18807SOL    HW159314   2.507  10.780   5.354 -0.6645 -0.2840  0.0833
18807SOL    HW259315   2.519  10.633   5.386 -1.2333 -0.1218  1.0742
18808SOL     OW59316   1.056   9.577   4.503  0.6246  0.5851  0.1569
18808SOL    HW159317   1.090   9.622   4.425  0.9298 -1.6717 -1.1069
18808SOL    HW259318   1.049   9.486   4.476 -1.8506  0.1495  1.9397
18809SOL     OW59319   2.680   1.971  10.737  0.3879 -0.3135 -0.1612
18809SOL    HW159320   2.619   2.036  10.702  0.2905  0.0385  0.6315
18809SOL    HW259321   2.626   1.913  10.790  0.4250 -1.2434 -1.0943
18810SOL     OW59322   6.845   6.969   3.344 -0.3679  0.0369  0.4952
18810SOL    HW159323   6.848   7.002   3.254  1.1771  1.7669  1.1285
18810SOL    HW259324   6.907   6.896   3.345 -0.1836  0.1882  0.2180
18811SOL     OW59325  10.344   6.253   9.149 -0.4905  0.0536 -0.2640
18811SOL    HW159326  10.371   6.199   9.223  0.5340 -0.4779 -1.0078
18811SOL    HW259327  10.326   6.191   9.078 -2.8514  0.4309 -0.0936
18812SOL     OW59328   0.762   9.157   3.920  0.3270  0.3041  0.2093
18812SOL    HW159329   0.734   9.066   3.917 -1.8621  0.9464 -0.6968
18812SOL    HW259330   0.802   9.173   3.834  1.4750  0.0076  0.6700
18813SOL     OW59331   3.006   4.683   9.313  0.1112  0.0254  0.2669
18813SOL    HW159332   3.039   4.748   9.251  0.8902 -0.2912  0.3338
18813SOL    HW259333   3.019   4.599   9.268  2.3453 -0.3680  1.5075
18814SOL     OW59334   7.555   6.817   6.532 -0.3631  0.0561  0.0803
18814SOL    HW159335   7.596   6.793   6.449 -2.5295  0.0401 -1.0749
18814SOL    HW259336   7.536   6.734   6.575 -0.8142 -0.0234 -0.2581
18815SOL     OW59337   4.962   4.642   7.412  0.7095  0.0819  0.9338
18815SOL    HW159338   4.918   4.637   7.497  2.2035 -0.5732  1.7073
18815SOL    HW259339   4.925   4.569   7.362  1.0672 -0.6037  1.6480
18816SOL     OW59340   8.918   4.714   3.827 -0.4380 -0.1071 -0.0524
18816SOL    HW159341   8.983   4.723   3.758  0.8297 -0.6051  1.0239
18816SOL    HW259342   8.900   4.804   3.854 -1.9545  0.1892 -1.8803
18817SOL     OW59343   8.347   8.499   6.588  0.1851 -0.4499 -0.3908
18817SOL    HW159344   8.257   8.530   6.599  0.3315 -0.1181 -0.1340
18817SOL    HW259345   8.348   8.462   6.500  0.0468  0.4218 -0.7720
18818SOL     OW59346   1.549   6.236   5.148 -0.1087  0.4431  0.2292
18818SOL    HW159347   1.543   6.281   5.232  0.0594  0.6575  0.1283
18818SOL    HW259348   1.476   6.270   5.097  0.7538  1.5696 -0.2996
18819SOL     OW59349   5.255   7.859   7.107 -0.5159  0.2997 -0.1680
18819SOL    HW159350   5.301   7.941   7.090  0.6421 -0.3269 -0.1627
18819SOL    HW259351   5.269   7.807   7.028 -0.5564 -0.1944  0.1469
18820SOL     OW59352   9.969   5.195   0.050  0.1809 -0.1199 -0.1204
18820SOL    HW159353   9.918   5.274   0.062  0.8516  0.1968  0.8362
18820SOL    HW259354   9.905   5.127   0.031 -0.6015  0.2709  1.0013
18821SOL     OW59355   9.381   5.924   4.910  0.3487 -0.1828 -0.2956
18821SOL    HW159356   9.316   5.859   4.884 -0.1453 -0.2746  1.0677
18821SOL    HW259357   9.448   5.874   4.957 -0.3137  0.3302  1.2538
18822SOL     OW59358   0.723   7.944   9.715 -0.6213  0.3010  0.8510
18822SOL    HW159359   0.768   8.012   9.765  0.6836  3.0624 -3.4841
18822SOL    HW259360   0.634   7.977   9.704 -0.2148  1.0117 -0.5665
18823SOL     OW59361   7.750   1.710   6.770  0.5210 -0.2595 -0.4936
18823SOL    HW159362   7.761   1.660   6.689 -1.3898 -2.4348  0.4559
18823SOL    HW259363   7.684   1.776   6.749  2.0937  1.0871 -1.4045
18824SOL     OW59364   5.739   9.612   0.859  0.6447  0.3434 -0.2005
18824SOL    HW159365   5.732   9.568   0.944 -3.6315 -1.8580 -1.3661
18824SOL    HW259366   5.791   9.552   0.805 -1.9234 -1.6316 -0.6950
18825SOL     OW59367   8.922   3.781   8.922 -0.1791 -0.3519  0.6786
18825SOL    HW159368   8.917   3.698   8.970 -0.2966  0.8100  2.7910
18825SOL    HW259369   8.915   3.848   8.990 -0.3826  1.4041 -1.0006
18826SOL     OW59370   0.697   0.293   1.012  0.4088  0.3370  0.0291
18826SOL    HW159371   0.675   0.349   1.086 -0.2906 -0.2401  0.2791
18826SOL    HW259372   0.745   0.349   0.952  0.6922  0.9051  0.7671
18827SOL     OW59373   9.359   0.330   8.498 -0.2041 -0.0286 -0.3737
18827SOL    HW159374   9.420   0.401   8.519  1.1596 -1.2399 -0.1122
18827SOL    HW259375   9.286   0.343   8.559 -0.2381  1.4331 -0.6750
18828SOL     OW59376  10.506   6.759   7.463 -0.3255 -0.3353  0.2703
18828SOL    HW159377  10.573   6.709   7.509  0.0202  0.5297  0.7505
18828SOL    HW259378  10.475   6.822   7.528 -0.3189  0.4595 -0.4724
18829SOL     OW59379   6.414   9.171   7.119 -0.0105 -0.2577 -0.1592
18829SOL    HW159380   6.399   9.120   7.198 -1.3326  0.8636  0.3473
18829SOL    HW259381   6.326   9.192   7.087  0.4899  1.3645 -0.5620
18830SOL     OW59382   3.036   8.110   8.975 -0.4030  0.1785 -0.1677
18830SOL    HW159383   2.988   8.154   9.046 -0.9102 -0.6621  0.0240
18830SOL    HW259384   3.093   8.178   8.940  1.2092  0.2098  2.2339
18831SOL     OW59385   2.991   1.573   6.976  0.2590  0.3754  0.1537
18831SOL    HW159386   3.024   1.656   6.944  0.2156  0.1027 -0.6002
18831SOL    HW259387   3.067   1.516   6.981  0.4408  0.6944  1.4783
18832SOL     OW59388   5.360   2.884   7.490 -0.6493 -0.3517  0.1515
18832SOL    HW159389   5.429   2.933   7.445  0.9101 -2.8366 -0.3267
18832SOL    HW259390   5.305   2.849   7.420 -0.7895 -0.6520  0.4094
18833SOL     OW59391   0.760   7.141   8.893  0.0528 -0.2567  0.5531
18833SOL    HW159392   0.719   7.111   8.812  1.4523  2.3521 -1.2645
18833SOL    HW259393   0.691   7.190   8.938  0.2337  1.4417 -0.9424
18834SOL     OW59394   0.677   3.913   4.971  0.0413  0.0876 -0.7469
18834SOL    HW159395   0.701   3.823   4.991  0.7669 -0.2283 -2.7438
18834SOL    HW259396   0.675   3.957   5.055  0.7009 -1.5582  0.1732
18835SOL     OW59397   3.341   7.421   8.133  0.2817 -0.1875  0.6796
18835SOL    HW159398   3.414   7.370   8.169  0.7518  0.3649  0.5051
18835SOL    HW259399   3.331   7.389   8.043  1.4786  0.9882  0.1123
18836SOL     OW59400   3.963   8.732   7.058 -0.1303 -0.4723 -0.1684
18836SOL    HW159401   3.908   8.674   7.110 -0.5004 -0.7944 -0.9055
18836SOL    HW259402   3.902   8.775   6.998  0.2138  0.2994  0.0161
18837SOL     OW59403   9.259   0.470   9.884  0.4188 -0.4017 -0.1306
18837SOL    HW159404   9.198   0.529   9.840 -0.7993 -1.3191  0.2748
18837SOL    HW259405   9.223   0.382   9.868  0.8773 -0.8734  1.2667
18838SOL     OW59406  10.613   4.150  10.393 -0.1334 -0.0103 -0.1771
18838SOL    HW159407  10.695   4.165  10.439 -0.4581  0.4198  0.2814
18838SOL    HW259408  10.560   4.100  10.456  0.4472 -1.9604 -1.1713
18839SOL     OW59409   4.071   6.460   6.351  0.1960 -0.2366 -0.0603
18839SOL    HW159410   4.001   6.478   6.287  0.0417 -0.7964 -0.0530
18839SOL    HW259411   4.147   6.436   6.297 -0.4229 -2.4875 -0.0333
18840SOL     OW59412  10.326  10.254   8.612 -0.6488  0.3404  0.3133
18840SOL    HW159413  10.402  10.263   8.670  0.1700  2.2872 -0.9494
18840SOL    HW259414  10.363  10.255   8.524 -1.8538 -2.6315 -0.3167
18841SOL     OW59415   5.855   6.090   1.349 -0.2036  0.0031 -0.0566
18841SOL    HW159416   5.869   6.100   1.255 -0.6912  0.7406 -0.0625
18841SOL    HW259417   5.927   6.138   1.390  1.1289 -1.9327 -0.0133
18842SOL     OW59418   8.079   7.354   5.848  0.4628  0.0318  0.0996
18842SOL    HW159419   8.090   7.382   5.757  0.1153 -0.3262 -0.0571
18842SOL    HW259420   7.984   7.359   5.863  0.6554  1.8747  1.0257
18843SOL     OW59421   7.078   5.716   6.360  0.4026  0.1721  0.3035
18843SOL    HW159422   7.042   5.707   6.272 -0.3314  0.4333  0.5720
18843SOL    HW259423   7.172   5.732   6.346  0.1377  1.1745 -0.4688
18844SOL     OW59424   0.811   3.502   1.515 -0.5519  0.4118  0.7286
18844SOL    HW159425   0.782   3.482   1.604 -0.3000  0.3625  0.7993
18844SOL    HW259426   0.868   3.430   1.491  0.5410  1.1369  1.0650
18845SOL     OW59427   4.588   8.451   8.193  0.2534 -0.1754  0.1264
18845SOL    HW159428   4.637   8.410   8.122  0.9638 -0.0581  0.5448
18845SOL    HW259429   4.650   8.456   8.266 -0.6728 -0.9458  0.9953
18846SOL     OW59430   6.227   4.110   8.578  0.3642 -0.6890 -0.1795
18846SOL    HW159431   6.201   4.133   8.668 -2.4865 -0.0882 -1.0424
18846SOL    HW259432   6.150   4.130   8.525  1.4914 -2.2770 -2.6094
18847SOL     OW59433   9.960   1.298   3.830 -0.2648 -0.6937  0.5048
18847SOL    HW159434   9.874   1.258   3.815 -0.0985 -1.1965  0.8459
18847SOL    HW259435   9.966   1.305   3.926 -0.5016  0.6438  0.4380
18848SOL     OW59436   0.176   4.199   8.293  0.1587 -0.2311 -0.0059
18848SOL    HW159437   0.118   4.137   8.338 -1.5223 -1.0651 -3.0427
18848SOL    HW259438   0.121   4.274   8.273  1.4460  1.0782  1.1387
18849SOL     OW59439   2.256   2.007   5.082  0.1605 -0.7360  0.2275
18849SOL    HW159440   2.342   2.022   5.120  0.0946 -1.6898  0.7681
18849SOL    HW259441   2.257   1.916   5.053 -0.9705 -1.0395  1.0781
18850SOL     OW59442   1.116   4.090   9.503 -0.4024 -0.5324  0.2568
18850SOL    HW159443   1.037   4.077   9.451  1.7170 -3.3117 -2.7034
18850SOL    HW259444   1.159   4.166   9.464 -0.3530 -0.6378  0.1076
18851SOL     OW59445   9.888   2.275  10.156  0.5598  0.1420 -0.2950
18851SOL    HW159446   9.951   2.250  10.089 -1.4717 -1.0360 -1.8797
18851SOL    HW259447   9.889   2.202  10.218  0.7514  0.1454 -0.2917
18852SOL     OW59448   6.316   8.429   4.662  0.1961 -0.4352  0.5678
18852SOL    HW159449   6.229   8.445   4.625  1.1608  1.1881 -1.1914
18852SOL    HW259450   6.316   8.477   4.745 -0.5439 -0.3532  0.5275
18853SOL     OW59451   8.853   7.841   2.513  0.1272  0.0417 -0.1056
18853SOL    HW159452   8.920   7.802   2.569 -0.1210  0.6608  0.6314
18853SOL    HW259453   8.815   7.766   2.466 -1.0564 -0.7765  2.0315
18854SOL     OW59454   4.011   9.694   1.448 -0.1357 -0.4854  0.2161
18854SOL    HW159455   3.953   9.634   1.401 -0.3853 -0.5027  0.5366
18854SOL    HW259456   3.983   9.781   1.420  1.6634 -0.5064 -1.9605
18855SOL     OW59457   9.767   3.001   1.079  0.9547  0.2617 -0.1755
18855SOL    HW159458   9.834   3.063   1.051 -0.0097  0.9348 -1.0584
18855SOL    HW259459   9.786   2.985   1.172  2.7368 -0.1192 -0.5786
18856SOL     OW59460   6.330   6.312   5.053 -0.1741  0.4093 -0.3856
18856SOL    HW159461   6.351   6.278   4.966  1.9941 -1.4844  0.7610
18856SOL    HW259462   6.388   6.388   5.062  0.0764  0.2188 -0.3676
18857SOL     OW59463   8.293   9.985   9.277 -0.3418 -0.3162 -0.2904
18857SOL    HW159464   8.292  10.010   9.369  2.0943 -1.4207  0.1198
18857SOL    HW259465   8.256  10.060   9.231  0.8969  1.3798  1.3740
18858SOL     OW59466   1.217  10.405   9.939 -0.0032  0.3912  0.4049
18858SOL    HW159467   1.279  10.339   9.971  0.1152  0.5345  0.4757
18858SOL    HW259468   1.138  10.355   9.917  0.4030  0.1011 -0.4356
18859SOL     OW59469  10.731   3.731   8.047 -0.0307 -0.1322 -0.0796
18859SOL    HW159470  10.767   3.724   8.135 -1.0464 -0.8240  0.2947
18859SOL    HW259471  10.683   3.649   8.034  0.3346 -0.1727 -1.3886
18860SOL     OW59472   7.362   6.623   0.655  0.6883  0.3448  0.1429
18860SOL    HW159473   7.431   6.687   0.637  0.2187  0.1267 -2.9976
18860SOL    HW259474   7.287   6.677   0.682  1.2561  0.7894  0.8925
18861SOL     OW59475   3.749   6.547   5.789  0.3329 -0.0945 -0.2241
18861SOL    HW159476   3.789   6.537   5.703  0.6261  1.3211 -0.2805
18861SOL    HW259477   3.710   6.635   5.788 -1.6442 -0.8976  0.2989
18862SOL     OW59478   9.961   4.464   6.140  0.2978  0.1361 -0.0844
18862SOL    HW159479   9.956   4.527   6.068 -3.4863 -1.0174 -1.0886
18862SOL    HW259480  10.015   4.392   6.105  0.4247  0.6085 -0.8746
18863SOL     OW59481   4.148   8.777   0.116  0.0097  0.4928 -0.4038
18863SOL    HW159482   4.238   8.806   0.127 -0.5238  1.8886  0.6190
18863SOL    HW259483   4.150   8.684   0.139  1.1537  0.5399 -0.2421
18864SOL     OW59484   2.398   1.579  10.518  0.5810  0.1006 -0.4594
18864SOL    HW159485   2.398   1.483  10.525 -0.2385  0.1630  0.6545
18864SOL    HW259486   2.388   1.596  10.425 -1.0825 -0.9271 -0.5190
18865SOL     OW59487   6.375   1.429   3.091  0.0948 -0.1747  0.5386
18865SOL    HW159488   6.401   1.521   3.101 -1.0430  0.1412  0.7460
18865SOL    HW259489   6.282   1.433   3.069 -0.2185 -1.3045  1.5736
18866SOL     OW59490   6.815  10.180   3.286  0.1507  0.5034 -0.3557
18866SOL    HW159491   6.895  10.213   3.246  0.3517  1.7296  0.9962
18866SOL    HW259492   6.779  10.120   3.220  3.8738 -2.8398  0.2116
18867SOL     OW59493   6.837   2.262   1.387  0.1927 -0.0556 -0.6327
18867SOL    HW159494   6.766   2.217   1.340 -0.3104  1.2153 -1.1425
18867SOL    HW259495   6.823   2.355   1.368 -0.0519  0.5463  2.0802
18868SOL     OW59496   6.387   7.556   5.095  0.0866 -0.9932 -0.1051
18868SOL    HW159497   6.433   7.548   5.179 -0.6964  0.2767  0.4781
18868SOL    HW259498   6.323   7.484   5.095 -0.9160 -0.1533  1.0874
18869SOL     OW59499   2.446   5.983   1.377 -0.3391  0.2858 -0.5416
18869SOL    HW159500   2.476   5.954   1.291  0.3773  0.3158 -0.3076
18869SOL    HW259501   2.439   6.079   1.368 -0.8774  0.2323 -0.7482
18870SOL     OW59502   3.448   3.784   3.240  0.4054 -0.5903  0.3637
18870SOL    HW159503   3.375   3.724   3.229  2.1907 -2.7801 -0.4515
18870SOL    HW259504   3.484   3.762   3.326  0.6256 -0.1876  0.3749
18871SOL     OW59505   6.263   8.924   3.815  0.3644 -0.4050 -0.0622
18871SOL    HW159506   6.189   8.883   3.771  0.6802 -0.3481 -0.6553
18871SOL    HW259507   6.257   8.892   3.906 -0.1196 -0.7561 -0.2095
18872SOL     OW59508   6.988   7.142   5.295 -0.2639 -0.3664 -0.1947
18872SOL    HW159509   6.977   7.176   5.384  0.0551  1.0321 -0.6606
18872SOL    HW259510   6.951   7.211   5.240 -1.7534 -1.8279 -1.0950
18873SOL     OW59511   8.606   7.338   5.443 -0.0131 -0.0866 -0.5774
18873SOL    HW159512   8.699   7.333   5.465 -0.3142 -1.1114  0.6159
18873SOL    HW259513   8.602   7.394   5.366  1.5115  0.6874 -0.1312
18874SOL     OW59514   8.136   8.418  10.180  0.5384 -0.1616 -0.1613
18874SOL    HW159515   8.082   8.489  10.215 -1.0458 -0.5919 -1.5956
18874SOL    HW259516   8.140   8.354  10.252  1.0144  0.8437  0.7326
18875SOL     OW59517   4.848   2.392   0.599  0.3538 -0.3755  0.1517
18875SOL    HW159518   4.904   2.462   0.566 -2.1114  0.1627 -3.2918
18875SOL    HW259519   4.786   2.436   0.657  0.9910 -0.3461  0.8292
18876SOL     OW59520   3.249   8.395   7.750  0.8730 -0.0092 -0.3388
18876SOL    HW159521   3.246   8.308   7.710  1.7635  0.3424 -1.2252
18876SOL    HW259522   3.170   8.438   7.718  0.3751 -0.5129  0.1842
18877SOL     OW59523   3.866   2.785   4.253  0.8331  0.2755  0.3580
18877SOL    HW159524   3.921   2.757   4.326 -0.9930 -4.5285  0.2358
18877SOL    HW259525   3.926   2.791   4.179  1.9448  0.3553  1.2267
18878SOL     OW59526   8.658   3.824   3.843 -0.5052 -0.4959  0.1223
18878SOL    HW159527   8.597   3.774   3.789  0.7137 -0.4852 -1.3288
18878SOL    HW259528   8.702   3.759   3.897 -1.5535 -0.5388  0.9433
18879SOL     OW59529   4.262   6.367   6.115  0.3874 -0.1925 -0.4560
18879SOL    HW159530   4.334   6.317   6.077  0.4868  0.5447 -1.2634
18879SOL    HW259531   4.267   6.452   6.073  1.0347  0.9736  1.8138
18880SOL     OW59532   9.463   2.323   4.781 -0.3934 -0.1395  0.1897
18880SOL    HW159533   9.418   2.288   4.704  0.5967 -0.3434 -0.3099
18880SOL    HW259534   9.415   2.403   4.803 -2.3779 -1.4749  1.0314
18881SOL     OW59535   1.853   4.878   9.552 -0.1426 -0.5498  0.1509
18881SOL    HW159536   1.917   4.921   9.495 -2.3905 -0.2865 -2.4032
18881SOL    HW259537   1.886   4.789   9.563  2.2784  0.4664  1.7307
18882SOL     OW59538   3.072  10.401   9.517 -0.2563 -0.2891  0.1182
18882SOL    HW159539   3.131  10.474   9.498 -1.5068  1.1128  1.3097
18882SOL    HW259540   3.113  10.354   9.589  0.5042 -0.7216 -0.5833
18883SOL     OW59541   2.936   9.368   4.820 -0.1165  0.0930 -0.1442
18883SOL    HW159542   2.937   9.404   4.909  0.9621  2.5562 -1.0670
18883SOL    HW259543   2.880   9.290   4.826 -2.5201  1.8089  2.0866
18884SOL     OW59544   5.355   6.462  10.375 -0.2982 -0.1634 -0.0119
18884SOL    HW159545   5.273   6.507  10.353  0.0899  0.0486 -1.0827
18884SOL    HW259546   5.413   6.532  10.405  0.2893  0.0760 -1.6304
18885SOL     OW59547   7.535   3.712   0.269 -0.2606  0.3007  0.0923
18885SOL    HW159548   7.475   3.759   0.212 -0.9362 -1.8281 -1.0402
18885SOL    HW259549   7.534   3.622   0.237  2.5367 -0.1053  0.8671
18886SOL     OW59550   5.498   9.686   0.687 -0.6750 -0.6978  0.2896
18886SOL    HW159551   5.489   9.596   0.654  0.0593  0.2992 -2.9860
18886SOL    HW259552   5.589   9.691   0.717 -0.2997 -0.6883 -0.8269
18887SOL     OW59553  10.745   9.463  10.722 -1.0750 -0.6572  0.4454
18887SOL    HW159554  10.788   9.436  10.803  0.1981  0.1227  0.0548
18887SOL    HW259555  10.660   9.420  10.725  0.2444 -3.5216  0.5595
18888SOL     OW59556   2.436   5.749   8.637  0.0003  0.2892 -0.5558
18888SOL    HW159557   2.380   5.819   8.671 -0.8730 -0.5299 -0.2747
18888SOL    HW259558   2.508   5.795   8.594 -0.4617  1.3595 -0.2183
18889SOL     OW59559   0.864   7.762   5.604 -0.2913 -0.1462  0.3074
18889SOL    HW159560   0.843   7.736   5.514 -1.0913 -0.7464  0.6646
18889SOL    HW259561   0.788   7.738   5.655 -0.3482  1.3126  0.9632
18890SOL     OW59562   8.493   1.060   2.223 -0.3616 -0.9792  0.2036
18890SOL    HW159563   8.529   1.130   2.168  0.8887 -2.2435 -0.6832
18890SOL    HW259564   8.533   1.074   2.309  1.0614 -1.4038 -0.3490
18891SOL     OW59565   9.780   6.735  10.075 -0.2000  0.0397  0.7750
18891SOL    HW159566   9.820   6.711  10.158 -1.1366  0.9003  1.5005
18891SOL    HW259567   9.836   6.805  10.041  0.6615 -0.8806  0.2529
18892SOL     OW59568  10.210   3.379   6.305 -0.1518  0.0636  0.0152
18892SOL    HW159569  10.191   3.358   6.396 -1.0569  0.5699 -0.0550
18892SOL    HW259570  10.126   3.400   6.266  0.3214  0.6357 -0.7428
18893SOL     OW59571   7.074   7.349   9.302  0.0954  0.1449  0.4699
18893SOL    HW159572   7.098   7.304   9.383 -2.0208 -0.7961  0.6698
18893SOL    HW259573   7.139   7.321   9.238  0.1037 -1.5150  1.1539
18894SOL     OW59574   4.055   8.161   4.359 -0.2939  0.1563 -0.7273
18894SOL    HW159575   4.061   8.193   4.269  0.8056 -1.9522 -1.4734
18894SOL    HW259576   4.073   8.067   4.352  0.8287  0.1148  1.8253
18895SOL     OW59577   5.086   8.356   9.237 -0.7261 -0.6728 -0.5645
18895SOL    HW159578   5.019   8.423   9.249 -1.5735 -1.5322 -0.3520
18895SOL    HW259579   5.038   8.274   9.234  0.1071 -1.1490 -2.7283
18896SOL     OW59580   1.873   7.516   4.680 -0.4848 -0.8774  0.4672
18896SOL    HW159581   1.870   7.493   4.588 -2.4446  1.1464 -0.0741
18896SOL    HW259582   1.915   7.602   4.682  1.3220 -1.7184  1.7314
18897SOL     OW59583   0.135   4.758   5.260  0.5662 -0.0613  0.0459
18897SOL    HW159584   0.161   4.666   5.268  1.3489  0.1552  0.0798
18897SOL    HW259585   0.094   4.778   5.344  0.8342 -0.2493  0.2251
18898SOL     OW59586   6.949   6.495   1.436 -0.3220 -0.8043 -0.2832
18898SOL    HW159587   6.977   6.439   1.364  1.8825  0.4520 -0.4914
18898SOL    HW259588   6.985   6.452   1.514  2.5972  0.8775 -0.5622
18899SOL     OW59589   6.651   9.081   3.766 -0.0998  0.5185  0.0855
18899SOL    HW159590   6.613   9.155   3.719 -1.0640  1.2591  1.9084
18899SOL    HW259591   6.688   9.119   3.846  0.0209 -0.8626  0.7276
18900SOL     OW59592   7.360   6.651   0.017  0.3344 -0.0009  0.0041
18900SOL    HW159593   7.378   6.623   0.106 -0.1360  0.0956  0.1335
18900SOL    HW259594   7.443   6.639  -0.030 -0.1289 -2.7732 -0.2781
18901SOL     OW59595   0.049   9.827   3.579 -0.2092  0.3072 -0.1279
18901SOL    HW159596   0.054   9.769   3.655 -0.8804 -0.3256 -0.5561
18901SOL    HW259597   0.125   9.803   3.526 -1.4845 -1.5250 -1.2164
18902SOL     OW59598   3.831   3.301   0.762 -0.2957  0.5376 -0.4405
18902SOL    HW159599   3.751   3.308   0.711 -0.8924  0.0277  0.4006
18902SOL    HW259600   3.870   3.218   0.734  0.4654  1.2405 -1.5550
18903SOL     OW59601  10.142   9.786   2.182  0.3251 -0.1718 -0.6329
18903SOL    HW159602  10.148   9.710   2.123  1.4042  0.8245 -1.8465
18903SOL    HW259603  10.197   9.852   2.142  0.8765  0.6565  1.3829
18904SOL     OW59604   2.872   3.081   1.269  0.4872 -0.1901 -0.0932
18904SOL    HW159605   2.910   3.151   1.323 -0.4552  0.1645  0.1269
18904SOL    HW259606   2.926   3.080   1.190 -0.1297  1.5255 -0.5695
18905SOL     OW59607   4.503   7.514  10.568 -0.2556  0.3591  0.4037
18905SOL    HW159608   4.572   7.551  10.623  1.4748 -0.6095 -0.9959
18905SOL    HW259609   4.504   7.420  10.590  0.7821 -0.1236 -1.5257
18906SOL     OW59610  10.200   3.752   1.781 -0.1112 -0.8103  0.0367
18906SOL    HW159611  10.112   3.735   1.813 -0.3954 -1.8096 -1.2244
18906SOL    HW259612  10.211   3.847   1.789 -1.5112 -0.6023 -0.3504
18907SOL     OW59613   6.555   4.718   5.759 -0.4163 -0.4824 -0.2138
18907SOL    HW159614   6.594   4.665   5.689 -0.1472  0.1282 -0.5275
18907SOL    HW259615   6.526   4.798   5.716  0.3114  0.1696  0.4656
18908SOL     OW59616   6.202   1.479   2.498  0.2029 -0.5739 -0.2596
18908SOL    HW159617   6.175   1.436   2.578 -0.1663 -0.1839 -0.1703
18908SOL    HW259618   6.179   1.418   2.428  1.7874 -1.5326  0.0068
18909SOL     OW59619   5.281   0.445   5.839 -0.2136 -0.4139  0.3033
18909SOL    HW159620   5.194   0.451   5.879 -1.4278 -1.2429 -2.0569
18909SOL    HW259621   5.295   0.351   5.825  2.0483 -0.5380  2.5210
18910SOL     OW59622   8.325   1.641   7.763 -0.8880  0.4699  0.2269
18910SOL    HW159623   8.285   1.568   7.716  0.2517  0.2920 -0.4871
18910SOL    HW259624   8.356   1.603   7.845 -0.5481  0.2137 -0.0207
18911SOL     OW59625   5.671   7.418   6.664  0.3086 -0.5123  0.3052
18911SOL    HW159626   5.629   7.347   6.713  2.0281 -2.2469 -0.6123
18911SOL    HW259627   5.646   7.403   6.573 -0.1113  0.6715  0.2136
18912SOL     OW59628   2.672   6.325   0.078 -0.1061 -0.4443  0.0793
18912SOL    HW159629   2.585   6.339   0.039  0.5055  1.5084 -0.6935
18912SOL    HW259630   2.724   6.290   0.006 -0.1472 -1.2965  0.4542
18913SOL     OW59631   1.180   9.709   1.594 -0.3885 -0.4495 -0.0647
18913SOL    HW159632   1.146   9.770   1.659 -0.0340 -0.8049  0.4629
18913SOL    HW259633   1.141   9.625   1.616 -0.4250 -0.5322 -0.4345
18914SOL     OW59634  10.552  10.251   3.912 -0.4885  0.2717 -0.5961
18914SOL    HW159635  10.520  10.267   3.823 -2.3687  0.3348  0.0639
18914SOL    HW259636  10.567  10.339   3.947 -1.8967  0.3395 -0.1171
18915SOL     OW59637   6.644   7.837   2.534 -0.0830 -0.1604 -0.3456
18915SOL    HW159638   6.713   7.773   2.551  0.5299  0.7190  0.5639
18915SOL    HW259639   6.601   7.805   2.454  1.4073 -0.6810 -0.9685
18916SOL     OW59640  10.674   4.864   7.777  0.0412 -0.1561 -0.0274
18916SOL    HW159641  10.646   4.919   7.850  0.1138 -0.2804  0.0935
18916SOL    HW259642  10.723   4.793   7.818  0.1435 -0.1874 -0.2012
18917SOL     OW59643   1.163   0.097  10.606 -0.4110  0.1927  0.1420
18917SOL    HW159644   1.233   0.129  10.549 -0.0121  0.6486  0.8697
18917SOL    HW259645   1.113   0.176  10.629 -1.8207 -0.2556 -1.2070
18918SOL     OW59646   9.094   6.372   2.542  0.1745 -0.0740  0.1182
18918SOL    HW159647   9.054   6.287   2.522 -2.4504  1.3192 -1.1149
18918SOL    HW259648   9.099   6.416   2.457  0.8461  1.2635  0.8216
18919SOL     OW59649   3.223   1.839   1.555 -0.1951 -0.0328  0.2081
18919SOL    HW159650   3.292   1.897   1.586  0.0694 -0.5997  0.6938
18919SOL    HW259651   3.209   1.777   1.626 -0.7021 -0.3698 -0.1733
18920SOL     OW59652   8.460  10.357   2.543 -0.1381  0.0174 -0.1548
18920SOL    HW159653   8.520  10.307   2.598  0.0723  1.1708  0.7000
18920SOL    HW259654   8.444  10.438   2.592 -2.9112 -0.5182 -0.0186
18921SOL     OW59655   1.590   4.074   8.915 -0.0263 -0.4087 -0.7063
18921SOL    HW159656   1.634   3.997   8.878  0.0663  0.5102 -2.6399
18921SOL    HW259657   1.522   4.095   8.851 -0.6794  0.5540  0.2806
18922SOL     OW59658   7.071   7.900   2.451 -0.4894 -0.3635  0.0712
18922SOL    HW159659   7.124   7.837   2.402  1.4778  0.7429  0.6679
18922SOL    HW259660   7.027   7.848   2.517 -2.5127 -1.7548 -2.2099
18923SOL     OW59661   5.164   2.303   5.838 -0.3642 -0.2494 -0.2608
18923SOL    HW159662   5.142   2.392   5.810  1.4259  0.1486 -0.5262
18923SOL    HW259663   5.083   2.269   5.876 -0.4378  2.4462  2.3756
18924SOL     OW59664   7.255   5.088   7.677 -0.0492  0.0931  0.0155
18924SOL    HW159665   7.248   5.013   7.618  1.6985 -0.2700  0.2101
18924SOL    HW259666   7.165   5.103   7.707 -0.5914 -1.2914 -0.7971
18925SOL     OW59667   8.445   4.258   4.977 -0.1850  0.0583  0.6587
18925SOL    HW159668   8.371   4.248   5.038  0.9375  0.0956  2.0740
18925SOL    HW259669   8.510   4.308   5.027  1.5035 -1.4743  0.0883
18926SOL     OW59670   5.889   5.191   8.811 -0.5626  0.4114  0.2758
18926SOL    HW159671   5.932   5.113   8.847  0.5868  1.6342  1.6818
18926SOL    HW259672   5.811   5.157   8.768  0.8462 -1.7026 -0.7726
18927SOL     OW59673   0.752   7.823   6.840  0.6210  0.0460  0.2432
18927SOL    HW159674   0.824   7.881   6.863  1.2202 -0.1988 -0.9253
18927SOL    HW259675   0.723   7.786   6.924  2.6957 -0.8262  0.6474
18928SOL     OW59676   6.796   3.380   3.115 -0.5555 -0.7526  0.1051
18928SOL    HW159677   6.746   3.410   3.039 -1.0459 -0.5795  0.4889
18928SOL    HW259678   6.887   3.387   3.088 -0.6883  0.3321 -0.0903
18929SOL     OW59679   0.069   3.621   0.197 -0.6565 -0.1187 -0.4851
18929SOL    HW159680  -0.026   3.634   0.202 -0.5553  0.3439  0.7159
18929SOL    HW259681   0.084   3.537   0.241 -0.5047 -0.1192 -0.5375
18930SOL     OW59682   1.291   9.001   8.731  0.4102 -0.5617  0.3398
18930SOL    HW159683   1.311   9.020   8.823  0.6091  0.5932  0.0719
18930SOL    HW259684   1.276   9.087   8.692  0.3097 -1.0465 -0.7119
18931SOL     OW59685   7.874   4.953   5.728  0.4794  0.7209 -0.4037
18931SOL    HW159686   7.869   4.921   5.638  1.2074  1.4830 -0.7289
18931SOL    HW259687   7.783   4.959   5.756  0.2812 -2.3711 -0.0239
18932SOL     OW59688   5.607   7.404   5.748 -0.4743 -0.8851  0.6594
18932SOL    HW159689   5.540   7.336   5.758 -2.0208  0.1898 -1.5453
18932SOL    HW259690   5.562   7.475   5.702  2.0716  0.0948 -0.4855
18933SOL     OW59691   8.605   1.478   6.354 -0.2748  0.2717 -0.0184
18933SOL    HW159692   8.603   1.573   6.366 -0.7549  0.3341 -0.5536
18933SOL    HW259693   8.539   1.445   6.415  0.3889  0.2197  0.6787
18934SOL     OW59694   2.886   6.366   0.337  0.2604  0.1980 -0.0286
18934SOL    HW159695   2.920   6.455   0.324  1.0911  0.1027  1.2395
18934SOL    HW259696   2.873   6.332   0.249 -1.0919  1.9317 -0.5518
18935SOL     OW59697   2.724   9.160   4.847  0.4536 -0.2030  0.7997
18935SOL    HW159698   2.643   9.206   4.823 -0.0898 -1.1072  0.8230
18935SOL    HW259699   2.693   9.078   4.886  1.3682  0.0052  2.0058
18936SOL     OW59700   6.130   6.447   0.536  0.4956 -0.0283  0.5168
18936SOL    HW159701   6.139   6.481   0.625  1.8094 -0.1560  0.4565
18936SOL    HW259702   6.068   6.506   0.494  1.1047  1.0337  1.0492
18937SOL     OW59703   9.904   8.598   8.827  0.0822  0.7809 -0.5431
18937SOL    HW159704   9.827   8.597   8.770  0.8640  0.2954 -1.6123
18937SOL    HW259705   9.972   8.552   8.778 -0.0696 -2.5766  2.0256
18938SOL     OW59706  10.350   1.097   3.765  0.1689  0.5778 -0.1332
18938SOL    HW159707  10.409   1.027   3.735 -0.8542 -0.9389  1.2214
18938SOL    HW259708  10.262   1.065   3.746 -0.3469  1.2510  1.0171
18939SOL     OW59709   6.592   3.393   1.415  0.1353  0.3347 -0.0409
18939SOL    HW159710   6.545   3.415   1.495 -1.3414 -0.4557 -0.6587
18939SOL    HW259711   6.537   3.427   1.345  1.4462  1.0811 -0.7456
18940SOL     OW59712   2.941   8.538   8.106 -0.0881 -0.4416 -0.4737
18940SOL    HW159713   2.996   8.477   8.056  1.2461  0.6956 -0.4722
18940SOL    HW259714   2.936   8.498   8.193  1.8761  0.0284 -0.0923
18941SOL     OW59715   1.790   4.306   8.268  0.1113 -0.2513 -0.3086
18941SOL    HW159716   1.723   4.323   8.202  1.1359  0.5654 -1.1881
18941SOL    HW259717   1.863   4.363   8.242  1.3990 -1.6176  0.2130
18942SOL     OW59718   0.517   8.333   5.395 -0.0940  0.1561  0.0151
18942SOL    HW159719   0.570   8.254   5.392  0.7089  0.6511  0.7158
18942SOL    HW259720   0.427   8.302   5.399  0.2182 -0.7275  0.3982
18943SOL     OW59721   6.324   1.957   1.727 -0.3292 -0.2458 -0.1291
18943SOL    HW159722   6.363   1.878   1.764 -0.0492  0.5488  1.3733
18943SOL    HW259723   6.356   2.028   1.783 -0.5236  0.9491 -1.4616
18944SOL     OW59724   6.227   3.149   7.080 -0.1167  0.1189  0.0907
18944SOL    HW159725   6.213   3.069   7.129 -1.3174 -0.4277 -1.0717
18944SOL    HW259726   6.147   3.160   7.028  1.0030  0.7543 -1.5900
18945SOL     OW59727   2.233   9.331   9.430  0.1545  0.2562 -0.0718
18945SOL    HW159728   2.284   9.383   9.366 -0.4556  0.3841 -0.4584
18945SOL    HW259729   2.271   9.355   9.515  0.3393  0.8119 -0.3044
18946SOL     OW59730   9.925   9.443   1.167 -0.1485 -0.2296  0.4335
18946SOL    HW159731   9.910   9.358   1.210 -3.0128  0.4937  1.0487
18946SOL    HW259732   9.838   9.474   1.145  0.7425  2.9779  1.0220
18947SOL     OW59733   5.749   9.412   6.022  0.3015 -0.5665 -0.1030
18947SOL    HW159734   5.750   9.332   6.074  1.0466 -0.1047  0.6349
18947SOL    HW259735   5.807   9.394   5.948 -0.1252 -0.9544 -0.3479
18948SOL     OW59736   8.372   5.061   7.016  0.2762  0.0402  0.3407
18948SOL    HW159737   8.329   5.127   7.069 -0.1728 -0.7150  0.9329
18948SOL    HW259738   8.366   5.094   6.927 -0.0876  0.7153  0.6086
18949SOL     OW59739   4.204   8.891   2.084 -0.6383  0.2389 -0.1260
18949SOL    HW159740   4.166   8.978   2.069  0.4126  0.6458 -0.5832
18949SOL    HW259741   4.272   8.883   2.017 -1.9309 -1.7199 -1.2865
18950SOL     OW59742   2.383   7.908   0.346  0.1524  0.1982  0.0683
18950SOL    HW159743   2.446   7.837   0.337  1.3856  1.3138 -0.4733
18950SOL    HW259744   2.299   7.869   0.323  1.0821 -0.5922 -2.2664
18951SOL     OW59745   4.687   0.737   9.100 -0.2087  0.1650 -0.3214
18951SOL    HW159746   4.607   0.729   9.048  0.5738  1.7258 -1.8757
18951SOL    HW259747   4.658   0.768   9.185 -1.5260 -2.3447  0.2630
18952SOL     OW59748   1.552   6.870  10.160 -0.0652 -0.2327  0.0116
18952SOL    HW159749   1.480   6.927  10.187  0.2375 -0.6432  1.8003
18952SOL    HW259750   1.576   6.823  10.239  1.1787 -1.2175 -0.9161
18953SOL     OW59751   7.540  10.171   7.360 -0.4987  0.2549 -0.3399
18953SOL    HW159752   7.539  10.223   7.279 -2.4154  0.4247 -0.2546
18953SOL    HW259753   7.586  10.226   7.423 -0.3993  0.8142 -0.8849
18954SOL     OW59754  10.628   2.885   2.714 -0.2146 -0.6327  0.3450
18954SOL    HW159755  10.708   2.894   2.765 -1.4443 -0.3883  2.3661
18954SOL    HW259756  10.637   2.800   2.671  1.1923 -0.5278  0.3857
18955SOL     OW59757   1.996   9.192   8.917 -0.3066  0.0021  0.0115
18955SOL    HW159758   2.008   9.097   8.920  1.2336  0.0628 -2.2580
18955SOL    HW259759   2.084   9.227   8.905 -1.1605  1.4824 -2.5152
18956SOL     OW59760   8.704   6.424   0.854 -0.3373 -0.0822  0.0622
18956SOL    HW159761   8.710   6.414   0.949 -2.6670 -0.6223  0.2135
18956SOL    HW259762   8.634   6.364   0.828 -1.1158  1.5145 -1.7309
18957SOL     OW59763   6.713   3.523   0.901 -0.4771  0.0836 -0.0818
18957SOL    HW159764   6.775   3.472   0.849 -1.0477  0.4106 -1.1095
18957SOL    HW259765   6.768   3.579   0.956  0.1424 -0.1981 -0.4097
18958SOL     OW59766   7.170   8.044   9.474  0.5784 -0.5212  0.4729
18958SOL    HW159767   7.184   8.098   9.396  0.6367 -1.7185 -0.3867
18958SOL    HW259768   7.100   7.984   9.449  0.8718 -1.1832  1.1999
18959SOL     OW59769   1.908   4.543  10.412 -0.0142  0.1053 -0.1140
18959SOL    HW159770   1.955   4.625  10.395 -0.1313  0.1769 -0.0953
18959SOL    HW259771   1.973   4.474  10.399  0.6082  0.2964  1.8016
18960SOL     OW59772   5.860   9.481   7.055  0.1599  0.4295  0.0604
18960SOL    HW159773   5.815   9.489   7.139 -0.1601  0.3252 -0.1015
18960SOL    HW259774   5.868   9.387   7.041 -0.2669  0.4414 -0.2817
18961SOL     OW59775   7.772   2.795   6.496  0.1993  0.0670  0.5957
18961SOL    HW159776   7.780   2.701   6.511 -0.5288  0.0610  0.9892
18961SOL    HW259777   7.761   2.804   6.402 -2.6707 -0.5052  0.7871
18962SOL     OW59778   3.919   1.268   6.807 -0.5431 -0.8335  0.1600
18962SOL    HW159779   3.890   1.348   6.851  0.3453 -0.8663  0.8478
18962SOL    HW259780   3.949   1.297   6.721 -0.6557 -0.4936  0.2335
18963SOL     OW59781   0.958   3.549   6.031 -0.1967 -0.3493  0.3510
18963SOL    HW159782   0.907   3.468   6.033 -1.5721  0.5028  1.8702
18963SOL    HW259783   0.960   3.579   6.122  1.3159  0.7143  0.0126
18964SOL     OW59784   9.380   9.374   8.792 -0.1291  0.0604 -0.3606
18964SOL    HW159785   9.422   9.348   8.874 -0.0341  1.6509  0.1285
18964SOL    HW259786   9.404   9.305   8.729  1.8777  0.1165  0.3058
18965SOL     OW59787   2.018   5.190   7.265  0.2930 -0.8243 -0.3779
18965SOL    HW159788   2.107   5.216   7.243  0.3877 -0.9867 -0.1892
18965SOL    HW259789   1.968   5.203   7.184  0.6371 -1.4054 -0.6902
18966SOL     OW59790  10.347   0.748   9.298 -0.1047 -0.0481 -0.1600
18966SOL    HW159791  10.365   0.664   9.341  1.0563 -0.0532 -0.6423
18966SOL    HW259792  10.317   0.723   9.210  0.6291  0.0488 -0.4407
18967SOL     OW59793   3.329   4.957   4.207 -0.0252  0.1404 -0.3392
18967SOL    HW159794   3.362   4.868   4.198  0.7292  0.2151  1.3304
18967SOL    HW259795   3.402   5.006   4.245 -1.4419  0.7184  1.8439
18968SOL     OW59796   1.504   5.494   4.208  0.1878  0.1272 -0.1561
18968SOL    HW159797   1.559   5.466   4.282  1.1434  0.5313 -0.6943
18968SOL    HW259798   1.459   5.572   4.241  1.2698  0.8157 -0.2647
18969SOL     OW59799  10.399   4.724   9.151 -0.3920  0.0579 -0.2417
18969SOL    HW159800  10.374   4.809   9.186  1.5475  0.5280  0.1075
18969SOL    HW259801  10.406   4.738   9.056 -1.1419 -0.0109 -0.3119
18970SOL     OW59802   8.048   6.996   4.096  0.3147  0.1107  0.2215
18970SOL    HW159803   8.071   7.061   4.030  0.2076 -0.1077 -0.0302
18970SOL    HW259804   8.006   6.925   4.047 -0.2675  0.1955  0.5845
18971SOL     OW59805   3.585   4.058   1.617  0.3235 -0.1606 -0.1017
18971SOL    HW159806   3.604   4.149   1.642 -0.2910  0.8023 -2.8017
18971SOL    HW259807   3.544   4.020   1.695 -0.5909  2.2653  0.6990
18972SOL     OW59808   3.404   7.179   6.090  0.7229  0.6026  0.6137
18972SOL    HW159809   3.329   7.122   6.075  1.2509 -0.8314  2.8598
18972SOL    HW259810   3.458   7.171   6.012 -0.8132  0.6694 -0.4902
18973SOL     OW59811  10.003   6.064   6.435  0.1283  0.0732  0.1025
18973SOL    HW159812   9.928   6.006   6.425  0.9051 -0.7296 -1.3943
18973SOL    HW259813   9.985   6.112   6.516 -1.9610 -0.1141 -0.1929
18974SOL     OW59814   3.029   6.419   6.679 -0.2658  0.2510  0.1219
18974SOL    HW159815   3.041   6.372   6.596 -2.1815 -1.4326  0.7224
18974SOL    HW259816   3.013   6.510   6.652  2.1588  0.3825 -1.1399
18975SOL     OW59817   0.877   0.768  10.184 -0.1226 -0.2213  0.0532
18975SOL    HW159818   0.791   0.787  10.145 -0.7669 -1.4215  0.8348
18975SOL    HW259819   0.929   0.735  10.111 -1.3700 -2.6147  0.1592
18976SOL     OW59820   0.482   1.910   1.668 -0.0209  0.4725  0.6366
18976SOL    HW159821   0.513   1.999   1.684  0.7688  0.3903 -0.3443
18976SOL    HW259822   0.418   1.893   1.738  1.2793  1.0653  1.9985
18977SOL     OW59823   1.760  10.707   0.188  0.4064  0.2633  0.0589
18977SOL    HW159824   1.810  10.664   0.258  1.0146 -1.0701 -1.1432
18977SOL    HW259825   1.745  10.638   0.124 -1.5020  1.0603 -0.4417
18978SOL     OW59826  10.105   4.501   3.095 -0.2597  0.2235 -0.4399
18978SOL    HW159827  10.108   4.481   3.188 -0.8043  0.5046 -0.3574
18978SOL    HW259828  10.015   4.481   3.069 -0.6280  1.7787 -0.5136
18979SOL     OW59829   4.015  10.723   0.073  0.4310  0.1472 -0.2495
18979SOL    HW159830   3.972  10.667   0.008 -0.3158  1.1686 -0.6708
18979SOL    HW259831   4.090  10.760   0.026  1.1371 -0.7569  0.1397
18980SOL     OW59832  10.201   7.683   5.832  0.1887 -0.5828  0.2136
18980SOL    HW159833  10.194   7.773   5.866  0.4276 -0.0549 -1.0838
18980SOL    HW259834  10.150   7.684   5.751  2.5799 -0.7879 -1.3757
18981SOL     OW59835   7.860   8.144  10.277  0.1551 -0.0866 -0.5250
18981SOL    HW159836   7.948   8.119  10.305  0.0152 -0.6961 -0.6016
18981SOL    HW259837   7.869   8.162  10.183  0.2968  0.3524 -0.4297
18982SOL     OW59838   8.306   0.549   1.452  0.0063  0.3080 -0.2519
18982SOL    HW159839   8.248   0.517   1.520  0.6954  0.4382  0.4058
18982SOL    HW259840   8.256   0.617   1.407 -0.1018  0.9130  0.7602
18983SOL     OW59841   2.747   4.175   5.720  0.0205 -0.2016  0.3808
18983SOL    HW159842   2.662   4.219   5.716 -0.0543 -0.3642  0.1422
18983SOL    HW259843   2.727   4.083   5.701  0.2184 -0.2811  0.5579
18984SOL     OW59844   1.130   7.771   6.214  0.3614 -0.2947 -0.5704
18984SOL    HW159845   1.110   7.863   6.198 -0.0968 -0.5716 -1.7801
18984SOL    HW259846   1.149   7.765   6.307 -0.6614  0.8407 -0.2667
18985SOL     OW59847   4.990   0.769   2.238  0.0156  0.2624  0.2228
18985SOL    HW159848   5.077   0.750   2.272 -0.1814 -1.2772 -0.0640
18985SOL    HW259849   4.998   0.856   2.200  0.9864  0.8235  1.6315
18986SOL     OW59850   6.414  10.345   1.083  0.6950 -0.2294  0.2045
18986SOL    HW159851   6.450  10.422   1.041  0.9375  0.0128  0.8342
18986SOL    HW259852   6.443  10.271   1.029  0.6421  0.1036 -0.2781
18987SOL     OW59853  10.161   6.377   8.562  0.0256 -0.0525 -0.2759
18987SOL    HW159854  10.162   6.473   8.560  0.5132 -0.0741 -1.3786
18987SOL    HW259855  10.252   6.351   8.572 -0.2845 -0.3992  2.3457
18988SOL     OW59856   5.459   8.796   1.806  0.1337  0.0861  0.0848
18988SOL    HW159857   5.541   8.843   1.786  0.1582 -0.1843 -0.4557
18988SOL    HW259858   5.487   8.721   1.858  0.1715  0.2614  0.3235
18989SOL     OW59859   0.870   8.148   9.836 -0.6673 -0.7390 -0.0842
18989SOL    HW159860   0.929   8.130   9.909  0.6218 -1.1330 -1.1672
18989SOL    HW259861   0.835   8.235   9.854 -0.8635 -1.0732  1.2864
18990SOL     OW59862   6.513   6.955   1.915 -0.4367 -0.3301 -0.7348
18990SOL    HW159863   6.436   6.951   1.858 -1.7407  0.8881  0.8446
18990SOL    HW259864   6.494   6.892   1.984 -1.2393  1.7253  1.0145
18991SOL     OW59865   3.008   5.019   7.015  0.0959  0.2017  0.2601
18991SOL    HW159866   3.000   5.060   7.101 -2.2148 -0.2014  0.3030
18991SOL    HW259867   3.049   5.085   6.960  1.8482  0.3735  1.6907
18992SOL     OW59868   5.941   7.365   0.868 -0.2702  0.1642  0.3896
18992SOL    HW159869   5.927   7.272   0.851 -1.2253  0.2870  0.4430
18992SOL    HW259870   6.017   7.388   0.814  0.0466 -0.6682  0.4717
18993SOL     OW59871   9.683   1.958   9.101  0.3989 -0.1843  0.2025
18993SOL    HW159872   9.637   1.889   9.054  0.4475  1.2884 -2.1877
18993SOL    HW259873   9.685   1.929   9.192 -0.9977 -2.5208 -0.4480
18994SOL     OW59874   6.891   2.570   2.382  0.0182  0.0857 -0.2108
18994SOL    HW159875   6.928   2.612   2.304 -0.1841 -0.7058 -0.7400
18994SOL    HW259876   6.897   2.476   2.364 -1.1445 -0.0834  0.1971
18995SOL     OW59877   1.569   6.712  10.378  0.5051 -0.6611  0.1125
18995SOL    HW159878   1.476   6.709  10.402  0.1407  0.1338 -1.1491
18995SOL    HW259879   1.600   6.623  10.397 -0.1158 -0.5259  1.9962
18996SOL     OW59880   8.590   6.289   9.217 -0.2742 -0.0118  0.5052
18996SOL    HW159881   8.591   6.378   9.253 -0.3044 -0.6336  2.1132
18996SOL    HW259882   8.586   6.302   9.122 -2.6624  1.7143  0.7465
18997SOL     OW59883   1.420   8.260   3.630  0.2683 -0.1131 -0.3446
18997SOL    HW159884   1.324   8.259   3.623  0.1605  0.9276  0.6434
18997SOL    HW259885   1.437   8.234   3.720  0.8181  1.3266 -0.0087
18998SOL     OW59886   6.872   9.855   7.471  0.1380 -0.2325  0.1591
18998SOL    HW159887   6.963   9.864   7.442 -0.0395 -0.9381 -0.6509
18998SOL    HW259888   6.820   9.869   7.392 -0.4637  0.2270  0.6296
18999SOL     OW59889   1.453   8.858  10.615  0.3221  0.5814 -0.4650
18999SOL    HW159890   1.362   8.842  10.590  0.1432  2.0178 -0.7968
18999SOL    HW259891   1.450   8.935  10.671  1.3059  0.4403 -0.1939
19000SOL     OW59892   5.717   0.500   3.409 -0.1270 -0.2070  0.4145
19000SOL    HW159893   5.629   0.497   3.370  0.3189  1.3250 -0.7724
19000SOL    HW259894   5.715   0.575   3.467  0.4404 -0.0927  0.2890
19001SOL     OW59895   9.845   4.565   0.229 -0.4118  0.0191 -0.6015
19001SOL    HW159896   9.827   4.472   0.219 -0.6745 -0.0904  0.7147
19001SOL    HW259897   9.938   4.574   0.211 -0.6149 -0.2891 -1.9370
19002SOL     OW59898   2.419   1.292   6.342  0.1591 -0.9563  0.3969
19002SOL    HW159899   2.405   1.363   6.404 -0.9993 -0.9852  0.1932
19002SOL    HW259900   2.432   1.214   6.397 -0.0309 -0.8392  0.6089
19003SOL     OW59901  10.118   1.919  10.074 -0.3765  0.0855 -0.1801
19003SOL    HW159902  10.210   1.896  10.060 -0.2100  0.5218  0.1852
19003SOL    HW259903  10.102   1.901  10.166 -0.0599  1.9702  0.2879
19004SOL     OW59904   6.976   4.764   6.225 -0.0828 -0.0381 -0.1257
19004SOL    HW159905   6.977   4.728   6.314  1.6653  0.0120 -0.0880
19004SOL    HW259906   6.976   4.688   6.168 -0.1023 -0.0735 -0.0788
19005SOL     OW59907   5.117   8.517   3.606  0.3536 -0.2769 -0.2568
19005SOL    HW159908   5.162   8.443   3.565  0.8075 -0.5617  0.7211
19005SOL    HW259909   5.142   8.512   3.698  2.2684  2.3937 -0.4996
19006SOL     OW59910   8.858   9.505   2.744  0.2624 -0.3049 -0.1129
19006SOL    HW159911   8.870   9.599   2.761  1.0191 -0.6125  1.2298
19006SOL    HW259912   8.947   9.471   2.735  0.2997 -1.4944  3.2235
19007SOL     OW59913   7.291  10.036   9.523  0.3738  0.1167 -0.5228
19007SOL    HW159914   7.353  10.079   9.582  0.6326 -0.4038 -0.4130
19007SOL    HW259915   7.226   9.996   9.581  0.6866 -0.4845 -0.5861
19008SOL     OW59916   8.287   2.530   8.247 -0.2032  0.3656  0.1524
19008SOL    HW159917   8.366   2.559   8.292  0.1129 -0.4399  0.1324
19008SOL    HW259918   8.302   2.552   8.155  0.2374 -0.2697  0.0644
19009SOL     OW59919   1.864   1.901   3.048 -0.3243 -0.4061 -0.0485
19009SOL    HW159920   1.943   1.860   3.013 -0.6105 -1.5154  0.5681
19009SOL    HW259921   1.812   1.829   3.082 -0.7768  0.4769  1.2114
19010SOL     OW59922   4.545   4.462   7.790 -0.8063  0.3188  0.1466
19010SOL    HW159923   4.586   4.516   7.857 -2.4408  0.7196  0.8698
19010SOL    HW259924   4.585   4.376   7.800  0.2034  0.8117  0.4705
19011SOL     OW59925   2.029   5.738   7.615 -0.5057  0.3028 -0.7663
19011SOL    HW159926   2.012   5.658   7.664  1.3153 -0.8014 -1.8344
19011SOL    HW259927   2.053   5.708   7.527  0.5173  1.9790 -1.1071
19012SOL     OW59928   6.891   1.958   1.490 -0.3395  0.1877  0.7401
19012SOL    HW159929   6.889   1.869   1.524 -0.2574 -0.3300 -0.5503
19012SOL    HW259930   6.834   1.955   1.413 -1.7412  1.6869  1.6720
19013SOL     OW59931   8.362   8.097   6.737 -0.2890 -0.1464  0.2804
19013SOL    HW159932   8.401   8.078   6.652  0.7372 -1.3572  0.9951
19013SOL    HW259933   8.270   8.116   6.718  0.3552  1.6653 -1.3172
19014SOL     OW59934   4.596   3.756   1.466  0.1927  0.0769 -0.1039
19014SOL    HW159935   4.652   3.794   1.399 -0.5363 -0.9545 -1.3446
19014SOL    HW259936   4.552   3.831   1.507 -0.0624  0.6825 -1.4333
19015SOL     OW59937   9.939   6.749   1.373 -0.1177 -0.1794  0.4071
19015SOL    HW159938   9.907   6.830   1.331  0.9687  0.0191 -0.0631
19015SOL    HW259939   9.997   6.779   1.443  0.4227 -0.5486  0.1235
19016SOL     OW59940   7.462   8.440   5.793  0.1670 -0.2284 -0.1840
19016SOL    HW159941   7.419   8.525   5.790  1.4183  0.3892 -1.3871
19016SOL    HW259942   7.538   8.453   5.850  1.5645  0.0784 -2.0428
19017SOL     OW59943   4.149   8.236   7.249 -0.2564  0.1733  0.5015
19017SOL    HW159944   4.159   8.196   7.162 -1.8388  0.3421  0.2172
19017SOL    HW259945   4.130   8.328   7.230 -0.6395  0.2019  1.0211
19018SOL     OW59946   5.795  10.592  10.063  0.4898  0.7108  0.3512
19018SOL    HW159947   5.878  10.545  10.052  0.8562  1.4316 -0.0294
19018SOL    HW259948   5.740  10.532  10.114  0.1723 -1.0552 -1.9334
19019SOL     OW59949   2.365   0.714   8.925 -0.2129  0.0869  0.1047
19019SOL    HW159950   2.352   0.675   9.012 -0.7738 -0.0555 -0.0434
19019SOL    HW259951   2.398   0.643   8.871  2.4446  0.6888  0.7550
19020SOL     OW59952   4.116   8.461   5.089 -0.1263 -0.1290 -0.3315
19020SOL    HW159953   4.067   8.411   5.024 -1.3200 -0.5498  0.8645
19020SOL    HW259954   4.050   8.513   5.135  0.7302  0.3667  0.3768
19021SOL     OW59955   2.286   0.548   1.128 -0.1192  0.5271  0.2447
19021SOL    HW159956   2.208   0.504   1.163 -1.4470  3.0609  0.7008
19021SOL    HW259957   2.350   0.477   1.116 -1.4829 -1.2498  2.5534
19022SOL     OW59958   8.640   0.273   5.211 -0.1155 -0.0654  0.1651
19022SOL    HW159959   8.701   0.334   5.252  3.2270 -1.7413 -1.8775
19022SOL    HW259960   8.604   0.322   5.136  0.3543  0.2863  0.1632
19023SOL     OW59961   0.074   7.324   1.164  0.8479  0.7634 -0.0126
19023SOL    HW159962   0.074   7.333   1.069  0.5614 -2.3484 -0.4296
19023SOL    HW259963   0.166   7.316   1.188  0.8362 -0.6462 -0.3633
19024SOL     OW59964   5.301   8.825   0.537 -0.6751  0.2818  0.5716
19024SOL    HW159965   5.393   8.846   0.523  0.0334 -1.1977  2.5118
19024SOL    HW259966   5.278   8.769   0.462 -0.1264  0.9725 -0.1278
19025SOL     OW59967  10.104   2.908   6.030 -0.1585 -0.2656  0.2259
19025SOL    HW159968  10.032   2.966   6.006 -0.2603 -0.1593  0.7637
19025SOL    HW259969  10.183   2.953   6.001 -0.2486  0.0706  0.4943
19026SOL     OW59970   6.041   4.185   8.367  0.5747 -0.3593  0.1393
19026SOL    HW159971   5.958   4.145   8.394 -0.2477  0.6572 -0.8024
19026SOL    HW259972   6.018   4.273   8.339  1.7512 -0.5295 -1.4965
19027SOL     OW59973   8.354  10.435   5.695  0.8982 -0.0111  0.2936
19027SOL    HW159974   8.287  10.448   5.628  1.6239  3.6499  0.0778
19027SOL    HW259975   8.309  10.389   5.766 -0.9052 -0.5657 -1.1578
19028SOL     OW59976   4.329   7.754   1.060  0.4556  0.3099 -0.1453
19028SOL    HW159977   4.252   7.779   1.010  0.6296 -1.4008 -1.3684
19028SOL    HW259978   4.295   7.703   1.133  0.3924 -0.7782 -0.8976
19029SOL     OW59979   7.358   1.040   9.538  0.4549  0.4603  0.0100
19029SOL    HW159980   7.372   1.008   9.628 -1.4065  0.4486  0.3471
19029SOL    HW259981   7.278   1.093   9.545  1.0922  1.6379 -1.3818
19030SOL     OW59982   1.772   9.147   5.214 -0.5482  0.1719  0.7756
19030SOL    HW159983   1.753   9.100   5.295 -0.3815 -0.1851  0.6128
19030SOL    HW259984   1.835   9.214   5.239  0.4625 -0.7259  0.7276
19031SOL     OW59985   8.764  10.357   6.680 -0.1218  0.3120  0.1985
19031SOL    HW159986   8.743  10.434   6.627 -1.5873  0.2278  0.6417
19031SOL    HW259987   8.772  10.390   6.769  1.6025  0.3217  0.0763
19032SOL     OW59988  10.098   2.852   2.513  0.2942  0.2329 -0.3969
19032SOL    HW159989  10.009   2.820   2.524  0.9133 -1.1410  0.9891
19032SOL    HW259990  10.153   2.783   2.550  1.9935  0.6832 -1.9261
19033SOL     OW59991   3.689   8.704   5.169  0.2469 -0.2584  0.6817
19033SOL    HW159992   3.671   8.748   5.252  0.4222  0.6227  0.2658
19033SOL    HW259993   3.604   8.674   5.138 -0.3662  2.3494 -0.4300
19034SOL     OW59994   7.283   9.323   7.197 -0.4799 -0.0547 -0.1619
19034SOL    HW159995   7.374   9.297   7.189 -0.4398  0.2718 -0.8415
19034SOL    HW259996   7.241   9.252   7.245  0.1616 -0.1282  0.2952
19035SOL     OW59997   1.214   4.505  10.765  0.2687  0.1124 -0.0835
19035SOL    HW159998   1.175   4.420  10.788  1.1077  0.2204  1.9347
19035SOL    HW259999   1.144   4.568  10.780 -0.0771 -0.1075 -0.7112
19036SOL     OW60000   4.296   0.272  10.193 -0.5290 -0.5103  0.4782
19036SOL    HW160001   4.380   0.315  10.210 -0.2826 -0.2409 -1.1818
19036SOL    HW260002   4.259   0.256  10.279  0.8376  0.1509  1.2251
19037SOL     OW60003   7.192   9.587   0.348 -0.2388  0.4019  0.1056
19037SOL    HW160004   7.147   9.656   0.300 -0.2891  0.5492  0.3674
19037SOL    HW260005   7.272   9.627   0.379 -0.1282  0.2597  0.0069
19038SOL     OW60006   0.126   5.807   5.167  0.0071 -0.0745 -0.0699
19038SOL    HW160007   0.192   5.875   5.152  0.6921 -0.9586 -1.2064
19038SOL    HW260008   0.079   5.836   5.246  2.2086  0.2241  1.2042
19039SOL     OW60009   6.340   4.885   7.805  0.1976  0.0512 -0.0751
19039SOL    HW160010   6.315   4.800   7.769  0.9253 -1.1684  2.0927
19039SOL    HW260011   6.260   4.920   7.844 -0.4498  1.1061 -2.1797
19040SOL     OW60012   3.185   4.761   9.541 -0.2401 -0.0899  0.1001
19040SOL    HW160013   3.182   4.750   9.446 -0.7202 -0.0540  0.1074
19040SOL    HW260014   3.227   4.682   9.574  0.1434  0.0017 -0.1584
19041SOL     OW60015   7.884   7.396   9.398 -0.8728 -0.5135 -0.3420
19041SOL    HW160016   7.962   7.351   9.431 -1.3342 -1.0332  0.0626
19041SOL    HW260017   7.852   7.339   9.328 -0.6000 -0.0410 -0.8509
19042SOL     OW60018   3.981   0.420   0.061  0.7735 -0.2411  0.4060
19042SOL    HW160019   3.903   0.369   0.041 -0.8075  2.0149  0.5011
19042SOL    HW260020   4.005   0.463  -0.022  0.9528  0.3042  0.7302
19043SOL     OW60021   8.171   7.176   3.918 -0.3326 -0.0795 -0.4362
19043SOL    HW160022   8.079   7.199   3.908 -0.6669 -1.2772 -0.2637
19043SOL    HW260023   8.216   7.260   3.925 -1.5794  0.5267  0.9206
19044SOL     OW60024   7.826   8.229   2.961  0.3281  0.0437 -0.0212
19044SOL    HW160025   7.805   8.296   3.027 -0.1332  1.1341 -1.2422
19044SOL    HW260026   7.898   8.266   2.911  1.2514 -1.1515  0.3710
19045SOL     OW60027   7.877   1.232   5.359  0.2947  0.4118  0.1530
19045SOL    HW160028   7.809   1.169   5.381  0.4731  0.0638 -0.2935
19045SOL    HW260029   7.957   1.196   5.397  0.5196  0.0344 -0.6621
19046SOL     OW60030   2.604   1.099   7.216  0.3838  0.1190  0.2262
19046SOL    HW160031   2.671   1.157   7.181  1.7388 -1.5785 -0.1481
19046SOL    HW260032   2.620   1.015   7.174 -2.8919 -0.0691 -0.9546
19047SOL     OW60033   4.174   6.567   5.701 -0.6622  0.4912 -0.8135
19047SOL    HW160034   4.129   6.614   5.772  0.8515  2.1295 -0.8520
19047SOL    HW260035   4.195   6.481   5.739 -2.9516 -0.0038 -0.5246
19048SOL     OW60036   5.327   8.617   9.050  0.3728  0.0362  0.1746
19048SOL    HW160037   5.412   8.648   9.083  0.3995  0.0876  0.0562
19048SOL    HW260038   5.265   8.641   9.119  0.3578  0.5640 -0.0220
19049SOL     OW60039   9.534   8.634   6.287  0.5694 -0.4708 -0.0356
19049SOL    HW160040   9.498   8.612   6.373  0.3013 -0.4120 -0.1304
19049SOL    HW260041   9.616   8.680   6.306  0.3303 -0.1353  0.1977
19050SOL     OW60042   6.372   6.663   3.080 -0.1750  0.4526 -0.0958
19050SOL    HW160043   6.291   6.691   3.036 -0.5220 -0.2515  0.0812
19050SOL    HW260044   6.373   6.712   3.162  0.4831  1.7870 -0.8801
19051SOL     OW60045   1.606   1.150   6.025 -0.2712 -0.1545 -0.0799
19051SOL    HW160046   1.559   1.231   6.005  0.9829  0.6796  0.2392
19051SOL    HW260047   1.680   1.177   6.080  2.3339 -0.9149 -2.8726
19052SOL     OW60048   0.385   9.632   3.715 -0.1111 -0.8615 -0.5544
19052SOL    HW160049   0.418   9.695   3.779 -0.7009  2.0746 -2.9575
19052SOL    HW260050   0.305   9.597   3.754  0.0940  0.0623  0.7510
19053SOL     OW60051   9.373   9.839   6.745  0.1754  0.2024  0.0514
19053SOL    HW160052   9.362   9.910   6.681 -0.3985 -0.4297 -0.5789
19053SOL    HW260053   9.456   9.798   6.720 -0.2211 -0.2656 -0.5290
19054SOL     OW60054   1.245   0.864   3.709  0.1336  0.1726 -0.5336
19054SOL    HW160055   1.299   0.863   3.788 -0.8136 -0.3922  0.1251
19054SOL    HW260056   1.308   0.869   3.637  0.9825  3.7145  0.2667
19055SOL     OW60057   4.679   5.321   7.941  0.0853  0.1229  0.2378
19055SOL    HW160058   4.696   5.369   7.861  0.6983 -1.2681 -0.5064
19055SOL    HW260059   4.583   5.317   7.947 -0.0303 -1.7404 -1.7222
19056SOL     OW60060   6.422   9.962   3.169  0.0165  0.0933 -0.3217
19056SOL    HW160061   6.331   9.936   3.154  0.0862 -1.2798  1.2882
19056SOL    HW260062   6.429   9.971   3.264  1.4633  0.5349 -0.4465
19057SOL     OW60063   8.527   7.848   2.050 -0.1700  0.7538  0.4221
19057SOL    HW160064   8.567   7.845   2.137  0.9173  1.4175 -0.0298
19057SOL    HW260065   8.521   7.757   2.022 -0.1186  0.5674  1.0184
19058SOL     OW60066   9.877   2.848   3.162 -0.5321  0.3022  0.2220
19058SOL    HW160067   9.852   2.909   3.231  0.8800 -1.0249  2.0052
19058SOL    HW260068   9.959   2.810   3.192 -0.5344 -1.3053 -1.5903
19059SOL     OW60069   6.123   8.338   3.772 -0.0943 -0.2688  0.3362
19059SOL    HW160070   6.216   8.324   3.788 -0.1352 -0.5023  0.3754
19059SOL    HW260071   6.085   8.250   3.771 -0.0066 -0.3101 -1.5765
19060SOL     OW60072   8.314   2.612   9.697 -0.1743 -0.0298 -0.3659
19060SOL    HW160073   8.322   2.616   9.792  0.7171  1.2158 -0.4719
19060SOL    HW260074   8.397   2.575   9.667 -1.6134 -3.5922 -0.5480
19061SOL     OW60075   5.623   5.472   0.924  0.2810 -0.0906 -0.2311
19061SOL    HW160076   5.534   5.503   0.906  0.2323 -0.0442  0.0857
19061SOL    HW260077   5.679   5.531   0.873  0.1177 -0.2536 -0.5961
19062SOL     OW60078   8.802   7.944   3.984  0.2065  0.1637  0.2542
19062SOL    HW160079   8.757   7.903   3.910  0.2070  0.4334  0.1028
19062SOL    HW260080   8.866   8.003   3.943  1.2373 -0.7848  0.4475
19063SOL     OW60081  10.459   5.819   8.164  0.3115 -0.1121 -0.2431
19063SOL    HW160082  10.552   5.839   8.153  0.5919 -1.5182 -0.6439
19063SOL    HW260083  10.454   5.771   8.247 -0.1575  0.4747  0.0788
19064SOL     OW60084   4.670   2.854   8.516 -0.2474  0.4436  0.4813
19064SOL    HW160085   4.639   2.920   8.578 -0.7697 -0.1163  0.8265
19064SOL    HW260086   4.704   2.783   8.570 -0.5121  0.0450  0.1345
19065SOL     OW60087   1.000   8.046   7.505  0.2756 -0.8241  0.4487
19065SOL    HW160088   0.983   8.022   7.596 -1.4704 -1.3458  0.0208
19065SOL    HW260089   0.914   8.044   7.463  0.8390  0.7324 -0.9177
19066SOL     OW60090   9.497  10.529   6.167  0.3382  0.2267 -0.0648
19066SOL    HW160091   9.441  10.470   6.217 -0.6849 -0.6313 -2.0961
19066SOL    HW260092   9.468  10.617   6.192  0.7756 -0.1278  1.7911
19067SOL     OW60093   8.855  10.168   5.933  0.3553  0.3100  0.3300
19067SOL    HW160094   8.779  10.224   5.945 -0.4330 -0.6662  0.0207
19067SOL    HW260095   8.823  10.095   5.880  1.6932  0.2651 -0.4631
19068SOL     OW60096   9.864   8.256   2.059  0.3362  0.1378  0.2479
19068SOL    HW160097   9.878   8.280   2.151  1.9752 -1.1304  0.3779
19068SOL    HW260098   9.824   8.169   2.063 -0.2802  0.3927 -0.2510
19069SOL     OW60099   9.622   1.925   2.969 -0.5436 -0.0572 -0.4992
19069SOL    HW160100   9.711   1.892   2.968 -0.9819 -1.7818  2.7303
19069SOL    HW260101   9.629   2.014   3.004 -0.1407 -1.0222  2.1186
19070SOL     OW60102   1.891   8.629   0.106  0.2782  0.4179  0.0150
19070SOL    HW160103   1.927   8.694   0.167  0.3934  1.7455 -1.3996
19070SOL    HW260104   1.797   8.630   0.123  0.3935  0.2379  0.6719
19071SOL     OW60105   9.038   3.745   8.282  0.0425 -0.0792 -0.5003
19071SOL    HW160106   9.010   3.691   8.207 -0.4247  0.1110 -0.4652
19071SOL    HW260107   9.095   3.812   8.243 -0.7903  0.4713 -0.8006
19072SOL     OW60108   4.491   7.723   7.683  0.3097  0.2554 -0.2756
19072SOL    HW160109   4.499   7.689   7.772  1.4824 -1.2315 -0.8815
19072SOL    HW260110   4.531   7.810   7.687  1.8962 -0.4452  0.3566
19073SOL     OW60111  10.258   5.209   2.966  0.1843 -0.0497  0.0934
19073SOL    HW160112  10.253   5.116   2.988  2.6129 -0.5435 -1.1311
19073SOL    HW260113  10.314   5.213   2.889 -0.4191  2.4065 -0.3161
19074SOL     OW60114   1.324   8.874   3.722 -0.2649 -0.0024 -0.6901
19074SOL    HW160115   1.272   8.820   3.781  0.8570  0.4550  0.7678
19074SOL    HW260116   1.266   8.948   3.702  0.1658  1.1697  1.9440
19075SOL     OW60117   2.647   2.978   0.720 -0.0572  0.0627 -0.5131
19075SOL    HW160118   2.631   2.935   0.636  0.1031  1.2660 -1.1832
19075SOL    HW260119   2.560   2.997   0.754 -0.1353  0.6576 -1.0083
19076SOL     OW60120   4.382   5.678   6.627 -0.2586  0.1203 -0.1417
19076SOL    HW160121   4.312   5.743   6.631 -0.3745  0.1773 -2.0973
19076SOL    HW260122   4.455   5.718   6.674 -0.8628  0.9588  0.1028
19077SOL     OW60123   3.809   3.863   8.922 -0.3068 -0.6563 -0.2189
19077SOL    HW160124   3.739   3.803   8.899 -0.0703 -1.0479  0.0749
19077SOL    HW260125   3.777   3.908   9.001 -0.4144 -0.5089 -0.3447
19078SOL     OW60126   8.237   7.319   9.587 -0.8332 -0.3470  0.3505
19078SOL    HW160127   8.223   7.262   9.662 -0.2601 -0.3289  0.4744
19078SOL    HW260128   8.177   7.286   9.520 -1.3306 -0.3747  0.8023
19079SOL     OW60129   6.829   2.477   0.985 -0.1168 -0.0097  0.3471
19079SOL    HW160130   6.801   2.516   0.902  0.7922 -1.5186 -0.7137
19079SOL    HW260131   6.907   2.426   0.963  0.4288 -0.0911  2.2328
19080SOL     OW60132   7.569   3.246   7.921  0.1516 -0.2714 -0.2194
19080SOL    HW160133   7.481   3.268   7.952  0.3467  0.1620  0.0293
19080SOL    HW260134   7.554   3.191   7.844 -0.3790  1.6940 -1.6108
19081SOL     OW60135   3.314   9.255   3.963 -0.2389  0.8569 -0.2382
19081SOL    HW160136   3.390   9.291   4.008 -0.1187  1.7807 -1.1402
19081SOL    HW260137   3.239   9.297   4.003 -0.2404  0.3974  0.2456
19082SOL     OW60138   6.347   1.036   6.023  0.2364  0.5211  0.1194
19082SOL    HW160139   6.259   1.058   6.055  0.4629  1.7455 -0.0603
19082SOL    HW260140   6.404   1.052   6.098  0.2918 -0.5336  0.3185
19083SOL     OW60141   2.916   4.321   2.326 -0.4992 -0.6898 -0.1196
19083SOL    HW160142   2.987   4.288   2.270  0.7507 -0.5213  1.2960
19083SOL    HW260143   2.841   4.265   2.305 -0.1011 -0.5744 -1.9929
19084SOL     OW60144   2.583   6.948   1.062 -0.0804  0.3328  0.0549
19084SOL    HW160145   2.623   7.019   1.012  1.1329 -0.2173  0.2098
19084SOL    HW260146   2.642   6.934   1.136 -0.9182 -0.0576  0.6636
19085SOL     OW60147   4.709   5.346   8.737 -0.0782  0.0533 -0.0832
19085SOL    HW160148   4.706   5.417   8.673  0.4872  0.3376  0.1934
19085SOL    HW260149   4.684   5.388   8.820  1.0511  0.1367  0.2438
19086SOL     OW60150   8.978   9.927  10.649 -0.0857  0.4654 -0.1055
19086SOL    HW160151   8.941   9.861  10.591  2.5035 -1.0948 -0.1111
19086SOL    HW260152   9.072   9.921  10.637  0.3637  2.8814  1.3339
19087SOL     OW60153   9.805   3.661   1.809  0.2062 -0.2933 -0.7990
19087SOL    HW160154   9.722   3.619   1.832  1.4631 -2.3551  0.3065
19087SOL    HW260155   9.806   3.662   1.713 -1.4200  0.4986 -0.8252
19088SOL     OW60156   8.327  10.081   1.605 -0.1726  0.1068  0.2785
19088SOL    HW160157   8.275  10.145   1.653 -1.4083 -0.8519  0.2622
19088SOL    HW260158   8.418  10.104   1.625 -0.4956  2.7739 -0.9220
19089SOL     OW60159   7.937   2.610   3.503  0.4294 -0.4027  0.0308
19089SOL    HW160160   7.863   2.667   3.480 -0.2091 -0.6907  1.2892
19089SOL    HW260161   8.014   2.656   3.468 -0.3571 -0.2858 -1.6340
19090SOL     OW60162   3.114   3.206   6.898 -0.4374 -0.1054  0.4105
19090SOL    HW160163   3.106   3.124   6.946  0.0418 -1.6785 -2.0247
19090SOL    HW260164   3.027   3.220   6.860 -0.0225 -0.6152 -0.7963
19091SOL     OW60165   4.121   3.949   3.045 -0.1166 -0.6946  0.7870
19091SOL    HW160166   4.064   3.887   3.091 -3.3221  1.4002  0.0092
19091SOL    HW260167   4.094   3.942   2.953  0.7688  0.4945  0.4101
19092SOL     OW60168  10.695   2.642   4.939  0.5016 -0.1186  0.6046
19092SOL    HW160169  10.657   2.706   5.000  0.3997 -1.0014  1.4938
19092SOL    HW260170  10.685   2.558   4.984 -1.4397 -1.1181 -1.4901
19093SOL     OW60171   9.704   7.262   4.697  0.1381 -0.1026  0.0934
19093SOL    HW160172   9.747   7.187   4.655  1.5187  0.7215 -0.0207
19093SOL    HW260173   9.771   7.329   4.700 -0.9919  1.0435  0.4719
19094SOL     OW60174   3.195   9.899   8.650 -0.2013  0.2206 -0.2505
19094SOL    HW160175   3.242   9.846   8.586 -0.2520  1.2040 -1.1218
19094SOL    HW260176   3.259   9.914   8.720 -0.3311 -1.3472  0.2389
19095SOL     OW60177   0.099   8.841   3.406  0.2547  0.5010 -0.3979
19095SOL    HW160178   0.093   8.936   3.410 -1.0363  0.4134  0.4006
19095SOL    HW260179   0.060   8.811   3.489 -1.3825 -0.7749 -1.5619
19096SOL     OW60180   8.059   7.744   9.147 -0.0099  0.5784  0.0199
19096SOL    HW160181   8.142   7.790   9.133  1.4856 -1.1409  2.4161
19096SOL    HW260182   8.024   7.782   9.227 -2.0992  1.9028 -1.4267
19097SOL     OW60183   1.144   6.256   7.528  0.1671  0.1477  0.2628
19097SOL    HW160184   1.150   6.235   7.434  2.5621 -1.3559  0.6680
19097SOL    HW260185   1.076   6.323   7.533 -0.0428  0.2722 -2.5516
19098SOL     OW60186   5.844   7.660   6.380 -0.1936 -0.0720 -0.1458
19098SOL    HW160187   5.785   7.586   6.364 -1.2127  1.0895 -2.3411
19098SOL    HW260188   5.923   7.638   6.331  0.2526 -0.5242  0.7609
19099SOL     OW60189  10.670   6.073   3.666 -0.0308  0.2461  0.1736
19099SOL    HW160190  10.674   5.985   3.704  1.0509 -0.3485 -1.2322
19099SOL    HW260191  10.758   6.108   3.679 -0.1035  0.6314 -0.3536
19100SOL     OW60192   1.355   4.538   7.353  0.5272 -0.0497  0.2774
19100SOL    HW160193   1.385   4.620   7.391  0.7523 -0.2811  0.6087
19100SOL    HW260194   1.427   4.509   7.297 -0.1162  0.6874 -0.9708
19101SOL     OW60195   9.949   4.082   3.949  0.0773 -0.4853 -0.7692
19101SOL    HW160196   9.903   4.014   3.997 -0.3623  0.7534  0.6493
19101SOL    HW260197  10.037   4.047   3.935 -0.2913 -1.5286 -0.5460
19102SOL     OW60198   2.142   2.146   4.852 -0.1568 -0.0092  0.2299
19102SOL    HW160199   2.169   2.113   4.938  1.9635 -0.1515 -0.4424
19102SOL    HW260200   2.212   2.118   4.792 -2.2951 -1.2572 -1.8630
19103SOL     OW60201   3.820  10.226  10.182  0.1558  0.0074  0.5969
19103SOL    HW160202   3.827  10.149  10.237 -0.5021 -0.6499 -0.2157
19103SOL    HW260203   3.759  10.201  10.112  0.0967  1.1819  0.1958
19104SOL     OW60204   7.939   0.387   1.544  0.1598 -0.4951 -0.1585
19104SOL    HW160205   7.915   0.396   1.452 -0.4263 -1.0916 -0.0694
19104SOL    HW260206   7.999   0.313   1.547 -2.0928 -2.4169  0.2955
19105SOL     OW60207   5.347   9.620   7.497 -0.1278  0.1745 -0.3899
19105SOL    HW160208   5.277   9.555   7.485 -0.2146  0.1125  0.4091
19105SOL    HW260209   5.414   9.574   7.548  0.2570  0.4049 -0.6806
19106SOL     OW60210   1.142   0.646   2.639 -0.3368 -0.4606 -0.3612
19106SOL    HW160211   1.057   0.624   2.675  0.5951 -2.1210  0.9841
19106SOL    HW260212   1.170   0.566   2.594  0.6809 -0.0768 -0.4359
19107SOL     OW60213   5.847   5.322   7.027  0.0737 -0.0531  0.4379
19107SOL    HW160214   5.891   5.253   6.977  1.5696  1.3835 -0.3265
19107SOL    HW260215   5.793   5.368   6.963 -1.5316 -0.9314  1.0974
19108SOL     OW60216   0.926   6.357   3.909  0.2031  0.3199  0.2189
19108SOL    HW160217   0.979   6.286   3.872 -0.4282  1.1423 -2.4545
19108SOL    HW260218   0.867   6.313   3.970 -0.3779 -1.5694 -1.5897
19109SOL     OW60219  10.676   4.230   7.583  0.4230  0.1281  0.9355
19109SOL    HW160220  10.662   4.264   7.494 -0.0419  0.4388  1.1261
19109SOL    HW260221  10.763   4.190   7.579  0.0193 -0.6894  0.0852
19110SOL     OW60222   3.161   7.574   5.984  0.0495  0.4540  0.1392
19110SOL    HW160223   3.145   7.666   5.960 -1.3267 -0.2826 -2.1905
19110SOL    HW260224   3.235   7.548   5.929  0.6742  0.2519  1.0641
19111SOL     OW60225   4.686   0.622   7.815  0.3622 -0.5972 -0.0104
19111SOL    HW160226   4.701   0.528   7.818  0.1838 -0.6036  0.9444
19111SOL    HW260227   4.604   0.635   7.863 -0.3619 -0.0929 -1.3323
19112SOL     OW60228   5.162   4.105   1.110 -0.5363  0.0620 -0.5114
19112SOL    HW160229   5.158   4.118   1.205 -0.6315 -1.3736 -0.3000
19112SOL    HW260230   5.244   4.058   1.096 -1.0107 -0.6332 -1.0183
19113SOL     OW60231   0.440   9.042   0.213 -0.0987  0.0268 -0.2572
19113SOL    HW160232   0.458   9.128   0.249 -0.1324 -0.1010  0.0654
19113SOL    HW260233   0.460   8.981   0.284 -1.9147 -0.1220  0.1805
19114SOL     OW60234   3.248   7.796   6.617  0.2232  0.4920  0.0659
19114SOL    HW160235   3.189   7.838   6.555 -0.4899  0.8521  0.9625
19114SOL    HW260236   3.272   7.865   6.678 -1.0959 -0.3878  1.6566
19115SOL     OW60237   0.512   3.312   5.380  0.1599  0.2439 -0.3440
19115SOL    HW160238   0.472   3.348   5.301 -0.3575  1.4944  0.4654
19115SOL    HW260239   0.586   3.369   5.399 -1.0652  1.3713  1.3283
19116SOL     OW60240   3.654   4.482   2.067 -0.5421 -0.2951 -0.3426
19116SOL    HW160241   3.606   4.531   2.134  2.5408 -0.2555  2.0920
19116SOL    HW260242   3.679   4.548   2.003  0.6735  0.7967  1.1515
19117SOL     OW60243   3.638   0.061   2.701 -0.5700  0.1422 -0.3851
19117SOL    HW160244   3.559   0.027   2.659 -0.1665  0.0776 -1.1195
19117SOL    HW260245   3.663  -0.005   2.765 -1.4506  0.4472  0.2903
19118SOL     OW60246   6.594   6.720   8.555  0.5475  0.5122  0.5017
19118SOL    HW160247   6.530   6.782   8.590 -0.7505 -1.1434  1.2054
19118SOL    HW260248   6.570   6.711   8.463 -0.0080  0.1864  0.6723
19119SOL     OW60249   4.442   2.678   5.620 -0.5081  0.6723  0.0084
19119SOL    HW160250   4.432   2.626   5.541 -0.7507 -2.3137  1.8671
19119SOL    HW260251   4.374   2.746   5.613  0.9906  2.0253 -3.3216
19120SOL     OW60252   5.787   9.476  10.736  0.3133 -0.4818  0.1766
19120SOL    HW160253   5.729   9.530  10.789  0.1215  0.1930 -0.6957
19120SOL    HW260254   5.786   9.517  10.650  1.3689 -0.9969 -0.0978
19121SOL     OW60255   4.531  10.782   1.362 -0.3524 -0.0040 -0.2247
19121SOL    HW160256   4.448  10.826   1.345 -0.8165 -0.6552  0.2941
19121SOL    HW260257   4.510  10.716   1.427  0.6038 -0.1007 -0.0002
19122SOL     OW60258   0.877   5.635   7.536 -0.1589  0.3331 -0.0152
19122SOL    HW160259   0.794   5.681   7.521 -0.7077 -0.4407  0.5692
19122SOL    HW260260   0.904   5.605   7.450 -1.7441 -1.4896  0.0595
19123SOL     OW60261   2.112   7.638   8.373 -0.4371 -0.3486  0.0130
19123SOL    HW160262   2.025   7.602   8.357 -0.2667 -1.5656  1.4812
19123SOL    HW260263   2.137   7.602   8.459  0.8256  1.3074  0.3961
19124SOL     OW60264   7.561   5.767   2.776  0.2915  0.1987  0.4973
19124SOL    HW160265   7.494   5.788   2.841  0.3487  0.2937  0.5247
19124SOL    HW260266   7.511   5.740   2.698  0.2244 -0.8252  0.8813
19125SOL     OW60267   0.977   7.967   4.103  0.9289  0.2030 -0.0686
19125SOL    HW160268   0.960   8.060   4.121  0.2955  0.1712 -0.4809
19125SOL    HW260269   0.978   7.961   4.007  0.1293 -0.3581 -0.0556
19126SOL     OW60270   3.281   4.434   3.900 -0.1576  0.4871  0.7583
19126SOL    HW160271   3.302   4.438   3.994 -0.2849  0.4604  0.7885
19126SOL    HW260272   3.353   4.386   3.861  0.2174  1.0447  0.7496
19127SOL     OW60273   2.693   4.759  10.049 -0.4160 -0.2399  0.4657
19127SOL    HW160274   2.724   4.774   9.960 -1.2098 -0.7581  0.0890
19127SOL    HW260275   2.718   4.668  10.067 -0.0852 -0.0736  0.8419
19128SOL     OW60276   5.474   7.284   8.652 -0.5435  0.2048 -0.1937
19128SOL    HW160277   5.405   7.344   8.681 -0.2944  0.8237 -0.8756
19128SOL    HW260278   5.437   7.240   8.575 -0.0469  0.8070 -0.7839
19129SOL     OW60279   0.091  10.017   5.500 -0.5168 -0.1013  0.1715
19129SOL    HW160280   0.114  10.054   5.586 -1.4167 -0.8905  0.7790
19129SOL    HW260281   0.000   9.987   5.511  0.0027 -2.0242 -0.4248
19130SOL     OW60282   0.179  10.007   0.296 -0.3165  0.1032  0.3587
19130SOL    HW160283   0.185   9.968   0.208  2.2825 -0.4494  0.7043
19130SOL    HW260284   0.134   9.940   0.348 -1.1266  0.0793 -0.3485
19131SOL     OW60285   1.672  10.073   9.522  0.5844 -0.1191 -0.1001
19131SOL    HW160286   1.742  10.042   9.464  0.7091 -1.2107  0.6171
19131SOL    HW260287   1.680  10.168   9.520  0.8985 -0.1551 -1.4876
19132SOL     OW60288   3.772   3.650   0.500 -0.3556 -0.3050  0.6488
19132SOL    HW160289   3.680   3.677   0.494  0.1954  2.0774  1.7509
19132SOL    HW260290   3.821   3.732   0.497  1.8512 -1.5845 -0.9785
19133SOL     OW60291   8.250   2.831   8.783  0.3736  0.2891 -0.4150
19133SOL    HW160292   8.157   2.829   8.760  0.2038 -0.0505  0.2793
19133SOL    HW260293   8.283   2.911   8.742 -0.1047  0.1383 -1.1109
19134SOL     OW60294   5.668   1.046   2.225 -0.1470 -0.2158 -0.3605
19134SOL    HW160295   5.719   1.126   2.237 -0.1412 -0.0482 -1.3967
19134SOL    HW260296   5.586   1.062   2.272 -0.0087  0.2618 -0.2778
19135SOL     OW60297   3.621   4.335   5.140 -0.4769  0.1739 -0.2063
19135SOL    HW160298   3.603   4.426   5.118  0.6763  0.3139 -0.6908
19135SOL    HW260299   3.654   4.297   5.058  0.1879 -0.3439  0.2865
19136SOL     OW60300   2.153   2.958   2.729  0.1616 -0.1707  0.0424
19136SOL    HW160301   2.148   2.997   2.642 -2.2170  1.5251  0.8488
19136SOL    HW260302   2.125   2.867   2.716  0.8540 -0.2429 -1.0990
19137SOL     OW60303   9.923   1.339  10.601 -0.5241 -0.0725  0.3346
19137SOL    HW160304   9.966   1.257  10.578 -1.6911 -0.4050 -0.7910
19137SOL    HW260305   9.938   1.396  10.525  0.2177  0.7500  1.0772
19138SOL     OW60306   2.263   3.226   8.648 -0.2639  0.7241 -0.2400
19138SOL    HW160307   2.351   3.227   8.687  0.0676  0.4609 -0.9562
19138SOL    HW260308   2.240   3.318   8.637 -1.2545  0.8710  2.4940
19139SOL     OW60309   6.271   3.413   2.897  0.3586 -0.0206 -0.7351
19139SOL    HW160310   6.193   3.439   2.946  0.8438 -0.6096  0.4051
19139SOL    HW260311   6.262   3.318   2.887  1.7521 -0.4048  1.0193
19140SOL     OW60312  10.293   7.626   3.767 -0.0848  0.4401 -0.0432
19140SOL    HW160313  10.277   7.552   3.825 -0.6259 -1.6001 -2.5934
19140SOL    HW260314  10.384   7.650   3.782  0.2798 -1.1654  0.4314
19141SOL     OW60315   8.041   0.621   5.785 -0.0637 -0.4145  0.3631
19141SOL    HW160316   8.094   0.545   5.760  0.6125  0.4022 -0.7640
19141SOL    HW260317   8.027   0.669   5.704 -0.9996  0.3576  0.9610
19142SOL     OW60318   5.369  10.538   2.475 -0.2338  0.3194 -0.5872
19142SOL    HW160319   5.277  10.517   2.461  0.0246 -0.7010 -0.9057
19142SOL    HW260320   5.380  10.537   2.570 -0.3591 -0.5079 -0.5735
19143SOL     OW60321  10.426   0.313   0.745  0.0513 -0.1330  0.1538
19143SOL    HW160322  10.424   0.295   0.839 -0.3307 -1.1732 -0.0350
19143SOL    HW260323  10.391   0.401   0.736  0.1297 -0.0120  0.9895
19144SOL     OW60324   7.301   5.885   9.428 -0.0470  0.1613  0.2426
19144SOL    HW160325   7.301   5.976   9.456 -2.3425 -0.2092  1.7442
19144SOL    HW260326   7.287   5.889   9.333  0.0952  1.3617  0.2647
19145SOL     OW60327  10.332   0.830   8.480 -0.2768  0.1521  0.8265
19145SOL    HW160328  10.345   0.921   8.507  1.5336 -0.3277  1.6908
19145SOL    HW260329  10.281   0.837   8.399 -2.2671  1.8088  2.0826
19146SOL     OW60330   4.168   8.892   8.764  0.0355  0.1807  0.1216
19146SOL    HW160331   4.154   8.852   8.849 -1.1163 -0.0064 -0.1434
19146SOL    HW260332   4.155   8.821   8.701  1.2208  0.2303 -0.2145
19147SOL     OW60333   9.645   1.759   9.837  0.1744 -0.5414 -0.0710
19147SOL    HW160334   9.737   1.775   9.860  0.5663 -2.4224 -0.1860
19147SOL    HW260335   9.605   1.727   9.917 -0.3271 -0.0222 -0.1060
19148SOL     OW60336   8.332   6.142   3.916  0.3104 -0.3635 -0.2995
19148SOL    HW160337   8.371   6.069   3.869 -0.4338 -2.1308  1.6771
19148SOL    HW260338   8.375   6.141   4.002 -0.3370  0.9884  0.0720
19149SOL     OW60339   1.884   8.991   8.726  0.1153 -0.3425 -0.1710
19149SOL    HW160340   1.795   9.025   8.727  0.6076  1.0041  0.6998
19149SOL    HW260341   1.939   9.069   8.722  1.2642 -1.1696 -1.5799
19150SOL     OW60342   2.760   8.096  10.134  0.0551 -0.1391  0.2924
19150SOL    HW160343   2.734   8.145  10.056  0.4865 -0.7019 -0.2105
19150SOL    HW260344   2.794   8.014  10.101 -0.1774 -0.5772  1.1044
19151SOL     OW60345   5.111   0.116  10.015 -0.2619 -0.8571  0.2073
19151SOL    HW160346   5.094   0.023  10.029 -2.7993 -0.4300  0.5358
19151SOL    HW260347   5.029   0.159  10.040 -0.0478  1.2340 -2.2806
19152SOL     OW60348   7.957  10.441   8.574 -0.1653  0.0097 -0.0985
19152SOL    HW160349   7.909  10.410   8.497  0.1554 -0.2888 -0.1843
19152SOL    HW260350   7.981  10.531   8.552  0.2229 -0.1830 -0.4999
19153SOL     OW60351   5.688   5.652   8.532  0.3693 -0.1419  0.3957
19153SOL    HW160352   5.649   5.721   8.479 -1.4888 -0.6871  0.9855
19153SOL    HW260353   5.644   5.572   8.504  0.6768 -0.7088  1.4707
19154SOL     OW60354   3.010   1.734   0.371 -0.2952 -0.3000 -0.2677
19154SOL    HW160355   2.964   1.763   0.449 -0.0661 -0.2417 -0.1538
19154SOL    HW260356   3.058   1.656   0.398  0.9169  0.5185  0.0340
19155SOL     OW60357   2.640   3.545   5.246  0.6900  0.0779 -0.2781
19155SOL    HW160358   2.684   3.630   5.253  1.3933 -0.2604 -0.5429
19155SOL    HW260359   2.708   3.481   5.264  0.0547 -0.4238  0.3816
19156SOL     OW60360   0.147   1.664   9.162  0.0410 -0.2270 -0.5904
19156SOL    HW160361   0.085   1.715   9.214  0.4676 -1.6987  1.4958
19156SOL    HW260362   0.222   1.651   9.220  0.8922 -1.2897 -1.8612
19157SOL     OW60363   5.606   9.372   1.013 -0.1940 -0.2904 -0.6705
19157SOL    HW160364   5.540   9.330   0.958  1.1063 -0.5579 -2.1014
19157SOL    HW260365   5.682   9.315   1.008  0.6918  0.8203 -0.3850
19158SOL     OW60366   5.572   1.948   0.140  0.2561 -0.2564 -0.0309
19158SOL    HW160367   5.479   1.967   0.130  0.1614  1.2459  2.7375
19158SOL    HW260368   5.574   1.864   0.186  0.4103 -1.6226 -2.3934
19159SOL     OW60369   9.303   4.562   5.812 -0.1621 -0.4706  0.1829
19159SOL    HW160370   9.214   4.541   5.783  0.5714 -1.6420 -1.4079
19159SOL    HW260371   9.357   4.492   5.775  1.6680  1.1485 -0.3707
19160SOL     OW60372   7.843   8.386   9.666 -0.1649 -0.3704  0.1087
19160SOL    HW160373   7.857   8.479   9.645  1.2586 -0.7167 -0.6098
19160SOL    HW260374   7.902   8.339   9.606 -0.2727 -1.7013  1.0122
19161SOL     OW60375   9.569   2.052   7.236 -0.6775  0.0637 -0.4061
19161SOL    HW160376   9.474   2.040   7.234 -0.8647  1.4334 -0.3842
19161SOL    HW260377   9.590   2.091   7.151 -0.1379 -0.1225 -0.3643
19162SOL     OW60378   9.237   9.381   0.358  0.0734  0.0968  0.2489
19162SOL    HW160379   9.325   9.377   0.394  0.4728  1.9128 -0.4412
19162SOL    HW260380   9.215   9.474   0.357 -1.3787 -0.2209 -0.7083
19163SOL     OW60381   0.603   1.371   8.527  0.1474 -0.4246  0.5188
19163SOL    HW160382   0.631   1.448   8.576 -0.6887  0.7391 -0.7299
19163SOL    HW260383   0.515   1.352   8.559 -0.1522 -0.0505 -0.0614
19164SOL     OW60384   8.967   7.895   3.200  0.2947 -0.2977  0.1999
19164SOL    HW160385   8.952   7.830   3.132  0.1499 -2.2648  2.0222
19164SOL    HW260386   9.047   7.866   3.245 -0.5966 -0.1232  1.9975
19165SOL     OW60387   7.432   6.250   0.402 -0.0569  0.4127  0.2773
19165SOL    HW160388   7.505   6.225   0.458 -0.9320  0.0145  1.2701
19165SOL    HW260389   7.425   6.178   0.339 -0.3812 -0.1865  0.9759
19166SOL     OW60390   1.707   0.940   9.723 -0.3878  0.2851  0.2005
19166SOL    HW160391   1.799   0.932   9.747 -0.6052 -1.6498  0.5580
19166SOL    HW260392   1.661   0.881   9.783 -1.3789 -1.8592 -2.4551
19167SOL     OW60393   0.008  10.292   1.864 -0.1663 -0.1533 -0.8409
19167SOL    HW160394  -0.083  10.313   1.842 -0.0116 -0.3081 -1.6606
19167SOL    HW260395   0.007  10.277   1.959 -1.4696 -2.4501 -1.1431
19168SOL     OW60396   8.879  10.344   6.248 -0.1116 -0.2216  0.0473
19168SOL    HW160397   8.937  10.276   6.212  0.4593  0.0736  0.3950
19168SOL    HW260398   8.794  10.301   6.256  0.5707 -1.3535  1.6278
19169SOL     OW60399   4.762   7.380   9.497  0.8433 -0.1209  0.3124
19169SOL    HW160400   4.678   7.336   9.502  0.4068  0.4353 -1.3311
19169SOL    HW260401   4.805   7.341   9.420  1.2993  0.8462  0.0514
19170SOL     OW60402   0.225   6.694   2.900  0.0821 -0.3808 -0.2420
19170SOL    HW160403   0.308   6.656   2.930  0.8627  0.4142 -1.2998
19170SOL    HW260404   0.205   6.647   2.819  1.0780  1.4091 -1.5865
19171SOL     OW60405   1.494  10.063   7.652 -0.3366 -0.1961 -0.2817
19171SOL    HW160406   1.528   9.996   7.712  1.2194  0.0893 -0.8022
19171SOL    HW260407   1.509  10.026   7.565  3.9065  2.1783 -0.7972
19172SOL     OW60408   9.694   5.127   2.118  0.4754 -0.4759  0.2011
19172SOL    HW160409   9.763   5.167   2.066 -1.1213  0.0241 -1.6716
19172SOL    HW260410   9.616   5.180   2.099 -1.2355 -3.1125 -0.6887
19173SOL     OW60411   8.019   6.432   8.789  0.3012 -0.3463 -0.4689
19173SOL    HW160412   8.101   6.392   8.757  0.8446 -1.3922  1.9635
19173SOL    HW260413   8.044   6.520   8.816  0.6866 -0.7008  0.3705
19174SOL     OW60414   2.547   0.995   4.487  0.0020 -0.1560 -0.2416
19174SOL    HW160415   2.604   0.922   4.460  1.0001  0.4996  0.0533
19174SOL    HW260416   2.599   1.073   4.469 -1.1120  0.4972 -0.6618
19175SOL     OW60417   9.450   2.229   6.298 -0.3129 -0.6690  0.0761
19175SOL    HW160418   9.497   2.270   6.371  0.0056  0.6592 -0.8375
19175SOL    HW260419   9.484   2.272   6.220  0.7956 -3.4115 -1.0878
19176SOL     OW60420   2.354   5.756   5.395 -0.1099  0.0931  0.4872
19176SOL    HW160421   2.380   5.684   5.338  0.8193  1.8783 -1.4831
19176SOL    HW260422   2.306   5.714   5.466  1.1138 -2.5343 -0.1092
19177SOL     OW60423   4.611  10.512   9.912  0.6574 -0.0721 -0.1622
19177SOL    HW160424   4.580  10.543   9.827  1.2475 -1.0298 -0.7516
19177SOL    HW260425   4.683  10.452   9.891 -0.4711 -1.9005  0.8726
19178SOL     OW60426   6.144   0.207   8.131  0.0615  0.0756 -0.4363
19178SOL    HW160427   6.238   0.219   8.118 -0.1697 -0.3686 -2.9802
19178SOL    HW260428   6.137   0.132   8.190  1.2679  1.3495  1.4574
19179SOL     OW60429   4.806   5.451   5.712  0.6012 -0.8635 -0.0780
19179SOL    HW160430   4.773   5.538   5.690  1.9131 -0.7320 -1.7374
19179SOL    HW260431   4.728   5.395   5.708  0.2088 -0.2730 -2.0747
19180SOL     OW60432   8.159   2.223   3.341 -0.2555 -0.1312 -0.3880
19180SOL    HW160433   8.111   2.302   3.318 -1.3702 -0.9780 -1.0450
19180SOL    HW260434   8.225   2.215   3.272  0.2862  0.5523  0.0311
19181SOL     OW60435   1.055   8.122   2.716 -0.3267  0.8206 -0.1217
19181SOL    HW160436   0.962   8.144   2.707  0.0510  1.8337 -1.8643
19181SOL    HW260437   1.089   8.186   2.778 -0.4328  1.6036 -0.8541
19182SOL     OW60438   7.046   6.822   5.335 -0.0038 -0.1570 -0.5174
19182SOL    HW160439   7.066   6.848   5.425  0.3338  1.1493 -0.9416
19182SOL    HW260440   6.951   6.834   5.328  0.2178  1.7386 -0.8901
19183SOL     OW60441   0.390  10.504   6.494  0.2015  0.5050  0.2808
19183SOL    HW160442   0.439  10.579   6.527 -0.2128  0.5328  0.8644
19183SOL    HW260443   0.305  10.511   6.538  0.8478 -1.4578  2.0079
19184SOL     OW60444   4.038   7.053   8.831 -0.5176  0.2816  0.0926
19184SOL    HW160445   4.046   6.981   8.769 -0.1892  0.5660 -0.2056
19184SOL    HW260446   4.039   7.012   8.917 -0.0251 -0.0421 -0.0670
19185SOL     OW60447   5.936   7.840   9.264 -0.2132 -0.4090  0.0549
19185SOL    HW160448   5.868   7.893   9.222 -0.2620 -2.0645 -2.1268
19185SOL    HW260449   6.008   7.901   9.278 -1.3622  0.9168  0.5414
19186SOL     OW60450   2.930   3.280   1.472  0.4581 -0.1539 -0.0046
19186SOL    HW160451   2.878   3.266   1.551  1.1576 -1.0266  0.3178
19186SOL    HW260452   2.922   3.374   1.455 -1.2498 -0.2700 -0.0068
19187SOL     OW60453   9.240   8.985   4.850  0.0455 -0.0300  0.5278
19187SOL    HW160454   9.301   9.004   4.779 -0.3318 -0.3311  0.1164
19187SOL    HW260455   9.273   8.904   4.888  3.2824  2.5881  4.0621
19188SOL     OW60456   4.619   8.958   2.979 -0.4708 -0.1857 -0.7124
19188SOL    HW160457   4.561   9.031   2.959  1.1449  1.0894 -1.0247
19188SOL    HW260458   4.675   8.991   3.050 -0.2770 -1.4431 -0.2562
19189SOL     OW60459   5.446   4.023   6.768  0.2006  0.7099 -0.0693
19189SOL    HW160460   5.393   4.032   6.688  2.0944  2.4251 -1.2304
19189SOL    HW260461   5.398   4.074   6.834 -0.2071  1.2536 -0.7672
19190SOL     OW60462   9.538   7.493   3.774  0.1068 -0.7293 -0.0236
19190SOL    HW160463   9.505   7.457   3.856  1.1600  1.0080  1.2262
19190SOL    HW260464   9.480   7.567   3.755  0.8984 -0.0693  0.0920
19191SOL     OW60465   0.266   0.720   6.013 -0.0196 -0.4961  0.0303
19191SOL    HW160466   0.324   0.663   6.063 -0.4915 -0.9164  0.1027
19191SOL    HW260467   0.182   0.715   6.059  0.1647  0.9686  0.5766
19192SOL     OW60468   3.638   2.745   2.883  0.1251  0.3509  0.4282
19192SOL    HW160469   3.696   2.805   2.836 -0.5974  0.7566  0.0434
19192SOL    HW260470   3.554   2.752   2.838  0.3230 -1.8967 -0.4576
19193SOL     OW60471   4.135   0.268   0.388  0.4494 -0.1335 -0.1170
19193SOL    HW160472   4.115   0.183   0.427  2.5176 -0.8262 -0.4054
19193SOL    HW260473   4.105   0.332   0.452 -0.6062 -1.0968  0.3752
19194SOL     OW60474   5.829   2.875   1.971 -0.5935  0.0987 -0.0204
19194SOL    HW160475   5.878   2.934   2.027 -0.2332 -0.5814  0.3850
19194SOL    HW260476   5.765   2.931   1.927  0.1461  0.8863 -0.1036
19195SOL     OW60477   7.809   3.296   8.960 -0.2036 -0.0654  0.1696
19195SOL    HW160478   7.882   3.348   8.926 -0.9934  2.3748  1.8915
19195SOL    HW260479   7.737   3.359   8.968 -1.0996 -1.3036  2.8548
19196SOL     OW60480   5.834   9.473   9.466  0.5958 -0.2478 -0.0093
19196SOL    HW160481   5.750   9.511   9.492 -0.1073 -0.2610 -2.1179
19196SOL    HW260482   5.878   9.454   9.549 -2.1106 -1.7322  1.2238
19197SOL     OW60483   3.798   2.050   0.225  0.0026 -0.5632 -0.2502
19197SOL    HW160484   3.823   1.986   0.158 -1.5484 -1.0728 -0.4004
19197SOL    HW260485   3.728   2.006   0.275  0.8327 -0.0347  1.4522
19198SOL     OW60486   2.629   2.545  10.386  0.4158  0.4546 -0.0124
19198SOL    HW160487   2.714   2.531  10.344  0.7401 -0.2947  0.8681
19198SOL    HW260488   2.641   2.515  10.476 -0.7768  0.3498  0.1273
19199SOL     OW60489   9.596   5.873   6.606  0.3882 -0.5653 -0.0205
19199SOL    HW160490   9.523   5.811   6.609 -0.4671  0.4559  1.0764
19199SOL    HW260491   9.624   5.881   6.697  0.6814  0.4272 -0.1917
19200SOL     OW60492   9.506   4.679   8.692 -0.1499 -0.0137  0.3082
19200SOL    HW160493   9.594   4.696   8.725  1.0020 -1.8516 -1.5739
19200SOL    HW260494   9.473   4.609   8.748  1.4399 -2.4883 -1.6655
19201SOL     OW60495   0.264   9.098   9.513  0.1838 -0.0759  0.3459
19201SOL    HW160496   0.344   9.135   9.477 -1.4703  1.9026 -1.5767
19201SOL    HW260497   0.225   9.050   9.440 -0.6470 -0.5709  1.0954
19202SOL     OW60498   9.485   7.833   7.242 -0.1770  0.7163 -0.2568
19202SOL    HW160499   9.471   7.739   7.233 -0.4178  0.5563  1.4801
19202SOL    HW260500   9.575   7.846   7.210  0.1351 -0.2272  0.1840
19203SOL     OW60501   1.443   9.584   3.834 -0.1459 -0.0225  0.3320
19203SOL    HW160502   1.481   9.587   3.922 -0.7746 -0.5853  0.6325
19203SOL    HW260503   1.401   9.498   3.829  0.6314 -0.3514 -0.8389
19204SOL     OW60504   1.304   4.305   8.499 -0.2536 -0.5524  0.2845
19204SOL    HW160505   1.283   4.266   8.415  0.4430 -0.2402 -0.0420
19204SOL    HW260506   1.295   4.399   8.485  1.1781 -0.4139  0.1724
19205SOL     OW60507   5.354   9.186   0.550  0.5497  0.7002  0.0798
19205SOL    HW160508   5.333   9.111   0.606  0.0549  0.6474 -0.1725
19205SOL    HW260509   5.270   9.216   0.517  0.9019  0.0341 -1.5128
19206SOL     OW60510   1.192   8.671   6.702  0.2607  0.1128 -0.2633
19206SOL    HW160511   1.139   8.625   6.767 -0.8565 -0.1109 -1.3080
19206SOL    HW260512   1.258   8.717   6.753 -2.7318  2.9623  1.3995
19207SOL     OW60513   1.099   0.441   5.678 -0.4534  0.0025 -0.0459
19207SOL    HW160514   1.098   0.529   5.639  0.4001 -0.2343 -0.6230
19207SOL    HW260515   1.066   0.384   5.608  0.6220 -0.3599 -0.2777
19208SOL     OW60516   3.966   7.593   4.514 -0.1049  0.2496  0.1661
19208SOL    HW160517   3.965   7.661   4.446 -0.0398  0.2179  0.1331
19208SOL    HW260518   3.993   7.514   4.468  2.6412  0.7711  0.7091
19209SOL     OW60519   6.645   6.735   3.033  0.1926  0.4006 -0.2840
19209SOL    HW160520   6.551   6.719   3.047  0.4314 -0.6166  0.2673
19209SOL    HW260521   6.687   6.696   3.109  0.9898  2.1196  0.2097
19210SOL     OW60522   4.222   7.748  10.131  0.3092 -0.2099  0.0918
19210SOL    HW160523   4.135   7.774  10.099  0.4191 -1.9635 -1.8695
19210SOL    HW260524   4.283   7.803  10.082  0.3596  0.1145  0.5125
19211SOL     OW60525  10.730   6.897   4.061  0.2272 -0.3513  0.3993
19211SOL    HW160526  10.755   6.946   3.983  1.7956 -1.1728  0.3427
19211SOL    HW260527  10.651   6.941   4.093 -0.7313 -0.2626 -1.8877
19212SOL     OW60528   6.928   4.640   2.726 -0.6325 -0.4639 -0.3341
19212SOL    HW160529   6.990   4.582   2.770  0.6872  0.0321 -1.4469
19212SOL    HW260530   6.875   4.678   2.796  1.0871 -0.0478  0.7809
19213SOL     OW60531   7.877   7.032   6.416 -0.3787 -0.2699 -0.0802
19213SOL    HW160532   7.899   7.021   6.324  0.7034  1.5247 -0.0817
19213SOL    HW260533   7.941   6.979   6.463 -0.7126 -0.9053 -0.3297
19214SOL     OW60534   8.268   7.086   1.767  0.0626 -0.0738  0.2277
19214SOL    HW160535   8.251   7.003   1.723 -0.9063 -0.3983  1.1797
19214SOL    HW260536   8.222   7.151   1.713 -0.5418 -0.3737  0.3745
19215SOL     OW60537   4.050   9.142   5.736  0.1170 -0.5884 -0.4587
19215SOL    HW160538   4.056   9.093   5.654 -1.0423 -1.8784  0.1712
19215SOL    HW260539   4.100   9.222   5.721  1.4824 -1.6374 -1.7833
19216SOL     OW60540   8.489   8.080   0.062  0.1638 -0.3543  0.6035
19216SOL    HW160541   8.399   8.054   0.083  0.8864 -2.2725  1.5295
19216SOL    HW260542   8.514   8.138   0.135 -0.5702  0.9352 -0.1178
19217SOL     OW60543   3.707   9.809   2.226 -0.4657  0.1525 -0.0895
19217SOL    HW160544   3.735   9.882   2.171  0.7525  0.8688  1.3983
19217SOL    HW260545   3.647   9.848   2.290 -0.7599 -0.3782 -0.0333
19218SOL     OW60546   1.059   5.726   9.045 -0.4983 -0.2468 -0.0136
19218SOL    HW160547   1.026   5.815   9.047  1.3816  0.5504 -1.4995
19218SOL    HW260548   1.018   5.683   9.120  0.1967  2.4676  2.0655
19219SOL     OW60549   6.167   1.793   7.072 -0.0972 -0.0953  0.1200
19219SOL    HW160550   6.188   1.718   7.128  0.5237 -0.3942 -0.5040
19219SOL    HW260551   6.113   1.850   7.128  0.8188 -0.1989  1.1490
19220SOL     OW60552   5.163   4.307   0.931 -0.3059 -0.2433  0.5540
19220SOL    HW160553   5.159   4.233   0.992  0.0905 -1.0329 -0.3490
19220SOL    HW260554   5.256   4.314   0.908 -0.2752  0.8309  0.9775
19221SOL     OW60555   1.164   1.282   1.161  0.0549  0.0512 -0.3348
19221SOL    HW160556   1.212   1.333   1.095 -0.1779  0.9563  0.1725
19221SOL    HW260557   1.230   1.265   1.229 -0.0150  0.2055 -0.2264
19222SOL     OW60558   2.317   8.139   5.002 -0.3707  0.2661 -0.3948
19222SOL    HW160559   2.327   8.046   5.019  1.1104  0.6865  1.3518
19222SOL    HW260560   2.222   8.152   4.991 -0.6576 -1.3113  0.0409
19223SOL     OW60561   1.022   6.985   1.229  0.3985 -0.7012 -0.4051
19223SOL    HW160562   1.023   6.943   1.143  0.6685 -2.5504  0.4597
19223SOL    HW260563   0.939   7.031   1.232  1.2285  1.1245 -2.4042
19224SOL     OW60564   1.213   5.776   3.464 -0.5259  0.9414 -0.2841
19224SOL    HW160565   1.181   5.718   3.395 -0.9648 -0.3755  0.9830
19224SOL    HW260566   1.239   5.856   3.418 -0.8412  0.1218 -1.9581
19225SOL     OW60567   7.159   6.382   5.888 -0.0690  0.1795 -0.3407
19225SOL    HW160568   7.221   6.380   5.961 -0.1070  0.1884 -0.3080
19225SOL    HW260569   7.108   6.462   5.902 -0.3081  0.0048 -0.1824
19226SOL     OW60570   5.218   8.776   3.631  0.4375 -0.3210 -0.1371
19226SOL    HW160571   5.163   8.783   3.709 -0.8255 -1.4636 -0.8902
19226SOL    HW260572   5.191   8.695   3.589  1.5865 -0.0880 -1.4014
19227SOL     OW60573   3.480   7.231   4.221  0.3099  0.2295 -0.3228
19227SOL    HW160574   3.468   7.219   4.315  0.6101 -1.4719 -0.4700
19227SOL    HW260575   3.572   7.257   4.212 -0.0344  1.6557 -0.0901
19228SOL     OW60576   7.635   2.926   3.058  0.0210  0.6193 -0.6584
19228SOL    HW160577   7.706   2.865   3.078 -0.3951  0.2980 -0.1390
19228SOL    HW260578   7.555   2.874   3.067 -0.5954  1.9523  2.9843
19229SOL     OW60579   7.435   2.016  10.150 -0.4459  0.4024  0.1002
19229SOL    HW160580   7.396   1.934  10.181  0.7869 -0.0767  0.4302
19229SOL    HW260581   7.422   2.014  10.055  0.3021 -0.5870  0.0042
19230SOL     OW60582   0.495   6.892   2.130  0.0005 -0.1741 -0.1110
19230SOL    HW160583   0.418   6.837   2.122  0.4955 -0.6786 -2.0411
19230SOL    HW260584   0.470   6.975   2.089  0.9504 -0.9294 -2.3761
19231SOL     OW60585   7.936   2.225   2.358  0.4293 -0.4313  0.2106
19231SOL    HW160586   8.023   2.200   2.327  0.5846  0.8778 -0.4731
19231SOL    HW260587   7.949   2.249   2.450  1.0235  0.8528 -0.1958
19232SOL     OW60588   4.164   1.149   2.204  0.0352  0.2837 -0.2023
19232SOL    HW160589   4.198   1.237   2.221 -0.6199  0.6254 -0.6483
19232SOL    HW260590   4.241   1.099   2.176  0.4131  0.7035  0.0558
19233SOL     OW60591   4.088   6.862   4.813  0.7333  0.2179  0.0576
19233SOL    HW160592   3.994   6.849   4.826  0.9419 -0.7066  0.7404
19233SOL    HW260593   4.108   6.942   4.861  0.7155 -0.9001  2.0272
19234SOL     OW60594   8.379   1.968   0.369 -0.0170  0.1443 -0.5895
19234SOL    HW160595   8.302   1.915   0.350 -1.8711  1.4321  2.5591
19234SOL    HW260596   8.349   2.058   0.362  1.4248  0.7112 -0.0256
19235SOL     OW60597   7.150   1.402   0.844  0.1634 -0.1788  0.0530
19235SOL    HW160598   7.211   1.464   0.804  0.5230  0.8292  2.0033
19235SOL    HW260599   7.157   1.323   0.791  0.4224  1.1071 -1.9402
19236SOL     OW60600   0.430  10.353   9.544 -0.3533 -0.3062 -0.0528
19236SOL    HW160601   0.477  10.348   9.461 -0.6906 -1.3793 -0.1843
19236SOL    HW260602   0.353  10.407   9.526 -0.7726 -1.0841 -0.6033
19237SOL     OW60603   1.105   5.413   2.179  0.0953  0.1651 -0.2625
19237SOL    HW160604   1.022   5.411   2.131 -0.3664  0.5652  0.4953
19237SOL    HW260605   1.126   5.506   2.188  0.0316  0.1143  0.5308
19238SOL     OW60606   0.044  10.017   5.832 -0.4384  0.4264  0.0215
19238SOL    HW160607  -0.040  10.006   5.877  0.6989 -2.2165  1.7587
19238SOL    HW260608   0.074  10.104   5.858 -1.3556  0.2713  1.7320
19239SOL     OW60609   4.035   7.915   9.751 -0.0456  0.0458 -0.5710
19239SOL    HW160610   3.992   7.951   9.673  0.4863  1.3783 -0.2704
19239SOL    HW260611   3.979   7.943   9.823  0.3909  0.3104 -0.3330
19240SOL     OW60612   0.267   3.644   7.084  0.2783 -0.5947 -0.1973
19240SOL    HW160613   0.360   3.639   7.107  0.4222  0.7781 -0.4008
19240SOL    HW260614   0.261   3.719   7.025 -0.8393 -1.1756 -0.8593
19241SOL     OW60615  10.579  10.496   6.220 -0.0622 -0.2238 -0.1523
19241SOL    HW160616  10.514  10.567   6.225  0.3772  0.1659  0.0738
19241SOL    HW260617  10.662  10.537   6.245  0.3410 -0.6394 -0.7842
19242SOL     OW60618  10.236  10.037   4.966 -0.3459 -0.6628 -0.1051
19242SOL    HW160619  10.328  10.040   4.940 -0.2082 -0.1431  0.4092
19242SOL    HW260620  10.235   9.981   5.044 -0.3264  0.0423  0.4079
19243SOL     OW60621   7.459   8.916   4.926  0.3821  0.0043 -0.0644
19243SOL    HW160622   7.536   8.866   4.954  0.0942 -0.1372  0.4976
19243SOL    HW260623   7.405   8.921   5.005 -0.5239 -0.5169 -0.6440
19244SOL     OW60624   9.763   5.641   1.492  0.4950  0.0970  0.2888
19244SOL    HW160625   9.815   5.567   1.461  0.2087 -0.4803  1.1468
19244SOL    HW260626   9.826   5.712   1.503  0.7190  0.1033 -0.8838
19245SOL     OW60627   9.653   4.610   1.943 -0.5739 -0.7598  0.3934
19245SOL    HW160628   9.729   4.668   1.934 -0.0610 -1.5011 -0.0903
19245SOL    HW260629   9.578   4.669   1.941 -0.0596 -0.1051 -0.0496
19246SOL     OW60630   0.391   1.017  10.616  0.3453  0.6071  0.0180
19246SOL    HW160631   0.442   0.975  10.686  0.7453  0.9298 -0.0790
19246SOL    HW260632   0.315   1.054  10.662 -0.5946 -1.1171 -0.0271
19247SOL     OW60633   9.774   8.762   6.369  0.5787 -0.1825 -0.1120
19247SOL    HW160634   9.753   8.854   6.380  2.3349  0.5055 -1.9021
19247SOL    HW260635   9.827   8.740   6.446 -0.7249 -0.0270  0.8580
19248SOL     OW60636   9.591   5.434  10.355 -0.2324 -0.4759  0.1728
19248SOL    HW160637   9.555   5.451  10.267 -0.5741  1.7338  0.6717
19248SOL    HW260638   9.525   5.380  10.398  0.3188 -2.3015 -1.1571
19249SOL     OW60639  10.552   8.037   3.439 -0.3561  0.4245  0.0869
19249SOL    HW160640  10.623   8.068   3.494  1.3271  0.8162 -2.1638
19249SOL    HW260641  10.575   8.065   3.350 -1.7507 -2.0890 -1.2152
19250SOL     OW60642   4.595   0.834   6.769 -0.0262 -0.3485 -0.4853
19250SOL    HW160643   4.541   0.909   6.742 -1.0469 -0.9641 -0.2167
19250SOL    HW260644   4.661   0.872   6.827 -0.9726  0.2619  0.2394
19251SOL     OW60645   3.355   4.728   3.901  0.1071  0.3653  0.6631
19251SOL    HW160646   3.357   4.784   3.823  2.6409  0.9282  1.0266
19251SOL    HW260647   3.370   4.640   3.867 -0.2500  0.4013  0.4037
19252SOL     OW60648   1.555  10.656   4.584  0.4922 -0.1475  0.3034
19252SOL    HW160649   1.599  10.740   4.598 -0.6317  0.3388  1.0098
19252SOL    HW260650   1.626  10.596   4.562  1.3038  1.0083 -0.3731
19253SOL     OW60651  10.774   1.166   8.088 -0.0982  0.0886  0.1357
19253SOL    HW160652  10.728   1.184   8.006 -0.3460 -0.2871  0.1939
19253SOL    HW260653  10.751   1.239   8.145  0.1187  0.3797 -0.1448
19254SOL     OW60654   2.461  10.500   1.216 -0.5337  0.5454 -0.1762
19254SOL    HW160655   2.371  10.509   1.247  0.1414  0.6762  1.8842
19254SOL    HW260656   2.455  10.435   1.146 -2.3267  1.1622 -0.6582
19255SOL     OW60657   2.687   0.591   1.061 -0.0331 -0.0810 -0.1939
19255SOL    HW160658   2.739   0.671   1.049  1.8112 -0.8103  2.0762
19255SOL    HW260659   2.718   0.555   1.144 -2.5382 -1.9027  0.0593
19256SOL     OW60660  10.571   6.257   8.851  0.5693  0.1524  0.4041
19256SOL    HW160661  10.500   6.208   8.892  0.4631  0.8536  1.0888
19256SOL    HW260662  10.546   6.262   8.758  0.1118 -0.2603  0.5014
19257SOL     OW60663   6.250   2.440   2.151  0.8656  0.5065 -0.0981
19257SOL    HW160664   6.345   2.430   2.146  0.8327  0.7139 -4.0209
19257SOL    HW260665   6.217   2.351   2.165  1.5703  0.2614  0.0251
19258SOL     OW60666   4.650   3.539   4.300  0.3466  0.6763 -0.3153
19258SOL    HW160667   4.636   3.450   4.331 -0.2453  0.5653 -0.8630
19258SOL    HW260668   4.575   3.556   4.243  0.7642  1.3093 -0.6889
19259SOL     OW60669   7.576   6.236   1.351 -0.2368 -0.0943  0.1707
19259SOL    HW160670   7.504   6.174   1.359 -0.6919  0.4104  0.0585
19259SOL    HW260671   7.653   6.187   1.378 -0.5093 -0.8582 -0.3889
19260SOL     OW60672   3.447   8.992  10.660 -0.2301 -0.9221  0.3727
19260SOL    HW160673   3.392   9.035  10.594  0.1641  1.4112  1.4658
19260SOL    HW260674   3.412   9.023  10.744  0.1550 -2.7400  1.2479
19261SOL     OW60675  10.001   3.875   1.066 -0.2636  0.3467  0.3797
19261SOL    HW160676   9.997   3.959   1.020 -2.4914  0.4917  0.7184
19261SOL    HW260677   9.965   3.894   1.153  1.7361 -0.4152  1.4427
19262SOL     OW60678   6.501   1.721   2.396  0.2511  0.2984 -0.0893
19262SOL    HW160679   6.412   1.738   2.365  0.5260  2.0355 -0.0569
19262SOL    HW260680   6.514   1.627   2.382 -1.0114  0.3013 -1.5814
19263SOL     OW60681   4.080   5.978   0.645  0.4760 -0.4466 -0.0836
19263SOL    HW160682   4.062   6.035   0.720  3.4550  2.1421 -1.1386
19263SOL    HW260683   4.023   6.011   0.576 -1.3258 -2.0164  0.5432
19264SOL     OW60684   2.550  10.418   9.325  0.8449 -0.5424 -0.5484
19264SOL    HW160685   2.542  10.349   9.258  0.2359 -1.0960  0.0787
19264SOL    HW260686   2.530  10.373   9.407  0.4809  0.3768 -0.1249
19265SOL     OW60687   0.987   6.386   6.843 -0.1881 -0.7025 -0.2254
19265SOL    HW160688   1.032   6.462   6.880 -1.2313 -0.1624 -0.0469
19265SOL    HW260689   1.033   6.370   6.760 -0.7852  0.9667 -0.9249
19266SOL     OW60690   9.447   9.090   5.200 -0.1169  0.0140 -0.6863
19266SOL    HW160691   9.500   9.148   5.254  0.5545  1.3623 -2.7074
19266SOL    HW260692   9.450   9.006   5.246  1.7573  0.6770  0.5196
19267SOL     OW60693   7.096   9.193   8.517  0.2430 -0.0063  0.4010
19267SOL    HW160694   7.050   9.127   8.569  0.7709  0.5879  1.6822
19267SOL    HW260695   7.102   9.156   8.429 -1.0910 -0.8568  0.6461
19268SOL     OW60696   4.045   2.300  10.268 -0.3729  0.0077  0.2256
19268SOL    HW160697   4.037   2.394  10.249  0.2828  0.1568  0.6422
19268SOL    HW260698   3.960   2.276  10.303 -0.2246  0.6831  1.0774
19269SOL     OW60699   9.617   0.658   6.923 -0.0715 -0.7100  0.0843
19269SOL    HW160700   9.549   0.592   6.909 -0.2435 -0.2030 -1.6783
19269SOL    HW260701   9.698   0.617   6.892 -0.5097  0.5464 -2.9997
19270SOL     OW60702   1.543   0.224   7.939 -0.3377  0.1343  0.5164
19270SOL    HW160703   1.629   0.182   7.941 -1.2705 -1.9715 -0.3255
19270SOL    HW260704   1.484   0.156   7.908 -2.3677  1.4679  1.2485
19271SOL     OW60705   5.143   1.688  10.062  0.0166  0.0973 -0.4301
19271SOL    HW160706   5.053   1.711  10.085  0.6773 -0.0514  2.6976
19271SOL    HW260707   5.197   1.759  10.096  1.2170 -0.6708 -0.6420
19272SOL     OW60708  10.725   3.551   4.329 -0.3519  0.6030 -0.0594
19272SOL    HW160709  10.654   3.521   4.386 -0.2658  0.4727 -0.0201
19272SOL    HW260710  10.782   3.601   4.387 -0.2067  0.3785 -0.0067
19273SOL     OW60711   3.432   8.167   5.218 -0.1473  0.2393  0.0082
19273SOL    HW160712   3.372   8.102   5.255  0.5267 -0.2146  0.3163
19273SOL    HW260713   3.421   8.244   5.274  0.1453 -0.1145  0.5561
19274SOL     OW60714   1.483   5.840   4.099  0.4242 -0.8589 -0.0968
19274SOL    HW160715   1.557   5.878   4.145  0.5724  2.1466 -2.4825
19274SOL    HW260716   1.523   5.791   4.027  0.1824  0.0017 -0.8423
19275SOL     OW60717   4.400   4.826   8.398 -0.1519 -0.3812  0.1271
19275SOL    HW160718   4.436   4.886   8.333  0.1199  1.7210  2.0937
19275SOL    HW260719   4.306   4.825   8.379 -0.7275  3.2375  1.7874
19276SOL     OW60720   2.157   1.663   7.343  0.9240  0.0793 -0.4362
19276SOL    HW160721   2.222   1.733   7.351 -0.3387  1.5871 -2.4023
19276SOL    HW260722   2.132   1.664   7.250 -1.9896 -0.3158  0.2507
19277SOL     OW60723   2.490   4.395   9.054  0.0125  0.2593  0.2055
19277SOL    HW160724   2.459   4.486   9.050 -0.4446  0.0925 -0.0805
19277SOL    HW260725   2.428   4.346   9.000 -0.0559 -0.3111  0.7875
19278SOL     OW60726   5.907   1.951   9.908 -0.2756  0.2781  0.3792
19278SOL    HW160727   5.907   2.043   9.880  0.6423  0.1938  0.0711
19278SOL    HW260728   5.928   1.954  10.001  1.6149  0.3101  0.0004
19279SOL     OW60729   0.573   6.218   4.447 -0.3125  0.0746 -0.4122
19279SOL    HW160730   0.582   6.129   4.412 -0.6140 -0.3195  0.4778
19279SOL    HW260731   0.523   6.265   4.381  0.8386 -0.0935 -1.4266
19280SOL     OW60732   4.436   0.255   0.318  0.8111  0.1076  0.2442
19280SOL    HW160733   4.465   0.184   0.376  0.1540  0.8969  1.5834
19280SOL    HW260734   4.341   0.259   0.330  0.2890 -1.1559 -2.6151
19281SOL     OW60735   4.728   1.727   3.128  0.5165  0.1459  0.2528
19281SOL    HW160736   4.731   1.803   3.070  0.6592  0.6171  0.8642
19281SOL    HW260737   4.819   1.711   3.152  0.5925 -0.8308 -0.6388
19282SOL     OW60738   8.684   9.823   1.694 -0.0138  0.9597  0.2171
19282SOL    HW160739   8.670   9.865   1.609  2.4681  2.7578  0.5871
19282SOL    HW260740   8.756   9.763   1.679  0.0289  0.8268  0.9300
19283SOL     OW60741   2.025   4.835   0.875  0.4778 -0.2016 -0.6391
19283SOL    HW160742   2.083   4.759   0.884  0.0470 -0.4652 -0.0200
19283SOL    HW260743   1.943   4.798   0.840 -0.3208 -0.3202  1.2307
19284SOL     OW60744   2.362   5.654   1.400 -0.1567 -0.3386  0.1166
19284SOL    HW160745   2.402   5.740   1.386  0.0814 -0.3285  0.8546
19284SOL    HW260746   2.420   5.610   1.462 -1.7135 -0.0114  1.8674
19285SOL     OW60747   8.736   2.007   1.325 -0.3941  0.0743 -0.2361
19285SOL    HW160748   8.711   2.094   1.355 -1.0029 -0.3449  0.4910
19285SOL    HW260749   8.669   1.983   1.261 -0.0122  0.2937 -0.7224
19286SOL     OW60750   6.039   6.603   5.548 -0.5428 -0.4858 -0.2537
19286SOL    HW160751   6.095   6.531   5.518  0.0682 -0.6495  1.1621
19286SOL    HW260752   5.979   6.562   5.611 -0.2573  0.2015  0.4922
19287SOL     OW60753   6.601   0.239   4.040 -0.1776  0.5793  0.0702
19287SOL    HW160754   6.629   0.254   4.130 -0.2906 -0.9290  0.3817
19287SOL    HW260755   6.506   0.238   4.045 -0.1728 -0.9254  0.2097
19288SOL     OW60756  10.035   2.279   3.290 -0.1322 -0.1626  0.7194
19288SOL    HW160757   9.951   2.253   3.328  0.0435 -0.8036  0.6754
19288SOL    HW260758  10.098   2.214   3.322  0.0780 -0.5555 -0.4212
19289SOL     OW60759   6.962   4.734  10.228 -0.1285 -0.0279  0.0092
19289SOL    HW160760   7.002   4.769  10.149 -1.0128 -1.8478 -1.3093
19289SOL    HW260761   6.890   4.794  10.247  0.6728  0.9614  0.0381
19290SOL     OW60762   0.979   8.988   1.161 -0.3689  0.1628  0.3216
19290SOL    HW160763   1.031   8.988   1.242  0.4296  1.6189 -0.1584
19290SOL    HW260764   0.908   9.050   1.178  0.4855  1.4051 -0.4764
19291SOL     OW60765   3.969   2.998   3.106 -0.1326  0.1045 -0.1437
19291SOL    HW160766   4.045   2.942   3.120 -0.4336 -0.4768 -0.7889
19291SOL    HW260767   4.005   3.086   3.094  0.3961 -0.0840  0.0511
19292SOL     OW60768   8.671   7.722   1.415 -0.2873  0.5454 -0.3880
19292SOL    HW160769   8.690   7.638   1.374 -1.9831 -0.4578  0.7773
19292SOL    HW260770   8.734   7.729   1.486 -1.0618 -0.4416  0.4102
19293SOL     OW60771   1.738   3.542   5.042 -0.0905  0.8052  0.3867
19293SOL    HW160772   1.672   3.481   5.010  0.6853 -0.1494  0.5223
19293SOL    HW260773   1.781   3.575   4.964 -0.5159  1.1814  0.3116
19294SOL     OW60774   5.698   4.636   6.167 -0.0349 -0.4887  0.3966
19294SOL    HW160775   5.728   4.630   6.258  0.1385  0.2039  0.3929
19294SOL    HW260776   5.606   4.612   6.170 -0.0050 -0.5677  0.7397
19295SOL     OW60777   4.639   2.446   5.404 -0.0961 -0.3322 -0.3024
19295SOL    HW160778   4.565   2.503   5.382 -0.4894 -1.2663 -1.5093
19295SOL    HW260779   4.599   2.368   5.441  0.2362 -0.9833 -1.2664
19296SOL     OW60780   1.552   3.740  10.093  0.4681  0.5416  0.0466
19296SOL    HW160781   1.480   3.729  10.032 -1.1029  0.0418  1.8679
19296SOL    HW260782   1.606   3.662  10.083 -0.1240  0.1725 -0.2546
19297SOL     OW60783   0.080   5.399   5.704 -0.1072 -0.5202 -0.3928
19297SOL    HW160784   0.078   5.491   5.730 -0.9541 -0.8182  0.6873
19297SOL    HW260785   0.005   5.360   5.749  0.1654 -1.7130 -0.9335
19298SOL     OW60786   2.103  10.731   4.439 -0.4102  0.2783 -0.1820
19298SOL    HW160787   2.130  10.643   4.467 -0.3030  0.2527 -0.3627
19298SOL    HW260788   2.149  10.791   4.497 -0.8214  0.2048  0.2293
19299SOL     OW60789   8.219   5.825   9.267 -0.0747  0.3847  0.7729
19299SOL    HW160790   8.123   5.833   9.264  0.0043  1.3441 -1.1624
19299SOL    HW260791   8.249   5.912   9.292  0.3031  0.1998  0.9581
19300SOL     OW60792   5.969   7.048   7.371  1.0148 -0.3128  0.2583
19300SOL    HW160793   6.058   7.069   7.342  1.2716 -0.8620  0.6402
19300SOL    HW260794   5.980   6.978   7.435  0.4681  0.9702  1.8110
19301SOL     OW60795   6.794   8.661   3.501 -0.4350 -0.1667  0.5658
19301SOL    HW160796   6.880   8.622   3.519 -0.0492  0.1315 -0.5447
19301SOL    HW260797   6.784   8.728   3.568  0.6814  0.5065  0.0835
19302SOL     OW60798   0.178  10.185   3.668 -0.0697  0.2822  0.4913
19302SOL    HW160799   0.260  10.222   3.700  0.6987 -1.3873  0.5845
19302SOL    HW260800   0.206  10.123   3.600 -1.3427  0.4559 -0.2093
19303SOL     OW60801   4.187   0.681   4.632 -0.4548  0.8074  0.1409
19303SOL    HW160802   4.215   0.605   4.683  1.0411  1.1009 -0.2190
19303SOL    HW260803   4.268   0.725   4.607 -1.1390  0.9438 -2.0730
19304SOL     OW60804   1.841   0.546   8.031 -0.0965 -0.4200  0.5006
19304SOL    HW160805   1.763   0.594   8.003  2.0928  2.2925 -1.6319
19304SOL    HW260806   1.858   0.577   8.120 -0.7203  0.0057  0.4788
19305SOL     OW60807   3.520  10.204   9.072  0.1183 -0.1968  0.3875
19305SOL    HW160808   3.606  10.193   9.112 -0.3742 -2.2502  0.9853
19305SOL    HW260809   3.458  10.184   9.142 -0.7827 -1.4112 -0.7034
19306SOL     OW60810   0.770   9.369   5.730 -0.0759 -0.6262  0.0510
19306SOL    HW160811   0.844   9.415   5.690  0.2074 -2.5666 -1.8696
19306SOL    HW260812   0.797   9.278   5.733 -1.3525 -1.0035  1.9165
19307SOL     OW60813   4.253   4.303   3.777 -0.3159 -0.1259 -0.5366
19307SOL    HW160814   4.337   4.260   3.760 -0.5685  0.3266 -3.2501
19307SOL    HW260815   4.233   4.352   3.697 -2.7748  0.4724  0.3380
19308SOL     OW60816   8.830   8.307   9.264 -0.0829 -0.0371  0.2641
19308SOL    HW160817   8.875   8.223   9.269 -0.0200 -0.0177  0.0640
19308SOL    HW260818   8.898   8.368   9.234 -0.5766 -0.2898 -1.5188
19309SOL     OW60819   5.708   9.294   8.889  0.1897 -0.6767 -0.0137
19309SOL    HW160820   5.652   9.362   8.928  2.2324  0.0941  1.7454
19309SOL    HW260821   5.697   9.306   8.794 -2.2558 -0.3150  0.2372
19310SOL     OW60822   3.367   1.559   8.656 -0.1213 -0.6420  0.3383
19310SOL    HW160823   3.321   1.644   8.653  1.9920  0.5818  0.6170
19310SOL    HW260824   3.403   1.554   8.744  1.3495 -0.9189 -0.2437
19311SOL     OW60825   5.756   2.722   5.508 -0.3962 -0.7017 -0.1426
19311SOL    HW160826   5.709   2.694   5.586  1.3355 -2.4239  0.3738
19311SOL    HW260827   5.812   2.794   5.538 -1.6115  0.3769 -0.4235
19312SOL     OW60828   5.819   6.422   6.048 -0.6249 -0.0206 -0.3027
19312SOL    HW160829   5.757   6.488   6.078 -0.7367 -0.6583  0.9496
19312SOL    HW260830   5.842   6.374   6.127  1.3666  0.1093 -0.7537
19313SOL     OW60831   0.077   8.318   2.808 -0.0147 -0.2487  0.5571
19313SOL    HW160832  -0.009   8.299   2.847  0.6620 -0.0554  2.2411
19313SOL    HW260833   0.115   8.384   2.866  0.9131  0.3576 -0.6906
19314SOL     OW60834   1.745   0.809   7.681 -0.5003  0.3579 -0.8809
19314SOL    HW160835   1.782   0.861   7.752  1.6902 -2.1957  0.0310
19314SOL    HW260836   1.808   0.818   7.610 -0.5658 -0.2629 -1.0252
19315SOL     OW60837   4.941   8.945   9.453  0.0981 -0.5427 -0.0767
19315SOL    HW160838   4.927   8.879   9.385 -1.1601 -0.4829  0.1130
19315SOL    HW260839   4.890   9.020   9.425 -0.3333 -0.4710  0.8698
19316SOL     OW60840   8.731  10.552   8.768 -0.5069 -0.3070 -0.2816
19316SOL    HW160841   8.717  10.582   8.858 -1.2689  1.0626 -0.8220
19316SOL    HW260842   8.808  10.494   8.773 -1.9612 -2.2204  1.6219
19317SOL     OW60843   8.044   7.428   4.440 -0.2808  0.1102 -0.5176
19317SOL    HW160844   8.066   7.335   4.430 -1.2004 -0.3062  0.9999
19317SOL    HW260845   8.080   7.451   4.526 -0.6044  0.9987 -0.6187
19318SOL     OW60846   5.452   4.556   6.228 -0.6181  0.7351 -0.4015
19318SOL    HW160847   5.384   4.621   6.246 -1.1012 -0.1290  1.0763
19318SOL    HW260848   5.418   4.475   6.266  1.2599  0.3051  0.4817
19319SOL     OW60849   7.548   5.896   8.482 -0.0168  0.5038 -0.1112
19319SOL    HW160850   7.462   5.880   8.519  0.0362  3.4502  1.6056
19319SOL    HW260851   7.609   5.855   8.543 -0.1262 -1.1616 -1.0694
19320SOL     OW60852   6.189   5.851   9.087  0.0164  0.1847 -0.2570
19320SOL    HW160853   6.157   5.762   9.083 -0.4143  0.2622  1.0995
19320SOL    HW260854   6.234   5.864   9.003 -2.3414 -0.3432 -1.6794
19321SOL     OW60855  10.379   0.303   4.294  0.6029  0.6278  0.6679
19321SOL    HW160856  10.409   0.227   4.343  0.3813 -0.5601 -0.9862
19321SOL    HW260857  10.442   0.313   4.223  0.4636  1.8347  0.6847
19322SOL     OW60858   2.533   5.261   8.420 -0.6954  0.5449  0.0197
19322SOL    HW160859   2.567   5.239   8.507  0.4112 -0.4710 -0.6514
19322SOL    HW260860   2.470   5.332   8.437 -0.3018  0.5609  1.6076
19323SOL     OW60861   1.291   2.280   5.174  0.6224  0.4483  0.6181
19323SOL    HW160862   1.353   2.332   5.122  1.4595 -1.1887 -0.0835
19323SOL    HW260863   1.327   2.279   5.262 -0.0264  2.0002  0.9374
19324SOL     OW60864   1.670   0.391   6.335 -0.5086 -0.2744 -0.1228
19324SOL    HW160865   1.737   0.426   6.276  0.6209 -1.2184  0.5634
19324SOL    HW260866   1.587   0.412   6.291  0.1754  1.5442 -0.6585
19325SOL     OW60867   5.962   8.862   0.307  0.6353 -0.1090  0.0080
19325SOL    HW160868   5.899   8.907   0.250 -0.2679 -1.0670  0.2206
19325SOL    HW260869   5.912   8.842   0.387  1.0608 -1.3088 -0.0062
19326SOL     OW60870   8.779   0.443  10.782  0.2053 -0.5742 -0.3343
19326SOL    HW160871   8.835   0.515  10.752  0.9600 -0.3426  1.5345
19326SOL    HW260872   8.834   0.393  10.842 -0.4220 -2.5449 -1.3061
19327SOL     OW60873   5.156  10.562   1.583 -0.2142 -0.1580 -0.3392
19327SOL    HW160874   5.239  10.547   1.536  0.1922  1.0086 -0.0534
19327SOL    HW260875   5.183  10.575   1.674 -0.7798 -0.3871 -0.1405
19328SOL     OW60876   6.412   4.181   1.595  0.3965 -0.2111 -0.0493
19328SOL    HW160877   6.504   4.207   1.597  0.4889 -0.4691 -0.6837
19328SOL    HW260878   6.364   4.262   1.615  0.7636 -0.1204  0.4756
19329SOL     OW60879   9.430   7.514   7.796 -0.4137 -0.6575 -0.2260
19329SOL    HW160880   9.355   7.548   7.747 -0.0289  0.3460 -0.1488
19329SOL    HW260881   9.414   7.420   7.803 -2.4512 -0.2694  1.1165
19330SOL     OW60882   8.333   3.661   0.955 -0.2292  0.0606 -0.6735
19330SOL    HW160883   8.272   3.643   1.027 -0.4859  0.7704 -0.7045
19330SOL    HW260884   8.278   3.688   0.882  0.1432  1.4131 -0.4850
19331SOL     OW60885   5.079   8.168   8.530 -0.7126  0.0586  0.4427
19331SOL    HW160886   5.111   8.186   8.619 -1.9276  0.2262  0.8666
19331SOL    HW260887   4.984   8.165   8.540 -0.8711  0.3283 -0.9061
19332SOL     OW60888   3.428   2.106   0.909 -0.1842  0.3976  0.4157
19332SOL    HW160889   3.333   2.097   0.903 -0.1691  0.6457 -0.2801
19332SOL    HW260890   3.441   2.190   0.954 -0.2960  0.6781 -0.0683
19333SOL     OW60891   7.037   1.663   6.133 -0.5830 -0.3036 -0.8738
19333SOL    HW160892   7.012   1.709   6.052  0.9274 -0.5941 -1.5385
19333SOL    HW260893   7.113   1.712   6.165 -1.9744  0.6375  1.1494
19334SOL     OW60894   4.221   1.770   4.600 -0.0373 -0.3870 -0.0902
19334SOL    HW160895   4.129   1.792   4.586  0.3597  1.5409  0.0553
19334SOL    HW260896   4.258   1.768   4.512 -0.1228 -0.7399 -0.1197
19335SOL     OW60897   9.149   8.989   3.040 -0.0094  0.1588  0.4632
19335SOL    HW160898   9.184   9.073   3.072  0.7522  0.3164 -0.7257
19335SOL    HW260899   9.223   8.929   3.045  0.0840  0.1453 -0.8064
19336SOL     OW60900   1.243   3.714   9.110  0.0801  0.1739  0.3782
19336SOL    HW160901   1.205   3.661   9.179  1.3313  1.1240  1.8631
19336SOL    HW260902   1.305   3.772   9.155  1.2887  0.5122 -1.5802
19337SOL     OW60903   1.976   0.238   8.206  0.0314 -0.5041  0.2577
19337SOL    HW160904   2.056   0.283   8.232 -0.5683 -0.2276  1.7383
19337SOL    HW260905   2.005   0.155   8.169  1.0455  0.1324 -0.4140
19338SOL     OW60906  10.587   6.531  10.516 -0.2652  0.4347  0.1890
19338SOL    HW160907  10.556   6.490  10.597  1.6336 -0.5440  0.4921
19338SOL    HW260908  10.544   6.482  10.446 -0.5052  0.0489  0.6024
19339SOL     OW60909   3.680   9.695   7.884  0.1116 -0.4624  0.3219
19339SOL    HW160910   3.725   9.685   7.800  1.9036 -0.3247  1.2058
19339SOL    HW260911   3.722   9.771   7.924 -2.0374  0.6586  0.5612
19340SOL     OW60912   5.420   1.759   1.395  0.7290 -0.6929  0.0608
19340SOL    HW160913   5.514   1.744   1.404  1.0499  0.5189 -0.9557
19340SOL    HW260914   5.409   1.788   1.304 -0.4840  0.1230  0.4427
19341SOL     OW60915   5.036  10.489   4.198 -0.8502  0.6744  0.0842
19341SOL    HW160916   4.984  10.413   4.170 -1.3744  1.6380 -1.6726
19341SOL    HW260917   5.026  10.490   4.294 -2.7343 -0.1362 -0.0541
19342SOL     OW60918   9.670   7.607   6.370 -0.1170  0.8998 -0.2247
19342SOL    HW160919   9.575   7.623   6.370 -0.7522 -2.1423  0.6514
19342SOL    HW260920   9.692   7.593   6.462  0.8117 -0.2072 -0.5948
19343SOL     OW60921   6.503   1.964   6.635 -0.2665 -0.1175 -0.0100
19343SOL    HW160922   6.561   1.888   6.639 -0.5891 -0.4448 -1.1170
19343SOL    HW260923   6.560   2.036   6.610  0.1226  0.1297  1.4661
19344SOL     OW60924   9.758   7.034   6.560 -0.5644  0.4415 -0.1112
19344SOL    HW160925   9.754   6.957   6.505  1.4351  0.4385 -0.3274
19344SOL    HW260926   9.703   7.013   6.636  1.0760 -1.8189  0.5484
19345SOL     OW60927   7.557   4.029   7.231  0.3569  0.1503 -0.5413
19345SOL    HW160928   7.575   4.074   7.148  3.7744 -0.5022 -0.3129
19345SOL    HW260929   7.612   4.075   7.295 -0.7705 -0.5640  0.9910
19346SOL     OW60930   3.119   5.516   7.895 -0.1719  0.2774  0.1344
19346SOL    HW160931   3.211   5.539   7.882  0.3363  0.0983  2.7621
19346SOL    HW260932   3.072   5.599   7.891  0.2753  0.5269 -0.0414
19347SOL     OW60933   5.530   0.994   6.546 -0.2780 -0.0289  0.1381
19347SOL    HW160934   5.547   1.043   6.627  2.0199  0.8066 -0.7684
19347SOL    HW260935   5.541   0.902   6.572  1.8992  0.2904  0.5298
19348SOL     OW60936   3.617   4.136   4.917  0.2970  0.1205  0.1596
19348SOL    HW160937   3.677   4.088   4.860 -0.9019 -2.2150  0.7315
19348SOL    HW260938   3.622   4.090   5.000 -2.5979 -0.4645  0.0855
19349SOL     OW60939   8.381   0.466   7.137 -0.1890 -0.1466 -0.3040
19349SOL    HW160940   8.385   0.488   7.230  1.5141  0.1094 -0.4065
19349SOL    HW260941   8.290   0.437   7.123 -0.3276 -0.7471  1.5539
19350SOL     OW60942   0.983   2.734   9.090 -0.0194 -0.1528 -0.0985
19350SOL    HW160943   1.061   2.703   9.043  0.4275 -0.1438  0.6075
19350SOL    HW260944   0.982   2.828   9.075  0.3406 -0.0948  0.2028
19351SOL     OW60945   8.501   2.774   2.443  0.3436  0.3578  0.3309
19351SOL    HW160946   8.475   2.833   2.514  1.2824  1.1762  0.0126
19351SOL    HW260947   8.595   2.763   2.454  0.2637 -0.6604  0.0617
19352SOL     OW60948   7.896   4.830   5.487 -0.3069  0.5515 -0.0843
19352SOL    HW160949   7.807   4.797   5.473 -1.1080  2.2175  0.7675
19352SOL    HW260950   7.917   4.876   5.405 -0.2043  0.1225 -0.3015
19353SOL     OW60951   2.098   8.579   9.780 -0.0644 -0.3135  0.7118
19353SOL    HW160952   2.026   8.621   9.734 -0.7318 -1.4055  0.7137
19353SOL    HW260953   2.094   8.615   9.869  0.4101  0.8207  0.2913
19354SOL     OW60954   2.525   6.910   4.779  0.3874  0.2493 -0.4328
19354SOL    HW160955   2.575   6.858   4.843 -1.0928 -0.8048 -0.0643
19354SOL    HW260956   2.570   6.895   4.696  1.0948 -0.0887 -0.0017
19355SOL     OW60957   0.874   3.021   4.190  0.1200  0.0793  0.1600
19355SOL    HW160958   0.891   2.927   4.195  2.0299  0.4219  1.5167
19355SOL    HW260959   0.806   3.036   4.256  0.4458 -0.2427  0.5788
19356SOL     OW60960   0.505   6.567   8.452 -0.0827 -0.1027  0.0936
19356SOL    HW160961   0.449   6.539   8.525 -1.1708 -0.0845 -0.7027
19356SOL    HW260962   0.468   6.651   8.424 -0.2964 -0.5690 -1.0860
19357SOL     OW60963   0.152   0.459  10.227 -0.1977  0.4258 -0.2342
19357SOL    HW160964   0.107   0.525  10.281  3.0119  2.7888 -0.1447
19357SOL    HW260965   0.121   0.477  10.138 -0.6144  0.9210  0.0020
19358SOL     OW60966   4.482   5.459   6.155  0.2382 -0.3533 -0.4530
19358SOL    HW160967   4.535   5.503   6.221  0.6410 -0.5070 -0.6708
19358SOL    HW260968   4.411   5.419   6.204  0.6150 -0.5858 -0.0932
19359SOL     OW60969   3.536   9.375   5.543  0.3187 -0.1032 -0.0600
19359SOL    HW160970   3.558   9.383   5.636  0.0753 -3.1964  0.3485
19359SOL    HW260971   3.444   9.400   5.538  0.0678 -0.8432  0.7213
19360SOL     OW60972   3.629   3.991   7.781  0.2269  0.7529 -1.3848
19360SOL    HW160973   3.705   3.950   7.822 -0.1940  0.8038 -0.5438
19360SOL    HW260974   3.581   3.918   7.741  0.5658  0.6869 -1.6720
19361SOL     OW60975   6.867   3.554   6.374 -0.4032  0.8906  0.4087
19361SOL    HW160976   6.912   3.507   6.304 -2.1025 -1.6259  0.8747
19361SOL    HW260977   6.915   3.528   6.453 -0.3140  1.3406  0.5049
19362SOL     OW60978   7.307   8.988   0.784 -0.2570  0.1098  0.4808
19362SOL    HW160979   7.334   9.056   0.723 -0.8907  0.2363  0.3319
19362SOL    HW260980   7.382   8.977   0.842  0.8591 -0.8993 -1.0669
19363SOL     OW60981   6.981   6.173   8.210  0.2712  0.2781  0.1338
19363SOL    HW160982   6.976   6.184   8.115 -0.3223 -0.5891  0.0491
19363SOL    HW260983   7.016   6.256   8.242 -0.4497  0.9456 -0.7575
19364SOL     OW60984   8.004   3.757   7.765 -0.5999  0.1509 -0.4177
19364SOL    HW160985   8.078   3.768   7.706 -0.0607  1.8601  0.5128
19364SOL    HW260986   7.955   3.683   7.729  1.8099 -1.3653 -0.7674
19365SOL     OW60987   5.826  10.037   5.447  0.2469 -0.3816 -0.2067
19365SOL    HW160988   5.770  10.093   5.500 -0.1862 -0.6671 -0.3532
19365SOL    HW260989   5.765   9.980   5.399  0.5302  0.6737 -1.9365
19366SOL     OW60990   2.804   6.179   8.982 -0.0661 -0.4382  0.0384
19366SOL    HW160991   2.747   6.228   9.041 -0.2256  1.2205 -1.3830
19366SOL    HW260992   2.785   6.087   8.999  0.8745 -0.1380  3.4757
19367SOL     OW60993   3.317   7.670   9.917  0.0150 -0.2612  0.0545
19367SOL    HW160994   3.346   7.758   9.893 -0.4632 -0.2541 -0.5228
19367SOL    HW260995   3.233   7.684   9.962  0.4185 -0.3535  0.8623
19368SOL     OW60996   8.098   1.981   0.621 -0.3679 -0.0996  0.3291
19368SOL    HW160997   8.042   2.055   0.595  0.6898  0.5093 -0.2535
19368SOL    HW260998   8.099   1.985   0.716 -0.3312  0.6382  0.3077
19369SOL     OW60999   0.061   7.956   3.372  0.2989 -0.2382 -0.0269
19369SOL    HW161000   0.037   8.032   3.425  0.4973 -0.2169  0.0350
19369SOL    HW261001   0.116   7.903   3.430 -0.7188 -0.9653  0.2940
19370SOL     OW61002   3.423   0.193   8.622  0.3561 -0.3752 -0.4681
19370SOL    HW161003   3.379   0.277   8.637 -1.1079 -1.3276  0.8891
19370SOL    HW261004   3.351   0.130   8.612  1.4239 -1.6422 -0.4854
19371SOL     OW61005   1.789   5.160   2.696 -0.6712 -0.8914 -0.0011
19371SOL    HW161006   1.759   5.100   2.764 -1.0700  0.0881  0.7125
19371SOL    HW261007   1.716   5.221   2.684  0.0806  0.0101 -0.0463
19372SOL     OW61008   8.055   5.928   8.937 -0.1622  0.0487  0.0066
19372SOL    HW161009   8.035   5.991   9.006 -2.9232 -0.7995  0.0906
19372SOL    HW261010   8.007   5.959   8.860  2.7087  0.8811 -1.5897
19373SOL     OW61011   8.806   2.140   9.835  0.0043  0.2451  0.7801
19373SOL    HW161012   8.889   2.095   9.851 -0.5389 -0.5190  1.5473
19373SOL    HW261013   8.756   2.080   9.779 -1.7496 -1.4566  3.8682
19374SOL     OW61014   3.897   0.476   6.145  0.0642  0.2360 -0.0713
19374SOL    HW161015   3.821   0.535   6.142  1.6936  2.6454  1.7205
19374SOL    HW261016   3.940   0.486   6.061 -1.0868 -0.4667 -0.7635
19375SOL     OW61017   1.949  10.046   3.747 -0.1991  0.0173  0.3181
19375SOL    HW161018   1.877  10.079   3.799 -1.1209 -0.1906 -0.7877
19375SOL    HW261019   1.909  10.021   3.663  1.2609  0.5392 -0.5719
19376SOL     OW61020   6.458   8.472   7.472  0.0073  0.2989 -0.7801
19376SOL    HW161021   6.541   8.519   7.470 -0.5967  1.3798 -1.2275
19376SOL    HW261022   6.474   8.392   7.421  0.8466  0.3407 -0.5983
19377SOL     OW61023   0.219   4.424   2.447  0.1479 -0.5847  0.2372
19377SOL    HW161024   0.124   4.427   2.463  0.1724  0.6134  0.2588
19377SOL    HW261025   0.228   4.447   2.355  0.3307 -2.3599 -0.2083
19378SOL     OW61026   0.363   8.796   2.478 -0.2974  0.1721  0.4376
19378SOL    HW161027   0.270   8.775   2.485 -0.1970 -0.8828 -1.0047
19378SOL    HW261028   0.398   8.734   2.414  1.2509  1.0476  0.3632
19379SOL     OW61029   1.979   4.685   5.403 -0.3204 -0.4410 -0.3482
19379SOL    HW161030   1.912   4.751   5.386  0.6193  0.5336 -0.3576
19379SOL    HW261031   1.980   4.676   5.498  1.9910  2.2622  0.0169
19380SOL     OW61032   2.784   1.966   6.833 -0.0434 -0.6861 -0.4856
19380SOL    HW161033   2.754   2.017   6.907 -3.1749 -0.4613 -1.7737
19380SOL    HW261034   2.767   1.875   6.858 -1.7463 -0.5760 -1.0930
19381SOL     OW61035   8.815   0.583   2.230 -0.8682  0.0652  0.2681
19381SOL    HW161036   8.880   0.617   2.169 -1.7596  0.7429 -0.3437
19381SOL    HW261037   8.834   0.490   2.237 -1.1959 -0.1704 -1.6353
19382SOL     OW61038   0.722   9.056   1.306  0.0236 -0.0912 -0.0674
19382SOL    HW161039   0.660   9.110   1.256 -0.9330 -0.7073  0.4181
19382SOL    HW261040   0.671   8.980   1.333  0.5362  0.1510  1.7375
19383SOL     OW61041   5.542   5.995  10.421 -0.8114  0.3088  0.2826
19383SOL    HW161042   5.464   5.961  10.377 -0.2639  2.1220 -2.3267
19383SOL    HW261043   5.542   6.088  10.400  2.4476  0.2436 -0.5383
19384SOL     OW61044   6.189   8.650   5.817  0.5536  0.2894  0.1397
19384SOL    HW161045   6.117   8.705   5.850  1.4663  0.9196  1.1422
19384SOL    HW261046   6.239   8.627   5.895  2.7631  1.7713 -0.7480
19385SOL     OW61047  10.307   0.829   6.129  0.5894 -0.0598 -0.1255
19385SOL    HW161048  10.336   0.856   6.042 -0.3680 -2.0611 -1.1362
19385SOL    HW261049  10.233   0.886   6.148  0.5366  0.1138 -0.8059
19386SOL     OW61050   2.601   3.025   9.282  0.2662  0.3622  0.5279
19386SOL    HW161051   2.523   2.970   9.288 -0.7284  1.2627 -2.2853
19386SOL    HW261052   2.672   2.964   9.260  0.0300 -0.2531  1.4214
19387SOL     OW61053   0.472  10.392   7.794 -0.5114  0.1066 -0.7358
19387SOL    HW161054   0.514  10.477   7.813 -1.7285  1.2293 -2.7036
19387SOL    HW261055   0.526  10.354   7.724  0.3451 -1.0614  0.5034
19388SOL     OW61056  10.685   6.379   8.550 -0.6313  0.3124 -0.7023
19388SOL    HW161057  10.625   6.437   8.596  2.9206  3.3004  0.6529
19388SOL    HW261058  10.710   6.427   8.471  0.8681 -0.2364 -0.6012
19389SOL     OW61059   0.739   0.465   3.363 -0.0766 -0.3152 -0.0443
19389SOL    HW161060   0.643   0.467   3.362 -0.0680  1.2881 -0.4744
19389SOL    HW261061   0.763   0.470   3.270  0.3938  1.9708  0.1372
19390SOL     OW61062   7.743   1.987   8.685 -0.4430  0.8078  0.2276
19390SOL    HW161063   7.755   1.943   8.769  1.6078  0.2672 -0.2947
19390SOL    HW261064   7.803   2.061   8.688  1.6658 -0.7126 -1.7122
19391SOL     OW61065   2.294   1.314   2.345  0.1851  0.0264 -0.2551
19391SOL    HW161066   2.368   1.257   2.326  0.8123  0.6329  0.3302
19391SOL    HW261067   2.217   1.258   2.334  0.8364 -1.3079  1.5771
19392SOL     OW61068   8.240   0.772   2.648 -0.5149 -0.1941 -0.0357
19392SOL    HW161069   8.305   0.815   2.704  0.8418  0.7294 -2.1712
19392SOL    HW261070   8.266   0.679   2.648 -1.8260 -0.6274  2.4571
19393SOL     OW61071   3.403   9.664   0.976  0.3798  0.8155  0.3587
19393SOL    HW161072   3.476   9.700   1.027  0.5078  0.0355  0.7333
19393SOL    HW261073   3.436   9.662   0.886 -0.0240  2.6619  0.1342
19394SOL     OW61074   4.800   2.720   7.059  0.0074  0.1868  0.4736
19394SOL    HW161075   4.790   2.710   6.965  2.0934  4.1778 -0.3988
19394SOL    HW261076   4.765   2.808   7.077 -0.5753 -0.5556  3.5357
19395SOL     OW61077   3.741   2.105   9.638 -0.2304 -0.0934 -0.5283
19395SOL    HW161078   3.708   2.193   9.625  0.3499  0.3154  0.5879
19395SOL    HW261079   3.835   2.112   9.621 -0.0088 -0.2488  0.5471
19396SOL     OW61080   3.292   6.319   1.626 -0.2516  0.2661  0.0806
19396SOL    HW161081   3.353   6.294   1.557 -0.3795  0.6341 -0.1686
19396SOL    HW261082   3.348   6.363   1.691 -0.5337  2.6209 -1.1639
19397SOL     OW61083   4.209   3.086   4.694  0.2221 -0.3148 -0.3933
19397SOL    HW161084   4.240   3.161   4.746 -0.2277 -0.9246  0.7976
19397SOL    HW261085   4.196   3.122   4.606  0.2364  0.9522  0.0917
19398SOL     OW61086   3.227   6.084   1.727 -0.0003  0.6237 -0.1115
19398SOL    HW161087   3.173   6.032   1.667 -1.5843 -0.7938  2.3912
19398SOL    HW261088   3.241   6.166   1.680  0.6984 -1.1464 -3.2860
19399SOL     OW61089   4.966   9.464   6.775 -0.4228  0.2465  0.3967
19399SOL    HW161090   5.051   9.458   6.733  0.4684  0.1699  2.1029
19399SOL    HW261091   4.932   9.374   6.773 -0.3609  0.2326 -0.0746
19400SOL     OW61092  10.297   6.887   0.336  0.5225 -0.3280 -0.2995
19400SOL    HW161093  10.344   6.918   0.259 -2.1686  0.2510 -1.8187
19400SOL    HW261094  10.359   6.899   0.408  2.5918  0.5332 -2.1123
19401SOL     OW61095   0.884   0.939   2.601 -0.4012  0.2744 -0.0879
19401SOL    HW161096   0.969   0.919   2.641 -1.0749  1.2416  1.9882
19401SOL    HW261097   0.871   1.032   2.618 -0.5286  0.9025 -3.1646
19402SOL     OW61098   0.795   6.899   3.037  0.2296  0.3150  0.2631
19402SOL    HW161099   0.742   6.890   3.116  1.3769 -1.7862  0.8540
19402SOL    HW261100   0.878   6.858   3.058  0.3305 -0.9626 -2.2546
19403SOL     OW61101   5.597   2.964   0.559 -0.0217  0.3284 -0.3512
19403SOL    HW161102   5.662   2.910   0.603 -0.1044  0.1279 -0.4787
19403SOL    HW261103   5.518   2.957   0.613 -0.3220 -0.4372 -0.8804
19404SOL     OW61104   8.993   5.538   3.582  0.2320 -0.4163  0.4901
19404SOL    HW161105   8.945   5.620   3.570 -0.8787 -0.9528  1.0671
19404SOL    HW261106   8.963   5.482   3.510  0.6100 -0.4936  0.3877
19405SOL     OW61107   7.122   8.313   9.992 -0.1076  0.6348 -0.1399
19405SOL    HW161108   7.169   8.371   9.933 -0.6067 -0.3670 -1.5700
19405SOL    HW261109   7.160   8.226   9.975 -0.0145  0.3762  1.2722
19406SOL     OW61110   6.880   3.576   9.363 -0.5569 -0.3080  0.4763
19406SOL    HW161111   6.942   3.505   9.378  1.6761  1.5143  0.4906
19406SOL    HW261112   6.853   3.603   9.451 -1.2850 -1.0002  0.4756
19407SOL     OW61113   9.609   8.646   9.653  0.1008 -0.5455 -0.0270
19407SOL    HW161114   9.637   8.737   9.660 -3.2336  0.7417 -1.3733
19407SOL    HW261115   9.648   8.616   9.571 -0.3746  0.3691 -0.6066
19408SOL     OW61116  10.724   0.820  10.044 -0.2129  0.2445 -0.0786
19408SOL    HW161117  10.690   0.787  10.127  0.9913 -0.1001  0.2983
19408SOL    HW261118  10.673   0.899  10.026  0.1493  0.8562  1.4698
19409SOL     OW61119   3.126   9.969   8.042 -0.6591 -0.1176  0.7780
19409SOL    HW161120   3.070  10.046   8.051 -0.2572  0.0873  1.5565
19409SOL    HW261121   3.142   9.940   8.132  0.2472 -0.3429  0.5515
19410SOL     OW61122   0.698   0.028   0.415  0.0852  0.5839  0.2618
19410SOL    HW161123   0.682   0.109   0.462  0.6523  0.6229  0.3913
19410SOL    HW261124   0.614  -0.017   0.416  0.2145  0.3099  1.8420
19411SOL     OW61125   3.478   9.939   0.614  0.0370 -0.0765  0.3853
19411SOL    HW161126   3.542  10.010   0.610  1.1894 -1.0186  1.3016
19411SOL    HW261127   3.405   9.975   0.665 -0.1056  0.9549 -0.5176
19412SOL     OW61128   0.759   7.517   2.207  0.5102 -0.1239 -0.1569
19412SOL    HW161129   0.746   7.492   2.115 -0.9998 -0.2690  0.0694
19412SOL    HW261130   0.777   7.434   2.252  3.5073  0.1752 -0.6175
19413SOL     OW61131   5.435   5.697   5.616 -0.6096 -0.0298  0.1057
19413SOL    HW161132   5.509   5.640   5.637 -1.1396 -0.7562  0.0729
19413SOL    HW261133   5.380   5.643   5.559 -1.5949  0.1680  0.8393
19414SOL     OW61134   2.343   2.591   2.259  0.7776  0.5987  0.0483
19414SOL    HW161135   2.323   2.528   2.328 -0.1033  0.7107 -0.0902
19414SOL    HW261136   2.307   2.674   2.291  2.3744  1.1695  0.4578
19415SOL     OW61137  10.079   1.404   1.031 -0.3095 -0.4598  0.0179
19415SOL    HW161138  10.144   1.421   1.099  1.0664 -1.1162 -1.0573
19415SOL    HW261139  10.022   1.337   1.068  0.3948 -0.7742  0.5610
19416SOL     OW61140   5.906   9.103  10.346  0.0891 -0.7056 -0.2688
19416SOL    HW161141   5.900   9.172  10.281  1.2991 -1.4402 -1.1959
19416SOL    HW261142   5.845   9.129  10.415  0.4527  1.2348 -0.6350
19417SOL     OW61143   9.291   2.017   6.323  0.4892  0.1726 -0.4734
19417SOL    HW161144   9.342   2.097   6.315  1.4189 -0.3130  0.4704
19417SOL    HW261145   9.355   1.949   6.345 -0.5748 -0.4218  0.8926
19418SOL     OW61146   0.561   4.656   9.367 -0.2820 -0.2659 -0.1270
19418SOL    HW161147   0.559   4.724   9.300 -0.4288 -0.0504  0.0977
19418SOL    HW261148   0.515   4.582   9.327 -0.9544  0.0887 -0.0155
19419SOL     OW61149   4.307   9.725   8.391  0.3515 -0.3648  0.1363
19419SOL    HW161150   4.349   9.806   8.419  0.5900 -0.4123 -0.0747
19419SOL    HW261151   4.380   9.664   8.375  0.3720  0.2212 -2.3702
19420SOL     OW61152   9.342   1.585   3.010  0.3885  0.4861  0.1164
19420SOL    HW161153   9.423   1.537   3.024 -0.0539 -0.0334  0.9712
19420SOL    HW261154   9.274   1.531   3.050 -0.3106  1.1685 -0.1079
19421SOL     OW61155  10.008   6.425   8.841  0.4880  0.1374 -0.4244
19421SOL    HW161156   9.975   6.509   8.806  0.1456  0.0199 -0.3877
19421SOL    HW261157   9.959   6.359   8.792  1.5050 -0.0683 -1.2042
19422SOL     OW61158   2.215   2.258   1.432 -0.0885  0.0826 -0.1331
19422SOL    HW161159   2.240   2.341   1.472 -2.4901  0.5427  0.5631
19422SOL    HW261160   2.210   2.277   1.338  0.3123  0.4488 -0.0810
19423SOL     OW61161   9.055   4.167  10.505 -0.7158  0.0769  0.5911
19423SOL    HW161162   9.033   4.233  10.438 -0.4433  0.2783  0.6946
19423SOL    HW261163   8.980   4.167  10.564 -0.1433  1.3088  1.3736
19424SOL     OW61164   6.102   4.916   4.793 -0.1912  0.7317  0.4658
19424SOL    HW161165   6.031   4.966   4.751 -0.7058  0.1368  0.6025
19424SOL    HW261166   6.181   4.967   4.777 -0.3075  0.3526 -1.5595
19425SOL     OW61167   3.436   0.267   9.301 -0.1238  0.4020  0.4815
19425SOL    HW161168   3.381   0.220   9.238  0.6518 -0.2833  0.3091
19425SOL    HW261169   3.431   0.359   9.272  0.1910  0.1074 -0.5741
19426SOL     OW61170   7.001   7.257   0.061 -0.4185 -0.1049 -0.1822
19426SOL    HW161171   7.048   7.327   0.014 -0.9358  0.4472  0.1163
19426SOL    HW261172   6.909   7.283   0.057 -0.3410  1.0473  2.8873
19427SOL     OW61173   4.609   1.675   0.491  0.0583 -0.9937 -0.2360
19427SOL    HW161174   4.573   1.604   0.546 -1.8160  0.8131  1.0219
19427SOL    HW261175   4.647   1.736   0.553  0.3469 -0.1927 -1.1870
19428SOL     OW61176   6.500   7.743   6.330 -0.4399  0.4304  0.4829
19428SOL    HW161177   6.508   7.815   6.268  0.0087  1.4187  1.6560
19428SOL    HW261178   6.558   7.675   6.296  2.1618  2.0912  1.3284
19429SOL     OW61179   4.188   2.552   2.983 -0.5690 -0.8656  0.1927
19429SOL    HW161180   4.281   2.539   2.965 -0.8551  0.2448 -2.6167
19429SOL    HW261181   4.145   2.522   2.903 -2.8071 -2.7562  1.9693
19430SOL     OW61182   4.533   6.526   8.100  0.3121 -0.6981  0.5079
19430SOL    HW161183   4.456   6.487   8.143  0.1759 -0.8210  0.1523
19430SOL    HW261184   4.606   6.504   8.158  0.1324 -0.8872  0.6654
19431SOL     OW61185   9.957   2.694   7.945 -0.8438 -0.3063  0.3989
19431SOL    HW161186   9.937   2.660   8.032  0.1929 -0.3822  0.6163
19431SOL    HW261187  10.019   2.632   7.908  0.7890  1.0974  0.6469
19432SOL     OW61188   1.286   2.001   6.737  0.1060 -0.5404  0.1613
19432SOL    HW161189   1.325   1.986   6.651  0.3259 -0.4312  0.2391
19432SOL    HW261190   1.283   2.097   6.745  1.8044 -0.5198  1.0294
19433SOL     OW61191   2.838   1.891   9.875  0.2611 -0.6201  0.0039
19433SOL    HW161192   2.931   1.898   9.897  0.6038 -2.2139 -0.7974
19433SOL    HW261193   2.792   1.926   9.951  1.5011  3.1930 -0.8030
19434SOL     OW61194   6.281   0.644   6.163  0.3123  0.2747 -0.3323
19434SOL    HW161195   6.292   0.559   6.121  0.3943  0.8281 -1.4713
19434SOL    HW261196   6.289   0.707   6.091  0.4332  1.2523  0.5213
19435SOL     OW61197  10.252   2.731  10.717  0.2794  0.6925 -0.1812
19435SOL    HW161198  10.273   2.706  10.807 -2.3659 -0.0931  0.2937
19435SOL    HW261199  10.312   2.678  10.663 -0.5146 -1.5903  1.0371
19436SOL     OW61200   4.694   2.267   0.007  0.6759 -0.1336  0.7222
19436SOL    HW161201   4.628   2.226  -0.048 -0.1036  2.3737 -0.3434
19436SOL    HW261202   4.644   2.326   0.065  1.8794  1.6333  0.0547
19437SOL     OW61203   7.742   3.052   1.340  0.1873 -0.3192  0.0533
19437SOL    HW161204   7.674   3.059   1.274  0.0495 -0.3475  0.1923
19437SOL    HW261205   7.722   3.122   1.402 -0.4909 -1.1492  0.8065
19438SOL     OW61206   0.285  10.665   5.689  0.3294 -0.0191  0.0979
19438SOL    HW161207   0.229  10.590   5.706  0.2332  0.0378  0.0340
19438SOL    HW261208   0.230  10.741   5.709  0.2401  0.0456 -0.3925
19439SOL     OW61209   5.425   3.840   8.988 -0.1113 -0.0471  0.3571
19439SOL    HW161210   5.450   3.805   9.073 -0.6315 -1.7846 -0.1636
19439SOL    HW261211   5.345   3.792   8.965  0.1638  0.2001 -1.2109
19440SOL     OW61212   9.566   1.685   9.096  0.0973  0.7298 -0.2873
19440SOL    HW161213   9.596   1.636   9.019 -0.0522  3.0980 -1.9379
19440SOL    HW261214   9.471   1.691   9.085  0.0159  0.6895  0.3461
19441SOL     OW61215  10.765   1.212   9.802  0.0049  0.6344 -0.4874
19441SOL    HW161216  10.747   1.205   9.708  1.6901 -1.2567 -0.7377
19441SOL    HW261217  10.753   1.305   9.822 -0.7466  1.0139 -2.4772
19442SOL     OW61218   0.054   3.873   3.246 -0.7136  0.0785  0.0389
19442SOL    HW161219   0.081   3.812   3.178  1.1648  1.0328 -0.1510
19442SOL    HW261220   0.116   3.857   3.318 -0.3535  1.5458  0.0875
19443SOL     OW61221   9.440   7.592   7.118  0.5372  0.1087  0.3643
19443SOL    HW161222   9.350   7.609   7.092  0.2109  0.3576  1.6159
19443SOL    HW261223   9.483   7.563   7.037 -0.1084  2.0642 -0.7338
19444SOL     OW61224   0.194   6.962   2.883 -0.0830 -0.9575 -0.4992
19444SOL    HW161225   0.130   6.973   2.812 -0.5199 -1.1438 -0.1403
19444SOL    HW261226   0.200   6.868   2.895  0.8509 -0.9725 -1.0533
19445SOL     OW61227   4.252   2.874   6.393  0.3666 -0.0085  0.2957
19445SOL    HW161228   4.327   2.826   6.356  0.0789 -0.1629 -0.0920
19445SOL    HW261229   4.204   2.905   6.316  0.2844  0.4867  0.5448
19446SOL     OW61230   0.903  10.765   5.505 -0.0827  0.2206  0.2184
19446SOL    HW161231   0.875  10.703   5.573 -1.0073  0.5981  0.1927
19446SOL    HW261232   0.842  10.750   5.433  0.2727  0.5211 -0.1459
19447SOL     OW61233  10.032   1.538   2.255  0.1450 -0.3889  0.0712
19447SOL    HW161234  10.106   1.478   2.257 -0.0814 -0.6709  0.0357
19447SOL    HW261235  10.040   1.585   2.172 -0.0195 -0.8068 -0.1854
19448SOL     OW61236   9.359   2.170   0.740  0.4637 -0.5383  0.4645
19448SOL    HW161237   9.435   2.135   0.694 -0.2002 -1.6770  0.1957
19448SOL    HW261238   9.295   2.099   0.739 -1.1301  0.8038 -0.5038
19449SOL     OW61239   2.951   8.479   3.503 -0.6691  0.0169 -0.3133
19449SOL    HW161240   3.045   8.473   3.519 -0.9554 -1.4685  1.0049
19449SOL    HW261241   2.936   8.571   3.482  0.9310  0.4833  0.4773
19450SOL     OW61242   9.735   7.270   9.017  0.8172 -0.0240 -0.3531
19450SOL    HW161243   9.792   7.207   8.973 -1.7695 -2.3658 -0.5945
19450SOL    HW261244   9.763   7.266   9.109  1.1811 -0.9825 -0.4870
19451SOL     OW61245   1.662   2.640   1.287  0.1079  0.3141  0.0774
19451SOL    HW161246   1.631   2.704   1.223 -1.9900 -1.4772 -0.8385
19451SOL    HW261247   1.621   2.666   1.370 -2.3442 -0.8143 -0.6878
19452SOL     OW61248   0.711   4.102   4.313 -0.8480 -0.0211  0.1655
19452SOL    HW161249   0.701   4.164   4.240  0.8919  0.4741  0.3132
19452SOL    HW261250   0.805   4.088   4.320 -1.0059 -0.2715  2.1562
19453SOL     OW61251   8.426   8.164   8.392 -0.0401  0.0540 -0.3174
19453SOL    HW161252   8.369   8.130   8.461  0.3077 -0.0048 -0.0573
19453SOL    HW261253   8.447   8.088   8.338  0.1915 -0.0161 -0.1270
19454SOL     OW61254   4.526   3.152   5.133 -0.3071 -0.0244  0.4002
19454SOL    HW161255   4.491   3.083   5.190 -0.3065  1.4252  2.2909
19454SOL    HW261256   4.600   3.187   5.182  0.3437  0.6121 -1.0093
19455SOL     OW61257   0.984  10.043   0.597 -0.8475 -0.0153 -0.1432
19455SOL    HW161258   1.064   9.991   0.586  0.3227  1.2032  1.9860
19455SOL    HW261259   0.913   9.985   0.569  0.7605 -0.9323 -2.7291
19456SOL     OW61260   0.404   4.821  10.010  0.0190 -0.1008 -0.2173
19456SOL    HW161261   0.399   4.844  10.103  1.5263  0.5783 -0.2718
19456SOL    HW261262   0.486   4.772  10.002 -0.1308 -0.2135 -1.1759
19457SOL     OW61263   2.990   9.040   0.755 -0.3851  0.5083 -0.2210
19457SOL    HW161264   3.040   9.007   0.681 -0.1351 -0.8350  0.5139
19457SOL    HW261265   3.035   9.120   0.782  0.5028  0.1027 -0.4863
19458SOL     OW61266   1.370   4.789   2.444  0.0157  0.2950  0.0121
19458SOL    HW161267   1.433   4.857   2.465 -0.0006  0.7596 -1.3303
19458SOL    HW261268   1.349   4.803   2.352  0.3571 -1.8206 -0.4326
19459SOL     OW61269   3.682   2.764   5.273  0.3835 -0.5681  0.1401
19459SOL    HW161270   3.679   2.857   5.294  0.4060 -0.7470  0.9719
19459SOL    HW261271   3.775   2.746   5.256  0.3707 -0.4290 -0.0781
19460SOL     OW61272   6.228  10.782   4.096 -0.0287 -0.1601 -0.1102
19460SOL    HW161273   6.162  10.743   4.153  0.9412 -1.3119  0.2568
19460SOL    HW261274   6.276  10.707   4.060 -1.7539  0.3232 -3.9601
19461SOL     OW61275  10.384   9.026   0.653  0.6307 -0.3661 -0.5006
19461SOL    HW161276  10.319   8.957   0.649  0.8296 -0.6525  0.9846
19461SOL    HW261277  10.465   8.984   0.625 -0.0949  0.4834 -4.5064
19462SOL     OW61278   5.774   5.847   1.389 -0.1617 -0.4765 -0.2888
19462SOL    HW161279   5.829   5.919   1.358 -2.4738  1.8985  0.6832
19462SOL    HW261280   5.723   5.820   1.313  1.5648 -2.0254 -0.9556
19463SOL     OW61281   7.245   0.487   3.925  0.2230  0.3063  0.4514
19463SOL    HW161282   7.251   0.453   3.836  1.5671  0.5404  0.4309
19463SOL    HW261283   7.298   0.426   3.977  0.1003  0.6191  0.9404
19464SOL     OW61284   4.134   3.563   7.725  0.4437 -0.4643 -0.1821
19464SOL    HW161285   4.041   3.544   7.737  0.3889  0.3512  0.7625
19464SOL    HW261286   4.135   3.640   7.668  0.5179 -0.1541  0.2336
19465SOL     OW61287   6.425   5.889   4.524 -0.3531  0.3843  0.0838
19465SOL    HW161288   6.411   5.870   4.617 -1.4536  0.2598 -0.0918
19465SOL    HW261289   6.455   5.980   4.522  2.5968 -0.4629  0.7557
19466SOL     OW61290   8.224   6.639   1.655  0.1235 -0.4787  0.2746
19466SOL    HW161291   8.152   6.594   1.610 -0.1488  0.8180 -0.6229
19466SOL    HW261292   8.186   6.668   1.738  0.7099 -3.1449  1.5815
19467SOL     OW61293   8.522   3.351   6.896  0.2365  0.5219  0.1882
19467SOL    HW161294   8.559   3.438   6.912 -1.1315  1.0159  0.8193
19467SOL    HW261295   8.427   3.365   6.899 -0.0038 -0.8728 -0.4200
19468SOL     OW61296   7.024   0.023   4.672  0.4456 -0.4735  0.1499
19468SOL    HW161297   6.930   0.038   4.658  0.6345  0.1097 -0.5816
19468SOL    HW261298   7.054   0.099   4.721  0.7382 -0.1179 -0.5605
19469SOL     OW61299   1.575   6.693   1.237 -0.2704 -0.9237  0.6858
19469SOL    HW161300   1.582   6.777   1.192  0.2793 -1.5749 -0.4855
19469SOL    HW261301   1.482   6.671   1.234  0.0451 -2.4203 -3.0142
19470SOL     OW61302   1.984   4.688   7.195 -0.2158 -0.5494 -0.5812
19470SOL    HW161303   2.058   4.719   7.142  2.0204 -1.2571  1.9134
19470SOL    HW261304   1.931   4.766   7.209  0.8902  0.3439 -1.1622
19471SOL     OW61305   3.042   4.956   4.398  0.5325  0.1371  0.1754
19471SOL    HW161306   3.033   5.043   4.358  1.1093 -0.5991 -1.6520
19471SOL    HW261307   2.955   4.937   4.434  0.5383  1.6794  1.1247
19472SOL     OW61308   8.983   3.837   3.012  0.2209 -0.4730 -0.4948
19472SOL    HW161309   8.999   3.822   3.105  3.5347 -0.3117 -0.9301
19472SOL    HW261310   9.029   3.918   2.992 -1.8163  0.4086 -2.0113
19473SOL     OW61311   1.878   3.280   4.568  0.2457 -0.3779  0.1082
19473SOL    HW161312   1.818   3.306   4.638 -0.1036  0.4595 -0.4830
19473SOL    HW261313   1.962   3.317   4.594 -0.1627  1.0764 -0.5299
19474SOL     OW61314   8.439   2.956   6.991  0.1027  0.3739 -0.3046
19474SOL    HW161315   8.531   2.933   6.998 -0.3372 -0.9622  2.7518
19474SOL    HW261316   8.401   2.889   6.935  0.3918 -1.3958  1.5102
19475SOL     OW61317   6.889   7.433   0.885 -0.2234  0.3884 -0.1443
19475SOL    HW161318   6.854   7.517   0.856  1.5106  2.0546  2.2433
19475SOL    HW261319   6.971   7.423   0.837  0.6170  1.1402  1.0969
19476SOL     OW61320   8.909   8.946   6.000  0.3734 -0.0313  0.1349
19476SOL    HW161321   8.861   9.029   6.010  0.1505 -0.3726  2.5312
19476SOL    HW261322   8.997   8.966   6.032  0.5006 -0.5581  0.1149
19477SOL     OW61323   9.524   1.085   0.778  0.3842  0.1716 -0.3728
19477SOL    HW161324   9.599   1.075   0.719  0.6419  0.1297 -0.0413
19477SOL    HW261325   9.563   1.109   0.862  0.3054 -2.9365  0.6749
19478SOL     OW61326   5.998   8.242   1.875 -0.9212 -0.1233 -0.2012
19478SOL    HW161327   6.042   8.185   1.811 -0.1902  0.4749 -0.2532
19478SOL    HW261328   6.052   8.321   1.877 -0.7374 -0.2568  1.4156
19479SOL     OW61329   9.626   1.230   6.374  0.5559 -0.5596 -0.7149
19479SOL    HW161330   9.650   1.322   6.365 -0.9837  0.0864  1.1353
19479SOL    HW261331   9.627   1.214   6.469  1.1045 -2.5478 -1.0179
19480SOL     OW61332   8.888   1.436   1.396 -0.2326  0.0512 -0.1843
19480SOL    HW161333   8.970   1.443   1.348 -0.1244 -1.8391 -0.3441
19480SOL    HW261334   8.850   1.353   1.367 -0.6616 -0.6741  2.2029
19481SOL     OW61335   4.553   0.639   9.383 -0.1828  0.3984 -0.1175
19481SOL    HW161336   4.500   0.581   9.329 -0.4663  2.4813 -2.2193
19481SOL    HW261337   4.492   0.707   9.413  0.9207  2.0082 -1.3513
19482SOL     OW61338   7.435   2.654   4.809 -0.1185  0.4021 -0.2320
19482SOL    HW161339   7.369   2.652   4.740  1.3434  1.9635 -1.7614
19482SOL    HW261340   7.518   2.635   4.764  0.5456 -1.6303  1.6330
19483SOL     OW61341   9.771   2.227  10.690  0.1008  0.1012  0.9675
19483SOL    HW161342   9.853   2.273  10.676  0.1980  0.4741  2.5188
19483SOL    HW261343   9.703   2.292  10.672  0.0714 -0.4221 -1.0748
19484SOL     OW61344   6.331   4.168   9.105  0.8216  0.0890 -0.5105
19484SOL    HW161345   6.245   4.147   9.141  0.5761 -0.3304 -1.3172
19484SOL    HW261346   6.389   4.102   9.142  0.2518 -1.4097 -2.1874
19485SOL     OW61347   8.782   6.229   1.963  0.4079 -0.0035 -0.3202
19485SOL    HW161348   8.874   6.226   1.990  0.7544  0.2183 -1.4065
19485SOL    HW261349   8.783   6.201   1.872 -0.5357  0.5375 -0.5138
19486SOL     OW61350   4.033   0.862   3.493  0.0696 -0.6648  0.0912
19486SOL    HW161351   4.088   0.937   3.468 -0.7050 -0.2334 -0.3476
19486SOL    HW261352   3.958   0.901   3.537 -0.0636 -1.2277  0.3683
19487SOL     OW61353   3.289   2.857   9.956 -0.0009 -0.1759 -0.1935
19487SOL    HW161354   3.257   2.877   9.868 -1.7053 -1.7051  0.0206
19487SOL    HW261355   3.211   2.859  10.011  0.9731  0.3602  1.2283
19488SOL     OW61356   7.028   2.908   3.467  0.4173 -0.0016 -0.3698
19488SOL    HW161357   7.055   2.989   3.423  2.1012 -0.3887 -0.1285
19488SOL    HW261358   6.972   2.937   3.538  1.4891  1.0381  0.0879
19489SOL     OW61359  10.631   8.434   9.594  0.7378 -0.0314 -0.0041
19489SOL    HW161360  10.677   8.360   9.632 -0.9123 -1.6734 -1.0604
19489SOL    HW261361  10.578   8.469   9.666 -1.9033 -2.7353 -0.4496
19490SOL     OW61362   1.193   6.465   9.246 -0.1301  0.1529  0.0766
19490SOL    HW161363   1.125   6.455   9.179  0.6532 -0.1908 -0.6919
19490SOL    HW261364   1.232   6.550   9.228 -0.7131  0.5987  0.8661
19491SOL     OW61365   5.962   5.923   1.103 -0.4304  0.3936 -0.0068
19491SOL    HW161366   5.895   5.858   1.083 -1.4889  0.4652  2.8481
19491SOL    HW261367   5.957   5.986   1.032 -4.0738  0.8772  0.4990
19492SOL     OW61368   3.285   7.154   1.464 -0.0712  0.1462 -0.4822
19492SOL    HW161369   3.368   7.200   1.451 -0.0709 -0.4419 -3.0402
19492SOL    HW261370   3.232   7.215   1.515  1.6420  0.8292  0.5911
19493SOL     OW61371   6.123   0.737   9.220  0.2085 -0.3983  0.7160
19493SOL    HW161372   6.029   0.751   9.233  0.0342  0.9293 -1.4633
19493SOL    HW261373   6.127   0.661   9.162  0.5257 -0.6725  1.0903
19494SOL     OW61374   9.131   1.248   1.186 -0.3170 -0.3834 -0.3641
19494SOL    HW161375   9.226   1.252   1.186 -0.3296  0.1231 -1.3260
19494SOL    HW261376   9.109   1.214   1.273  0.7552 -1.2141 -0.4010
19495SOL     OW61377   4.331   0.043   4.560  0.3968 -0.5284  0.4468
19495SOL    HW161378   4.400   0.070   4.498  0.5946 -1.4454  0.2573
19495SOL    HW261379   4.370  -0.028   4.609 -0.3183 -0.8538  0.5503
19496SOL     OW61380   4.682   1.295   2.424 -0.1388  0.6721  0.2215
19496SOL    HW161381   4.600   1.266   2.465  1.3637 -0.9221  2.2859
19496SOL    HW261382   4.696   1.233   2.353 -0.1751  0.2615  0.5675
19497SOL     OW61383   6.854   1.314   0.012  0.3310  0.4499 -0.5771
19497SOL    HW161384   6.882   1.301  -0.079 -0.6892  1.7793 -1.1092
19497SOL    HW261385   6.772   1.363   0.005 -0.7219 -0.9821  1.0172
19498SOL     OW61386   5.602   6.113   9.677  0.4987 -0.1702 -0.3600
19498SOL    HW161387   5.513   6.149   9.684  1.9243  3.7450  0.5025
19498SOL    HW261388   5.630   6.136   9.589  0.0834 -3.2454 -1.3959
19499SOL     OW61389   5.742   1.114   3.267  0.0804  0.0025 -0.2137
19499SOL    HW161390   5.690   1.034   3.279 -0.9067  0.7151  0.3753
19499SOL    HW261391   5.781   1.131   3.352 -0.6184  0.7489 -0.0265
19500SOL     OW61392   1.185  10.375  10.716 -0.6411  0.4052  0.6628
19500SOL    HW161393   1.185  10.292  10.667  0.4681  1.2048 -0.7800
19500SOL    HW261394   1.135  10.435  10.661 -1.7461  0.6416  1.8718
19501SOL     OW61395   1.969   5.434   6.852  0.1303  0.5200  0.6177
19501SOL    HW161396   2.013   5.504   6.804 -0.2654  1.1702  1.1870
19501SOL    HW261397   1.880   5.466   6.865  0.2915  0.4744  1.9854
19502SOL     OW61398   6.357   5.560   9.159  0.2242 -0.1191  0.0051
19502SOL    HW161399   6.285   5.542   9.220 -1.6610 -0.2701 -2.1223
19502SOL    HW261400   6.346   5.495   9.089  1.2102  1.1247 -1.3674
19503SOL     OW61401   0.612   3.066   9.453 -0.5049  0.2394  0.3557
19503SOL    HW161402   0.651   3.069   9.366 -3.8971 -0.6527 -1.3988
19503SOL    HW261403   0.608   2.972   9.474 -0.1182  0.4219  1.3040
19504SOL     OW61404   3.129   6.971   7.372  0.3821 -0.6275 -0.2836
19504SOL    HW161405   3.087   6.909   7.432 -1.0534  1.0890  0.5674
19504SOL    HW261406   3.223   6.956   7.384  0.1071 -1.1528  1.5151
19505SOL     OW61407   1.628   5.879   8.226 -0.2361 -0.2133  0.2426
19505SOL    HW161408   1.543   5.855   8.263 -0.3852  1.0450  0.7681
19505SOL    HW261409   1.659   5.799   8.184 -1.9691 -0.5220 -0.5373
19506SOL     OW61410   1.974   0.688   6.415 -0.4844 -0.0297  0.4354
19506SOL    HW161411   2.064   0.681   6.383 -1.1359 -0.2630 -1.4406
19506SOL    HW261412   1.919   0.676   6.337 -2.1288  1.9938  1.1697
19507SOL     OW61413   9.754   0.862   6.443 -0.3421 -0.0472  1.0142
19507SOL    HW161414   9.801   0.811   6.377 -1.0790 -0.9792  1.1954
19507SOL    HW261415   9.808   0.940   6.455  1.6230 -1.4664  1.8390
19508SOL     OW61416   8.565   7.525   2.043 -0.0567  0.1927  0.4889
19508SOL    HW161417   8.486   7.486   2.081  0.2982 -1.6013 -0.4639
19508SOL    HW261418   8.546   7.529   1.949  0.4433  1.1446  0.4165
19509SOL     OW61419   9.202   3.995   9.397  0.0476 -0.1388 -0.0996
19509SOL    HW161420   9.247   3.926   9.447  0.0724  0.0144  0.0902
19509SOL    HW261421   9.113   3.997   9.433  0.1206  0.1029  0.0746
19510SOL     OW61422   2.648  10.726   7.716 -0.2875  0.0486  0.2429
19510SOL    HW161423   2.630  10.639   7.753  0.3633 -0.1579  0.0873
19510SOL    HW261424   2.726  10.757   7.763  0.9424 -0.4909 -1.3402
19511SOL     OW61425   7.396   1.115   8.901  0.2634  0.0910 -0.1066
19511SOL    HW161426   7.445   1.191   8.868 -0.1547  0.3466 -0.1508
19511SOL    HW261427   7.353   1.147   8.980 -2.3395  0.8340 -1.6794
19512SOL     OW61428   2.372   4.458   6.994  0.5550  0.5130 -0.1504
19512SOL    HW161429   2.279   4.437   7.002  0.4183  1.3562  0.6909
19512SOL    HW261430   2.388   4.459   6.899 -0.4736  1.0351 -0.3392
19513SOL     OW61431   1.671   9.921   5.535  0.2225  0.2742 -0.5890
19513SOL    HW161432   1.594   9.938   5.590  0.9232  0.7246  0.2830
19513SOL    HW261433   1.744   9.953   5.587  1.0194 -0.3019 -1.3405
19514SOL     OW61434  10.670   2.445   1.648 -0.0423 -0.4019 -0.3004
19514SOL    HW161435  10.701   2.496   1.723 -0.1185 -0.7544 -0.0302
19514SOL    HW261436  10.584   2.482   1.627  0.3672  0.3135 -0.8018
19515SOL     OW61437   5.378   9.389   1.153  0.0994 -0.0942  0.1266
19515SOL    HW161438   5.425   9.355   1.078 -1.1187 -0.5702 -0.4478
19515SOL    HW261439   5.292   9.347   1.149 -1.3590  2.7007 -0.3860
19516SOL     OW61440   5.025   9.189   6.205  0.1039 -0.5875  0.0107
19516SOL    HW161441   5.072   9.135   6.142  0.9322  0.1272  0.0128
19516SOL    HW261442   4.934   9.159   6.198  0.3720 -1.2650 -0.7317
19517SOL     OW61443   5.356   2.129   8.260  0.4784  0.1782 -0.1803
19517SOL    HW161444   5.404   2.082   8.328 -0.9193  0.5857  1.1619
19517SOL    HW261445   5.287   2.069   8.232  1.4160 -0.2235 -1.7371
19518SOL     OW61446   0.950   4.636   9.038 -0.1103 -0.0299  0.3443
19518SOL    HW161447   1.007   4.614   8.964  0.2321 -0.6923  0.7889
19518SOL    HW261448   0.993   4.711   9.080  0.5151 -0.5928  0.7434
19519SOL     OW61449   5.314   1.173   3.578 -0.0979 -0.1584  0.0270
19519SOL    HW161450   5.246   1.116   3.541  0.3701  0.1043 -1.2872
19519SOL    HW261451   5.383   1.112   3.607 -0.7156 -0.4012  1.0368
19520SOL     OW61452   7.377   5.685  10.439  0.2040  0.2464  0.0871
19520SOL    HW161453   7.415   5.694  10.352  0.2064  0.4029  0.1031
19520SOL    HW261454   7.434   5.738  10.495  2.2216 -2.4761  0.8147
19521SOL     OW61455   0.259   7.583   5.506 -0.7504 -0.3131  0.2815
19521SOL    HW161456   0.332   7.597   5.566 -0.0090 -1.5213 -0.2919
19521SOL    HW261457   0.197   7.530   5.557 -0.4565 -0.7065  0.2409
19522SOL     OW61458   6.142   9.108   8.936  0.2631 -0.0133  0.9025
19522SOL    HW161459   6.209   9.176   8.941  0.9994 -0.5047 -1.1049
19522SOL    HW261460   6.176   9.035   8.988  0.5412  0.3194  1.1823
19523SOL     OW61461   1.409   4.277   1.916  0.4028  0.0966 -0.2806
19523SOL    HW161462   1.331   4.302   1.867 -1.3087 -1.3361  1.5734
19523SOL    HW261463   1.439   4.358   1.956 -0.6466  0.5071 -0.3092
19524SOL     OW61464   3.161  10.666   1.607 -0.0911 -0.3096  0.5159
19524SOL    HW161465   3.183  10.650   1.516 -2.6958 -0.5698 -0.1520
19524SOL    HW261466   3.154  10.762   1.614  1.4329 -0.1996  0.8300
19525SOL     OW61467   1.349   8.832   0.572  0.2345  0.1402  0.1623
19525SOL    HW161468   1.281   8.824   0.638 -0.7859 -1.1826 -0.9952
19525SOL    HW261469   1.430   8.811   0.618 -0.0694  1.8629  1.5876
19526SOL     OW61470   4.103   8.927   3.815  0.5834 -0.2067 -0.1050
19526SOL    HW161471   4.015   8.892   3.800  0.4819  0.9559 -2.9788
19526SOL    HW261472   4.144   8.927   3.728  3.6495 -1.1454  1.2052
19527SOL     OW61473   6.359   1.299   6.248 -0.1890 -0.3276  0.0443
19527SOL    HW161474   6.342   1.286   6.341  0.6588  0.3535  0.3096
19527SOL    HW261475   6.286   1.255   6.204 -1.3877  0.5837  1.0517
19528SOL     OW61476   0.428   2.892   4.152  0.3217 -0.1324 -0.2947
19528SOL    HW161477   0.359   2.953   4.175  1.2796  1.1979 -0.7928
19528SOL    HW261478   0.460   2.859   4.236 -1.3925 -1.3884 -0.0761
19529SOL     OW61479   4.273   6.248   7.865  0.1713  0.1387 -0.2451
19529SOL    HW161480   4.315   6.179   7.917  1.1996  1.8246  1.2711
19529SOL    HW261481   4.255   6.318   7.928 -2.3467  0.6444 -1.4180
19530SOL     OW61482   0.010   0.773   8.164  0.4191 -0.1190 -0.3712
19530SOL    HW161483   0.085   0.715   8.182  0.4426 -0.0604 -0.2839
19530SOL    HW261484   0.031   0.854   8.210  0.4364 -0.0022 -0.5849
19531SOL     OW61485   8.439   0.135   5.866 -0.2019  0.4948  0.0280
19531SOL    HW161486   8.344   0.136   5.873 -0.2313 -1.4307  0.2552
19531SOL    HW261487   8.462   0.044   5.848  1.5237  1.1479 -1.4498
19532SOL     OW61488   5.132   6.903   9.497  0.2352  0.4887 -0.3414
19532SOL    HW161489   5.200   6.970   9.507 -1.2903  1.9866  0.4105
19532SOL    HW261490   5.178   6.821   9.511  2.0442  1.4012 -0.6105
19533SOL     OW61491   5.244  10.361   3.822 -0.3527 -0.0081 -0.4909
19533SOL    HW161492   5.223  10.416   3.898 -1.3015  0.3926 -1.0221
19533SOL    HW261493   5.168  10.371   3.764  0.1811 -0.6274 -1.3114
19534SOL     OW61494   5.033   6.504   6.974  0.5564 -0.0932  0.0818
19534SOL    HW161495   5.123   6.498   7.006  0.2260 -1.5673  0.8521
19534SOL    HW261496   5.016   6.419   6.933 -1.0439 -0.5943  1.6194
19535SOL     OW61497   3.715   3.564   0.199  0.0068 -0.1264 -0.0113
19535SOL    HW161498   3.720   3.511   0.120  0.4395 -0.0086 -0.0665
19535SOL    HW261499   3.768   3.517   0.263 -0.9844 -0.6292  0.4534
19536SOL     OW61500   5.975   6.423   5.803  0.4883  0.8035  0.3434
19536SOL    HW161501   5.973   6.423   5.899 -0.5278 -0.2142  0.3530
19536SOL    HW261502   6.064   6.399   5.780  0.3959 -0.3146  1.0711
19537SOL     OW61503   7.094   6.940   2.193 -0.6235 -0.0154  0.4169
19537SOL    HW161504   7.021   6.981   2.239  0.2944  0.8350  1.1620
19537SOL    HW261505   7.060   6.921   2.105 -1.7620  0.2490  0.7892
19538SOL     OW61506   4.761   9.091   4.822  0.2090  0.1501 -0.3149
19538SOL    HW161507   4.732   9.153   4.890  0.0832  0.5706 -0.7510
19538SOL    HW261508   4.689   9.029   4.815  0.1027  0.2649 -0.2544
19539SOL     OW61509   4.610   6.636   0.957 -0.3139  0.1021  0.0092
19539SOL    HW161510   4.547   6.613   0.889  0.5349  0.7579 -1.0312
19539SOL    HW261511   4.688   6.666   0.909 -0.4583  2.7204  1.2048
19540SOL     OW61512   8.592   6.930   7.059  0.3008  0.3768 -0.1551
19540SOL    HW161513   8.677   6.886   7.062 -0.4599 -1.0941  1.9308
19540SOL    HW261514   8.546   6.889   6.985  1.0020  0.4329 -0.6267
19541SOL     OW61515   4.994   5.479   4.296  0.3989  0.2264  0.6438
19541SOL    HW161516   4.904   5.513   4.297  1.0020  1.9073  1.4853
19541SOL    HW261517   5.020   5.483   4.204 -0.5140 -0.7084  0.3226
19542SOL     OW61518   0.598   9.890   3.153  0.2405 -0.1057 -0.1724
19542SOL    HW161519   0.601   9.836   3.231  1.2387 -0.5534 -0.5098
19542SOL    HW261520   0.536   9.845   3.095  0.0680 -0.1714  0.0618
19543SOL     OW61521   5.710   3.375  10.011 -0.1724  0.0416  0.0034
19543SOL    HW161522   5.740   3.317   9.941 -1.8866 -0.5133 -0.3141
19543SOL    HW261523   5.688   3.315  10.083 -0.4928  0.4239  0.2254
19544SOL     OW61524   1.242   9.332   4.890 -0.2625 -0.0871 -0.1721
19544SOL    HW161525   1.235   9.424   4.866 -0.0343 -0.0306 -0.0212
19544SOL    HW261526   1.317   9.328   4.950  1.1899 -0.7123 -1.9265
19545SOL     OW61527  10.073   4.313   3.384 -0.0109 -0.1925  0.2608
19545SOL    HW161528  10.092   4.396   3.429 -0.0338  1.2236 -2.1970
19545SOL    HW261529  10.139   4.252   3.417  0.6256  1.0715  1.3909
19546SOL     OW61530   9.300   9.265   8.495 -0.2407  0.4251 -0.3069
19546SOL    HW161531   9.286   9.323   8.420 -0.3307  1.4041  0.4470
19546SOL    HW261532   9.243   9.299   8.563 -0.0208 -0.3381  0.2778
19547SOL     OW61533   6.334   1.954   0.420  0.4484  0.8766  0.1720
19547SOL    HW161534   6.267   1.986   0.479  0.4203  1.4704 -0.1714
19547SOL    HW261535   6.364   2.032   0.373 -0.7836  0.1935 -1.8657
19548SOL     OW61536   6.830   2.543   1.251  0.1285 -0.3813  0.0886
19548SOL    HW161537   6.891   2.608   1.286 -2.7710  2.0808  1.0031
19548SOL    HW261538   6.849   2.541   1.157  2.0030 -0.2355  0.4256
19549SOL     OW61539   4.167  10.329   0.065 -0.3713  0.1506 -0.5124
19549SOL    HW161540   4.097  10.282   0.019  1.5751 -2.0006 -1.4960
19549SOL    HW261541   4.154  10.304   0.157 -0.3360 -1.0522 -0.8116
19550SOL     OW61542   4.776   1.095   1.324 -0.0941  0.6906 -0.0013
19550SOL    HW161543   4.731   1.164   1.275  1.1304  1.7328  0.2779
19550SOL    HW261544   4.774   1.125   1.415 -1.7991 -0.9223  0.5636
19551SOL     OW61545   7.454   5.777   1.003  0.0708 -0.5126  0.2000
19551SOL    HW161546   7.501   5.837   0.944 -2.1190  0.6917 -0.4119
19551SOL    HW261547   7.516   5.705   1.018  1.8904  0.7264 -0.9683
19552SOL     OW61548   5.173   4.354   0.145 -0.0104 -0.1931  0.3671
19552SOL    HW161549   5.134   4.428   0.099  0.8169 -1.1689 -2.0597
19552SOL    HW261550   5.194   4.388   0.232  0.0426  2.3117 -0.5633
19553SOL     OW61551   1.706   1.539   3.377  0.3481  0.5386 -0.5013
19553SOL    HW161552   1.734   1.583   3.297 -0.1390 -0.6754 -1.3726
19553SOL    HW261553   1.737   1.449   3.368  0.4224  0.4092  0.7565
19554SOL     OW61554   7.668  10.329   8.485  0.3115 -0.1527 -0.2809
19554SOL    HW161555   7.652  10.314   8.578 -1.7474 -3.6909 -1.0304
19554SOL    HW261556   7.741  10.272   8.464 -0.8004 -1.2846 -1.2352
19555SOL     OW61557   8.706   0.040   4.932  0.4265  0.4407 -0.2399
19555SOL    HW161558   8.680  -0.016   4.859  2.2248  0.1095 -0.6803
19555SOL    HW261559   8.697  -0.015   5.010  0.4057  0.1410 -0.4523
19556SOL     OW61560   2.931  10.450   4.573  0.1200 -0.1236  0.5421
19556SOL    HW161561   2.850  10.399   4.575 -0.1975  0.3746  0.5233
19556SOL    HW261562   2.921  10.508   4.497  0.0714  0.6244  1.1156
19557SOL     OW61563   1.840   7.533   1.087 -0.0256  0.9289  0.0411
19557SOL    HW161564   1.846   7.622   1.054  0.9151  0.5062 -0.9822
19557SOL    HW261565   1.929   7.498   1.077 -0.3364 -0.0595  0.6124
19558SOL     OW61566   0.034   9.876   9.300  0.2788 -0.1144  0.0795
19558SOL    HW161567   0.117   9.907   9.262 -1.1254  2.4761 -1.1768
19558SOL    HW261568   0.036   9.908   9.390 -0.0372  1.4383 -0.4450
19559SOL     OW61569   5.972   1.451   7.058 -0.1649  0.0789 -0.4321
19559SOL    HW161570   5.996   1.504   6.982 -0.4518  0.3851 -0.3104
19559SOL    HW261571   5.879   1.468   7.071 -0.6859 -1.7923 -1.4396
19560SOL     OW61572   7.919   9.703   7.258  0.4835 -0.1742  0.2289
19560SOL    HW161573   7.937   9.631   7.319 -0.7053 -1.9292 -1.3837
19560SOL    HW261574   7.827   9.724   7.272  0.7662  0.9089  0.5256
19561SOL     OW61575   8.377   0.530   0.922 -0.0269 -0.2906 -0.5176
19561SOL    HW161576   8.300   0.583   0.943  0.2084 -0.6546  1.4745
19561SOL    HW261577   8.341   0.446   0.892 -0.3817  0.1520 -1.3707
19562SOL     OW61578  10.332   9.880   9.617 -0.2695 -0.2341  0.6960
19562SOL    HW161579  10.291   9.796   9.637 -0.5483 -0.2829 -0.0271
19562SOL    HW261580  10.419   9.858   9.583  0.0958 -0.1665  1.5608
19563SOL     OW61581   9.309   9.211   7.899 -0.1297  0.4801 -0.7857
19563SOL    HW161582   9.255   9.157   7.841 -1.0446  1.2543 -0.6711
19563SOL    HW261583   9.324   9.156   7.976 -0.1781  0.0078 -1.1067
19564SOL     OW61584   6.529   5.352   3.692 -0.5436 -0.1493  0.5101
19564SOL    HW161585   6.597   5.408   3.656 -1.2266  0.4641  0.1675
19564SOL    HW261586   6.528   5.276   3.634 -0.9967  0.4056 -0.2136
19565SOL     OW61587   3.784   6.244   9.886 -0.0012 -0.3140  0.7086
19565SOL    HW161588   3.709   6.301   9.904  0.0047  0.7979 -2.2152
19565SOL    HW261589   3.844   6.299   9.835  0.7079 -2.4508 -0.9160
19566SOL     OW61590   6.871   6.806   4.080  0.4709 -0.4799 -0.3575
19566SOL    HW161591   6.818   6.807   4.159  0.3492  1.0808 -0.4409
19566SOL    HW261592   6.821   6.753   4.018 -0.4944  0.1355 -0.1110
19567SOL     OW61593   7.997   3.089   3.701 -0.1332  0.3587  0.1314
19567SOL    HW161594   8.070   3.146   3.723 -0.7553  0.9392  0.7599
19567SOL    HW261595   7.939   3.094   3.777 -2.0869  2.0080 -1.3258
19568SOL     OW61596   2.631   8.684   7.091  0.4256 -0.4389 -0.2443
19568SOL    HW161597   2.545   8.643   7.100  0.5203 -0.4106  0.9094
19568SOL    HW261598   2.693   8.612   7.098  0.5557 -0.2385  0.8547
19569SOL     OW61599   0.134   9.337   4.691 -0.4327 -0.6630  0.0854
19569SOL    HW161600   0.056   9.311   4.740  1.1045  1.3605  4.0403
19569SOL    HW261601   0.142   9.431   4.707  0.6576  0.0985 -3.7399
19570SOL     OW61602   9.299   6.701   3.773  0.1822 -0.5096  0.2740
19570SOL    HW161603   9.383   6.730   3.809  0.1946  0.5651 -0.5537
19570SOL    HW261604   9.240   6.697   3.848  0.0317  2.3230  0.4040
19571SOL     OW61605   1.675   3.601   4.537 -0.2880 -0.3174 -0.3375
19571SOL    HW161606   1.745   3.639   4.484 -0.1870 -0.6035 -0.4103
19571SOL    HW261607   1.714   3.590   4.624 -0.8222  1.2944  0.1447
19572SOL     OW61608  10.322   4.170   0.687 -0.7400  0.0273  0.1316
19572SOL    HW161609  10.287   4.251   0.649  0.1423  0.9009  1.1039
19572SOL    HW261610  10.310   4.182   0.781  1.5559  0.0982  0.4608
19573SOL     OW61611   3.018   4.731   0.635 -0.6695  0.2998 -0.2328
19573SOL    HW161612   3.071   4.685   0.570 -0.3829  0.6701 -0.2687
19573SOL    HW261613   2.937   4.681   0.641 -0.7476  0.3263 -0.9620
19574SOL     OW61614   2.278   1.073  10.440  0.0386  0.3333  0.3865
19574SOL    HW161615   2.341   1.011  10.405  0.9683  1.0910  0.6631
19574SOL    HW261616   2.205   1.019  10.471 -0.9006 -0.3755 -2.7070
19575SOL     OW61617   7.665   5.537   4.842 -0.1857 -0.1295  0.2689
19575SOL    HW161618   7.618   5.482   4.780 -0.6664  1.0532 -0.4460
19575SOL    HW261619   7.598   5.573   4.900  0.1545 -0.4902  0.9056
19576SOL     OW61620   8.486   0.830   7.284 -0.2527  0.3573  0.2637
19576SOL    HW161621   8.539   0.851   7.361  1.9321  0.8263 -1.2799
19576SOL    HW261622   8.482   0.734   7.283  2.3506  0.1895 -0.6461
19577SOL     OW61623   9.831   9.914   9.928  0.1167 -0.1108 -0.1832
19577SOL    HW161624   9.773   9.902   9.852  0.4658  2.1463 -0.8949
19577SOL    HW261625   9.902   9.851   9.914 -0.8696 -1.1457 -0.6415
19578SOL     OW61626   8.481   6.520   8.327  0.4354  0.3444 -0.1179
19578SOL    HW161627   8.466   6.426   8.318 -0.9637  0.5987 -0.7082
19578SOL    HW261628   8.570   6.534   8.294  0.9214 -0.8533  0.6227
19579SOL     OW61629   3.846   9.055   9.820  0.1737  0.0618 -0.6749
19579SOL    HW161630   3.826   8.973   9.776 -1.4040  0.7118 -1.2339
19579SOL    HW261631   3.767   9.108   9.810  0.8712  1.3667  0.3401
19580SOL     OW61632   9.440  10.586   9.787  0.3108 -0.5429  0.0958
19580SOL    HW161633   9.419  10.526   9.859 -0.7440 -2.0023 -1.3435
19580SOL    HW261634   9.535  10.582   9.779  0.4228 -0.5596  1.2050
19581SOL     OW61635   0.700   3.976   5.262  0.2116 -0.3727 -0.0980
19581SOL    HW161636   0.774   3.980   5.322 -0.2243 -2.0593  0.5832
19581SOL    HW261637   0.650   4.055   5.281  2.1072  1.1351 -1.0008
19582SOL     OW61638   7.810   6.497   0.751  0.5800 -0.2466 -0.5310
19582SOL    HW161639   7.863   6.488   0.830 -0.6292  0.9641  0.4601
19582SOL    HW261640   7.729   6.538   0.780 -0.6262 -1.3256 -2.1254
19583SOL     OW61641   7.337   3.118   0.085  0.4107 -0.0496 -0.7595
19583SOL    HW161642   7.384   3.097   0.166  1.8095 -1.7325 -1.9289
19583SOL    HW261643   7.281   3.042   0.069  0.5328  0.0359 -1.6256
19584SOL     OW61644   0.016   4.700   7.985  0.5749 -0.3450  0.0088
19584SOL    HW161645   0.065   4.732   8.060  1.9264  0.6361 -1.2141
19584SOL    HW261646   0.014   4.605   7.995  0.1734 -0.1854  1.5822
19585SOL     OW61647   1.086   6.975   7.095 -0.2616  0.0794 -0.1215
19585SOL    HW161648   1.136   6.958   7.175  0.9686  0.7467 -0.7308
19585SOL    HW261649   1.009   6.918   7.103  0.1167 -0.2793  1.2673
19586SOL     OW61650   7.409   7.962   4.064  0.4441 -0.2812 -0.8150
19586SOL    HW161651   7.387   7.911   4.143 -1.0468  0.2213 -0.8711
19586SOL    HW261652   7.363   7.917   3.993 -0.8732  1.0683 -0.8698
19587SOL     OW61653   9.905   0.683   0.968  0.0223  0.2076 -0.9700
19587SOL    HW161654   9.845   0.674   0.895 -0.4555  0.2521 -0.5899
19587SOL    HW261655   9.935   0.774   0.964 -2.1657  1.0851  0.5041
19588SOL     OW61656  10.597   8.356   1.167 -0.3832 -0.5059  0.0669
19588SOL    HW161657  10.514   8.385   1.131 -0.5872 -0.8504  0.2562
19588SOL    HW261658  10.573   8.295   1.236 -0.0698  1.1393  1.7299
19589SOL     OW61659   1.190   0.717   1.049  0.2733  0.1372 -0.0850
19589SOL    HW161660   1.125   0.662   1.005  0.0558 -0.3896  0.8555
19589SOL    HW261661   1.265   0.718   0.990 -0.8385  1.3845 -1.5618
19590SOL     OW61662   4.794  10.463   6.895  0.2706 -0.0792 -0.0607
19590SOL    HW161663   4.719  10.405   6.888 -0.2383  0.6475 -0.8575
19590SOL    HW261664   4.772  10.537   6.839  2.3052 -0.6019 -1.6488
19591SOL     OW61665   3.888   7.726   7.691 -0.5558  0.3826  0.1042
19591SOL    HW161666   3.897   7.636   7.660 -0.4228 -0.1720  1.6439
19591SOL    HW261667   3.912   7.780   7.616 -0.1656 -0.8684 -0.7094
19592SOL     OW61668   5.731   6.724  10.787  0.8326 -0.5610 -0.7051
19592SOL    HW161669   5.650   6.681  10.758  0.8204 -1.6978  0.8836
19592SOL    HW261670   5.786   6.652  10.819  0.8498  0.5469  1.9927
19593SOL     OW61671   6.411   7.654   4.849 -0.0975 -0.1212  0.2029
19593SOL    HW161672   6.423   7.607   4.931 -2.7185 -2.4928 -0.6186
19593SOL    HW261673   6.328   7.699   4.859  0.5506  1.2786 -0.4482
19594SOL     OW61674   7.508   6.292   9.819 -0.1453  0.0720  0.3355
19594SOL    HW161675   7.584   6.260   9.868  0.1207 -1.4686 -0.9995
19594SOL    HW261676   7.434   6.242   9.853 -0.5408  1.3274  1.3946
19595SOL     OW61677   9.542  10.243   3.641 -0.5312  0.1373 -0.0216
19595SOL    HW161678   9.502  10.273   3.722 -0.0257 -0.9699  0.6581
19595SOL    HW261679   9.535  10.148   3.644  0.5658  0.0096 -0.7094
19596SOL     OW61680   6.525   5.818   9.552 -0.4464 -0.2768 -0.0893
19596SOL    HW161681   6.439   5.828   9.511  0.3381  1.1883 -1.4830
19596SOL    HW261682   6.524   5.878   9.626 -0.2717  0.5719 -0.7579
19597SOL     OW61683   2.826   4.198   7.924  0.1149  0.4998 -0.2727
19597SOL    HW161684   2.883   4.126   7.951  0.3659 -0.3401 -2.8368
19597SOL    HW261685   2.741   4.176   7.961  0.4621 -0.4823 -0.0275
19598SOL     OW61686   4.961   7.939   3.646  0.2360 -0.1702 -0.2993
19598SOL    HW161687   4.895   7.981   3.590  1.6396  0.2331 -1.7072
19598SOL    HW261688   4.920   7.937   3.733 -1.0692  1.3604 -0.8206
19599SOL     OW61689   4.193   1.687   5.220 -0.1220  0.2811  0.2103
19599SOL    HW161690   4.271   1.700   5.274 -0.8400 -0.5174  1.5015
19599SOL    HW261691   4.177   1.592   5.224 -0.6129  0.3051 -0.8300
19600SOL     OW61692   7.167   1.790   6.864  0.1811  0.0414  0.1710
19600SOL    HW161693   7.112   1.791   6.785  1.6087 -1.3149 -0.9090
19600SOL    HW261694   7.186   1.698   6.879  4.1209  0.4885 -1.0073
19601SOL     OW61695   2.466   0.640   8.340 -0.2843 -0.4938 -0.3427
19601SOL    HW161696   2.510   0.560   8.368  0.2766 -0.2714 -0.5726
19601SOL    HW261697   2.386   0.643   8.393 -0.1393 -1.0210 -0.0834
19602SOL     OW61698   4.828   3.119   2.124 -0.0278  0.1410  0.9147
19602SOL    HW161699   4.858   3.149   2.038  0.3400 -0.6042  0.7760
19602SOL    HW261700   4.809   3.026   2.112  1.0011 -0.2209  1.8769
19603SOL     OW61701   0.923   7.111  10.127  0.0847 -0.5739  0.7459
19603SOL    HW161702   0.995   7.161  10.165 -0.1555 -0.4075  0.9857
19603SOL    HW261703   0.852   7.174  10.117 -0.2222 -0.8621  1.0570
19604SOL     OW61704   9.766   0.958   8.835 -0.2163 -0.0569 -0.0777
19604SOL    HW161705   9.799   1.035   8.788  0.9123 -0.7867 -0.5166
19604SOL    HW261706   9.808   0.964   8.921 -1.7116  0.8836  0.6195
19605SOL     OW61707   9.915   0.930   8.131 -0.1464 -0.0845 -0.1127
19605SOL    HW161708   9.953   0.849   8.167  1.6837  1.2723  1.1999
19605SOL    HW261709   9.947   0.933   8.041  0.6332 -0.3365  0.1480
19606SOL     OW61710   6.989   5.879   5.598  0.4643 -0.1607 -0.0102
19606SOL    HW161711   6.949   5.936   5.532  2.5367  1.1353 -0.2633
19606SOL    HW261712   7.050   5.824   5.549  1.1768  0.0054  0.6660
19607SOL     OW61713  10.705   1.072   6.639 -0.4918  0.0114  0.6500
19607SOL    HW161714  10.779   1.015   6.661  1.5509  2.2557  0.1064
19607SOL    HW261715  10.704   1.074   6.543 -1.3397 -0.0920  0.6527
19608SOL     OW61716  10.705   5.590   5.099 -0.6339 -0.4358 -0.5089
19608SOL    HW161717  10.751   5.673   5.109 -1.0294 -0.2992  0.2869
19608SOL    HW261718  10.647   5.604   5.024 -1.5833  0.4521  0.3427
19609SOL     OW61719   9.448   2.017   5.695  0.1581 -0.7980  0.6907
19609SOL    HW161720   9.364   1.972   5.703 -0.3881  0.4738  3.2099
19609SOL    HW261721   9.433   2.084   5.627 -0.2866 -1.7065 -0.1261
19610SOL     OW61722   9.378   3.038   3.174 -0.7386  0.2607 -0.0008
19610SOL    HW161723   9.387   3.069   3.264 -1.2017  0.9376 -0.1733
19610SOL    HW261724   9.465   3.007   3.150 -0.4225  0.8020  0.4211
19611SOL     OW61725   8.539   4.937   2.273 -0.0309 -0.1909 -0.3041
19611SOL    HW161726   8.453   4.897   2.257  0.1902 -1.2158  0.9023
19611SOL    HW261727   8.566   4.902   2.358  2.7981 -2.0457 -1.7971
19612SOL     OW61728   7.249   6.699   4.397 -0.2705 -0.2313 -0.9712
19612SOL    HW161729   7.284   6.759   4.331  0.3385  0.9048  0.3424
19612SOL    HW261730   7.157   6.725   4.405  0.0169  0.6275 -0.3282
19613SOL     OW61731   8.503   3.418   6.532 -0.1194 -0.4464 -0.2313
19613SOL    HW161732   8.425   3.473   6.532  0.9425  1.1326  0.8144
19613SOL    HW261733   8.470   3.330   6.512 -2.1162  0.2171 -0.0724
19614SOL     OW61734   8.492   8.799   1.985 -0.3421 -0.0581 -0.9692
19614SOL    HW161735   8.544   8.835   2.057 -0.4781  0.9179 -1.3438
19614SOL    HW261736   8.409   8.774   2.026 -0.2289  0.0119 -0.6930
19615SOL     OW61737   9.694   1.545   5.399  0.5183 -0.2853  0.3074
19615SOL    HW161738   9.628   1.494   5.447 -0.5139  2.3849  1.9554
19615SOL    HW261739   9.697   1.629   5.445  1.3141  1.5768 -2.8608
19616SOL     OW61740   4.236   6.261   0.064  0.7148  0.0963  0.6678
19616SOL    HW161741   4.201   6.207  -0.007  0.5222  0.4819  0.4668
19616SOL    HW261742   4.268   6.198   0.128  0.8470 -0.2578  0.2615
19617SOL     OW61743   1.354   7.474   0.314 -0.4309  0.7077 -0.3735
19617SOL    HW161744   1.333   7.428   0.233 -0.3320 -0.2908  0.1548
19617SOL    HW261745   1.270   7.508   0.344 -0.6987 -0.0765 -0.2034
19618SOL     OW61746   3.864   5.323   6.299  0.1388  0.4879 -0.0526
19618SOL    HW161747   3.785   5.359   6.340 -0.7051 -0.0628 -1.1468
19618SOL    HW261748   3.861   5.354   6.209  0.3819 -0.7506 -0.5052
19619SOL     OW61749   0.265   8.981   5.241  0.1720 -0.6364  0.4859
19619SOL    HW161750   0.294   8.944   5.157  0.0451  0.4884 -0.0661
19619SOL    HW261751   0.335   9.040   5.267 -0.4064  0.0737  0.4694
19620SOL     OW61752   3.934   8.233   7.922 -0.1697  0.6457  0.0904
19620SOL    HW161753   3.931   8.138   7.907  0.6387  0.2332  2.2095
19620SOL    HW261754   3.843   8.262   7.911 -0.1921 -0.0648 -2.1014
19621SOL     OW61755   9.746  10.427   9.231  0.0190  0.0148  0.1806
19621SOL    HW161756   9.698  10.451   9.309  0.2692 -0.8731  0.6243
19621SOL    HW261757   9.717  10.490   9.164 -0.2369  0.7396  0.9600
19622SOL     OW61758   9.663   3.373   9.676 -0.5315  0.0525 -0.0320
19622SOL    HW161759   9.746   3.337   9.708 -1.1354 -1.8507 -0.5258
19622SOL    HW261760   9.677   3.387   9.582 -0.8974 -0.6515 -0.1931
19623SOL     OW61761   7.150   9.131   9.915 -0.0647  0.0402  0.5297
19623SOL    HW161762   7.148   9.038   9.894 -0.0197 -0.0915  1.0910
19623SOL    HW261763   7.058   9.158   9.913 -0.0042  0.2056 -0.5721
19624SOL     OW61764   9.421   5.183   9.396 -0.3349 -0.8493  0.4482
19624SOL    HW161765   9.356   5.183   9.466 -0.7427 -0.3571  0.0784
19624SOL    HW261766   9.452   5.274   9.392 -0.8454 -0.6945 -0.4729
19625SOL     OW61767   7.047   4.629   3.647  0.1132  0.2533 -0.0341
19625SOL    HW161768   7.082   4.632   3.558  0.2555 -0.3882 -0.0082
19625SOL    HW261769   7.038   4.535   3.665 -0.0750  0.3862  0.5652
19626SOL     OW61770   9.935   0.220   4.952  0.0881  0.1339  0.4608
19626SOL    HW161771   9.919   0.142   5.005 -2.4004 -1.5835 -2.4131
19626SOL    HW261772  10.028   0.217   4.932  0.1076 -2.0782  0.6184
19627SOL     OW61773   7.641   4.907   6.058  0.2559 -0.6500  0.7142
19627SOL    HW161774   7.733   4.924   6.080 -0.2958  1.6218  1.5492
19627SOL    HW261775   7.623   4.964   5.983 -0.1813 -2.0063 -0.2563
19628SOL     OW61776   9.955   7.470   1.879  0.6148 -0.5833  0.2935
19628SOL    HW161777   9.947   7.459   1.784 -0.2575 -0.5163  0.3573
19628SOL    HW261778   9.978   7.383   1.911  0.1781 -0.7733  0.0954
19629SOL     OW61779   4.682   0.295   6.468 -0.2319  0.5303 -0.5957
19629SOL    HW161780   4.609   0.295   6.406  1.2952 -0.1522 -2.5103
19629SOL    HW261781   4.691   0.387   6.494 -0.4547  0.9720 -1.9865
19630SOL     OW61782   2.597   0.915   8.959  0.0966 -0.1525  0.7550
19630SOL    HW161783   2.650   0.837   8.943 -1.7742 -1.1180 -1.4933
19630SOL    HW261784   2.507   0.883   8.956 -0.7134  1.9599  0.6348
19631SOL     OW61785   5.021   8.345   8.814  0.4441 -0.4014 -0.1921
19631SOL    HW161786   5.090   8.340   8.880 -1.2363  0.3267  1.7378
19631SOL    HW261787   4.971   8.264   8.825  0.3533 -0.4379 -0.8321
19632SOL     OW61788   0.567   6.584  10.742  0.1800  0.2025 -0.5403
19632SOL    HW161789   0.600   6.618  10.658 -0.2027 -2.4964 -1.8843
19632SOL    HW261790   0.508   6.513  10.717 -0.9096  0.1227  2.0339
19633SOL     OW61791   1.647   9.060   6.433 -0.5558 -0.2592  0.5098
19633SOL    HW161792   1.703   8.985   6.452  0.5897  0.5980  0.6301
19633SOL    HW261793   1.581   9.059   6.503  0.4511 -0.1890  1.4822
19634SOL     OW61794   1.767  10.259   4.266  0.0588  0.1720 -0.4955
19634SOL    HW161795   1.794  10.292   4.180 -0.9006  0.6753 -0.6158
19634SOL    HW261796   1.784  10.331   4.327 -1.1253  0.5654 -0.6012
19635SOL     OW61797   6.025   6.448   3.839  0.3037 -0.5434 -0.1993
19635SOL    HW161798   5.963   6.408   3.900 -0.6747 -0.0521 -0.8290
19635SOL    HW261799   5.971   6.507   3.785  1.2975 -0.2084 -0.8718
19636SOL     OW61800   1.736   7.785   3.302  0.3477 -0.4802  0.2296
19636SOL    HW161801   1.728   7.859   3.242  0.7343 -0.4444  0.2148
19636SOL    HW261802   1.831   7.771   3.309  0.3023 -0.4952  0.8218
19637SOL     OW61803   0.413  10.398  10.605 -0.6283 -0.2517 -0.1991
19637SOL    HW161804   0.455  10.476  10.640 -0.7326 -0.1962 -0.1972
19637SOL    HW261805   0.483  10.351  10.560 -0.1234 -1.1223  1.4180
19638SOL     OW61806   9.066   8.399   6.843 -0.5449 -0.6946 -0.3798
19638SOL    HW161807   9.040   8.457   6.772  1.0088  1.0757  0.4274
19638SOL    HW261808   9.104   8.323   6.799 -1.0036 -0.3334 -1.4375
19639SOL     OW61809  10.189   0.356   3.293  0.5686  0.2407 -0.3121
19639SOL    HW161810  10.210   0.281   3.350  0.7452  0.7984  0.3646
19639SOL    HW261811  10.183   0.318   3.205  0.9896 -0.5116 -0.0228
19640SOL     OW61812  10.537   7.914   9.576  0.0586 -0.2967  0.1140
19640SOL    HW161813  10.474   7.978   9.611  0.0944 -1.0888  1.7536
19640SOL    HW261814  10.532   7.924   9.481  0.0860  2.1409  0.3086
19641SOL     OW61815   6.761   1.009   5.132 -0.4614  0.1333 -0.0419
19641SOL    HW161816   6.674   0.972   5.143 -1.0842  1.3716 -0.6589
19641SOL    HW261817   6.749   1.103   5.143  1.3692  0.1352  3.3666
19642SOL     OW61818   8.488   3.665  10.269 -0.0899 -0.2186  0.0668
19642SOL    HW161819   8.557   3.716  10.311  3.5537 -3.2798 -1.6561
19642SOL    HW261820   8.473   3.709  10.185  0.0964  0.1754  0.2373
19643SOL     OW61821   5.360   9.766   3.004 -0.0306  0.3837 -0.4330
19643SOL    HW161822   5.434   9.706   3.015 -0.0996 -0.0149 -1.9918
19643SOL    HW261823   5.397   9.844   2.964 -0.5187 -0.0728 -1.8466
19644SOL     OW61824   3.692   9.486   1.689 -0.3811  0.3688  0.0246
19644SOL    HW161825   3.771   9.433   1.680 -1.4079 -0.8961 -2.5171
19644SOL    HW261826   3.669   9.511   1.599 -1.7686  2.4313  0.8609
19645SOL     OW61827   0.802   8.526   9.449 -0.3026  0.0233  0.1525
19645SOL    HW161828   0.859   8.475   9.506 -0.5695 -0.2234  0.1979
19645SOL    HW261829   0.830   8.502   9.360 -1.7163 -1.7059  0.1247
19646SOL     OW61830   5.315   1.024   3.228 -0.4600 -0.5658  0.6506
19646SOL    HW161831   5.330   1.064   3.314  2.7129 -3.5566  1.7056
19646SOL    HW261832   5.381   1.064   3.172  0.6219 -1.9301  0.9034
19647SOL     OW61833   9.478   6.904   9.423  0.4090 -0.1694  0.3047
19647SOL    HW161834   9.425   6.831   9.456 -0.7292  0.2958 -0.4527
19647SOL    HW261835   9.498   6.881   9.332  2.5700 -0.9014  0.8958
19648SOL     OW61836   1.281   1.879   9.675 -0.3754  0.6858 -0.1264
19648SOL    HW161837   1.255   1.814   9.741 -0.6901  2.6363  1.8224
19648SOL    HW261838   1.209   1.879   9.612 -2.0845  1.4702  1.7054
19649SOL     OW61839   5.555   4.159   5.078  0.4817 -0.0665  0.0174
19649SOL    HW161840   5.484   4.098   5.098  0.5449 -0.3890 -0.6952
19649SOL    HW261841   5.520   4.216   5.010  0.6796  0.2082  0.1416
19650SOL     OW61842   1.104   0.871   8.819 -0.6854  0.2437  0.3063
19650SOL    HW161843   1.116   0.965   8.805 -1.1636  0.5631  1.8442
19650SOL    HW261844   1.010   0.860   8.831 -0.4151 -0.0240  2.5350
19651SOL     OW61845   9.287  10.167   3.470 -0.6955  0.3294 -0.8714
19651SOL    HW161846   9.359  10.118   3.431  0.3405  0.4913  0.7181
19651SOL    HW261847   9.216  10.160   3.408  1.2394  1.7154 -3.4589
19652SOL     OW61848   2.211  10.513   0.453 -0.5721 -0.0887 -0.2954
19652SOL    HW161849   2.259  10.489   0.374  1.2557  0.4614  0.6090
19652SOL    HW261850   2.198  10.431   0.500 -1.7071 -0.4229 -1.1570
19653SOL     OW61851   8.449   9.129   0.732 -0.3173  0.1891  0.2709
19653SOL    HW161852   8.436   9.038   0.759 -0.6719  0.6298  1.6277
19653SOL    HW261853   8.505   9.122   0.654 -1.2805 -1.2502 -0.3476
19654SOL     OW61854   1.938   6.162   0.363  0.0308  0.4835  0.0231
19654SOL    HW161855   1.869   6.191   0.304  0.4996 -1.3830 -1.5375
19654SOL    HW261856   1.914   6.073   0.388  0.2964  0.9152  2.0140
19655SOL     OW61857   0.746   5.925   1.774  0.7390  0.3519 -0.4908
19655SOL    HW161858   0.759   5.958   1.686  1.7185  0.7656 -0.1983
19655SOL    HW261859   0.757   6.001   1.831 -1.0724  0.3500 -0.0589
19656SOL     OW61860   1.581   9.610   6.927  0.6402 -0.1711 -0.4433
19656SOL    HW161861   1.580   9.539   6.991  0.4677 -1.4337 -1.7926
19656SOL    HW261862   1.578   9.690   6.980  2.5316 -1.0995  1.2004
19657SOL     OW61863   9.677   8.120   0.699 -0.6584 -0.2450  0.2101
19657SOL    HW161864   9.669   8.156   0.611 -1.7570 -0.6769  0.1156
19657SOL    HW261865   9.769   8.132   0.722 -0.3987  0.0241 -0.9240
19658SOL     OW61866   3.851   9.874   7.449  0.1564  1.0014 -0.2337
19658SOL    HW161867   3.901   9.823   7.386 -1.3808 -1.3876  0.3500
19658SOL    HW261868   3.785   9.919   7.397 -1.0400 -0.8786 -0.4351
19659SOL     OW61869   8.643   8.599   2.248 -0.1736  0.6416 -0.4674
19659SOL    HW161870   8.648   8.555   2.163  0.6631  0.0714 -0.1323
19659SOL    HW261871   8.664   8.690   2.228  0.9307  0.3449 -0.7592
19660SOL     OW61872   7.945   5.615   4.950  0.2242  0.0203  0.3303
19660SOL    HW161873   7.996   5.656   4.880 -0.4158  1.8041  0.8359
19660SOL    HW261874   7.871   5.573   4.905  0.3836  0.2384 -0.1421
19661SOL     OW61875   6.294  10.436   1.613  0.4601  0.2542  0.4097
19661SOL    HW161876   6.370  10.451   1.669  0.4103 -0.5339  0.7078
19661SOL    HW261877   6.323  10.461   1.525  0.3298  2.1373  0.8638
19662SOL     OW61878   8.082   1.231   1.598 -0.2615  0.0162  0.8913
19662SOL    HW161879   8.089   1.210   1.505  0.5547  0.4356  0.8429
19662SOL    HW261880   8.166   1.203   1.636 -0.9564 -1.0484  1.6995
19663SOL     OW61881   2.316  10.745   1.784  0.2855 -0.3036 -0.4525
19663SOL    HW161882   2.285  10.819   1.836  2.5090  0.7141 -0.4567
19663SOL    HW261883   2.278  10.760   1.697  1.8004  1.7271 -0.8646
19664SOL     OW61884   1.690   5.720   7.415 -0.2111 -0.7685  0.0823
19664SOL    HW161885   1.632   5.783   7.459 -2.1744 -1.3024 -1.5611
19664SOL    HW261886   1.634   5.644   7.400  0.5304 -0.8884 -2.6217
19665SOL     OW61887   3.004   6.800   3.892  0.7466 -0.3515 -0.2841
19665SOL    HW161888   3.028   6.889   3.921  0.2880 -0.6546  1.1240
19665SOL    HW261889   2.928   6.813   3.836  2.3949  0.3726 -2.4902
19666SOL     OW61890   2.064   6.176   9.738 -0.7801 -0.3386  0.0035
19666SOL    HW161891   2.020   6.213   9.662 -3.6585 -2.5928  0.4341
19666SOL    HW261892   2.119   6.106   9.703 -0.2384  0.1453 -0.1555
19667SOL     OW61893  10.646   6.518  10.000  0.1198 -0.1571  0.0445
19667SOL    HW161894  10.704   6.526  10.076 -0.8768  1.8902  0.6416
19667SOL    HW261895  10.602   6.602   9.994 -1.9254 -1.2347 -1.1332
19668SOL     OW61896   9.012   8.118   7.421  1.0580  0.0606  0.0648
19668SOL    HW161897   9.002   8.031   7.381  3.0872 -0.9352  1.5037
19668SOL    HW261898   9.022   8.178   7.347 -0.1872 -0.9246 -0.9588
19669SOL     OW61899   3.788  10.155   9.870 -0.4367 -0.0086 -0.4117
19669SOL    HW161900   3.698  10.174   9.845  0.1166  1.6164 -1.3326
19669SOL    HW261901   3.841  10.213   9.815  1.2217 -1.4981 -0.4762
19670SOL     OW61902   9.701   6.704   5.589 -0.3991  0.7481  0.1922
19670SOL    HW161903   9.678   6.767   5.658  1.0736  1.6247 -0.0663
19670SOL    HW261904   9.617   6.667   5.561 -1.1579  1.4787  1.4106
19671SOL     OW61905   5.489   3.329   7.450 -0.0372 -0.1123  0.7828
19671SOL    HW161906   5.487   3.425   7.450 -3.2490 -0.0485  1.5494
19671SOL    HW261907   5.522   3.306   7.536 -0.3507  0.3569  1.0383
19672SOL     OW61908  10.521   9.043   5.984  0.2866 -0.0411 -0.2552
19672SOL    HW161909  10.599   9.005   5.943 -0.2631 -3.3458  1.4329
19672SOL    HW261910  10.550   9.129   6.016  1.5221  1.4589 -4.6655
19673SOL     OW61911   1.893   0.397   7.265 -0.1722  0.7976  0.1328
19673SOL    HW161912   1.945   0.345   7.326  0.9886  0.8532 -0.7676
19673SOL    HW261913   1.930   0.485   7.272 -0.4484  0.9370 -0.1837
19674SOL     OW61914   0.372   4.959   4.961  0.0525 -0.1802 -0.0640
19674SOL    HW161915   0.356   5.047   4.997 -0.5383 -0.6363  0.8427
19674SOL    HW261916   0.385   4.973   4.868  0.3931  0.9241  0.1369
19675SOL     OW61917   5.178  10.644   6.153  0.2108  1.1535 -0.3768
19675SOL    HW161918   5.231  10.621   6.230  0.9235  1.8267 -0.6499
19675SOL    HW261919   5.213  10.589   6.083  0.5232  1.5572 -0.5436
19676SOL     OW61920   1.915   2.750   0.433  0.2326 -0.0818  0.3067
19676SOL    HW161921   1.887   2.659   0.445  0.9434 -0.6988 -2.1875
19676SOL    HW261922   1.833   2.799   0.427 -0.1816 -0.2353  3.1240
19677SOL     OW61923  10.380   0.894   9.909 -0.0778  0.2646 -0.5946
19677SOL    HW161924  10.356   0.868   9.820 -0.7744  0.4009 -0.4548
19677SOL    HW261925  10.357   0.818   9.963  3.2620 -1.1259 -0.8714
19678SOL     OW61926   1.988   4.055   3.649 -0.5772 -0.0303 -0.2340
19678SOL    HW161927   1.940   4.000   3.711 -1.1737  0.5504 -0.1710
19678SOL    HW261928   1.997   4.001   3.571 -0.0116 -0.6887  0.2756
19679SOL     OW61929   6.566   7.341   1.885 -0.2893  0.0203 -1.0549
19679SOL    HW161930   6.522   7.268   1.841 -3.9529 -0.5665  2.9161
19679SOL    HW261931   6.609   7.301   1.960  0.9095  1.5369 -0.8927
19680SOL     OW61932   1.670   6.920   9.383 -0.3106  0.4732 -0.3355
19680SOL    HW161933   1.578   6.937   9.362 -0.2905 -0.0528 -0.8976
19680SOL    HW261934   1.704   7.003   9.414 -0.5721  1.0750 -1.6136
19681SOL     OW61935   2.974   1.670   6.092  0.2017 -0.6516 -0.0450
19681SOL    HW161936   2.893   1.675   6.041  0.7866  0.0815 -0.9344
19681SOL    HW261937   3.039   1.637   6.030  1.6437  3.0132 -0.7513
19682SOL     OW61938   1.960   6.999   0.706  0.6840  0.4039  0.8683
19682SOL    HW161939   1.864   7.000   0.704  0.5724  0.3904  3.3479
19682SOL    HW261940   1.983   6.907   0.689  0.1512  0.0705  1.8501
19683SOL     OW61941   9.128   2.344   1.725 -0.7246  0.2761  0.0799
19683SOL    HW161942   9.122   2.384   1.638  2.2767  2.3237  0.6707
19683SOL    HW261943   9.172   2.409   1.779 -1.7076 -1.2659  2.9781
19684SOL     OW61944   0.620  10.313   9.335 -0.1843  0.1895 -0.5916
19684SOL    HW161945   0.626  10.218   9.345 -2.5475 -0.0878 -1.2403
19684SOL    HW261946   0.616  10.327   9.241 -0.6202  0.8551 -0.4812
19685SOL     OW61947   0.959   0.797   0.850  0.5815 -0.2514 -0.3482
19685SOL    HW161948   0.874   0.827   0.819  0.9537  0.5743 -0.6240
19685SOL    HW261949   1.019   0.819   0.778  1.6689  2.7103  1.2618
19686SOL     OW61950   5.386   4.654  10.786 -0.4786  0.3731  0.5870
19686SOL    HW161951   5.409   4.747  10.792 -0.0012  0.3584 -0.6802
19686SOL    HW261952   5.441   4.612  10.852 -0.3059  0.9222  0.8007
19687SOL     OW61953   5.316   8.533   4.371  0.4205 -0.9656  0.1834
19687SOL    HW161954   5.396   8.536   4.424  0.8947 -1.5006 -0.4956
19687SOL    HW261955   5.257   8.476   4.420  0.8586 -1.4608  0.1359
19688SOL     OW61956   9.496   5.296   2.019 -0.0650 -0.7063 -0.0298
19688SOL    HW161957   9.458   5.378   1.986  1.7376  0.6256  1.0555
19688SOL    HW261958   9.448   5.228   1.971 -1.7346  0.9339 -0.8750
19689SOL     OW61959   5.823   0.369   0.875  0.3257 -0.7402  0.0703
19689SOL    HW161960   5.863   0.321   0.948  0.2030 -1.7127 -0.4863
19689SOL    HW261961   5.894   0.423   0.840  0.6338 -0.9839  0.3126
19690SOL     OW61962   2.948   2.286   2.485 -0.3971  0.2099  0.1695
19690SOL    HW161963   2.916   2.349   2.420  0.4421  0.2979 -0.1725
19690SOL    HW261964   3.033   2.258   2.451 -1.0769 -1.6738 -0.0478
19691SOL     OW61965  10.795   2.125   7.310  0.5397 -0.2642 -0.0575
19691SOL    HW161966  10.774   2.145   7.219 -0.4088 -2.5659 -0.4213
19691SOL    HW261967  10.716   2.083   7.344  1.3832 -0.7363  1.3927
19692SOL     OW61968   6.322   3.064   1.061  0.0191 -0.3536  0.4620
19692SOL    HW161969   6.288   3.038   1.147 -0.6313 -0.0346  0.3095
19692SOL    HW261970   6.307   3.158   1.057  1.7573 -0.0431  0.7454
19693SOL     OW61971   6.089  10.760   4.517  0.0364  0.3013  0.7484
19693SOL    HW161972   5.996  10.772   4.500 -0.0023 -1.5244 -0.5677
19693SOL    HW261973   6.097  10.671   4.551  1.5665 -0.6531 -1.8761
19694SOL     OW61974   7.848   9.115   3.763 -0.0840 -0.0914  0.1442
19694SOL    HW161975   7.836   9.209   3.744  0.9736 -0.2690 -1.6290
19694SOL    HW261976   7.846   9.073   3.677  0.5147 -1.5821  0.8278
19695SOL     OW61977   8.196   2.203   1.755 -0.4576 -0.3388 -0.2632
19695SOL    HW161978   8.259   2.272   1.771 -1.1249  0.2525 -0.1464
19695SOL    HW261979   8.207   2.182   1.662  0.4962 -0.8476 -0.0504
19696SOL     OW61980   7.226   0.931   5.870  0.1378  0.6945  0.7906
19696SOL    HW161981   7.220   0.838   5.894  1.8668  0.7165  1.3777
19696SOL    HW261982   7.267   0.973   5.946  0.4104  1.7471  0.0758
19697SOL     OW61983   5.010   4.498   6.989 -0.1810 -0.1947 -0.1693
19697SOL    HW161984   4.999   4.545   6.906 -1.9953 -0.0556  0.1112
19697SOL    HW261985   5.095   4.527   7.022 -0.1431  0.9670 -1.2185
19698SOL     OW61986   0.609   9.685  10.687  0.0664  0.0361 -0.3061
19698SOL    HW161987   0.638   9.667  10.598  1.1438 -0.1228  0.0608
19698SOL    HW261988   0.602   9.780  10.692  0.5219  0.0741 -0.4046
19699SOL     OW61989   4.817   9.504   5.207 -0.3834 -0.0216 -0.0108
19699SOL    HW161990   4.855   9.424   5.244 -0.2988 -1.5596 -3.0874
19699SOL    HW261991   4.734   9.475   5.168 -1.2930  1.8280  0.4383
19700SOL     OW61992   3.951   3.809  10.649  0.1335 -0.3742  0.0914
19700SOL    HW161993   3.998   3.884  10.611 -1.2448  0.7946  0.6045
19700SOL    HW261994   3.959   3.821  10.743 -3.5128  1.5563  0.3436
19701SOL     OW61995   8.092   5.804   8.521 -0.1871  0.2439  0.5436
19701SOL    HW161996   8.162   5.739   8.527 -1.0403 -0.9160 -1.1854
19701SOL    HW261997   8.115   5.870   8.587  0.3877 -2.0965  2.8937
19702SOL     OW61998   7.112   4.552   7.071  0.1863  0.1959 -0.4498
19702SOL    HW161999   7.144   4.632   7.029 -1.0209  0.1626 -1.5051
19702SOL    HW262000   7.050   4.515   7.007 -0.2279 -0.9072  0.5602
19703SOL     OW62001   7.604   6.800   5.296  0.2344 -0.1329 -0.1431
19703SOL    HW162002   7.640   6.780   5.382  2.0077  1.5213 -0.4572
19703SOL    HW262003   7.528   6.855   5.314  0.2154 -0.3222  0.3742
19704SOL     OW62004   3.814   1.736   3.429 -0.2542  0.2391  0.6577
19704SOL    HW162005   3.849   1.824   3.439 -0.5633  0.2989  1.2579
19704SOL    HW262006   3.890   1.678   3.440  0.2903  0.4586 -1.4677
19705SOL     OW62007   0.409   8.565   3.245 -0.0844  0.5028 -0.4581
19705SOL    HW162008   0.400   8.660   3.252  0.2197  0.6073 -1.3284
19705SOL    HW262009   0.356   8.542   3.168  0.1164  0.0164 -0.4534
19706SOL     OW62010   7.453   2.576   8.895  0.3022  0.3527  0.0623
19706SOL    HW162011   7.406   2.513   8.840 -0.9836 -0.4110  1.9404
19706SOL    HW262012   7.426   2.661   8.863  1.5191  0.0144 -2.0685
19707SOL     OW62013   7.492   9.981   9.384  1.0696 -0.8479 -0.0228
19707SOL    HW162014   7.408   9.963   9.427  1.0564 -1.4245 -0.2824
19707SOL    HW262015   7.511   9.901   9.335  1.4511 -0.4750 -0.4876
19708SOL     OW62016   8.731   1.710   9.453  0.0219 -0.3797  0.2406
19708SOL    HW162017   8.635   1.704   9.453 -0.0287 -0.2354 -1.5221
19708SOL    HW262018   8.750   1.776   9.385  1.3804 -0.7932  0.2050
19709SOL     OW62019   8.356   3.701   8.408 -0.5978  0.1110 -1.0292
19709SOL    HW162020   8.449   3.687   8.386 -0.8154 -1.5824 -0.9788
19709SOL    HW262021   8.354   3.699   8.503 -0.7981 -0.7022 -1.0471
19710SOL     OW62022   1.781   2.839   8.125  0.3046 -0.2461 -0.2765
19710SOL    HW162023   1.811   2.793   8.203 -1.0300 -0.2039  0.3047
19710SOL    HW262024   1.792   2.777   8.053 -0.0054 -0.9008  0.2371
19711SOL     OW62025   7.116   2.278   0.631  0.5285 -0.1364 -0.2767
19711SOL    HW162026   7.120   2.187   0.604  1.5734 -0.0854 -0.3235
19711SOL    HW262027   7.199   2.294   0.676  0.8702  1.0915 -1.2734
19712SOL     OW62028   1.284   4.917   8.264 -0.1301  0.2505 -0.4736
19712SOL    HW162029   1.304   4.852   8.331  0.8471  0.3717 -0.6347
19712SOL    HW262030   1.189   4.927   8.268  0.0200  1.6939  2.2867
19713SOL     OW62031  10.284   3.983   0.188 -0.0395 -0.0222  0.1737
19713SOL    HW162032  10.285   3.890   0.165 -0.2938 -0.4947  1.9549
19713SOL    HW262033  10.192   4.002   0.205 -0.1677  0.8946 -1.3042
19714SOL     OW62034   3.283   8.475   1.182 -0.0480  0.0610 -0.7196
19714SOL    HW162035   3.228   8.434   1.248  0.3821  1.3793  0.5044
19714SOL    HW262036   3.225   8.538   1.139  0.3668  1.2168  0.3502
19715SOL     OW62037   8.488   1.009   4.978  0.4499 -0.0218  0.4519
19715SOL    HW162038   8.433   1.048   5.045  2.0438 -0.0313  1.8411
19715SOL    HW262039   8.513   1.083   4.921  0.8430  0.4053  1.1660
19716SOL     OW62040   2.090   9.912   9.998 -0.3688 -0.4680 -0.4267
19716SOL    HW162041   2.002   9.875  10.006 -1.4177  1.7201 -1.1582
19716SOL    HW262042   2.119   9.926  10.088  0.1403 -3.0505 -0.0981
19717SOL     OW62043   7.955   2.918   0.708 -0.3488 -0.3660  0.0802
19717SOL    HW162044   7.861   2.933   0.701 -0.6403 -1.8894  0.3719
19717SOL    HW262045   7.995   2.988   0.655 -1.7061 -0.8993 -1.7370
19718SOL     OW62046   7.722   2.767   1.347  0.1997  0.4439  0.0280
19718SOL    HW162047   7.674   2.770   1.265 -1.3563  0.4761  0.8887
19718SOL    HW262048   7.743   2.858   1.367  0.7841  0.4158 -0.4276
19719SOL     OW62049   2.977   9.271   2.949  0.2174 -0.4213  0.3264
19719SOL    HW162050   2.939   9.307   2.869 -0.2870 -0.6494  0.4615
19719SOL    HW262051   2.910   9.213   2.984  1.0818 -1.6409  0.0348
19720SOL     OW62052   6.685   5.466   4.237  0.1498  0.7805 -0.0289
19720SOL    HW162053   6.669   5.456   4.143 -1.9588 -2.5100  0.4940
19720SOL    HW262054   6.610   5.518   4.268 -0.2498  0.1559  0.0717
19721SOL     OW62055   2.231   6.979   5.163 -0.0517 -0.3881  0.1154
19721SOL    HW162056   2.289   6.928   5.219  0.8960  1.7926  1.2319
19721SOL    HW262057   2.163   7.012   5.222 -1.4613 -1.4418 -0.8521
19722SOL     OW62058   4.756   7.168   7.634  0.0354 -0.4912 -0.3133
19722SOL    HW162059   4.688   7.102   7.627 -0.0625 -0.4651  0.3369
19722SOL    HW262060   4.754   7.214   7.550 -0.0269 -1.1775 -0.6969
19723SOL     OW62061   3.641   0.799   0.731 -0.5608  0.5809 -0.4413
19723SOL    HW162062   3.579   0.729   0.709 -0.9685  0.5595  0.7201
19723SOL    HW262063   3.586   0.877   0.741 -0.3963  0.5927  0.4424
19724SOL     OW62064   7.901   6.209   6.379 -0.2507 -0.0130 -0.5445
19724SOL    HW162065   7.985   6.183   6.343  1.3328  0.6540  2.3523
19724SOL    HW262066   7.869   6.132   6.425 -0.2928  0.3032 -0.0384
19725SOL     OW62067   5.239   4.150   3.518  0.1767 -0.3954 -0.3441
19725SOL    HW162068   5.177   4.204   3.468  0.6009  1.7808  1.3375
19725SOL    HW262069   5.316   4.143   3.461  0.6038  1.9325 -0.1407
19726SOL     OW62070   4.865   3.473   0.044 -0.1775  0.2019  0.5798
19726SOL    HW162071   4.928   3.523  -0.008 -0.2402 -1.7197 -1.5235
19726SOL    HW262072   4.783   3.477  -0.007 -0.6968 -0.4301  1.3434
19727SOL     OW62073   5.020   8.464   4.937  0.1873  0.0314  0.3021
19727SOL    HW162074   5.098   8.455   4.992  1.1050 -2.6600 -1.2362
19727SOL    HW262075   4.948   8.436   4.994  0.8174 -0.5889  0.8295
19728SOL     OW62076   7.263   3.156   7.815  0.6091  0.2461  0.0977
19728SOL    HW162077   7.306   3.096   7.876  0.5793 -0.2800 -0.3874
19728SOL    HW262078   7.185   3.109   7.786 -0.7774  1.4974  1.5672
19729SOL     OW62079   0.888   7.823   4.963  0.0665  0.1141 -0.1825
19729SOL    HW162080   0.932   7.738   4.954 -1.4415 -0.7151  0.0752
19729SOL    HW262081   0.796   7.802   4.977 -0.2070  1.7758  0.8429
19730SOL     OW62082   6.340   8.558   2.213 -0.4763  0.2751 -0.4713
19730SOL    HW162083   6.396   8.490   2.177  1.0450  1.6130 -0.7146
19730SOL    HW262084   6.370   8.570   2.303 -1.8019 -0.4589  0.0998
19731SOL     OW62085   3.120   3.594   7.504 -0.6787 -0.0235  0.5599
19731SOL    HW162086   3.190   3.532   7.487  0.6875  2.3693 -4.5149
19731SOL    HW262087   3.164   3.670   7.542 -0.2477  1.4517 -2.5624
19732SOL     OW62088   9.984   3.591   7.757 -0.2206 -0.0242 -0.6189
19732SOL    HW162089   9.952   3.621   7.672 -1.2438  0.3621 -0.1118
19732SOL    HW262090  10.063   3.540   7.736 -0.3183  0.2601 -1.7695
19733SOL     OW62091  10.039   4.543   9.249  0.2418  0.5671  0.1752
19733SOL    HW162092   9.980   4.469   9.258  0.8182 -0.0129 -0.6065
19733SOL    HW262093  10.121   4.514   9.289  0.3092  0.9945  0.3595
19734SOL     OW62094   3.732   9.405   0.109 -0.1178  0.0756 -0.0766
19734SOL    HW162095   3.694   9.487   0.141 -0.7870 -0.4649  0.5788
19734SOL    HW262096   3.771   9.427   0.025 -1.5823  0.7622 -0.6204
19735SOL     OW62097   7.023   1.486  10.576 -0.0628  0.1790 -0.5256
19735SOL    HW162098   6.943   1.501  10.627  0.5397 -1.9103  1.1899
19735SOL    HW262099   7.092   1.529  10.627  0.5641 -2.0139  0.5974
19736SOL     OW62100   0.043   1.268   6.767  0.4136 -0.2324  0.4092
19736SOL    HW162101   0.003   1.291   6.851  1.2621 -0.9117  1.0099
19736SOL    HW262102  -0.014   1.200   6.731 -0.6539  0.9080 -0.1787
19737SOL     OW62103   3.063   7.441   8.881  0.2079 -0.0441  0.0269
19737SOL    HW162104   3.069   7.523   8.931 -0.7330 -0.6537  1.1979
19737SOL    HW262105   3.029   7.467   8.796 -2.5474  0.5408  1.2153
19738SOL     OW62106   5.646   1.178   9.551 -0.0878 -0.4670 -0.4468
19738SOL    HW162107   5.613   1.154   9.464 -0.7342  0.9617 -0.6283
19738SOL    HW262108   5.642   1.274   9.552  0.3975 -0.4442  0.9785
19739SOL     OW62109   4.158   4.909   0.012  0.6575  0.4356  0.1351
19739SOL    HW162110   4.245   4.916  -0.026  1.9271  0.0686  2.7291
19739SOL    HW262111   4.159   4.971   0.085 -1.5230  0.9213 -0.1752
19740SOL     OW62112   1.612   1.558   7.411 -0.1491 -0.5571 -0.1151
19740SOL    HW162113   1.695   1.588   7.375 -0.6286  1.6658  0.4388
19740SOL    HW262114   1.607   1.599   7.498 -1.0868 -2.0035  0.5493
19741SOL     OW62115   0.590   6.175  10.600  0.1870  0.5621 -0.4027
19741SOL    HW162116   0.676   6.174  10.641 -0.6214  0.4422  1.4171
19741SOL    HW262117   0.540   6.239  10.651 -0.9144  0.3551 -1.1758
19742SOL     OW62118   2.118   6.453   4.789  0.2335 -0.1339  0.2924
19742SOL    HW162119   2.037   6.424   4.749  1.1247 -1.5244 -0.5734
19742SOL    HW262120   2.101   6.544   4.815 -1.0516  0.1336 -1.3504
19743SOL     OW62121   9.915   1.824   3.256 -0.0354  0.4498  0.5729
19743SOL    HW162122   9.992   1.815   3.312  1.7805  1.7191 -1.5800
19743SOL    HW262123   9.944   1.796   3.169 -2.1926  0.3642 -0.1823
19744SOL     OW62124   3.823   6.900   9.650 -0.0510 -0.1282  0.4439
19744SOL    HW162125   3.759   6.901   9.721  0.5958 -1.0359  1.0641
19744SOL    HW262126   3.880   6.826   9.671 -0.5508 -1.1601 -1.6534
19745SOL     OW62127   9.485   3.130   9.065 -0.2131 -0.0928  0.1982
19745SOL    HW162128   9.565   3.140   9.014  0.1793  0.6938  0.9526
19745SOL    HW262129   9.514   3.091   9.148 -0.2212  2.3820  1.4374
19746SOL     OW62130   2.243   8.570   2.023  0.4053 -0.1900  0.1726
19746SOL    HW162131   2.177   8.585   2.090 -0.3335  0.7769 -0.7494
19746SOL    HW262132   2.289   8.491   2.052  1.4734  1.2790  2.8851
19747SOL     OW62133   9.018   3.536   1.941 -0.2008 -1.1218 -0.3852
19747SOL    HW162134   8.981   3.552   2.028  0.4530  1.3766 -0.5029
19747SOL    HW262135   9.113   3.536   1.955  0.0331  1.7618 -1.3513
19748SOL     OW62136   1.780   6.249   2.898 -0.3493  0.3491  0.2948
19748SOL    HW162137   1.747   6.320   2.843  1.2262  0.5099 -0.4878
19748SOL    HW262138   1.869   6.234   2.867 -1.0269 -2.8529 -0.4426
19749SOL     OW62139   3.074   6.277   5.350 -0.0848  0.1929 -0.5493
19749SOL    HW162140   3.164   6.309   5.354 -0.0270  0.2347 -1.8250
19749SOL    HW262141   3.075   6.196   5.401 -0.1715  1.9689  2.5083
19750SOL     OW62142   7.195   6.912   5.586 -0.7997 -0.2634  0.8777
19750SOL    HW162143   7.173   7.004   5.606 -1.6183 -0.3663  0.5054
19750SOL    HW262144   7.199   6.870   5.672 -2.1564 -0.2387  0.9880
19751SOL     OW62145   7.091   2.270   7.277  0.0176  0.2229  0.4543
19751SOL    HW162146   7.028   2.324   7.324  0.1831  1.1164 -0.3165
19751SOL    HW262147   7.044   2.190   7.257 -0.1483 -0.0467  1.8485
19752SOL     OW62148  10.433   2.736   1.839 -0.3902  0.0274  0.6339
19752SOL    HW162149  10.528   2.746   1.836 -0.5067  2.3953 -3.0977
19752SOL    HW262150  10.416   2.650   1.801  0.2753 -0.0581  0.5268
19753SOL     OW62151   8.558   3.035   3.416  0.3205  0.8855 -0.1290
19753SOL    HW162152   8.631   3.094   3.435  1.0758  0.0692 -0.4370
19753SOL    HW262153   8.506   3.035   3.497  2.1046 -0.5618  1.0934
19754SOL     OW62154   0.466   5.223   8.277  0.3704 -0.1110 -0.8675
19754SOL    HW162155   0.557   5.235   8.307 -0.5574  1.0327  1.8607
19754SOL    HW262156   0.428   5.310   8.285 -2.0137 -1.2352  2.2408
19755SOL     OW62157  10.500   6.914   8.356  0.0864 -0.2957  0.3326
19755SOL    HW162158  10.504   6.874   8.269 -0.6439  1.4162 -0.5394
19755SOL    HW262159  10.535   7.002   8.344 -1.8918  0.6960  1.2859
19756SOL     OW62160   1.080   2.677   7.797  0.4540  0.0172  0.0980
19756SOL    HW162161   1.126   2.628   7.729 -2.0385 -2.7321  0.1736
19756SOL    HW262162   1.038   2.749   7.750 -0.5076 -1.3142 -1.1642
19757SOL     OW62163   1.050   2.863   0.077 -0.0645  0.1586  0.0022
19757SOL    HW162164   1.066   2.957   0.072 -0.1917  0.3361  2.1048
19757SOL    HW262165   0.966   2.856   0.122  0.0102 -0.9696 -0.0135
19758SOL     OW62166   3.728   2.786   8.249  0.1966  0.3822  0.3618
19758SOL    HW162167   3.778   2.716   8.208  1.4192  0.3308  1.8456
19758SOL    HW262168   3.678   2.744   8.319 -0.4107  0.7412  0.1570
19759SOL     OW62169   8.908   8.646   9.553 -0.7380  0.1146 -0.2061
19759SOL    HW162170   8.953   8.704   9.614  1.5656 -1.2739 -0.4850
19759SOL    HW262171   8.948   8.560   9.567 -0.8827 -0.4695 -2.8931
19760SOL     OW62172   3.289   3.508   5.518 -0.1530  0.1722 -0.1031
19760SOL    HW162173   3.225   3.512   5.589  0.7998 -0.0913  0.8067
19760SOL    HW262174   3.325   3.597   5.514 -0.6579  0.3579 -0.7108
19761SOL     OW62175   0.319   4.474   3.461 -0.6558 -0.1014  0.0466
19761SOL    HW162176   0.400   4.520   3.439 -0.6161  0.0293  0.4556
19761SOL    HW262177   0.323   4.463   3.556 -0.8404 -0.6172 -0.0026
19762SOL     OW62178   7.428   1.708  10.136  0.2381  0.0081  0.2753
19762SOL    HW162179   7.443   1.680  10.046  0.5675 -0.4600  0.4735
19762SOL    HW262180   7.367   1.644  10.172  0.9085 -0.4192  0.6937
19763SOL     OW62181   1.411   3.910   9.274  0.1656 -0.1244 -0.3288
19763SOL    HW162182   1.435   3.931   9.364  0.5855 -0.8688 -0.2603
19763SOL    HW262183   1.339   3.971   9.253  0.1812  0.1647  0.4445
19764SOL     OW62184   1.542   4.740   0.969 -0.0892 -0.0348 -0.0491
19764SOL    HW162185   1.608   4.672   0.982 -0.7724 -0.7367 -0.1961
19764SOL    HW262186   1.459   4.699   0.994 -0.8552 -0.0138 -2.3348
19765SOL     OW62187   3.268   6.589   6.486 -0.3428 -0.6159  0.7242
19765SOL    HW162188   3.209   6.622   6.419  1.2524 -0.3849 -0.6192
19765SOL    HW262189   3.244   6.638   6.565 -1.3415  0.1056  0.0007
19766SOL     OW62190   2.615   2.990  10.272 -0.0966 -0.1303 -0.2909
19766SOL    HW162191   2.590   3.057  10.336  2.4386  0.0541  0.6001
19766SOL    HW262192   2.544   2.926  10.276 -1.3489  1.2509  0.6684
19767SOL     OW62193   7.432   4.158   0.717  0.2893 -0.1206 -0.2076
19767SOL    HW162194   7.338   4.143   0.712  0.2243  0.1436  0.2311
19767SOL    HW262195   7.459   4.123   0.802 -0.2153  3.8854  1.8327
19768SOL     OW62196   9.414  10.701   3.481 -0.5402  0.7253 -0.0837
19768SOL    HW162197   9.395  10.708   3.387 -1.5891  0.0744  0.0577
19768SOL    HW262198   9.434  10.609   3.494 -0.7863  0.7366  0.3939
19769SOL     OW62199   8.240   1.276   5.960 -0.0169  0.5946 -0.1040
19769SOL    HW162200   8.179   1.324   5.904 -1.1457  0.1988  0.7611
19769SOL    HW262201   8.288   1.344   6.007  0.3047  0.9078 -0.8597
19770SOL     OW62202   8.676   8.579   8.086 -0.0386 -0.1398 -0.3652
19770SOL    HW162203   8.663   8.634   8.163  0.4099 -1.6911  0.8666
19770SOL    HW262204   8.770   8.584   8.068  0.0750 -0.8338  0.0177
19771SOL     OW62205   9.262   9.329   6.949 -0.9201  0.0094 -0.2151
19771SOL    HW162206   9.229   9.239   6.948 -0.6353 -0.0948 -1.1212
19771SOL    HW262207   9.302   9.339   7.035 -0.0277 -1.0782 -0.4843
19772SOL     OW62208  10.681   6.726   5.094 -0.0608  0.3076 -0.2455
19772SOL    HW162209  10.764   6.726   5.048  0.0192  0.2988 -0.1030
19772SOL    HW262210  10.643   6.640   5.077  0.1410  0.1662  0.0131
19773SOL     OW62211   7.892   8.681   9.586 -0.0610  0.1805 -0.1536
19773SOL    HW162212   7.806   8.670   9.545 -0.3697  3.0611 -0.4923
19773SOL    HW262213   7.940   8.736   9.525  1.6812 -0.4810  0.5611
19774SOL     OW62214   3.668   4.661   1.657  0.9317 -0.6444 -0.0433
19774SOL    HW162215   3.599   4.709   1.612  1.9095  1.0989  0.1922
19774SOL    HW262216   3.659   4.571   1.627 -0.5370 -0.1826 -1.0930
19775SOL     OW62217   8.324   6.064   8.906 -0.1584 -0.4644 -0.2508
19775SOL    HW162218   8.376   6.038   8.982  0.5432 -0.0003 -0.5604
19775SOL    HW262219   8.242   6.015   8.915 -0.3681  0.0856  1.1566
19776SOL     OW62220  10.209   9.969   7.304  0.1054 -0.4660 -0.0930
19776SOL    HW162221  10.226  10.051   7.257 -0.8058 -1.2602 -1.9309
19776SOL    HW262222  10.225   9.901   7.239 -2.4564 -1.5628  0.2878
19777SOL     OW62223   4.083   7.278   2.161  0.2541  0.0760  0.0184
19777SOL    HW162224   4.080   7.182   2.169 -0.9318  0.0701 -0.3457
19777SOL    HW262225   4.050   7.309   2.245  0.8771  0.1774  0.2302
19778SOL     OW62226   1.417   8.682   3.462 -0.2941 -0.0397  0.6495
19778SOL    HW162227   1.465   8.762   3.484 -0.5253  1.0912 -2.4827
19778SOL    HW262228   1.478   8.611   3.484  1.9461  1.2488 -0.9748
19779SOL     OW62229   6.665  10.591   6.250  0.1639 -0.1834 -1.0130
19779SOL    HW162230   6.661  10.570   6.157 -1.0897  0.8632 -1.2150
19779SOL    HW262231   6.575  10.613   6.274  0.6725  0.7379  0.1599
19780SOL     OW62232   0.463   7.174   8.030  0.4595 -0.0630  0.4638
19780SOL    HW162233   0.441   7.083   8.049  1.2477 -0.1628  0.9242
19780SOL    HW262234   0.540   7.192   8.084  2.3713 -0.1314 -2.0363
19781SOL     OW62235   9.356   3.007   8.317  0.4691 -0.4129  0.0036
19781SOL    HW162236   9.446   2.977   8.332  0.4552 -0.5366 -0.1687
19781SOL    HW262237   9.341   3.072   8.387  0.5495 -0.6947  0.2862
19782SOL     OW62238   1.726   8.775   1.583 -0.6939 -0.3217  0.1071
19782SOL    HW162239   1.692   8.699   1.630  0.6801 -1.0050  0.0538
19782SOL    HW262240   1.810   8.746   1.548 -0.2392  1.1516 -0.1105
19783SOL     OW62241   0.622   8.973   0.017 -0.0689 -0.0890 -0.0155
19783SOL    HW162242   0.540   8.965   0.066  1.0391 -1.7607  1.7386
19783SOL    HW262243   0.669   9.045   0.060 -0.7992  1.2743 -1.4028
19784SOL     OW62244   7.056   1.031   5.182  0.0097 -0.6594  0.1543
19784SOL    HW162245   7.007   0.956   5.216 -0.2327 -0.3026  0.5883
19784SOL    HW262246   7.140   1.027   5.227  0.2694 -1.0731 -0.3420
19785SOL     OW62247   2.477   5.333   6.705 -0.0482 -0.1315  0.2630
19785SOL    HW162248   2.571   5.346   6.690 -0.3528 -0.3019 -2.4471
19785SOL    HW262249   2.467   5.237   6.704 -0.1207 -0.1515  1.7652
19786SOL     OW62250   8.879   7.238   1.308  0.6049 -0.2477  0.0522
19786SOL    HW162251   8.902   7.275   1.223  0.8508 -0.7610 -0.1036
19786SOL    HW262252   8.911   7.302   1.371  2.2165 -0.7988 -0.1644
19787SOL     OW62253   9.421   1.685  10.732 -0.1975 -0.6547 -0.2398
19787SOL    HW162254   9.457   1.741  10.801 -2.1371  0.2247  0.1316
19787SOL    HW262255   9.392   1.606  10.778 -0.1231 -0.7137 -0.2939
19788SOL     OW62256   3.985   4.089   9.507 -0.2292 -0.0568 -0.5042
19788SOL    HW162257   3.984   4.140   9.426  0.0548  1.6038  0.4840
19788SOL    HW262258   4.072   4.049   9.509  0.0109  0.4420 -0.7060
19789SOL     OW62259   9.479   1.966   1.224 -0.0725 -0.4906 -0.1108
19789SOL    HW162260   9.408   1.972   1.161 -0.9488 -0.0043  0.8835
19789SOL    HW262261   9.457   2.032   1.291  1.0072 -0.7308  0.5051
19790SOL     OW62262   3.051   5.422   6.761  0.1419 -0.1025 -0.0991
19790SOL    HW162263   2.997   5.495   6.731 -0.1984  0.8223  2.5383
19790SOL    HW262264   3.121   5.416   6.696 -0.3315  1.9555 -0.8883
19791SOL     OW62265   5.652   6.261   1.095 -0.2282 -0.8040 -0.6313
19791SOL    HW162266   5.591   6.291   1.027  0.7435  2.2435 -0.2871
19791SOL    HW262267   5.737   6.255   1.051 -0.1056 -1.6616 -0.3065
19792SOL     OW62268   7.625   8.464   6.218  0.2417  0.1849 -0.6928
19792SOL    HW162269   7.592   8.391   6.270 -0.2761  0.0789 -1.1582
19792SOL    HW262270   7.668   8.521   6.281 -0.9571  0.3976 -0.0394
19793SOL     OW62271   4.542   2.555   2.076 -0.0908  0.1807 -0.0477
19793SOL    HW162272   4.478   2.484   2.078  0.3766 -0.2412  1.4928
19793SOL    HW262273   4.541   2.591   2.165  2.2180 -0.2317  0.1930
19794SOL     OW62274   1.218   7.930   2.816 -0.2500  0.4523 -0.7693
19794SOL    HW162275   1.178   7.991   2.754 -0.7341  0.2849 -0.6274
19794SOL    HW262276   1.177   7.950   2.900  0.7818  1.0305 -0.3838
19795SOL     OW62277   3.986  10.399   4.080  0.2163 -0.6593  0.2525
19795SOL    HW162278   3.894  10.395   4.054  0.2012  0.1964  0.1503
19795SOL    HW262279   3.999  10.489   4.111  0.8844 -0.9251  0.7762
19796SOL     OW62280   8.209   5.325   5.640  0.2808 -0.0253 -0.4552
19796SOL    HW162281   8.183   5.295   5.553 -0.6127  0.6959 -0.4480
19796SOL    HW262282   8.159   5.270   5.700  0.0190  0.2504 -0.4187
19797SOL     OW62283   3.579  10.176   5.557  0.1133  0.4035  0.5349
19797SOL    HW162284   3.615  10.145   5.640  0.5589 -0.9375 -0.1413
19797SOL    HW262285   3.654  10.184   5.499 -0.2086  1.2232  0.2123
19798SOL     OW62286   0.905   8.408   5.007  0.0124 -0.0515 -0.1637
19798SOL    HW162287   0.835   8.350   4.979  0.4369 -0.0232 -1.3476
19798SOL    HW262288   0.984   8.371   4.968  0.3118  1.2277 -0.8340
19799SOL     OW62289   6.205   9.596   8.690  0.2287  0.2762  0.7717
19799SOL    HW162290   6.189   9.545   8.610 -0.1522 -1.2176  1.7660
19799SOL    HW262291   6.235   9.681   8.658 -0.9681  0.1011 -0.9890
19800SOL     OW62292   9.582   7.533   8.510 -0.1695  0.1614 -0.2330
19800SOL    HW162293   9.634   7.464   8.551  1.6214  1.5759  0.0507
19800SOL    HW262294   9.563   7.594   8.582 -0.6025  0.5920 -0.7051
19801SOL     OW62295   9.247   7.433   4.230 -0.1295 -0.5163 -0.0007
19801SOL    HW162296   9.235   7.498   4.299  1.9632  1.0210 -0.9914
19801SOL    HW262297   9.167   7.439   4.178  0.0744  1.4422 -0.1623
19802SOL     OW62298   9.451   3.082   3.450 -0.0554  0.4021 -0.3336
19802SOL    HW162299   9.368   3.128   3.464  0.1475  0.9682 -0.9701
19802SOL    HW262300   9.508   3.112   3.521 -0.0339  0.8772 -0.5497
19803SOL     OW62301   4.577  10.236   5.708  0.0305 -0.2199 -0.4236
19803SOL    HW162302   4.507  10.271   5.763  0.1296 -0.6918  0.0147
19803SOL    HW262303   4.586  10.299   5.637 -0.7236 -0.0679 -0.3917
19804SOL     OW62304   8.385   7.765   1.414  0.0899  0.2108 -0.7417
19804SOL    HW162305   8.478   7.780   1.394  0.2271  2.4545  1.2455
19804SOL    HW262306   8.378   7.778   1.508 -2.8232  3.6798 -1.2388
19805SOL     OW62307   8.858   3.080   2.529 -0.1493 -0.0369 -0.7326
19805SOL    HW162308   8.773   3.112   2.558 -1.1123 -0.6579 -2.7235
19805SOL    HW262309   8.863   3.105   2.437  0.3250 -2.9193 -1.5833
19806SOL     OW62310   5.035   3.452   4.366 -0.3430 -0.5030 -0.0297
19806SOL    HW162311   4.989   3.504   4.300 -1.7281  0.5304  1.6328
19806SOL    HW262312   5.012   3.362   4.345 -0.1881 -0.2586 -1.3447
19807SOL     OW62313   5.341   6.620   1.564  0.4326 -0.2684  0.6784
19807SOL    HW162314   5.253   6.657   1.570  0.3432  0.0416 -1.5664
19807SOL    HW262315   5.331   6.543   1.508  1.6673  0.1465 -0.1578
19808SOL     OW62316   0.184   0.759   9.976  0.2214  0.0383  0.2236
19808SOL    HW162317   0.130   0.818  10.028  0.9481 -0.2185  1.3252
19808SOL    HW262318   0.131   0.680   9.965 -0.9821  1.0440 -1.7500
19809SOL     OW62319  10.572   4.959   5.145  0.1603  0.0249 -0.1849
19809SOL    HW162320  10.559   5.048   5.178 -0.3399 -0.5038  1.1269
19809SOL    HW262321  10.610   4.912   5.218 -1.1272 -1.2404 -0.2929
19810SOL     OW62322   1.736   0.478   7.046  0.3691  0.0752  0.4358
19810SOL    HW162323   1.801   0.541   7.015 -1.5990  2.0987  0.1345
19810SOL    HW262324   1.773   0.442   7.127  1.2911  2.1926  1.0249
19811SOL     OW62325   8.769   5.005   0.671  0.0501  0.6613 -0.1502
19811SOL    HW162326   8.833   5.074   0.690  0.2568  0.7415 -1.0973
19811SOL    HW262327   8.811   4.951   0.604  0.5049 -1.2613  1.5482
19812SOL     OW62328   4.454   3.266   2.877  0.3260  0.0591 -0.2393
19812SOL    HW162329   4.387   3.207   2.912  0.7122 -0.4373 -0.3258
19812SOL    HW262330   4.524   3.208   2.847  0.3237  0.5201 -1.1623
19813SOL     OW62331   0.690   2.924   2.985  0.5042 -0.4769  0.6835
19813SOL    HW162332   0.756   2.890   2.924  0.4814 -0.2224  0.5182
19813SOL    HW262333   0.613   2.869   2.969  1.0263 -1.5689  1.7079
19814SOL     OW62334  10.150   6.171   3.914  0.0473  0.3191 -0.0466
19814SOL    HW162335  10.074   6.223   3.939  1.2972  1.2297  2.1571
19814SOL    HW262336  10.156   6.103   3.981 -0.3376 -1.4537 -1.7129
19815SOL     OW62337   2.205   2.183   2.274  0.2234 -0.1334  0.0960
19815SOL    HW162338   2.295   2.183   2.241 -0.1534 -0.3346 -0.9634
19815SOL    HW262339   2.182   2.090   2.280  0.3782 -0.1136  1.2172
19816SOL     OW62340   4.679   3.291   0.963  0.2020  0.0973  0.2108
19816SOL    HW162341   4.607   3.354   0.957 -0.8763 -0.9338  1.6014
19816SOL    HW262342   4.662   3.243   1.044  3.1666  0.6289  1.2529
19817SOL     OW62343   1.021   9.581   2.639  0.2125  0.1286 -0.1303
19817SOL    HW162344   1.048   9.672   2.623 -1.1663  0.9679  1.7698
19817SOL    HW262345   1.025   9.572   2.734  0.4978 -1.8952 -0.2982
19818SOL     OW62346   9.002   7.053   4.199  0.6852 -0.1141 -0.0253
19818SOL    HW162347   8.958   7.057   4.284  1.4050  0.0073  0.3491
19818SOL    HW262348   9.007   7.145   4.172  0.0678 -0.1899 -0.4061
19819SOL     OW62349   5.893   7.901   0.668  0.1870  0.0330  0.2572
19819SOL    HW162350   5.829   7.951   0.617 -0.1615  0.8213  1.4381
19819SOL    HW262351   5.906   7.821   0.617 -0.3156  0.6863 -0.9543
19820SOL     OW62352   7.283   6.095   6.661 -0.2951 -0.5900  0.3069
19820SOL    HW162353   7.237   6.177   6.642  0.8642 -0.0419 -0.2806
19820SOL    HW262354   7.241   6.061   6.740 -0.6824  0.6807  0.6722
19821SOL     OW62355   8.459   6.830   6.843  0.4767 -0.5175  0.6082
19821SOL    HW162356   8.379   6.817   6.793  1.2476  1.1374 -1.1670
19821SOL    HW262357   8.506   6.747   6.835  0.3650 -0.4403 -1.0427
19822SOL     OW62358   4.419   3.471   7.666 -0.2236 -0.0943 -0.3326
19822SOL    HW162359   4.324   3.471   7.664 -0.2635  1.9679 -1.1421
19822SOL    HW262360   4.444   3.378   7.661 -2.1581 -0.7866  1.4731
19823SOL     OW62361   1.729   6.641   0.099  0.1964  0.2466  0.0037
19823SOL    HW162362   1.657   6.703   0.113  0.6986  0.8083  0.1511
19823SOL    HW262363   1.703   6.592   0.021  0.4548  1.6418 -1.0005
19824SOL     OW62364   9.466   5.320   8.336  0.8606  0.2535  0.1632
19824SOL    HW162365   9.477   5.384   8.266  0.7199  1.1118  0.9205
19824SOL    HW262366   9.431   5.242   8.292 -0.8200  1.3247 -0.4828
19825SOL     OW62367   3.724   0.011   9.333  0.1935  0.0639  0.1348
19825SOL    HW162368   3.691  -0.060   9.278  1.1135 -0.9501  0.8642
19825SOL    HW262369   3.810  -0.018   9.363 -0.0392  0.8241  1.6691
19826SOL     OW62370   4.812   8.582   6.376 -0.4788 -0.4759  0.0575
19826SOL    HW162371   4.763   8.505   6.405 -0.1582 -0.5294  0.4611
19826SOL    HW262372   4.904   8.556   6.382 -0.3822 -0.2192 -0.2544
19827SOL     OW62373   1.188   8.308   0.403  0.0682 -0.1978  0.1270
19827SOL    HW162374   1.279   8.279   0.407 -0.8086 -3.1940  1.7953
19827SOL    HW262375   1.150   8.275   0.485 -2.9091 -0.6979 -1.3430
19828SOL     OW62376   2.412   5.620   9.308 -0.4296 -0.3666 -0.2768
19828SOL    HW162377   2.407   5.590   9.399  0.4488 -0.1438 -0.1442
19828SOL    HW262378   2.499   5.593   9.279 -0.1861  0.7175 -0.6244
19829SOL     OW62379   5.542   5.983   4.753 -0.0290 -0.4137 -0.0806
19829SOL    HW162380   5.628   5.942   4.748  0.8968  1.5247 -1.0775
19829SOL    HW262381   5.509   5.959   4.840  0.9553 -2.1858 -0.1417
19830SOL     OW62382   1.950   2.707   5.959  0.4478  0.0866 -0.5533
19830SOL    HW162383   1.967   2.613   5.951  0.5869 -0.0208  0.7767
19830SOL    HW262384   1.889   2.727   5.888  1.1133 -0.8198 -1.4070
19831SOL     OW62385   7.304   9.806   8.428 -0.1207 -0.1932 -0.3067
19831SOL    HW162386   7.335   9.818   8.338 -1.3518 -0.7224 -0.8247
19831SOL    HW262387   7.254   9.724   8.425  1.3974 -1.2465  1.2969
19832SOL     OW62388   8.561   8.689   2.691  0.4975 -0.4007 -0.1337
19832SOL    HW162389   8.595   8.653   2.773  1.0853 -0.9631 -0.6253
19832SOL    HW262390   8.484   8.635   2.672  1.2031 -1.2193 -0.7117
19833SOL     OW62391   3.256   5.145   9.950 -0.0525  0.0494 -0.8148
19833SOL    HW162392   3.206   5.075   9.990  0.9252  0.0665  0.5005
19833SOL    HW262393   3.278   5.204  10.022  0.4197  0.9091 -1.6381
19834SOL     OW62394   5.774   4.211   9.916  0.1361 -0.0152 -0.1648
19834SOL    HW162395   5.690   4.166   9.912 -0.3705  0.6924  1.5257
19834SOL    HW262396   5.755   4.294   9.959  2.0192 -0.7107  2.2240
19835SOL     OW62397   1.900   3.858   2.210 -1.3652  0.0113 -0.2959
19835SOL    HW162398   1.852   3.873   2.292 -0.4714  0.7714  0.1096
19835SOL    HW262399   1.989   3.835   2.239 -1.1941 -0.2601 -1.0405
19836SOL     OW62400   3.537   4.822   5.510  0.1402  0.2596  0.1946
19836SOL    HW162401   3.591   4.875   5.570  0.4285 -1.1965  1.2854
19836SOL    HW262402   3.447   4.842   5.534  0.2039  1.2826 -0.3571
19837SOL     OW62403   3.669   0.427   4.638  0.0781 -0.1692  0.5912
19837SOL    HW162404   3.749   0.470   4.610  0.1775 -0.0742  1.0261
19837SOL    HW262405   3.678   0.416   4.732  0.4639 -1.9746  0.3887
19838SOL     OW62406   5.427   9.589   0.317  0.6353  0.1419  0.1903
19838SOL    HW162407   5.462   9.503   0.294 -0.9162 -1.5739  3.4547
19838SOL    HW262408   5.500   9.633   0.362  1.3664  0.5138 -1.3020
19839SOL     OW62409   2.670   6.327   9.188 -0.0968  0.2208  0.0397
19839SOL    HW162410   2.697   6.409   9.230 -0.8641  0.0294  0.9218
19839SOL    HW262411   2.696   6.259   9.250 -0.4715 -0.1234 -0.1790
19840SOL     OW62412   3.086   8.537   0.348  0.4340  0.0010 -0.7157
19840SOL    HW162413   3.072   8.531   0.254  0.7473 -2.7088 -0.6657
19840SOL    HW262414   3.016   8.594   0.379 -1.4379 -1.3332 -2.2546
19841SOL     OW62415   0.812   8.619   2.622 -0.1278 -0.0628  0.1409
19841SOL    HW162416   0.833   8.712   2.622 -0.5978  0.0697  1.3045
19841SOL    HW262417   0.717   8.616   2.632 -0.0917 -0.6597  0.3511
19842SOL     OW62418   7.915   2.413   9.352  0.1489  0.0477 -0.3756
19842SOL    HW162419   7.853   2.354   9.394  1.1723 -0.8299 -0.0516
19842SOL    HW262420   7.863   2.491   9.329 -0.8304 -0.2283  0.8075
19843SOL     OW62421   3.338   7.732   2.141  0.0411 -0.5984 -0.1354
19843SOL    HW162422   3.353   7.669   2.070  0.2955  0.4761 -1.0724
19843SOL    HW262423   3.243   7.747   2.141  0.2561  1.0783 -1.7918
19844SOL     OW62424   0.313   3.683   1.179  0.3726  0.5852 -0.1225
19844SOL    HW162425   0.349   3.641   1.257 -0.0901  1.9877  0.8870
19844SOL    HW262426   0.219   3.686   1.195  0.1928  0.2427 -1.0758
19845SOL     OW62427   4.323   5.362   9.557 -0.2831 -0.2393  0.1394
19845SOL    HW162428   4.257   5.430   9.569  0.9932  1.9654 -3.6238
19845SOL    HW262429   4.385   5.376   9.629 -0.7287  1.7942  0.2008
19846SOL     OW62430   2.434   9.978   2.828 -0.0571  0.0067 -0.1256
19846SOL    HW162431   2.474   9.893   2.846 -0.3203  0.2760  1.9531
19846SOL    HW262432   2.496  10.023   2.771  2.7018  0.3688  2.8957
19847SOL     OW62433  10.314   6.426   1.892  0.3119  0.4751  0.1653
19847SOL    HW162434  10.340   6.432   1.800  0.7250 -1.9089  0.0709
19847SOL    HW262435  10.355   6.346   1.924 -0.8361  0.5880  2.1037
19848SOL     OW62436   0.145   1.769   1.112 -0.4534  0.0169  0.6045
19848SOL    HW162437   0.069   1.768   1.054 -0.8855  0.9898  1.1361
19848SOL    HW262438   0.190   1.686   1.094  0.1019  0.7935 -2.0050
19849SOL     OW62439   3.727   1.748   8.157 -0.5986  0.4841 -0.1020
19849SOL    HW162440   3.795   1.684   8.178 -0.7208 -0.0696 -1.2780
19849SOL    HW262441   3.654   1.695   8.126 -0.7026  1.1846 -1.0874
19850SOL     OW62442   6.459   4.412  10.689  0.2201 -0.3782 -0.2514
19850SOL    HW162443   6.451   4.371  10.603 -0.9321 -0.7647  0.0094
19850SOL    HW262444   6.376   4.458  10.701 -0.0822 -1.2069  1.0784
19851SOL     OW62445   5.007   4.104   3.889  0.1299  0.6768 -0.2209
19851SOL    HW162446   4.967   4.154   3.818  2.8672  1.1508 -1.5254
19851SOL    HW262447   5.100   4.100   3.867  0.8737 -0.3165  2.6769
19852SOL     OW62448   9.934   5.229   2.450  0.2249  0.1991  0.0964
19852SOL    HW162449   9.853   5.179   2.462  1.1930 -1.9353 -1.5357
19852SOL    HW262450   9.928   5.262   2.360  0.8521  0.6258  0.2089
19853SOL     OW62451   9.430   5.173   7.395 -0.2111  0.1632  0.5054
19853SOL    HW162452   9.474   5.091   7.373  1.0169  0.6419  1.0788
19853SOL    HW262453   9.357   5.178   7.334  0.2518 -0.8954 -0.1654
19854SOL     OW62454   1.839   6.258  10.195  0.3972 -0.0359  0.7962
19854SOL    HW162455   1.919   6.311  10.195  0.5366 -0.1950 -1.0587
19854SOL    HW262456   1.771   6.317  10.165  0.3546 -0.6003 -0.2654
19855SOL     OW62457   0.431  10.323   0.094  0.1398 -0.2908  0.1660
19855SOL    HW162458   0.412  10.316   0.000 -1.3953  2.9121  0.1171
19855SOL    HW262459   0.482  10.403   0.103 -0.0123 -0.3621  2.0992
19856SOL     OW62460   1.803   6.680   0.867 -0.3522 -0.2363  0.1240
19856SOL    HW162461   1.737   6.749   0.858 -0.7421 -0.6399 -0.1439
19856SOL    HW262462   1.777   6.632   0.945 -1.7598 -1.8474 -1.2527
19857SOL     OW62463   6.293   2.349   2.729 -0.1068 -0.1697  0.9300
19857SOL    HW162464   6.371   2.295   2.743  0.8996  0.8699 -0.4190
19857SOL    HW262465   6.276   2.389   2.814  1.1972  0.0530  1.0983
19858SOL     OW62466   9.134   2.306   5.264 -0.0068 -0.2522 -0.1420
19858SOL    HW162467   9.205   2.281   5.323  1.1923  0.1542 -1.3558
19858SOL    HW262468   9.155   2.396   5.238 -1.0972 -0.0393 -0.3655
19859SOL     OW62469   4.739   7.353   5.801  0.0894  1.0351  0.0172
19859SOL    HW162470   4.823   7.331   5.760  0.0795  1.6843 -0.3655
19859SOL    HW262471   4.764   7.402   5.880  0.1009  0.0439  0.6390
19860SOL     OW62472  10.694  10.221   7.829  0.5261 -0.4631 -0.0854
19860SOL    HW162473  10.657  10.301   7.866 -1.2615 -1.4830  0.4196
19860SOL    HW262474  10.753  10.189   7.897  1.1760  0.3364 -0.2461
19861SOL     OW62475   0.002   2.920   6.497  0.1438 -0.4633  0.1563
19861SOL    HW162476   0.091   2.951   6.514  0.0125 -1.1729  2.5180
19861SOL    HW262477   0.000   2.831   6.531 -1.9428  0.1584  1.8916
19862SOL     OW62478   5.823   3.532   0.755  0.1716  0.0407  0.0844
19862SOL    HW162479   5.815   3.452   0.703  1.6351  0.3862 -0.7446
19862SOL    HW262480   5.867   3.594   0.697 -0.2124  1.1934  0.9848
19863SOL     OW62481  10.603   4.030   1.673 -0.4052 -0.0984 -0.3644
19863SOL    HW162482  10.562   4.073   1.748 -1.1627 -0.1587 -0.7360
19863SOL    HW262483  10.681   3.988   1.709 -0.9571 -0.4362  0.4613
19864SOL     OW62484   8.168   9.509   2.597 -0.4152  0.2475  0.1406
19864SOL    HW162485   8.204   9.589   2.557 -0.4466  0.9063  1.3758
19864SOL    HW262486   8.098   9.483   2.538  0.1073  0.6807 -0.7041
19865SOL     OW62487   9.643   9.622   5.443  0.1457 -0.1399 -0.2320
19865SOL    HW162488   9.612   9.612   5.533 -0.2190  1.4867 -0.1477
19865SOL    HW262489   9.594   9.556   5.393 -1.0501  0.2136  0.4487
19866SOL     OW62490   6.720   4.967   3.841  0.7091 -0.2326  0.2349
19866SOL    HW162491   6.781   4.929   3.903 -0.5157 -0.1358  1.5468
19866SOL    HW262492   6.751   4.936   3.755  2.7537  0.1036  0.8097
19867SOL     OW62493   1.130   7.073   9.753  0.0980  0.2369 -0.3689
19867SOL    HW162494   1.161   7.109   9.836  0.5384 -1.9669  0.4932
19867SOL    HW262495   1.038   7.052   9.769  0.3767 -0.9136 -0.1103
19868SOL     OW62496   1.814   0.556   2.801 -0.1393  0.3724  0.2382
19868SOL    HW162497   1.829   0.575   2.894  0.4801  0.1920  0.1769
19868SOL    HW262498   1.721   0.575   2.788  0.0600  1.6472  0.5860
19869SOL     OW62499   6.527   9.403   7.211  0.7642 -0.2947 -0.1159
19869SOL    HW162500   6.447   9.424   7.259  0.9794  0.4334 -0.0637
19869SOL    HW262501   6.506   9.322   7.164  0.3661 -0.7164  0.7563
19870SOL     OW62502   3.789   4.637   0.464  0.2685  0.0378 -0.6459
19870SOL    HW162503   3.880   4.637   0.493  0.6831  0.5017 -1.8712
19870SOL    HW262504   3.743   4.584   0.528  1.5027 -0.6481 -0.3016
19871SOL     OW62505   1.011   8.431   7.157 -0.0248 -0.0862  0.3728
19871SOL    HW162506   1.002   8.526   7.156 -1.3768 -0.1633 -1.4815
19871SOL    HW262507   1.077   8.413   7.224  1.7884  2.2700 -0.6483
19872SOL     OW62508   2.491   6.684   1.073 -0.6180 -0.0797  0.0773
19872SOL    HW162509   2.432   6.740   1.124 -1.2468  0.4016 -1.1571
19872SOL    HW262510   2.532   6.744   1.010  3.0434  0.1417  2.3731
19873SOL     OW62511   9.910   9.626   5.343 -0.1896 -0.0601 -0.2335
19873SOL    HW162512   9.932   9.679   5.266 -1.6996  3.9911  1.8490
19873SOL    HW262513   9.824   9.658   5.370  0.3542 -1.1216  3.2441
19874SOL     OW62514   3.651   0.348   7.138 -0.3067  0.1645  0.0991
19874SOL    HW162515   3.668   0.255   7.121 -0.8506 -0.0410  0.6333
19874SOL    HW262516   3.724   0.394   7.096 -0.5016 -0.4403 -0.9569
19875SOL     OW62517   2.781   8.980  10.079 -0.5910 -0.3718  0.0216
19875SOL    HW162518   2.738   8.971  10.164 -1.1623 -0.4681 -0.2732
19875SOL    HW262519   2.784   8.890  10.045  1.5167 -0.6643  0.8340
19876SOL     OW62520   8.881   6.818   5.520  0.0333 -0.0829 -0.4397
19876SOL    HW162521   8.793   6.854   5.508 -0.8004 -1.8373 -0.0179
19876SOL    HW262522   8.897   6.827   5.614  0.9571  1.5543 -0.7159
19877SOL     OW62523  10.707  10.145   9.722  0.1441 -0.0162 -0.5984
19877SOL    HW162524  10.700  10.107   9.809  0.7445  0.9846 -0.1092
19877SOL    HW262525  10.619  10.180   9.704  0.0443 -0.1453 -0.3702
19878SOL     OW62526   7.858   0.092   0.341  0.4397 -0.1787 -0.2284
19878SOL    HW162527   7.928   0.140   0.297  0.8166  0.3498  0.9192
19878SOL    HW262528   7.806   0.054   0.270  0.7985  0.9866 -1.1339
19879SOL     OW62529   2.610  10.603   2.976  0.8085 -0.2520 -0.6334
19879SOL    HW162530   2.700  10.635   2.988 -0.0143  1.3872  2.3159
19879SOL    HW262531   2.557  10.683   2.973 -0.9065 -1.1220  2.3953
19880SOL     OW62532   1.070   0.610   7.826  0.1170 -0.2503 -0.2511
19880SOL    HW162533   1.069   0.584   7.918 -0.9381  3.0831  0.7986
19880SOL    HW262534   1.098   0.531   7.780  2.4341 -1.5702  3.0342
19881SOL     OW62535   7.822   5.748   7.322 -0.2530  0.2023  0.3858
19881SOL    HW162536   7.836   5.838   7.351 -0.6696  1.5751 -3.1739
19881SOL    HW262537   7.727   5.740   7.313 -0.1151  0.2768 -1.5293
19882SOL     OW62538   8.449   4.903   4.329  0.8433 -0.2624 -0.2064
19882SOL    HW162539   8.411   4.953   4.257  0.8453  0.5234  0.3206
19882SOL    HW262540   8.479   4.821   4.289  0.3964 -0.0470 -0.9946
19883SOL     OW62541   2.097   1.770   2.996  0.1508  0.1837 -0.3145
19883SOL    HW162542   2.136   1.747   2.912  1.6092 -0.7200  0.5743
19883SOL    HW262543   2.067   1.687   3.032 -1.8857  0.7384 -0.5653
19884SOL     OW62544   0.659   9.048   9.685 -0.1515 -0.5192  0.9163
19884SOL    HW162545   0.647   8.953   9.690  0.7785 -0.8226 -1.2777
19884SOL    HW262546   0.749   9.063   9.711  0.8658 -0.7505 -2.0542
19885SOL     OW62547   8.824   8.088   9.809 -0.3811 -0.3735  0.3803
19885SOL    HW162548   8.771   8.065   9.886  1.6316 -0.3792  1.8343
19885SOL    HW262549   8.861   8.174   9.830  1.4757 -1.0760  0.1542
19886SOL     OW62550   5.254   4.639   2.320  0.3189  0.4394 -0.7211
19886SOL    HW162551   5.197   4.565   2.302 -0.0720  0.8028 -0.9791
19886SOL    HW262552   5.325   4.631   2.256 -1.1564  1.8306 -2.6398
19887SOL     OW62553   4.295   3.741   2.669  0.8622  0.7289  0.2085
19887SOL    HW162554   4.351   3.788   2.607  2.1905  1.4594  1.8856
19887SOL    HW262555   4.328   3.650   2.666 -0.7411  0.1495 -1.9448
19888SOL     OW62556   0.010   0.678   7.889 -0.0719  0.0479  0.2824
19888SOL    HW162557  -0.083   0.665   7.870 -0.0987  0.7416 -0.0960
19888SOL    HW262558   0.013   0.697   7.983 -0.3374  0.2506  0.2506
19889SOL     OW62559   1.217  10.093   6.495 -0.8071  0.7591  0.3659
19889SOL    HW162560   1.285  10.027   6.508  0.2498  1.5378 -0.9450
19889SOL    HW262561   1.183  10.110   6.583  0.2814 -0.0712  0.9671
19890SOL     OW62562   6.474   5.954   7.150  0.0196  0.2447 -0.0676
19890SOL    HW162563   6.434   6.008   7.082  2.1911  1.0567 -0.7740
19890SOL    HW262564   6.443   5.865   7.131 -0.4156  0.6438 -1.3441
19891SOL     OW62565   5.885   2.745   7.434  0.2149 -0.3596 -0.2650
19891SOL    HW162566   5.963   2.699   7.464  0.2035 -0.5799 -0.5734
19891SOL    HW262567   5.863   2.705   7.350 -0.9867 -1.1953  0.4083
19892SOL     OW62568   8.973   9.405   5.703  0.4442  0.2850  0.2940
19892SOL    HW162569   8.886   9.400   5.744 -0.2297  0.7494 -1.0369
19892SOL    HW262570   9.030   9.440   5.772 -1.2250  3.8848  0.0670
19893SOL     OW62571   7.821   0.931   6.466 -0.0928 -0.0662 -0.2958
19893SOL    HW162572   7.892   0.949   6.404  0.2363  0.6913  0.2883
19893SOL    HW262573   7.854   0.859   6.521  0.0313 -0.0341 -0.3285
19894SOL     OW62574   6.679   6.310   9.325  0.7807  0.4369 -0.1400
19894SOL    HW162575   6.721   6.394   9.340 -0.7984  1.2536 -0.1319
19894SOL    HW262576   6.594   6.316   9.370 -0.0688 -0.5259 -1.5189
19895SOL     OW62577   1.930   0.448   4.299  0.2416 -0.0533  0.1029
19895SOL    HW162578   1.860   0.399   4.343  0.6164 -0.7088 -0.0126
19895SOL    HW262579   1.935   0.408   4.212  0.8576 -0.1035  0.1622
19896SOL     OW62580   4.408   1.027   7.558  0.2204 -0.7441 -0.6097
19896SOL    HW162581   4.437   1.081   7.632  0.3569 -0.4556 -0.8708
19896SOL    HW262582   4.443   0.940   7.577  0.7197 -0.5443 -0.6052
19897SOL     OW62583   5.008   9.868   3.909 -0.0136  0.7688  0.1216
19897SOL    HW162584   4.983   9.960   3.900  1.2941  1.1376 -0.0553
19897SOL    HW262585   4.959   9.823   3.840  0.1078  1.5087 -0.4648
19898SOL     OW62586   4.831   4.956   2.403 -0.3702  0.4828 -0.0410
19898SOL    HW162587   4.872   4.986   2.322 -0.0703  0.9678  0.2838
19898SOL    HW262588   4.857   4.865   2.411 -0.3799  0.4409 -0.4800
19899SOL     OW62589   3.568   5.403   8.480 -0.3912  0.2071  0.6821
19899SOL    HW162590   3.640   5.396   8.543  0.1451 -2.0105 -0.0829
19899SOL    HW262591   3.489   5.401   8.534  0.0549  2.5621  1.5249
19900SOL     OW62592   8.847   8.947   1.846  0.2188  0.2602 -0.5817
19900SOL    HW162593   8.780   9.017   1.846  0.2258  0.2781 -1.3291
19900SOL    HW262594   8.844   8.911   1.934 -0.8399  0.2140 -0.6233
19901SOL     OW62595   6.120   8.083   8.478 -0.0760 -0.2412 -0.0608
19901SOL    HW162596   6.091   7.995   8.452 -1.6763 -0.1649  1.3037
19901SOL    HW262597   6.138   8.075   8.572  1.4233  0.5084 -0.2547
19902SOL     OW62598   7.101  10.181   7.037  0.1294  0.5411  0.1092
19902SOL    HW162599   7.144  10.245   7.094  0.9990  0.0118  0.0621
19902SOL    HW262600   7.171  10.122   7.009 -0.3026  0.6746 -1.3678
19903SOL     OW62601   0.249   1.989   8.163  0.0159 -0.0697  0.3915
19903SOL    HW162602   0.262   2.080   8.138 -0.0692 -0.0984  0.2407
19903SOL    HW262603   0.325   1.967   8.217 -0.5223  0.4418  1.3899
19904SOL     OW62604   9.073   5.059   2.981 -0.1483  0.7359 -0.0882
19904SOL    HW162605   9.026   5.105   2.911 -0.7054 -1.2822 -1.1235
19904SOL    HW262606   9.148   5.020   2.937  0.1695  0.4601  0.6995
19905SOL     OW62607   3.807   3.331   9.332  0.5468 -0.4516 -0.2960
19905SOL    HW162608   3.713   3.336   9.352  0.4205  1.2968 -1.0788
19905SOL    HW262609   3.810   3.292   9.245  0.5822 -0.9347 -0.0796
19906SOL     OW62610   8.270   9.399   4.426 -0.3140 -0.0800 -0.2492
19906SOL    HW162611   8.266   9.409   4.521 -0.8886 -0.7126 -0.2035
19906SOL    HW262612   8.311   9.313   4.413  1.1748  0.6593 -0.5955
19907SOL     OW62613   1.596   6.075   7.465 -0.2246 -0.3180 -0.1183
19907SOL    HW162614   1.536   6.123   7.524 -1.4939 -0.3412 -1.3431
19907SOL    HW262615   1.661   6.036   7.524 -0.8817  0.4583  1.1768
19908SOL     OW62616   0.126  10.544   3.547  0.5128 -0.0713  0.0842
19908SOL    HW162617   0.153  10.513   3.634 -0.4544  1.4211  0.9417
19908SOL    HW262618   0.059  10.610   3.564 -0.9115 -0.9205 -1.8677
19909SOL     OW62619   7.908   4.879  10.482  0.4663  0.6046 -0.5238
19909SOL    HW162620   7.869   4.808  10.532  0.7516 -0.4045 -1.6664
19909SOL    HW262621   7.987   4.902  10.530  0.3005  0.2210 -0.0622
19910SOL     OW62622   2.237   1.745   0.271 -0.2164 -0.4391 -0.7219
19910SOL    HW162623   2.152   1.703   0.284  0.6712 -1.8117  1.1337
19910SOL    HW262624   2.300   1.673   0.270  1.3423  0.6929  2.2889
19911SOL     OW62625   5.309   8.244   4.887  0.7919  0.1705 -0.1432
19911SOL    HW162626   5.323   8.181   4.957 -1.4118 -1.3031 -0.9194
19911SOL    HW262627   5.373   8.313   4.903  0.8942 -0.4929  2.8292
19912SOL     OW62628   0.934   6.307  10.201 -0.0260 -0.3521 -0.2343
19912SOL    HW162629   1.024   6.328  10.177 -0.1980  0.5733 -0.0864
19912SOL    HW262630   0.936   6.214  10.223  0.9982 -0.2250  0.2382
19913SOL     OW62631   9.745   1.375   9.324  0.1450  0.0998  0.1816
19913SOL    HW162632   9.821   1.390   9.268 -0.9211 -1.7301 -1.9553
19913SOL    HW262633   9.777   1.322   9.396  1.0983  0.2570 -0.1219
19914SOL     OW62634   9.565   3.479   1.574  0.1969  0.3519  0.0759
19914SOL    HW162635   9.559   3.507   1.666  1.0946  0.7417  0.0247
19914SOL    HW262636   9.641   3.524   1.540  1.3687 -1.6864 -0.1851
19915SOL     OW62637   2.218   3.130   6.658  0.0078  0.3497 -0.1513
19915SOL    HW162638   2.194   3.163   6.571 -0.2102  1.8711  0.4690
19915SOL    HW262639   2.137   3.091   6.692 -0.2639  0.9573 -0.0938
19916SOL     OW62640   7.254   3.075  10.020 -0.0719  0.1245  0.1575
19916SOL    HW162641   7.342   3.094   9.988  0.2284 -0.4939  0.5901
19916SOL    HW262642   7.210   3.160  10.021  0.2623  0.3256 -0.8102
19917SOL     OW62643   4.806   2.247   7.398 -0.2048 -0.1022 -0.5632
19917SOL    HW162644   4.845   2.162   7.420 -0.1621 -0.0047 -0.2635
19917SOL    HW262645   4.753   2.229   7.320 -0.4676 -0.4792 -0.3037
19918SOL     OW62646   2.729   3.882   9.553 -0.3808 -0.3750 -0.0789
19918SOL    HW162647   2.769   3.913   9.634 -0.7743  0.0223 -0.0310
19918SOL    HW262648   2.728   3.787   9.561 -0.4876 -0.3321  0.4113
19919SOL     OW62649   5.618   4.854   9.952 -0.6287 -0.1922 -0.1272
19919SOL    HW162650   5.571   4.801   9.888 -0.9584  1.8246 -1.6492
19919SOL    HW262651   5.612   4.804  10.033 -2.8662 -1.3939 -0.9495
19920SOL     OW62652   3.919   0.321   7.873 -0.2816 -0.4263 -0.4472
19920SOL    HW162653   3.901   0.296   7.964  0.3476  2.2547  0.5328
19920SOL    HW262654   3.839   0.364   7.843  0.3182  0.9257 -0.2216
19921SOL     OW62655   9.624   7.554  10.430  0.2775 -0.6146 -0.5586
19921SOL    HW162656   9.573   7.474  10.422  0.4707 -0.7586 -0.3606
19921SOL    HW262657   9.668   7.546  10.515 -1.5146  0.7584  0.5724
19922SOL     OW62658   6.306   8.695   6.070  0.0477 -0.1243 -0.5923
19922SOL    HW162659   6.273   8.783   6.088 -0.0608 -0.3822  0.5686
19922SOL    HW262660   6.400   8.700   6.087  0.5812  0.4630 -3.3305
19923SOL     OW62661   9.340   4.265   7.484 -0.0292 -0.3552  0.4272
19923SOL    HW162662   9.404   4.217   7.536  0.3006  1.8874  2.2387
19923SOL    HW262663   9.282   4.305   7.548  0.7716  3.0638 -0.7900
19924SOL     OW62664  10.727   4.634   1.495  0.1224 -0.1642 -0.7332
19924SOL    HW162665  10.635   4.616   1.475 -0.0470  1.0291 -1.1175
19924SOL    HW262666  10.776   4.587   1.428 -0.0476 -2.9294  0.9583
19925SOL     OW62667   2.152   0.465   4.633 -0.2920  0.0107  0.0052
19925SOL    HW162668   2.096   0.387   4.639  0.6719 -0.7274 -0.4212
19925SOL    HW262669   2.241   0.431   4.639  0.1262  1.2403  1.5122
19926SOL     OW62670   0.205   8.001   6.270  0.0921 -0.0489 -0.0320
19926SOL    HW162671   0.133   7.985   6.209 -0.8876 -0.9221  1.2965
19926SOL    HW262672   0.206   8.096   6.281 -2.4912 -0.1226  1.7221
19927SOL     OW62673   1.235   1.906  10.233 -0.4516  0.1838  0.3265
19927SOL    HW162674   1.172   1.959  10.185  1.0054  2.5479  0.8758
19927SOL    HW262675   1.300   1.879  10.166 -0.5812  0.0406  0.2571
19928SOL     OW62676  10.243   1.303   9.249 -0.2901  0.1565  0.0946
19928SOL    HW162677  10.290   1.332   9.170  0.7867  0.4764  0.8217
19928SOL    HW262678  10.307   1.248   9.295  0.1978  2.2565  2.1510
19929SOL     OW62679   4.405   7.735   8.579 -0.2211 -0.3329 -0.2801
19929SOL    HW162680   4.325   7.738   8.630 -0.8125 -2.1531 -1.0388
19929SOL    HW262681   4.443   7.649   8.597  0.9783  0.0648 -0.7914
19930SOL     OW62682   0.683   3.790   8.472  0.4670  0.4576 -0.2728
19930SOL    HW162683   0.637   3.824   8.396 -1.0197 -1.1341 -0.1368
19930SOL    HW262684   0.776   3.807   8.453 -0.0117  2.2994 -1.2699
19931SOL     OW62685  10.147   6.945   8.712 -0.2318 -1.4161 -0.4604
19931SOL    HW162686  10.233   6.943   8.670 -0.2466  0.4288 -0.6406
19931SOL    HW262687  10.153   6.879   8.781  2.3412  0.6051  1.4485
19932SOL     OW62688   5.837   5.515   7.212 -0.0310  0.0100  0.0332
19932SOL    HW162689   5.805   5.456   7.144  0.1099  2.2123 -2.0823
19932SOL    HW262690   5.762   5.528   7.270 -0.7726 -0.3612 -0.8193
19933SOL     OW62691   4.143   4.258   9.273  0.2492  0.0145 -0.2024
19933SOL    HW162692   4.224   4.305   9.292 -0.7146  1.6588  0.0363
19933SOL    HW262693   4.169   4.190   9.210  1.6077  1.2625 -1.0549
19934SOL     OW62694   9.160   1.625   5.330  0.3130 -0.3861  0.3761
19934SOL    HW162695   9.106   1.667   5.263  0.2049  1.3490  1.4872
19934SOL    HW262696   9.163   1.533   5.304 -1.5248 -0.1687 -0.7886
19935SOL     OW62697   7.913   1.513   7.593 -0.1647 -0.7306  0.4791
19935SOL    HW162698   7.839   1.561   7.631 -1.0019 -1.0045 -0.7497
19935SOL    HW262699   7.930   1.442   7.655 -0.3754 -0.1734  1.1941
19936SOL     OW62700   0.293   9.545   2.665  0.0353 -0.3805  0.3652
19936SOL    HW162701   0.257   9.580   2.584 -0.1692  0.3120  0.7444
19936SOL    HW262702   0.223   9.491   2.701  0.0777 -0.5821  0.1446
19937SOL     OW62703  10.365   2.469   3.369  0.4004  1.0055 -0.5989
19937SOL    HW162704  10.330   2.558   3.365 -1.1561  0.4322 -0.2907
19937SOL    HW262705  10.368   2.441   3.278 -3.9950 -0.3824 -0.5371
19938SOL     OW62706   8.748   9.640   3.325  0.4026  0.2132 -0.0498
19938SOL    HW162707   8.689   9.577   3.283  0.8795  1.0717 -2.1082
19938SOL    HW262708   8.794   9.682   3.253  1.8145  1.2691  1.3927
19939SOL     OW62709   7.185   5.050   5.605  0.4054  0.0595 -0.6619
19939SOL    HW162710   7.210   5.127   5.553 -0.7860  0.5370 -0.5602
19939SOL    HW262711   7.091   5.060   5.619  0.0974 -1.7392 -1.1674
19940SOL     OW62712   0.172   0.690  10.617  0.1312 -0.0231  0.0882
19940SOL    HW162713   0.267   0.700  10.612  0.0568  0.3333 -0.8654
19940SOL    HW262714   0.140   0.728  10.535 -1.0149  2.2016  1.4695
19941SOL     OW62715   4.035   1.351   3.491  0.3277 -0.4775 -0.0608
19941SOL    HW162716   4.107   1.291   3.469  1.0893  1.0472 -1.9540
19941SOL    HW262717   4.065   1.436   3.461 -1.8865  0.3823  0.0297
19942SOL     OW62718   0.335   4.054   2.335 -0.0222 -0.2924 -0.2414
19942SOL    HW162719   0.257   4.110   2.340  0.0470 -0.2885  1.1175
19942SOL    HW262720   0.325   4.007   2.252 -1.7542 -0.6671  0.1284
19943SOL     OW62721   5.622   7.288   9.285  0.5602  0.1793 -0.7152
19943SOL    HW162722   5.685   7.217   9.270 -2.3526 -2.5358 -1.0876
19943SOL    HW262723   5.578   7.264   9.366 -1.0910  1.0926 -1.3065
19944SOL     OW62724   5.207   1.081   1.983  0.0992 -0.3223 -0.1885
19944SOL    HW162725   5.272   1.040   1.925  2.5711  4.5193 -1.3991
19944SOL    HW262726   5.186   1.164   1.940 -2.6093  0.8805  3.0478
19945SOL     OW62727   0.050   4.232   6.806 -0.1513 -0.2409  0.0604
19945SOL    HW162728   0.023   4.314   6.765  1.0762 -0.0780 -0.4657
19945SOL    HW262729  -0.031   4.193   6.838 -1.0643  0.0215 -1.8062
19946SOL     OW62730   0.595   0.422   8.530 -0.4670  0.1445 -0.2510
19946SOL    HW162731   0.625   0.354   8.469 -1.4347 -0.9991  0.4936
19946SOL    HW262732   0.517   0.458   8.488  0.3615  1.2304 -0.9133
19947SOL     OW62733   8.600   2.331   5.698 -0.1249 -0.6209 -0.6850
19947SOL    HW162734   8.607   2.237   5.712 -0.4744 -0.4961  0.4259
19947SOL    HW262735   8.539   2.361   5.765 -0.0224  0.3994 -1.0266
19948SOL     OW62736   3.706  10.099   2.213  0.2673 -0.6752  0.1579
19948SOL    HW162737   3.795  10.133   2.219 -0.3961  2.1087 -2.8355
19948SOL    HW262738   3.701  10.060   2.126 -1.3609 -0.9477  0.3435
19949SOL     OW62739   0.451   0.317   1.805  0.1616 -1.2885  0.2477
19949SOL    HW162740   0.473   0.275   1.888 -0.3579 -0.5650  0.7671
19949SOL    HW262741   0.368   0.361   1.821 -0.3079 -1.7221 -0.8757
19950SOL     OW62742   7.260   3.627   6.890 -0.1003 -0.0764  0.3550
19950SOL    HW162743   7.268   3.628   6.795 -0.1333 -0.2457  0.3506
19950SOL    HW262744   7.226   3.540   6.911 -0.9810  0.2711  0.4490
19951SOL     OW62745   5.641   3.704   5.024 -0.1035  0.1714 -0.2003
19951SOL    HW162746   5.638   3.615   4.987  0.5971 -0.1746  0.5495
19951SOL    HW262747   5.722   3.706   5.074 -1.8347 -0.0243  2.8678
19952SOL     OW62748   8.994   2.486   8.250  0.2880 -0.5754  0.0508
19952SOL    HW162749   8.971   2.543   8.177  0.2158 -1.7498 -0.8686
19952SOL    HW262750   9.048   2.418   8.211  0.4130 -1.1118  1.1328
19953SOL     OW62751  10.486   6.337  10.702 -0.0167 -0.3043 -0.3257
19953SOL    HW162752  10.410   6.394  10.713  0.1358  0.1596 -1.4824
19953SOL    HW262753  10.470   6.292  10.619  2.6247  2.6338 -2.7418
19954SOL     OW62754   9.792   9.553   4.019 -0.0683 -0.1524 -0.4867
19954SOL    HW162755   9.876   9.542   3.976 -0.2141 -0.9156 -0.5816
19954SOL    HW262756   9.762   9.640   3.990  0.5584  0.0130 -0.6526
19955SOL     OW62757   8.357   5.466   8.819  0.0976  0.0232 -0.7460
19955SOL    HW162758   8.263   5.464   8.838 -0.2741  2.2406 -1.9651
19955SOL    HW262759   8.377   5.559   8.806  2.5756 -0.3400 -0.1096
19956SOL     OW62760   6.562   4.170   4.815 -0.4367 -0.2173 -0.1242
19956SOL    HW162761   6.544   4.139   4.904  0.9743 -0.2738  0.1608
19956SOL    HW262762   6.638   4.119   4.786 -1.5473 -1.0146 -1.8183
19957SOL     OW62763   6.983   7.735   1.529 -0.4885 -0.0608  1.5983
19957SOL    HW162764   6.903   7.786   1.516 -0.3946 -0.0565  0.9874
19957SOL    HW262765   6.971   7.658   1.472 -0.0126 -0.0050  1.4174
19958SOL     OW62766   7.429   7.299   5.819  0.2065  0.6376 -0.4419
19958SOL    HW162767   7.499   7.361   5.801 -0.0591  0.6242 -1.6228
19958SOL    HW262768   7.454   7.257   5.901  1.0376  1.3827 -0.2990
19959SOL     OW62769   4.138   5.580   7.024  0.2072 -0.1662  0.3873
19959SOL    HW162770   4.070   5.591   6.958  1.1906 -0.1084 -0.6470
19959SOL    HW262771   4.145   5.666   7.066  1.3445  0.5901 -1.2254
19960SOL     OW62772   1.011   2.522   3.639 -0.0518  0.2317 -0.0045
19960SOL    HW162773   0.984   2.540   3.549  1.2302 -0.5433 -0.5791
19960SOL    HW262774   1.035   2.430   3.639  0.3269  0.3148  1.0408
19961SOL     OW62775   4.412   1.557   5.350 -0.1545  0.1415  0.3584
19961SOL    HW162776   4.440   1.627   5.409  0.0832  1.1787 -0.9489
19961SOL    HW262777   4.350   1.506   5.402  1.1397  0.1389  1.9944
19962SOL     OW62778   9.397   7.614   5.473 -0.0524  0.2105 -0.2919
19962SOL    HW162779   9.359   7.528   5.453  0.6706 -0.3354  0.6186
19962SOL    HW262780   9.323   7.675   5.464 -1.1289 -0.7903  1.1985
19963SOL     OW62781   3.814   3.042   4.671 -0.0432 -0.5834  0.2087
19963SOL    HW162782   3.882   3.048   4.737 -1.0103 -0.3737  1.2240
19963SOL    HW262783   3.757   2.971   4.702 -1.3301  0.5005  0.4136
19964SOL     OW62784   7.676   9.214   9.253  0.0440 -0.0580  0.2729
19964SOL    HW162785   7.633   9.132   9.276  0.3391 -0.4976 -0.6910
19964SOL    HW262786   7.624   9.281   9.297  0.0891 -0.7813  1.4949
19965SOL     OW62787   0.706   8.696   7.751 -0.2889 -0.4819  0.1455
19965SOL    HW162788   0.624   8.703   7.799  1.0518 -1.1180  2.7300
19965SOL    HW262789   0.755   8.776   7.776  1.8007 -2.3929  2.8742
19966SOL     OW62790   9.615  10.062   9.674  0.2967 -0.5243 -0.1724
19966SOL    HW162791   9.555  10.134   9.651  0.6721 -0.1786 -0.0736
19966SOL    HW262792   9.571   9.984   9.641  0.3988 -0.1335 -1.2942
19967SOL     OW62793   8.493   1.094   6.285  0.4268 -0.3912 -0.1623
19967SOL    HW162794   8.484   1.023   6.221  3.4645 -2.1853  1.2176
19967SOL    HW262795   8.561   1.151   6.248  0.3235  0.0188  0.2693
19968SOL     OW62796   0.710   3.881  10.527 -1.1499  0.3443 -0.1491
19968SOL    HW162797   0.722   3.831  10.446 -2.7816  2.1329 -1.5867
19968SOL    HW262798   0.618   3.871  10.548 -0.5209 -1.0992  2.2682
19969SOL     OW62799   1.228   3.351   5.857  0.0764 -0.6790 -0.4155
19969SOL    HW162800   1.227   3.403   5.936 -1.8528 -0.2923 -0.6381
19969SOL    HW262801   1.145   3.371   5.813  0.1193 -2.4751 -1.4655
19970SOL     OW62802   2.784  10.470   7.403  0.6343 -0.3004 -0.0691
19970SOL    HW162803   2.823  10.414   7.337  0.1748 -0.4076 -0.2546
19970SOL    HW262804   2.714  10.417   7.441 -0.4172  0.4689 -0.8895
19971SOL     OW62805   7.456   5.859   4.266  0.1358 -0.3533  0.1390
19971SOL    HW162806   7.486   5.923   4.331 -2.4046  2.2885 -1.0270
19971SOL    HW262807   7.420   5.787   4.317  0.1567  0.6666  1.6583
19972SOL     OW62808   4.580  10.186   2.643  0.3379  0.0305 -0.1206
19972SOL    HW162809   4.590  10.112   2.703 -0.8476  0.7542  1.0312
19972SOL    HW262810   4.489  10.180   2.612  0.0073  1.3491  0.5146
19973SOL     OW62811   0.063   3.697   8.290 -0.0982 -0.0079 -0.7905
19973SOL    HW162812   0.014   3.725   8.367  0.4186  0.2841 -0.5565
19973SOL    HW262813   0.155   3.714   8.312 -0.0026  0.9309 -1.8097
19974SOL     OW62814   3.523  10.011   8.290 -0.1976  0.2959 -0.6024
19974SOL    HW162815   3.465  10.043   8.220  0.0927  1.1225 -0.4803
19974SOL    HW262816   3.495  10.060   8.368  0.2493  0.2361 -0.4028
19975SOL     OW62817   4.047   1.327   2.574 -0.2515 -0.1595 -0.6219
19975SOL    HW162818   3.998   1.372   2.505 -0.7324 -1.2190 -0.9902
19975SOL    HW262819   4.122   1.384   2.590 -0.7848  0.7253 -1.1362
19976SOL     OW62820   6.926   0.781   2.606  0.1153 -0.2249  0.3537
19976SOL    HW162821   6.891   0.740   2.685 -0.4558 -1.1859 -0.3786
19976SOL    HW262822   7.018   0.754   2.605  0.5320  1.0161  1.4481
19977SOL     OW62823   9.336   1.702   6.602  0.5428  0.0859  0.5109
19977SOL    HW162824   9.270   1.632   6.596 -0.6333  1.1642  0.5173
19977SOL    HW262825   9.376   1.705   6.515 -0.8789  0.7896 -0.1538
19978SOL     OW62826  10.262   9.485   7.924 -0.1448  0.6554  0.0018
19978SOL    HW162827  10.191   9.422   7.936 -0.3558  0.5471 -1.6820
19978SOL    HW262828  10.339   9.441   7.959 -0.6090  0.1657  0.4333
19979SOL     OW62829   6.661   8.389   0.188  0.1519  0.1325 -0.0361
19979SOL    HW162830   6.619   8.320   0.240  0.4358 -1.1454 -1.4217
19979SOL    HW262831   6.600   8.405   0.116  0.4294  0.8251 -0.1265
19980SOL     OW62832   4.965   9.757   8.058 -0.3350  0.0195  0.1494
19980SOL    HW162833   4.984   9.665   8.036 -0.3452 -0.3347  1.5480
19980SOL    HW262834   4.960   9.801   7.973  0.8854 -1.0325 -0.5069
19981SOL     OW62835   3.158   2.441   4.754  0.0050  0.0470 -0.1485
19981SOL    HW162836   3.212   2.504   4.708 -0.5930  0.0611 -0.8699
19981SOL    HW262837   3.073   2.446   4.710 -0.4220 -0.3516  0.6029
19982SOL     OW62838   9.180   0.112   1.541 -0.0250 -0.2580  0.3307
19982SOL    HW162839   9.144   0.135   1.456  0.3138  2.9711  0.9185
19982SOL    HW262840   9.233   0.034   1.525 -1.3163 -0.7336 -2.0094
19983SOL     OW62841   9.148   4.399   5.332 -0.4126 -0.2633  0.3683
19983SOL    HW162842   9.071   4.354   5.299 -0.5585  0.5816 -0.4886
19983SOL    HW262843   9.115   4.482   5.365  0.3169  0.9394 -1.7323
19984SOL     OW62844   3.263   4.466   5.361  0.5362  0.0861  0.1563
19984SOL    HW162845   3.359   4.462   5.365  0.5055 -0.6016  0.4803
19984SOL    HW262846   3.244   4.526   5.289  1.2128  0.1103 -0.0087
19985SOL     OW62847   7.959   3.967   0.709  1.0004  0.1408 -0.0616
19985SOL    HW162848   7.994   3.942   0.624  0.9453 -0.2553  0.0319
19985SOL    HW262849   8.020   3.929   0.772  0.9161  0.2433  0.0826
19986SOL     OW62850   6.332   2.296   0.874  0.1844 -0.1145 -0.2499
19986SOL    HW162851   6.369   2.383   0.858  1.1511 -0.1790  1.3939
19986SOL    HW262852   6.407   2.237   0.874 -0.1758 -0.6017  0.8517
19987SOL     OW62853   8.722   9.965   5.777  0.2391 -0.5805  0.2516
19987SOL    HW162854   8.653   9.963   5.843  0.5004  1.8563  0.6852
19987SOL    HW262855   8.688  10.023   5.709  1.2016 -0.6623 -0.3129
19988SOL     OW62856   7.475   1.966   1.017  1.1691  0.2381  0.5940
19988SOL    HW162857   7.485   1.880   0.977 -1.1722 -0.4688  1.3573
19988SOL    HW262858   7.388   1.995   0.990  2.5281  3.2315 -1.1138
19989SOL     OW62859   5.818   7.667   7.492  0.3183  0.3573 -0.1236
19989SOL    HW162860   5.756   7.659   7.565 -2.1256 -0.9948 -2.1818
19989SOL    HW262861   5.777   7.730   7.433  1.2587 -0.0198 -1.2180
19990SOL     OW62862  10.491   3.264   7.335  0.2852 -0.3114 -0.4607
19990SOL    HW162863  10.402   3.239   7.361 -0.2287  1.0173 -0.8758
19990SOL    HW262864  10.502   3.228   7.247  0.9208 -2.1976  0.3425
19991SOL     OW62865   5.067   3.800   8.270  0.5705 -0.1204 -0.2431
19991SOL    HW162866   5.026   3.817   8.355  0.0573 -1.1579 -0.2716
19991SOL    HW262867   5.126   3.875   8.256  1.3107 -0.3522  1.4159
19992SOL     OW62868   5.114   5.688  10.147 -0.0274 -0.4188  0.8574
19992SOL    HW162869   5.043   5.652  10.200 -0.1094 -0.1530  0.9294
19992SOL    HW262870   5.072   5.755  10.093 -0.2651 -1.8027 -0.7531
19993SOL     OW62871   0.610   8.921   6.828 -0.4038 -0.3637 -0.4075
19993SOL    HW162872   0.552   8.863   6.778  0.5457 -0.5633 -1.3294
19993SOL    HW262873   0.607   9.004   6.780 -2.7809  0.8459  1.6369
19994SOL     OW62874   3.207   3.794   4.906 -0.0296 -0.1042 -0.2880
19994SOL    HW162875   3.193   3.887   4.889 -1.5593 -0.2789 -0.1333
19994SOL    HW262876   3.290   3.774   4.863 -0.0206  1.1734 -0.9127
19995SOL     OW62877   6.166   9.064  10.207  0.2291 -0.4609  0.2640
19995SOL    HW162878   6.094   9.078  10.269  2.1694  0.7739  2.4014
19995SOL    HW262879   6.183   8.970  10.210 -0.1629 -0.5097  1.0734
19996SOL     OW62880   4.829  10.779   3.717  0.1214 -0.1855 -0.3260
19996SOL    HW162881   4.825  10.869   3.684 -1.8379 -0.8351 -2.0667
19996SOL    HW262882   4.856  10.727   3.641  0.8324 -1.1267  0.5470
19997SOL     OW62883   3.155   3.533   5.804 -0.4208  0.2240 -0.4714
19997SOL    HW162884   3.120   3.615   5.771 -1.0462  0.3570  0.4779
19997SOL    HW262885   3.079   3.475   5.812 -0.2484  0.0954  0.3958
19998SOL     OW62886   0.994   7.763   4.596 -0.1062  0.4059 -0.0389
19998SOL    HW162887   1.026   7.734   4.682 -1.6960 -2.1544 -0.2243
19998SOL    HW262888   0.949   7.846   4.615  0.1198  0.2152  1.4892
19999SOL     OW62889   1.021   4.169   1.989  0.7253  0.5745  0.5406
19999SOL    HW162890   1.101   4.117   1.980  0.6850  0.6556 -0.4131
19999SOL    HW262891   0.985   4.172   1.900 -0.4527  0.3633  1.0013
20000SOL     OW62892   3.515   3.439   4.815 -0.0376 -0.2932  0.4299
20000SOL    HW162893   3.546   3.379   4.747  0.8954  0.1619  0.4325
20000SOL    HW262894   3.421   3.423   4.821  0.2202 -1.9438  0.6173
20001SOL     OW62895   9.277   1.996   3.961 -0.1726  0.0656  0.2683
20001SOL    HW162896   9.371   2.010   3.946 -0.0125 -1.2861 -0.2049
20001SOL    HW262897   9.239   1.990   3.874 -1.0614  2.4563  0.4282
20002SOL     OW62898  10.764   2.660   3.640 -0.3069  0.4084 -0.4094
20002SOL    HW162899  10.745   2.582   3.588  0.9397 -0.4419  0.3446
20002SOL    HW262900  10.824   2.629   3.708 -0.6481  1.8080  0.5763
20003SOL     OW62901   8.672   4.991   1.300 -0.0626 -0.2142  0.3098
20003SOL    HW162902   8.636   4.960   1.383 -1.0013  0.8285  0.3097
20003SOL    HW262903   8.710   4.912   1.260 -2.5563 -1.4566  0.2009
20004SOL     OW62904  10.065   0.350   5.225 -0.1953  0.1596  0.0467
20004SOL    HW162905  10.135   0.354   5.161 -0.2430 -0.4252 -0.0503
20004SOL    HW262906  10.090   0.413   5.293 -0.1474  0.7867 -0.5400
20005SOL     OW62907  10.089   3.933  10.102 -0.1462  0.3184  0.1912
20005SOL    HW162908  10.032   3.927  10.025 -1.4718  2.5480  0.9126
20005SOL    HW262909  10.049   3.876  10.167 -1.0056  1.1033  0.3601
20006SOL     OW62910   1.217   8.376   2.187 -0.2609  0.0945 -0.6430
20006SOL    HW162911   1.230   8.440   2.257  3.4267 -0.6091 -0.4657
20006SOL    HW262912   1.144   8.410   2.136 -1.8013  1.6717  2.3566
20007SOL     OW62913   0.825   0.458   0.687 -0.1785  0.6653 -0.3337
20007SOL    HW162914   0.840   0.479   0.780 -1.1716  0.2252 -0.0641
20007SOL    HW262915   0.732   0.437   0.682 -0.5370  2.3628 -1.7630
20008SOL     OW62916   0.233   4.213   6.305 -0.0340  0.3017  0.3724
20008SOL    HW162917   0.207   4.242   6.392  2.2885  0.3952  1.0993
20008SOL    HW262918   0.183   4.270   6.246  0.0847  1.8483  1.6777
20009SOL     OW62919   5.617   9.768   3.597  0.4360  0.1887  0.5272
20009SOL    HW162920   5.579   9.758   3.684 -1.7911  0.3316 -0.3871
20009SOL    HW262921   5.672   9.690   3.586 -1.9084 -1.6102  0.7877
20010SOL     OW62922   6.247   5.179   7.214  0.2134 -0.0823  0.0218
20010SOL    HW162923   6.231   5.108   7.276  2.1127  0.1823  0.8817
20010SOL    HW262924   6.178   5.243   7.232 -0.4654 -0.9212  0.4420
20011SOL     OW62925   9.364   6.230   6.920  0.0574  0.2048 -0.0067
20011SOL    HW162926   9.387   6.260   7.008  1.1513 -0.1465 -0.1584
20011SOL    HW262927   9.275   6.198   6.928  0.7411 -1.5419  1.4339
20012SOL     OW62928   7.043   1.163  10.638  0.1927  0.6461  0.4419
20012SOL    HW162929   6.981   1.201  10.575  1.0623  1.2694 -0.0629
20012SOL    HW262930   7.095   1.102  10.587  0.2168  0.3684  0.7928
20013SOL     OW62931   7.120   8.591   0.528  0.1104  0.4829 -0.9009
20013SOL    HW162932   7.113   8.594   0.432 -0.5221  1.1497 -0.8464
20013SOL    HW262933   7.037   8.627   0.559  0.2866  0.2153 -0.0964
20014SOL     OW62934   3.432   8.283   9.815  0.3590 -0.2883  0.4575
20014SOL    HW162935   3.493   8.216   9.847  1.3243  0.0696 -0.5676
20014SOL    HW262936   3.407   8.331   9.894  0.9150 -0.8347  0.9836
20015SOL     OW62937   2.354   5.515   8.483 -0.3278  0.3450 -0.1698
20015SOL    HW162938   2.397   5.579   8.540  2.2211 -0.7255 -0.7632
20015SOL    HW262939   2.316   5.567   8.413  1.8886  1.2622 -0.7683
20016SOL     OW62940   1.549   1.192   3.550 -0.1140  0.5835 -0.2886
20016SOL    HW162941   1.480   1.257   3.562 -0.1893  0.4148  0.2253
20016SOL    HW262942   1.549   1.174   3.456 -2.7517 -1.5608 -0.0115
20017SOL     OW62943   5.297   7.337   8.259 -0.0898 -0.1788  0.1996
20017SOL    HW162944   5.315   7.252   8.299  0.1699 -0.7820 -1.1363
20017SOL    HW262945   5.212   7.363   8.294  0.5380 -0.2104  1.8455
20018SOL     OW62946   1.468   4.530   7.761  0.3763 -0.7916  0.0089
20018SOL    HW162947   1.422   4.536   7.844 -1.9098 -0.6929 -1.1930
20018SOL    HW262948   1.444   4.610   7.714  0.7575 -1.3421 -1.1667
20019SOL     OW62949   1.333   4.293   9.895  0.3337 -0.0707 -0.3569
20019SOL    HW162950   1.286   4.213   9.873 -0.2141  0.0486  0.3314
20019SOL    HW262951   1.265   4.360   9.902  0.6067  0.1359  0.5239
20020SOL     OW62952   5.830   9.963  10.138 -0.7312  0.3352 -0.1540
20020SOL    HW162953   5.875  10.047  10.130 -0.0391  0.0224  0.3728
20020SOL    HW262954   5.805   9.957  10.230  0.3750 -0.5890  0.1171
20021SOL     OW62955   4.181   9.388   9.961 -0.2795 -0.3073  0.5322
20021SOL    HW162956   4.247   9.322   9.942  0.8816  1.0268 -0.2496
20021SOL    HW262957   4.215   9.435  10.037 -0.0263  0.7430 -0.2101
20022SOL     OW62958   9.004   6.965   4.685 -0.0037 -0.0684 -0.3393
20022SOL    HW162959   9.010   6.871   4.698 -0.1597 -0.2209 -1.3071
20022SOL    HW262960   9.080   7.001   4.730  0.6487 -0.7599 -0.8698
20023SOL     OW62961   9.276   5.969   9.586 -0.5303  0.2177  0.2313
20023SOL    HW162962   9.368   5.976   9.613 -0.6776  1.4207  0.4375
20023SOL    HW262963   9.258   5.875   9.590  1.5559 -0.4461 -2.7309
20024SOL     OW62964   8.758   0.481   7.022 -0.1334  0.1166 -0.1575
20024SOL    HW162965   8.820   0.455   7.090  0.1883 -2.3478 -1.2932
20024SOL    HW262966   8.799   0.454   6.940 -1.3035  1.3723 -1.1914
20025SOL     OW62967   4.815  10.025   4.375  0.0998  0.0133  1.0992
20025SOL    HW162968   4.883  10.053   4.314 -0.4301  0.3012  0.6337
20025SOL    HW262969   4.739  10.078   4.352 -1.2096 -2.3163 -0.3258
20026SOL     OW62970   4.976   9.301   7.860  0.1818  0.0967  1.4714
20026SOL    HW162971   4.984   9.258   7.775 -0.4115  1.0527  0.9116
20026SOL    HW262972   4.977   9.395   7.839  1.3725  0.3746  2.6405
20027SOL     OW62973  10.715   5.767   9.195  0.0632  0.3000  0.4765
20027SOL    HW162974  10.704   5.799   9.284 -0.1959 -0.0596  0.5735
20027SOL    HW262975  10.784   5.701   9.201  0.9419  1.1588  0.1942
20028SOL     OW62976   7.378   8.442   6.593 -0.3202 -0.1449 -0.1339
20028SOL    HW162977   7.303   8.386   6.611 -0.7455  0.7114  0.9446
20028SOL    HW262978   7.444   8.384   6.556 -0.8745 -1.2763  0.5935
20029SOL     OW62979   5.734  10.258   4.192 -0.1434  0.0053 -0.0111
20029SOL    HW162980   5.769  10.225   4.109 -1.5901 -0.5112 -0.4447
20029SOL    HW262981   5.731  10.353   4.181  1.5422  0.1112  0.2290
20030SOL     OW62982   7.460   7.846   2.438 -0.0167  0.1595 -0.2538
20030SOL    HW162983   7.512   7.819   2.362  0.8183  0.8975  0.0370
20030SOL    HW262984   7.470   7.774   2.501  1.7121  0.8009  0.2843
20031SOL     OW62985   1.024   6.952   7.672 -0.1638 -0.6638 -0.1362
20031SOL    HW162986   1.092   7.004   7.715  0.5598 -1.8156  0.1842
20031SOL    HW262987   0.942   6.993   7.698  0.4163  1.5261 -1.5519
20032SOL     OW62988   2.388   7.734   8.531  0.7556 -0.1081  0.3100
20032SOL    HW162989   2.399   7.720   8.437  1.4753 -1.2840  0.5473
20032SOL    HW262990   2.322   7.803   8.538 -0.4392 -1.0786 -1.0254
20033SOL     OW62991   2.595   2.860   2.949  0.5973 -0.5762 -0.3206
20033SOL    HW162992   2.546   2.827   2.874 -0.4871 -1.8051  0.8881
20033SOL    HW262993   2.616   2.782   3.001  1.1856  0.2551  0.7351
20034SOL     OW62994   9.254   1.247   5.434 -0.2023  0.3340  0.2703
20034SOL    HW162995   9.204   1.278   5.509 -0.9905  0.1379 -0.1627
20034SOL    HW262996   9.208   1.282   5.358  0.9162  1.0137 -0.1166
20035SOL     OW62997   1.639   3.151   6.415  0.7033 -0.1446 -0.2344
20035SOL    HW162998   1.620   3.239   6.448 -1.0943 -0.6561  0.1887
20035SOL    HW262999   1.593   3.093   6.476  0.7300 -1.3103 -1.3004
20036SOL     OW63000   9.089   0.551   9.352  0.4959 -0.4229  0.1045
20036SOL    HW163001   9.065   0.642   9.337 -0.4036 -0.7129 -0.2914
20036SOL    HW263002   9.152   0.554   9.424 -0.2907  0.4264  0.7823
20037SOL     OW63003   5.953   6.851   0.833  0.0664 -0.6383 -0.1730
20037SOL    HW163004   5.879   6.795   0.812  0.7952 -2.4786  1.7794
20037SOL    HW263005   6.001   6.803   0.901  1.9296  1.4085  0.0779
20038SOL     OW63006   4.722   8.459   9.449 -0.0426 -0.6547  0.2598
20038SOL    HW163007   4.691   8.369   9.459  0.9451 -0.9047  1.4476
20038SOL    HW263008   4.643   8.512   9.443 -0.6992 -1.3821  1.9625
20039SOL     OW63009   6.010   3.062   9.306  0.5189  0.1689  0.1201
20039SOL    HW163010   6.104   3.045   9.299  0.7306  0.8430  1.1586
20039SOL    HW263011   6.003   3.157   9.317 -0.2752  0.0940  0.3135
20040SOL     OW63012   9.270  10.754   1.258  0.4308  0.2313 -0.3686
20040SOL    HW163013   9.281  10.827   1.196 -1.6702  1.2015  0.3217
20040SOL    HW263014   9.182  10.765   1.292  0.6771 -1.7078  1.0149
20041SOL     OW63015   2.447  10.220   3.650 -0.1719  0.3306 -0.4752
20041SOL    HW163016   2.447  10.305   3.695  0.9919 -1.1333  2.6250
20041SOL    HW263017   2.496  10.234   3.570 -0.2786  2.6352 -0.1924
20042SOL     OW63018   7.953   1.919   2.043  0.4332 -0.0362 -0.3731
20042SOL    HW163019   7.990   1.847   2.094 -1.3712 -1.1783 -0.5785
20042SOL    HW263020   7.878   1.949   2.096  0.6011  1.0748 -0.7383
20043SOL     OW63021   0.720   7.717   0.475  0.4773 -0.5255 -0.3204
20043SOL    HW163022   0.732   7.700   0.568  0.4524 -0.3616 -0.2869
20043SOL    HW263023   0.704   7.631   0.436  0.0358 -0.5374 -0.1067
20044SOL     OW63024   5.297   4.621   6.968  0.1964 -0.2705 -0.5635
20044SOL    HW163025   5.319   4.537   6.927 -0.6555 -1.1155  0.6460
20044SOL    HW263026   5.341   4.618   7.053 -1.8502 -0.6114  0.5472
20045SOL     OW63027   7.998   9.554  10.699 -0.3444  0.1122  0.1452
20045SOL    HW163028   8.013   9.562  10.794 -2.5917 -1.6270  0.7354
20045SOL    HW263029   7.927   9.490  10.691 -0.0130 -0.0295 -2.7631
20046SOL     OW63030   3.404  10.339   3.561  0.3356  0.0823 -0.2534
20046SOL    HW163031   3.415  10.431   3.584 -0.1226 -0.2292  1.3509
20046SOL    HW263032   3.458  10.292   3.625  1.1655 -0.7505 -1.5188
20047SOL     OW63033   9.793   3.476   1.020  0.0584 -0.6026  0.1004
20047SOL    HW163034   9.706   3.459   0.984 -0.5678  0.4122  1.0668
20047SOL    HW263035   9.796   3.423   1.099 -0.1467  0.2391  0.6873
20048SOL     OW63036   2.234  10.510   2.023  0.0947 -0.2375 -0.7295
20048SOL    HW163037   2.214  10.487   1.932 -0.3075  0.4793 -0.8300
20048SOL    HW263038   2.199  10.437   2.074 -0.7147 -0.1085 -1.0739
20049SOL     OW63039   1.448   1.359   4.973  0.4937 -0.0752 -0.0541
20049SOL    HW163040   1.499   1.279   4.957 -0.0443 -0.5087  0.3540
20049SOL    HW263041   1.471   1.385   5.061 -1.1331 -1.1702  0.7584
20050SOL     OW63042   7.229   8.734   8.145 -0.0498 -0.2582 -0.5255
20050SOL    HW163043   7.165   8.667   8.167 -0.3758 -0.1068 -0.9857
20050SOL    HW263044   7.290   8.690   8.085  0.1416 -0.3345 -0.2785
20051SOL     OW63045   1.894   5.480   8.858  0.3429 -0.3606  0.3360
20051SOL    HW163046   1.855   5.543   8.919  2.3223 -0.7108  2.0638
20051SOL    HW263047   1.819   5.433   8.822 -0.9561  0.3205  1.9863
20052SOL     OW63048   6.803   7.007   1.680 -0.1532  0.9387  0.4919
20052SOL    HW163049   6.774   6.974   1.764 -2.3100  1.5764  0.0505
20052SOL    HW263050   6.824   6.928   1.629 -1.7265  0.3888  0.6529
20053SOL     OW63051   2.142   9.506   5.302 -0.0954 -0.2408  0.7386
20053SOL    HW163052   2.084   9.549   5.365  0.9809  0.2313  1.4279
20053SOL    HW263053   2.228   9.543   5.319  0.6401 -1.7663  0.5076
20054SOL     OW63054   2.343   7.999   8.420  0.1455  0.2448 -1.1674
20054SOL    HW163055   2.285   7.967   8.351 -2.2546  0.1095  0.7735
20054SOL    HW263056   2.289   8.059   8.471  2.1567  1.1736 -0.0099
20055SOL     OW63057   6.312   9.237   1.384 -0.1322 -0.4927  0.0301
20055SOL    HW163058   6.359   9.155   1.402  1.0578  0.1517 -0.0506
20055SOL    HW263059   6.317   9.247   1.289 -1.8030 -1.1938 -0.1633
20056SOL     OW63060   5.393   0.623   6.411 -0.1475  0.3041  0.0447
20056SOL    HW163061   5.371   0.568   6.336  0.9371  1.3562 -1.0970
20056SOL    HW263062   5.423   0.562   6.478 -2.5868 -0.7995  0.2382
20057SOL     OW63063   9.936   7.340   7.822 -0.2787  0.2535  0.1424
20057SOL    HW163064   9.879   7.408   7.858  0.3194  1.4991 -1.2153
20057SOL    HW263065   9.903   7.326   7.733  1.2848  0.7261 -0.5294
20058SOL     OW63066   9.832   6.091   3.163 -0.1788  0.7545  0.1219
20058SOL    HW163067   9.810   6.010   3.209  1.1308  0.6632  0.6349
20058SOL    HW263068   9.754   6.146   3.171 -0.9123 -0.2615  0.1803
20059SOL     OW63069   0.538  10.735   6.593  0.0933  0.3047 -0.0688
20059SOL    HW163070   0.619  10.757   6.546  1.1174  0.5441  1.6845
20059SOL    HW263071   0.507  10.819   6.628 -0.0003  0.0025  0.5995
20060SOL     OW63072   7.309   5.880   3.376  0.0306  0.2320 -0.6351
20060SOL    HW163073   7.310   5.802   3.321  2.3159  0.0679 -0.4359
20060SOL    HW263074   7.255   5.855   3.452  0.4287 -1.0209 -0.7467
20061SOL     OW63075   2.217  10.109   3.595 -0.2420 -0.7681 -0.0638
20061SOL    HW163076   2.289  10.150   3.643 -0.4226  1.1178 -1.3239
20061SOL    HW263077   2.162  10.070   3.663  1.3374 -1.2754  0.9874
20062SOL     OW63078   8.839   2.708  10.701  0.2213  0.2189 -0.6578
20062SOL    HW163079   8.763   2.671  10.745 -0.1649  0.3188 -1.2400
20062SOL    HW263080   8.905   2.639  10.705 -0.5303 -0.6005 -1.8470
20063SOL     OW63081   2.756   1.721   6.930 -0.3630 -0.1957  0.2191
20063SOL    HW163082   2.702   1.720   7.009  0.6791 -0.5717  0.9570
20063SOL    HW263083   2.824   1.656   6.947 -0.7553 -1.1128 -1.4633
20064SOL     OW63084   5.655   0.313   5.386  0.2348  0.2159  0.3323
20064SOL    HW163085   5.605   0.373   5.441  0.3664  0.0172  0.6668
20064SOL    HW263086   5.635   0.226   5.420 -0.9083 -0.0430 -0.9013
20065SOL     OW63087   3.669  10.770   3.736 -0.1629  0.1968  0.2044
20065SOL    HW163088   3.754  10.813   3.740 -1.2720  2.7882 -1.4608
20065SOL    HW263089   3.624  10.798   3.815  0.0661 -0.1321  0.4538
20066SOL     OW63090   7.152   5.932   0.212 -0.2893  0.3859  0.0802
20066SOL    HW163091   7.142   6.009   0.267  0.1198  0.1092  0.5482
20066SOL    HW263092   7.137   5.964   0.123  1.5024  1.3504  0.0778
20067SOL     OW63093   5.436   1.360   4.580 -0.0853  0.2783  0.3798
20067SOL    HW163094   5.524   1.326   4.570 -1.1205 -2.2685 -1.0367
20067SOL    HW263095   5.424   1.418   4.505  0.5281  1.0672  0.8754
20068SOL     OW63096   1.878   9.356   6.576 -0.0893  0.0121  0.1032
20068SOL    HW163097   1.927   9.276   6.561  2.2072  1.2644  0.5148
20068SOL    HW263098   1.858   9.388   6.488  1.4666  0.3997 -0.1367
20069SOL     OW63099   1.246   3.986   1.911 -0.7128  0.1373  0.8007
20069SOL    HW163100   1.257   3.933   1.832 -0.1335  0.5481  0.6028
20069SOL    HW263101   1.253   4.076   1.881 -2.1529  0.3616  1.0672
20070SOL     OW63102   6.272   8.958   9.100  0.4302 -0.5086  0.3157
20070SOL    HW163103   6.283   9.027   9.166 -0.0096 -0.3587  0.2406
20070SOL    HW263104   6.302   8.878   9.143  2.3563 -0.0457 -0.0881
20071SOL     OW63105   1.957   1.630   1.266  0.0834  0.3349  0.2463
20071SOL    HW163106   2.000   1.684   1.332  1.6516 -0.0342 -0.4460
20071SOL    HW263107   1.999   1.544   1.273 -1.8486 -0.6338  0.8096
20072SOL     OW63108   6.448   1.893   9.065 -0.7619 -0.1738  0.1781
20072SOL    HW163109   6.499   1.812   9.061 -2.3064 -1.1372 -0.9152
20072SOL    HW263110   6.369   1.870   9.112 -0.7416  1.0211  0.8513
20073SOL     OW63111   2.650   2.814   5.059  0.4020  0.0515  0.4832
20073SOL    HW163112   2.568   2.768   5.075  0.8184 -0.2883  1.7263
20073SOL    HW263113   2.694   2.762   4.992 -0.5253  0.4242 -0.4484
20074SOL     OW63114   9.788   0.938   0.300  0.1539 -0.4050  0.8432
20074SOL    HW163115   9.785   0.889   0.218  0.9763 -0.6614  0.9550
20074SOL    HW263116   9.810   0.872   0.367  2.9826  0.3439  0.7565
20075SOL     OW63117  10.016   2.580   6.457 -0.1661  0.2910 -0.4018
20075SOL    HW163118   9.958   2.540   6.521  0.3751 -0.1840 -0.1936
20075SOL    HW263119   9.961   2.595   6.380 -0.6838  0.3524 -0.0237
20076SOL     OW63120   8.630   3.252   2.509 -0.2600 -0.0860 -0.0874
20076SOL    HW163121   8.606   3.250   2.416  1.2591 -0.5424 -0.4873
20076SOL    HW263122   8.551   3.285   2.553 -0.2721  2.3234 -1.7645
20077SOL     OW63123   6.027   9.104   6.031 -0.2133  0.4942 -0.0865
20077SOL    HW163124   6.065   9.131   5.947  0.4572  0.5816  0.2352
20077SOL    HW263125   6.028   9.184   6.084 -1.4587  0.6570 -0.2756
20078SOL     OW63126  10.538   7.820   8.682  0.5135  0.5385 -0.3763
20078SOL    HW163127  10.606   7.837   8.747  1.2758  3.2848 -1.7526
20078SOL    HW263128  10.460   7.865   8.715 -0.6128 -2.0939  0.8916
20079SOL     OW63129   9.866   2.630   0.070  0.4974  0.5167  0.3526
20079SOL    HW163130   9.903   2.717   0.086 -0.5530  0.9702  0.3961
20079SOL    HW263131   9.793   2.645   0.010 -0.1229 -0.2442  0.8887
20080SOL     OW63132   8.480   5.552   7.064  0.3326  0.6282 -0.1321
20080SOL    HW163133   8.524   5.467   7.072 -0.6597  0.1031 -0.0099
20080SOL    HW263134   8.551   5.615   7.050  1.2366 -0.0063  1.2770
20081SOL     OW63135   6.258   7.250   8.229 -0.2459 -0.3478  0.3042
20081SOL    HW163136   6.253   7.334   8.275 -0.2945 -1.3314  2.1835
20081SOL    HW263137   6.323   7.199   8.277  0.8317 -0.9283 -1.6513
20082SOL     OW63138   5.558   4.261   3.295  0.1287 -0.6787  0.5047
20082SOL    HW163139   5.569   4.356   3.287  0.9863 -0.6184  1.9848
20082SOL    HW263140   5.593   4.226   3.214  2.3489  0.1497  1.0138
20083SOL     OW63141   8.417   9.407   6.507  0.3569  0.4793  0.2264
20083SOL    HW163142   8.451   9.389   6.419 -1.5598  0.4037 -0.5492
20083SOL    HW263143   8.374   9.492   6.499 -0.0954  0.3313  1.0048
20084SOL     OW63144   6.237   3.371   2.139 -0.7354  0.5147 -0.2596
20084SOL    HW163145   6.220   3.306   2.071  3.7492 -1.9370  0.5170
20084SOL    HW263146   6.297   3.433   2.097  1.0155 -0.2731  0.9607
20085SOL     OW63147   9.334  10.152  10.587 -0.0337  0.1881 -0.0538
20085SOL    HW163148   9.262  10.214  10.594 -1.4616 -1.4571  0.3203
20085SOL    HW263149   9.354  10.128  10.678 -0.4025 -0.9056 -0.2553
20086SOL     OW63150   2.063   0.370   1.251  0.0758 -0.4498  0.5152
20086SOL    HW163151   1.992   0.306   1.241 -0.8896  0.3647  1.7985
20086SOL    HW263152   2.018   0.455   1.250  1.0763  0.0951  1.0129
20087SOL     OW63153  10.740   0.207   0.926 -0.2531 -0.2895 -0.2386
20087SOL    HW163154  10.656   0.211   0.973 -0.6133  2.1503 -0.9372
20087SOL    HW263155  10.805   0.192   0.994 -1.0653 -0.1243  0.6024
20088SOL     OW63156   5.473   6.223   8.268  0.1569  0.0596 -0.1579
20088SOL    HW163157   5.499   6.313   8.250  0.3339  0.1379  0.4730
20088SOL    HW263158   5.466   6.218   8.364 -1.3387 -0.1836 -0.2525
20089SOL     OW63159   8.808   6.803   8.612  0.2879  0.4136 -0.2120
20089SOL    HW163160   8.739   6.865   8.634 -0.8200 -0.1785 -1.7819
20089SOL    HW263161   8.844   6.775   8.696  0.3954  2.6628  0.5551
20090SOL     OW63162   1.070   8.937   4.615  0.1249 -0.3070  0.4719
20090SOL    HW163163   1.081   9.017   4.564 -0.0893 -0.4390  0.2093
20090SOL    HW263164   1.118   8.870   4.565  0.1506 -0.3800  0.5933
20091SOL     OW63165   6.763  10.065   1.386 -0.4087 -0.2043 -0.0549
20091SOL    HW163166   6.671  10.059   1.412 -1.3654  0.2362 -2.9997
20091SOL    HW263167   6.784  10.158   1.393 -0.4622 -0.1811 -0.2004
20092SOL     OW63168   2.281   8.131   5.787 -0.0963 -0.0104  0.4660
20092SOL    HW163169   2.227   8.073   5.841  0.8399 -0.9181  0.4654
20092SOL    HW263170   2.218   8.182   5.736 -1.0026  0.4840  1.9838
20093SOL     OW63171   5.987   3.145   1.665 -0.1339  0.2350  0.2415
20093SOL    HW163172   5.966   3.053   1.679  0.3423 -0.4731 -2.8725
20093SOL    HW263173   6.076   3.145   1.630  0.4646  2.0730  1.5616
20094SOL     OW63174   5.848   9.130   7.505 -0.0311  0.1138  0.5419
20094SOL    HW163175   5.819   9.047   7.544  0.1905 -2.7217 -4.4462
20094SOL    HW263176   5.767   9.175   7.480 -0.4051 -1.8177 -2.2451
20095SOL     OW63177   2.813   1.061  10.580 -0.0912  0.0427 -0.0043
20095SOL    HW163178   2.720   1.068  10.602  0.0173  1.4691  0.0470
20095SOL    HW263179   2.858   1.118  10.642  0.8764 -0.9693  0.2550
20096SOL     OW63180   1.006   7.742   1.225  0.4317  0.6792 -0.2838
20096SOL    HW163181   1.064   7.777   1.158  0.2752 -0.3086 -0.9604
20096SOL    HW263182   1.043   7.657   1.249 -1.0518 -0.2938 -1.2295
20097SOL     OW63183   1.594   9.185   8.261 -0.5196  0.2465 -0.2690
20097SOL    HW163184   1.637   9.185   8.175 -0.8029 -0.4229 -0.4172
20097SOL    HW263185   1.505   9.155   8.242 -0.1462 -1.4122  0.4657
20098SOL     OW63186   9.495  10.353   3.088  0.7280  0.3570  0.0307
20098SOL    HW163187   9.478  10.371   2.995  0.9382 -0.0096 -0.0784
20098SOL    HW263188   9.437  10.413   3.134  0.1549  0.1009 -0.3422
20099SOL     OW63189   4.823   6.510   8.166 -0.4873 -0.1508 -0.3579
20099SOL    HW163190   4.876   6.586   8.192 -0.4465 -0.6126  0.9622
20099SOL    HW263191   4.874   6.468   8.096 -0.6687  1.2020 -1.3440
20100SOL     OW63192   0.488   0.727   6.246 -0.0699 -0.7466  0.0311
20100SOL    HW163193   0.529   0.642   6.228  3.6141  0.4902  1.6123
20100SOL    HW263194   0.498   0.776   6.164  0.2292 -1.0045 -0.0920
20101SOL     OW63195   7.268   0.074   6.109  0.2507  0.0685  0.8750
20101SOL    HW163196   7.221   0.056   6.191 -1.1753  0.3156  0.1491
20101SOL    HW263197   7.304   0.162   6.121  0.2501  0.0127  1.3190
20102SOL     OW63198   6.905   4.355   4.774 -0.3374  0.5545 -0.0886
20102SOL    HW163199   6.884   4.380   4.684 -2.1561  1.3464  0.5098
20102SOL    HW263200   6.871   4.266   4.783 -0.5085  0.6240 -0.0598
20103SOL     OW63201   5.205   2.998   5.173 -0.0301  0.1191  0.3526
20103SOL    HW163202   5.283   2.975   5.122 -1.0437  0.0666 -1.2710
20103SOL    HW263203   5.154   3.054   5.114 -2.3881 -1.8659  0.3606
20104SOL     OW63204   5.646   7.858   5.026  0.9156  0.5496 -0.3522
20104SOL    HW163205   5.732   7.850   4.985  2.1681  2.2363  1.7628
20104SOL    HW263206   5.661   7.908   5.106 -1.4049 -2.3210  2.1444
20105SOL     OW63207   8.701   5.709   5.735 -0.0697  0.3830  0.1298
20105SOL    HW163208   8.724   5.779   5.796  0.7178  0.9583 -0.8002
20105SOL    HW263209   8.612   5.731   5.706  0.5578  1.6238 -0.9608
20106SOL     OW63210   1.103   6.759   9.214 -0.2270 -0.3578 -0.4340
20106SOL    HW163211   1.074   6.811   9.139 -1.4429 -0.5467 -0.1106
20106SOL    HW263212   1.191   6.729   9.189  0.1879  1.2064 -0.9329
20107SOL     OW63213  10.415   8.863   8.268 -0.3561  0.4270 -0.3436
20107SOL    HW163214  10.449   8.896   8.351 -0.7155 -0.7594  0.2907
20107SOL    HW263215  10.486   8.810   8.232 -0.4427  0.4042 -0.4828
20108SOL     OW63216   2.344   4.305   6.055 -0.0577  0.0525  0.2970
20108SOL    HW163217   2.384   4.218   6.062  0.8100  0.4364  0.3264
20108SOL    HW263218   2.276   4.295   5.990  0.3335 -0.5540 -0.0301
20109SOL     OW63219   9.680   4.537   0.820  0.7497 -0.5094  0.0749
20109SOL    HW163220   9.585   4.530   0.831  0.6407  1.2933  0.4589
20109SOL    HW263221   9.706   4.450   0.789 -1.3082 -0.4177 -2.2098
20110SOL     OW63222   6.781   1.211   4.105  0.4603 -0.0707  0.2061
20110SOL    HW163223   6.843   1.257   4.161 -1.3899 -0.0230  2.3197
20110SOL    HW263224   6.762   1.129   4.151  1.3224 -1.6091 -1.9764
20111SOL     OW63225   6.107   9.653   2.753 -0.4734  0.6116 -0.0301
20111SOL    HW163226   6.196   9.679   2.731  0.8379 -4.2233 -1.5972
20111SOL    HW263227   6.113   9.619   2.842 -0.2881 -1.0316 -0.6275
20112SOL     OW63228   9.071   6.356   2.878 -0.2407 -0.0937  0.2833
20112SOL    HW163229   9.141   6.311   2.831 -0.9700 -1.2727  0.2927
20112SOL    HW263230   9.112   6.384   2.960  0.1926 -0.8854  0.3497
20113SOL     OW63231   4.774   6.911   7.991 -0.2329  0.3998 -0.0541
20113SOL    HW163232   4.828   6.833   7.977  0.0740  0.5159  0.4761
20113SOL    HW263233   4.801   6.971   7.921 -1.3599 -0.4215 -1.2516
20114SOL     OW63234   2.424  10.052   6.593 -0.5234 -0.3287  0.2308
20114SOL    HW163235   2.334  10.080   6.610 -0.3868 -0.1820  0.7579
20114SOL    HW263236   2.431  10.047   6.498 -0.5433  1.5076  0.1013
20115SOL     OW63237   9.730   3.855  10.661 -0.7247  0.0258  0.1202
20115SOL    HW163238   9.779   3.923  10.614 -0.6175 -0.5581 -0.6384
20115SOL    HW263239   9.670   3.819  10.595 -1.0291 -0.3720  0.6060
20116SOL     OW63240   9.290   9.970   2.066  0.0147 -0.9825 -0.3334
20116SOL    HW163241   9.359  10.004   2.123 -2.2428  1.0078  1.4599
20116SOL    HW263242   9.274  10.041   2.003 -1.0179 -1.0182 -0.1238
20117SOL     OW63243   5.973   4.338   6.851 -0.2675  0.3139  0.4163
20117SOL    HW163244   5.885   4.340   6.815  0.1992 -2.3610 -1.0576
20117SOL    HW263245   5.963   4.297   6.937 -0.1972 -2.6965 -0.9207
20118SOL     OW63246   9.537   4.156   6.101  0.0336 -0.3030 -0.1707
20118SOL    HW163247   9.519   4.068   6.067  0.3831  0.0568 -1.3345
20118SOL    HW263248   9.628   4.151   6.132  1.0536  0.3318 -2.7664
20119SOL     OW63249   9.434   9.740   3.274  0.1533  0.2725 -0.1473
20119SOL    HW163250   9.497   9.672   3.294  3.2661  2.6170 -1.1843
20119SOL    HW263251   9.425   9.738   3.179  0.7491  1.6003 -0.2569
20120SOL     OW63252   5.122   5.336   9.318  0.4044  0.1159 -0.2425
20120SOL    HW163253   5.152   5.299   9.234 -2.6908  0.5442 -1.6992
20120SOL    HW263254   5.046   5.282   9.341  0.3957  0.8659  1.6363
20121SOL     OW63255   1.453   3.040   6.966  0.2383  0.7958 -0.8449
20121SOL    HW163256   1.385   3.098   7.001  0.7496  1.1680 -0.4592
20121SOL    HW263257   1.452   2.964   7.026  1.2855  1.5454  0.1521
20122SOL     OW63258   2.240   2.042   2.572 -0.3640 -0.4910 -0.1572
20122SOL    HW163259   2.214   1.962   2.527 -0.2831 -0.3571 -0.4433
20122SOL    HW263260   2.166   2.061   2.631 -0.5900 -0.5179 -0.4290
20123SOL     OW63261   4.989  10.263   0.800  0.0310 -0.4010 -0.1041
20123SOL    HW163262   4.942  10.271   0.883  0.1316 -1.0918  0.0316
20123SOL    HW263263   4.973  10.172   0.773 -2.0772  0.4703 -2.1199
20124SOL     OW63264   8.340   6.070   0.557 -1.1480  0.3771  0.6057
20124SOL    HW163265   8.345   6.165   0.566 -1.0504  0.3672  0.6569
20124SOL    HW263266   8.404   6.049   0.490 -1.5611  0.4053  0.1928
20125SOL     OW63267   0.986   6.116   5.784 -0.1434  0.4031 -0.7131
20125SOL    HW163268   1.049   6.068   5.731 -0.5142 -0.1065 -0.6996
20125SOL    HW263269   1.034   6.142   5.862  0.4189  1.1797 -1.2986
20126SOL     OW63270   0.015   8.799  10.250 -0.0911 -0.7830 -0.4418
20126SOL    HW163271   0.076   8.734  10.284 -1.0590 -1.5046 -0.0230
20126SOL    HW263272   0.001   8.775  10.159 -0.6617 -1.3522 -0.2132
20127SOL     OW63273   5.540   7.892  10.788  0.3691 -0.4361  0.4099
20127SOL    HW163274   5.511   7.805  10.815  1.9314 -0.9626  0.5127
20127SOL    HW263275   5.630   7.898  10.820  0.4042  1.0965  0.1104
20128SOL     OW63276   8.831   2.129   9.197 -0.4178 -0.0762 -0.2839
20128SOL    HW163277   8.905   2.071   9.215 -0.6397 -0.2708  0.0314
20128SOL    HW263278   8.868   2.203   9.149 -0.1105 -0.4219 -0.5800
20129SOL     OW63279   6.273   3.270   7.476  0.6136  0.0969 -0.4026
20129SOL    HW163280   6.357   3.290   7.435  1.7512 -1.3486  1.0599
20129SOL    HW263281   6.293   3.198   7.536 -1.6516 -0.1596  0.1260
20130SOL     OW63282   9.932   6.559   7.015 -0.0206  0.2683 -0.0185
20130SOL    HW163283  10.015   6.520   7.041 -0.1973  1.1001  1.9520
20130SOL    HW263284   9.952   6.610   6.937  0.6257 -2.0621 -1.4730
20131SOL     OW63285   7.372   4.998  10.272  0.0391  0.1134  0.5985
20131SOL    HW163286   7.385   4.999  10.177 -3.1775  1.8939  0.0304
20131SOL    HW263287   7.339   4.910  10.291 -1.7937  0.5225 -0.4413
20132SOL     OW63288  10.518   7.268   8.636  0.1324  0.0767  0.1977
20132SOL    HW163289  10.610   7.250   8.655  0.7611  0.6080 -2.0778
20132SOL    HW263290  10.511   7.364   8.639 -0.3679  0.0346  0.4572
20133SOL     OW63291   2.498   0.298   0.990  0.3599  0.3153  0.6947
20133SOL    HW163292   2.426   0.260   0.939 -0.9155  0.4673  2.3039
20133SOL    HW263293   2.575   0.285   0.935 -0.9082  0.3231 -1.1922
20134SOL     OW63294   7.264   4.836   0.290 -0.1967 -0.2258  0.3407
20134SOL    HW163295   7.192   4.845   0.227 -0.4024 -1.7776  0.3132
20134SOL    HW263296   7.226   4.788   0.364  1.0564 -2.1791 -0.1920
20135SOL     OW63297   7.498   8.000   7.395  0.8798  0.4216  0.4061
20135SOL    HW163298   7.482   7.995   7.301  1.2239  2.2463  0.2037
20135SOL    HW263299   7.578   7.948   7.409  1.2837  0.7901 -0.4524
20136SOL     OW63300   9.844   2.535   6.227 -0.3203  0.8679 -0.2714
20136SOL    HW163301   9.833   2.620   6.183  1.0206  0.7491 -0.9178
20136SOL    HW263302   9.923   2.499   6.187 -1.2601 -1.0185 -0.5173
20137SOL     OW63303   0.393   0.422   0.963  0.1962 -0.4148 -0.8578
20137SOL    HW163304   0.435   0.499   1.001  2.1033 -2.5374  1.7087
20137SOL    HW263305   0.303   0.426   0.996  0.4147  0.4428 -0.3169
20138SOL     OW63306   8.493   5.724   8.707 -0.0951 -0.0337 -0.1047
20138SOL    HW163307   8.543   5.754   8.783 -1.2161  0.7038  0.3681
20138SOL    HW263308   8.531   5.771   8.633  0.1685  0.2243  0.1950
20139SOL     OW63309  10.555   7.437   2.272  0.3433 -0.1620 -0.2335
20139SOL    HW163310  10.645   7.421   2.300 -0.1949 -0.5862  1.3856
20139SOL    HW263311  10.550   7.400   2.184  2.4317  2.2200 -1.4696
20140SOL     OW63312   9.775   4.219   4.209 -0.0697  0.0996 -0.3329
20140SOL    HW163313   9.831   4.292   4.181 -0.8515  0.5901 -0.6344
20140SOL    HW263314   9.711   4.259   4.267 -1.4521 -0.0447 -1.6939
20141SOL     OW63315   1.220   1.530  10.334  0.2885  0.5118  0.0231
20141SOL    HW163316   1.285   1.597  10.353  1.1786 -0.5447  0.8227
20141SOL    HW263317   1.137   1.568  10.362  0.6423  1.6210 -0.3935
20142SOL     OW63318  10.003   0.758   7.327  0.8537 -0.8172 -0.2436
20142SOL    HW163319  10.000   0.680   7.272  2.5609 -0.8019 -0.3903
20142SOL    HW263320  10.093   0.764   7.358  0.9707  1.4876 -0.8039
20143SOL     OW63321   0.330   1.447   2.879  0.1011  0.5747 -0.0797
20143SOL    HW163322   0.373   1.533   2.877  0.6894  0.2959  0.5067
20143SOL    HW263323   0.319   1.428   2.972  0.9392 -0.4696 -0.1850
20144SOL     OW63324   0.051   9.745   1.988  0.2484  0.3982 -0.7899
20144SOL    HW163325   0.058   9.664   2.039 -1.5212  0.6178 -0.1199
20144SOL    HW263326   0.081   9.814   2.047  0.1407  0.4158 -0.7544
20145SOL     OW63327   9.376  10.042   5.601  0.8329 -0.3168  0.1925
20145SOL    HW163328   9.421  10.066   5.682  1.2005 -1.8255  0.4734
20145SOL    HW263329   9.403   9.952   5.585  0.5909 -0.1231 -1.5008
20146SOL     OW63330   8.682   4.041   6.317  0.4839  0.0427 -0.2194
20146SOL    HW163331   8.679   4.068   6.409  1.8296 -0.0274 -0.1294
20146SOL    HW263332   8.693   4.123   6.268  2.4887 -0.1032 -0.0947
20147SOL     OW63333   7.016   5.416   9.421  0.1684  0.0056 -0.0801
20147SOL    HW163334   7.083   5.484   9.411  0.2352  0.0541  0.6616
20147SOL    HW263335   7.050   5.358   9.489 -0.6654  0.1900  0.5091
20148SOL     OW63336   2.374   3.219   2.765 -0.2181  0.3710  0.3096
20148SOL    HW163337   2.316   3.264   2.704  0.8903 -1.1807 -2.0349
20148SOL    HW263338   2.329   3.226   2.849 -2.7528  1.0402 -0.9751
20149SOL     OW63339   8.968   8.046   2.386  0.0376  0.3262 -0.4388
20149SOL    HW163340   8.984   8.121   2.444 -1.5343 -1.3920  2.5038
20149SOL    HW263341   8.924   7.982   2.443  0.0913 -2.3036 -3.1430
20150SOL     OW63342   3.605   9.487  10.567 -0.6813 -0.4707  0.7040
20150SOL    HW163343   3.694   9.519  10.551 -1.2424  1.0359  0.4381
20150SOL    HW263344   3.594   9.414  10.506 -0.7892  1.4997 -1.8018
20151SOL     OW63345   9.404   3.510   7.880  0.3161 -0.3609 -0.1657
20151SOL    HW163346   9.415   3.415   7.877 -0.6796 -0.4833 -0.2501
20151SOL    HW263347   9.364   3.527   7.965  1.4462  0.0978  0.2892
20152SOL     OW63348   4.339   5.969   0.560  0.1028 -0.4763 -0.9642
20152SOL    HW163349   4.258   5.999   0.604  0.0406  0.6917 -1.8151
20152SOL    HW263350   4.338   5.874   0.571  1.0938 -0.2186  3.2943
20153SOL     OW63351   8.764   6.363   7.403 -0.0213  0.6203 -0.2674
20153SOL    HW163352   8.690   6.334   7.349  1.3329  0.3920 -2.1088
20153SOL    HW263353   8.770   6.297   7.472 -0.8493  0.0233 -0.7403
20154SOL     OW63354   6.491   8.880   0.589 -0.1470  0.2551 -0.7107
20154SOL    HW163355   6.526   8.803   0.544 -0.3785 -0.0517 -0.3691
20154SOL    HW263356   6.397   8.862   0.597 -0.6362  1.5774 -2.6681
20155SOL     OW63357   8.223   6.296   1.804  0.2172  0.2720  0.6475
20155SOL    HW163358   8.299   6.333   1.758 -1.1284  1.0425 -1.0690
20155SOL    HW263359   8.227   6.334   1.892  0.5211  2.2069 -0.1529
20156SOL     OW63360   1.144   4.091  10.564  0.2241  0.4594  0.0859
20156SOL    HW163361   1.132   4.094  10.659 -0.0677 -0.7549  0.0967
20156SOL    HW263362   1.089   4.162  10.531  0.2236  0.8087  0.8029
20157SOL     OW63363   7.830   2.428   4.418  0.3513  0.6425 -0.3812
20157SOL    HW163364   7.920   2.404   4.436  0.5746  1.5928 -0.1862
20157SOL    HW263365   7.799   2.362   4.356  1.5196  0.9222 -1.2975
20158SOL     OW63366   2.604  10.200   8.816 -0.6428 -0.0389  0.6434
20158SOL    HW163367   2.660  10.157   8.751 -0.5396  1.1735 -0.1114
20158SOL    HW263368   2.654  10.198   8.897 -0.2297 -0.4589  0.3799
20159SOL     OW63369   5.267  10.677   0.030 -0.3231  0.3682 -0.4642
20159SOL    HW163370   5.234  10.695   0.118 -1.0961  0.5483 -0.7815
20159SOL    HW263371   5.296  10.586   0.033  2.2175  1.1257  0.7339
20160SOL     OW63372  10.549   9.489   4.425 -0.1651  0.0508 -0.1192
20160SOL    HW163373  10.602   9.535   4.490 -0.3974  0.2867 -0.0910
20160SOL    HW263374  10.576   9.398   4.431  0.7303  0.2722 -0.5924
20161SOL     OW63375  10.321   2.357   1.299  0.3657 -0.4251  0.0053
20161SOL    HW163376  10.336   2.443   1.261 -0.9930  0.2260  0.8415
20161SOL    HW263377  10.276   2.307   1.231  0.7098 -0.3068 -0.3074
20162SOL     OW63378   5.162   0.101   8.158 -0.0217  1.0397  0.4804
20162SOL    HW163379   5.143   0.195   8.159 -2.5726  0.6367 -0.7533
20162SOL    HW263380   5.096   0.063   8.215  1.3414  0.0103  1.4198
20163SOL     OW63381   9.392   3.155   6.273 -0.3381  0.0025 -0.8815
20163SOL    HW163382   9.344   3.194   6.346  0.8567 -0.1941  0.0305
20163SOL    HW263383   9.330   3.157   6.200 -1.3745  0.6845 -0.0090
20164SOL     OW63384   0.562   7.829   2.509  0.3998  0.4949 -0.1217
20164SOL    HW163385   0.572   7.742   2.547  0.8358  0.9390  0.7899
20164SOL    HW263386   0.583   7.890   2.580 -2.0509  1.4022 -0.0666
20165SOL     OW63387   9.494   2.381   3.058 -0.2253  0.2901 -0.3763
20165SOL    HW163388   9.468   2.472   3.051 -0.4020  0.3248  0.5717
20165SOL    HW263389   9.518   2.370   3.150  0.8576 -0.3385 -0.7090
20166SOL     OW63390   9.728   5.683   8.082  0.2190 -0.4643 -0.2240
20166SOL    HW163391   9.659   5.730   8.128  1.0612  0.3727  0.1976
20166SOL    HW263392   9.727   5.719   7.994 -0.3688 -0.9856 -0.4403
20167SOL     OW63393   1.132   7.682   7.689  0.3488  0.0403 -0.1282
20167SOL    HW163394   1.044   7.644   7.696  0.1620  0.2127 -1.2485
20167SOL    HW263395   1.118   7.776   7.698  0.6370 -0.0429  1.3003
20168SOL     OW63396   6.279   0.199   3.972  0.7619  0.0308 -0.2817
20168SOL    HW163397   6.263   0.109   4.000 -1.4221  0.2523 -0.6572
20168SOL    HW263398   6.298   0.192   3.878  1.2018 -0.0705 -0.1898
20169SOL     OW63399   0.227   7.513   9.380 -0.5863 -0.3752  0.5026
20169SOL    HW163400   0.173   7.484   9.454 -0.3391  0.7874  1.1573
20169SOL    HW263401   0.280   7.436   9.359 -0.6058 -0.7061  1.5883
20170SOL     OW63402  10.151   3.041   0.220 -0.1584  0.1122 -0.5579
20170SOL    HW163403  10.163   3.028   0.126 -0.0835  0.4499 -0.5940
20170SOL    HW263404  10.180   3.130   0.237 -0.0962  0.0283 -0.1993
20171SOL     OW63405   0.765   7.961   5.811 -0.0622  0.2199  0.4888
20171SOL    HW163406   0.707   7.919   5.748  1.8304  0.2596 -1.3993
20171SOL    HW263407   0.722   7.948   5.895 -1.5493 -1.9324 -0.5051
20172SOL     OW63408   4.019   3.724   2.623 -0.4354  0.5282  0.3459
20172SOL    HW163409   4.000   3.806   2.669  1.3708  1.8208 -1.0544
20172SOL    HW263410   4.114   3.715   2.628 -0.2978  0.0289 -1.8927
20173SOL     OW63411   9.950   1.211   2.950 -0.1510  0.3970  0.0413
20173SOL    HW163412  10.041   1.236   2.935  0.0668  0.2565  1.0435
20173SOL    HW263413   9.926   1.257   3.031 -0.4861 -0.7441  0.6109
20174SOL     OW63414   7.309   4.282   3.762 -0.2830  0.8813 -0.3201
20174SOL    HW163415   7.355   4.366   3.772 -0.9525  1.3002 -0.6561
20174SOL    HW263416   7.308   4.266   3.668 -0.4279  0.6519 -0.2809
20175SOL     OW63417   2.394   4.726   4.704 -0.4772  0.3545  0.0111
20175SOL    HW163418   2.437   4.768   4.779 -0.9542  4.5699 -1.7619
20175SOL    HW263419   2.301   4.746   4.715 -1.0083 -1.7313 -0.2186
20176SOL     OW63420   9.330   7.323   8.679 -0.0377 -0.1724 -0.6929
20176SOL    HW163421   9.421   7.317   8.709  0.4021 -1.1877 -2.1026
20176SOL    HW263422   9.337   7.349   8.587 -1.2174  0.5376 -0.5977
20177SOL     OW63423   5.392   6.736   0.608 -0.3106 -0.6352  0.2649
20177SOL    HW163424   5.342   6.809   0.570 -1.1630 -0.9102  0.8237
20177SOL    HW263425   5.482   6.753   0.582 -0.5642  0.3651 -0.0239
20178SOL     OW63426   9.472   7.164   2.448 -0.3169  0.1478  0.3942
20178SOL    HW163427   9.512   7.166   2.536  0.2226  0.2249  0.1536
20178SOL    HW263428   9.507   7.241   2.404 -0.3774 -0.0338  0.0229
20179SOL     OW63429   4.665   6.946   5.031  1.0229  0.5347 -0.8508
20179SOL    HW163430   4.735   6.990   4.981  2.8494 -1.1003  0.1232
20179SOL    HW263431   4.695   6.950   5.122  0.2173 -0.8463 -0.4959
20180SOL     OW63432   0.349   6.859   3.265 -0.6040  0.5518 -0.8089
20180SOL    HW163433   0.345   6.837   3.358 -0.7172 -2.6868 -1.4808
20180SOL    HW263434   0.268   6.907   3.248 -0.7988  0.7884  0.6385
20181SOL     OW63435   6.131   7.020   3.404  0.1013  0.3220 -0.4852
20181SOL    HW163436   6.108   7.066   3.324  0.3611  0.3909 -0.5235
20181SOL    HW263437   6.094   7.074   3.474 -0.1416  0.2515 -0.5585
20182SOL     OW63438   0.740   4.506   4.702  0.3516 -0.1133 -0.0036
20182SOL    HW163439   0.739   4.447   4.627  0.1684 -0.2322  0.0937
20182SOL    HW263440   0.758   4.592   4.664  0.8945 -0.2723 -0.1152
20183SOL     OW63441   1.108   1.167   8.799  0.2370 -0.4880  0.0459
20183SOL    HW163442   1.131   1.228   8.728  0.5337 -1.4478 -0.6976
20183SOL    HW263443   1.137   1.212   8.878  0.7911  0.1908 -0.5226
20184SOL     OW63444   0.942   0.226   8.621  0.4575 -0.6020 -0.3348
20184SOL    HW163445   0.891   0.305   8.637  0.5308 -0.7072  0.4840
20184SOL    HW263446   0.883   0.154   8.645  0.4442 -0.7920 -0.9193
20185SOL     OW63447   1.255   5.817   4.988  0.2633 -0.4172  0.2609
20185SOL    HW163448   1.265   5.842   4.896  1.4123  1.8180  0.9177
20185SOL    HW263449   1.321   5.748   5.002  2.4849  1.5319  0.1188
20186SOL     OW63450   5.621   6.049   2.262  0.5608 -0.5712 -0.0931
20186SOL    HW163451   5.690   5.999   2.219  0.7439  0.5720 -1.2008
20186SOL    HW263452   5.540   6.016   2.224  0.5894 -0.8997  0.1265
20187SOL     OW63453   9.435   7.388   8.092  0.4482 -0.4626  0.2575
20187SOL    HW163454   9.446   7.354   8.003  0.6637  1.0194 -0.3043
20187SOL    HW263455   9.473   7.321   8.148 -0.7226 -1.9671 -0.6634
20188SOL     OW63456   9.463  10.189   7.045 -0.3866 -0.3248 -0.3609
20188SOL    HW163457   9.392  10.130   7.021 -0.2747  0.2496 -2.2518
20188SOL    HW263458   9.459  10.260   6.981  1.6247 -0.0701 -0.2797
20189SOL     OW63459   3.749   5.902  10.587 -0.4828 -0.6773 -0.3824
20189SOL    HW163460   3.678   5.870  10.642 -0.3243 -2.5250 -1.1802
20189SOL    HW263461   3.706   5.951  10.517 -0.9696 -1.5333 -0.6915
20190SOL     OW63462   1.626   3.980   3.194 -0.4115 -0.4184 -0.2399
20190SOL    HW163463   1.660   3.907   3.245 -0.1958 -0.0910  0.0860
20190SOL    HW263464   1.540   3.950   3.165 -1.7283  0.3724  2.5323
20191SOL     OW63465  10.280   9.873   5.162 -0.1189  0.1585  0.1761
20191SOL    HW163466  10.278   9.887   5.257  0.1256  2.8831 -0.1175
20191SOL    HW263467  10.346   9.806   5.149  1.1848  1.0229  1.8484
20192SOL     OW63468   5.106   1.745   7.451 -0.3451  0.0303  0.5837
20192SOL    HW163469   5.095   1.650   7.457  0.3820 -0.0303  0.9930
20192SOL    HW263470   5.163   1.768   7.523  1.0423  0.5254 -0.6187
20193SOL     OW63471   1.856  10.706   7.432  0.1628  0.4529 -0.3317
20193SOL    HW163472   1.804  10.628   7.412 -0.7214  0.8132  0.4886
20193SOL    HW263473   1.792  10.775   7.444  0.8791  1.0714  0.0188
20194SOL     OW63474   6.126   0.956   1.584  0.4498  0.2768 -0.3597
20194SOL    HW163475   6.181   0.879   1.570  1.0043  0.5864  0.0640
20194SOL    HW263476   6.067   0.931   1.655 -1.4039 -0.7910 -2.1811
20195SOL     OW63477   6.819   0.108   1.453  0.1179  0.6773 -0.6327
20195SOL    HW163478   6.779   0.159   1.523  1.1713  2.4987 -1.2925
20195SOL    HW263479   6.815   0.017   1.484  0.6827  1.4287  1.8710
20196SOL     OW63480   9.104   0.932   6.694 -0.4661 -0.1459  0.2916
20196SOL    HW163481   9.044   0.986   6.746 -0.8707 -0.3044 -0.0020
20196SOL    HW263482   9.175   0.910   6.754 -0.2633  0.7578  0.4040
20197SOL     OW63483   6.341   5.037   4.715  0.0825  0.4827  0.5997
20197SOL    HW163484   6.377   5.082   4.638 -0.9863  0.9633  0.3552
20197SOL    HW263485   6.402   4.965   4.731  0.9725  1.0803  0.0296
20198SOL     OW63486  10.006   8.461   8.171  0.6017  0.3225 -0.2442
20198SOL    HW163487  10.085   8.511   8.192  0.4215  0.4814  0.0619
20198SOL    HW263488  10.016   8.380   8.221 -0.1936  1.0223  1.1078
20199SOL     OW63489  10.238   7.074  10.003 -0.4105 -0.3316  0.6100
20199SOL    HW163490  10.235   6.985  10.039 -0.2538 -0.6258 -0.0758
20199SOL    HW263491  10.330   7.091   9.987 -0.5652 -0.7758 -0.9640
20200SOL     OW63492   5.881   5.247  10.770  0.1748 -0.3877  0.2331
20200SOL    HW163493   5.929   5.250  10.687  0.5439 -1.9593  0.3580
20200SOL    HW263494   5.910   5.325  10.817 -0.3105  0.7252 -1.2408
20201SOL     OW63495   7.756   5.954   9.031  0.5604 -0.2273 -0.1271
20201SOL    HW163496   7.791   6.035   8.995  0.8434 -0.4176 -0.2857
20201SOL    HW263497   7.831   5.910   9.070  0.4242 -0.4488 -0.1091
20202SOL     OW63498   7.643   6.593   9.482 -0.0799 -0.0060 -0.0069
20202SOL    HW163499   7.735   6.577   9.498  0.0293  0.6254  0.0056
20202SOL    HW263500   7.635   6.688   9.478 -0.3500 -0.0594 -2.1218
20203SOL     OW63501   8.799   8.849   0.051 -0.4166  0.5230  0.1970
20203SOL    HW163502   8.759   8.772   0.091  1.2420 -0.1370  0.6670
20203SOL    HW263503   8.822   8.906   0.125 -1.1129  1.2200 -0.1085
20204SOL     OW63504   4.712   9.788  10.277 -0.1436  0.3587  0.2496
20204SOL    HW163505   4.796   9.788  10.232  1.1488 -0.4697  2.4601
20204SOL    HW263506   4.690   9.880  10.290  0.3151  0.5800 -0.5432
20205SOL     OW63507   5.428   1.596  10.413 -0.1573 -0.1582  0.2822
20205SOL    HW163508   5.493   1.525  10.412 -0.5967 -0.6069  1.5176
20205SOL    HW263509   5.347   1.555  10.385 -0.2219  0.0681  0.1364
20206SOL     OW63510   1.751   5.226  10.399  0.6038 -0.3348 -0.4790
20206SOL    HW163511   1.779   5.138  10.375 -0.1071 -0.2602 -1.6989
20206SOL    HW263512   1.656   5.224  10.387  0.7754  1.1591 -2.5808
20207SOL     OW63513   2.104   0.387   8.867 -0.1112  0.3188 -0.0848
20207SOL    HW163514   2.038   0.324   8.835  0.6185 -1.2985  1.3896
20207SOL    HW263515   2.066   0.421   8.948  0.9375 -0.8469  0.9311
20208SOL     OW63516   4.456   8.298   4.654 -0.7732  0.2910  0.0112
20208SOL    HW163517   4.452   8.369   4.718  2.1817  1.0714 -0.5223
20208SOL    HW263518   4.385   8.316   4.593 -1.4182  1.5594  1.1030
20209SOL     OW63519   8.988   4.202   2.240  0.0841  0.1911 -0.8603
20209SOL    HW163520   9.060   4.231   2.296 -1.4726  0.7496  0.9558
20209SOL    HW263521   9.024   4.129   2.191  1.9850  0.6697 -0.2656
20210SOL     OW63522   7.658   7.456   3.440 -0.1710  0.0619 -0.3050
20210SOL    HW163523   7.643   7.488   3.351  0.1377  1.3160  0.0668
20210SOL    HW263524   7.733   7.398   3.431  0.7392  1.2421 -0.6789
20211SOL     OW63525   2.965   8.689   3.777 -0.0778 -0.4388  0.3400
20211SOL    HW163526   3.041   8.633   3.789  0.3029  0.0681  0.3361
20211SOL    HW263527   3.001   8.777   3.768 -0.6199 -0.2659 -0.2950
20212SOL     OW63528  10.690   5.943   8.056  0.1487  0.3738  0.7196
20212SOL    HW163529  10.769   5.978   8.016 -0.7126 -0.1485 -1.5748
20212SOL    HW263530  10.625   6.012   8.045 -0.3631 -0.1697  0.2619
20213SOL     OW63531   1.296   5.488   3.571  1.2430  0.4395 -0.8171
20213SOL    HW163532   1.340   5.505   3.654  0.2311 -0.4906 -0.0563
20213SOL    HW263533   1.339   5.546   3.508  2.3453  0.8143  0.2501
20214SOL     OW63534   3.522   9.429   3.468 -0.4194 -0.2866 -0.5368
20214SOL    HW163535   3.460   9.403   3.536 -0.3543  0.1343 -0.3161
20214SOL    HW263536   3.534   9.523   3.480 -0.0923 -0.2816 -0.8714
20215SOL     OW63537   2.288  10.564   7.213  0.0368  0.1634  0.1302
20215SOL    HW163538   2.201  10.554   7.176  0.0376  1.9050 -0.4441
20215SOL    HW263539   2.347  10.545   7.140  0.0526  2.3111 -0.4856
20216SOL     OW63540   0.637   8.134   7.007  0.1784  0.0670  0.2619
20216SOL    HW163541   0.595   8.049   7.019  0.7519 -0.4512 -1.1299
20216SOL    HW263542   0.721   8.127   7.052  0.6889 -0.5026 -0.7563
20217SOL     OW63543   8.839   8.868   7.573  0.3790 -0.1978 -0.7950
20217SOL    HW163544   8.745   8.882   7.578  0.4770  0.2787 -0.2809
20217SOL    HW263545   8.859   8.812   7.648  0.8016  1.3434  0.2928
20218SOL     OW63546   3.818   0.923   5.291  0.0607  0.1796 -0.2044
20218SOL    HW163547   3.855   0.901   5.206  1.7772  0.5092  0.4001
20218SOL    HW263548   3.746   0.862   5.303  0.2674 -0.3612 -1.5654
20219SOL     OW63549   8.500   1.384   7.093  0.2020  0.2291 -0.2577
20219SOL    HW163550   8.426   1.323   7.089  1.1130 -0.9806  0.4374
20219SOL    HW263551   8.545   1.361   7.175  2.1877 -0.0982 -1.3662
20220SOL     OW63552   8.026   6.568   0.277  0.0253  0.9854  0.1759
20220SOL    HW163553   7.936   6.567   0.311 -0.4203 -0.9618 -0.8793
20220SOL    HW263554   8.021   6.618   0.195 -0.2452  0.4359 -0.1539
20221SOL     OW63555   5.014   3.328  10.253 -0.0815  0.0525  0.3066
20221SOL    HW163556   5.026   3.272  10.177  1.3690  0.3017  0.3250
20221SOL    HW263557   4.966   3.273  10.316 -3.2251  0.5096 -1.4761
20222SOL     OW63558   7.486   3.728   6.018  0.5867 -0.4106  0.0992
20222SOL    HW163559   7.407   3.675   6.033  0.4020 -0.2303 -0.2302
20222SOL    HW263560   7.469   3.773   5.936  0.3216  0.9175  0.8539
20223SOL     OW63561   5.230   5.992   5.576  0.2734  0.1304 -0.5798
20223SOL    HW163562   5.299   5.950   5.627  0.7057  1.0489 -0.3948
20223SOL    HW263563   5.169   5.921   5.555  0.8419 -0.5291 -0.0362
20224SOL     OW63564   3.898   9.318   1.673  0.6987 -0.2820  0.0586
20224SOL    HW163565   3.981   9.358   1.698  0.8709 -0.4327 -0.2719
20224SOL    HW263566   3.918   9.225   1.660  0.3349 -0.4494  0.6509
20225SOL     OW63567   7.385   9.395   6.917 -0.5835 -0.4322 -0.2248
20225SOL    HW163568   7.294   9.381   6.893 -0.8346 -1.8458  1.3673
20225SOL    HW263569   7.414   9.311   6.954  1.1671  0.1743 -0.0938
20226SOL     OW63570   6.880   5.650   1.682  0.5321  0.1237 -0.6411
20226SOL    HW163571   6.893   5.676   1.590  0.5581  0.9159 -0.4202
20226SOL    HW263572   6.863   5.556   1.678  0.0907  0.2325 -1.5047
20227SOL     OW63573   8.386   2.044   9.761 -0.8124 -0.6456  0.5671
20227SOL    HW163574   8.373   2.018   9.852  0.0738  1.0885  1.2445
20227SOL    HW263575   8.449   1.981   9.727  1.8034  0.8457  2.3432
20228SOL     OW63576   9.475  10.392   7.216  0.6074 -0.4464 -0.2310
20228SOL    HW163577   9.399  10.390   7.274  0.4132  1.2363 -0.3785
20228SOL    HW263578   9.471  10.309   7.169 -0.4499 -0.9030  0.6181
20229SOL     OW63579   7.415   8.918   4.641 -0.1449  0.0510  0.6014
20229SOL    HW163580   7.412   8.919   4.737  0.8895  1.4105  0.6542
20229SOL    HW263581   7.332   8.879   4.615 -0.2473 -0.7993  2.0470
20230SOL     OW63582   4.236   1.127   5.263 -0.5778 -0.3779  0.2688
20230SOL    HW163583   4.168   1.170   5.315 -2.4136 -2.6285 -0.1282
20230SOL    HW263584   4.189   1.068   5.204  1.6839 -1.7516 -0.3137
20231SOL     OW63585   3.142   3.040   3.289  0.2243 -0.3344 -0.0734
20231SOL    HW163586   3.077   3.075   3.228  0.2705  1.0827  0.6518
20231SOL    HW263587   3.176   3.117   3.335  0.4743 -1.3146  1.4640
20232SOL     OW63588   3.765   1.015   7.360 -0.4827  0.6384 -0.0275
20232SOL    HW163589   3.831   1.049   7.299  0.6290 -2.4208 -0.7078
20232SOL    HW263590   3.692   0.989   7.304 -0.1149 -0.6885  0.0680
20233SOL     OW63591   8.615   4.131   7.341 -0.7083  0.2820  0.0292
20233SOL    HW163592   8.539   4.144   7.285  0.5500  1.4538 -1.5007
20233SOL    HW263593   8.664   4.060   7.299 -0.3631  0.3369  0.3316
20234SOL     OW63594   7.144   9.918   3.953 -0.3720 -0.1541  0.6585
20234SOL    HW163595   7.174   9.833   3.922  1.5365  1.0679 -1.0913
20234SOL    HW263596   7.050   9.919   3.933 -0.1820 -1.3725 -0.4211
20235SOL     OW63597   1.131   8.904   5.825 -0.0723  0.3567 -0.2667
20235SOL    HW163598   1.089   8.859   5.752 -0.9128 -0.1631  0.5233
20235SOL    HW263599   1.119   8.845   5.900  2.7414 -0.2247 -0.1280
20236SOL     OW63600   9.151   7.777   9.159  0.4659 -0.8272  0.0300
20236SOL    HW163601   9.199   7.712   9.109  0.8569  0.5426 -1.4465
20236SOL    HW263602   9.093   7.820   9.096  1.6028  1.5507  0.4625
20237SOL     OW63603   3.415   5.476   7.499  0.1407  0.6204 -0.2574
20237SOL    HW163604   3.342   5.531   7.527  0.2034  0.3975  0.3522
20237SOL    HW263605   3.492   5.512   7.544 -0.2378 -1.6942  2.5558
20238SOL     OW63606   7.185   5.425   1.087  0.2226 -0.2876 -0.3050
20238SOL    HW163607   7.219   5.339   1.110 -1.8364 -1.1047 -0.1193
20238SOL    HW263608   7.167   5.468   1.171  1.2970  0.4026 -0.3928
20239SOL     OW63609   8.132   3.623   7.330  0.4213  0.2419 -0.3373
20239SOL    HW163610   8.211   3.580   7.298 -0.0361 -0.5854 -0.3752
20239SOL    HW263611   8.066   3.555   7.329 -0.5624  1.1789 -1.2617
20240SOL     OW63612   6.251   0.223   7.686 -0.1819 -0.3618  0.0363
20240SOL    HW163613   6.268   0.202   7.594 -0.9737  1.5764 -0.6202
20240SOL    HW263614   6.317   0.288   7.709 -1.0753  0.5183  0.2324
20241SOL     OW63615   5.484   1.893   5.075  0.7795 -0.3462  0.3459
20241SOL    HW163616   5.579   1.887   5.068  0.8026 -0.7254  0.9714
20241SOL    HW263617   5.456   1.806   5.102  0.2876 -0.1394  0.5227
20242SOL     OW63618  10.446  10.227   2.837  0.0162  0.0033  0.2009
20242SOL    HW163619  10.383  10.238   2.908 -0.1914 -0.4318  0.0872
20242SOL    HW263620  10.402  10.170   2.774 -0.2563  1.2957 -0.8419
20243SOL     OW63621   3.510   8.436   6.731  0.4451 -0.0734  0.4316
20243SOL    HW163622   3.423   8.418   6.695  0.4893  0.3857  0.0800
20243SOL    HW263623   3.523   8.529   6.716  0.9766 -0.1279  0.5373
20244SOL     OW63624   0.670   3.610   0.277  0.2968  0.0474  0.4074
20244SOL    HW163625   0.660   3.625   0.370  0.8246  0.2266  0.4395
20244SOL    HW263626   0.581   3.609   0.242  0.1634  2.0908  0.5817
20245SOL     OW63627   7.503  10.740   8.624  0.3128  0.0544  0.4903
20245SOL    HW163628   7.497  10.727   8.529  1.3148  0.4510  0.3608
20245SOL    HW263629   7.516  10.651   8.659 -0.0728 -0.0942  0.2694
20246SOL     OW63630   8.975   2.784   9.493 -0.3035  0.6482 -0.1097
20246SOL    HW163631   9.030   2.736   9.430 -0.4507  1.1667 -0.6391
20246SOL    HW263632   8.944   2.717   9.553  1.2747  0.3968  0.4717
20247SOL     OW63633   9.515  10.654   1.375 -0.2214 -0.5349 -0.3635
20247SOL    HW163634   9.426  10.689   1.368  0.1542  0.7596  0.9416
20247SOL    HW263635   9.551  10.663   1.287 -0.8846  0.3262 -0.5613
20248SOL     OW63636   5.037   9.178   9.142  0.1122 -0.1061  0.1294
20248SOL    HW163637   5.051   9.208   9.052 -0.2071 -1.5532 -0.4295
20248SOL    HW263638   4.991   9.094   9.133 -2.5251  1.0366  1.7047
20249SOL     OW63639   0.341   0.381   5.995  0.2545  0.0026 -0.2146
20249SOL    HW163640   0.358   0.402   5.904 -1.1586  1.7191 -0.1381
20249SOL    HW263641   0.249   0.353   5.997 -0.3278  1.8098  0.9005
20250SOL     OW63642  10.773   3.919   6.809  0.5853 -0.2386 -0.3152
20250SOL    HW163643  10.736   3.840   6.848 -0.9511  0.3987 -0.4010
20250SOL    HW263644  10.760   3.987   6.875 -0.8039  0.5586 -1.3492
20251SOL     OW63645   9.032   7.948   5.466  0.6724  0.0359  0.3936
20251SOL    HW163646   9.111   7.917   5.422  0.6729 -0.6361  0.8629
20251SOL    HW263647   9.056   7.950   5.559  0.4574  0.8081  0.4419
20252SOL     OW63648   9.283   5.225  10.260 -0.5493 -0.2528  0.3819
20252SOL    HW163649   9.305   5.166  10.332  1.4255 -0.0592 -0.0043
20252SOL    HW263650   9.240   5.300  10.302 -0.6701 -0.7631  1.1865
20253SOL     OW63651   8.929   0.742   7.515  0.0556 -0.1349 -0.0048
20253SOL    HW163652   8.991   0.772   7.448 -0.6927  1.3458 -0.0819
20253SOL    HW263653   8.853   0.712   7.466  0.4501 -1.3490  0.1110
20254SOL     OW63654   5.372   2.238   3.964 -0.3749 -1.0315 -0.7500
20254SOL    HW163655   5.316   2.233   3.886 -1.2357  0.4524 -0.2652
20254SOL    HW263656   5.417   2.322   3.955  2.0642 -2.2840 -1.2635
20255SOL     OW63657   7.349   4.667   4.916 -0.1547 -0.2125  0.0954
20255SOL    HW163658   7.259   4.699   4.919 -1.0396 -2.4653 -0.1660
20255SOL    HW263659   7.353   4.612   4.837  0.9827 -1.3612  0.8930
20256SOL     OW63660  10.006   8.594   6.231 -0.2853  0.2942 -0.0445
20256SOL    HW163661   9.949   8.594   6.309 -0.0884  0.5461  0.1033
20256SOL    HW263662  10.049   8.509   6.232 -1.3031 -0.2497 -0.6368
20257SOL     OW63663   3.533   5.675   7.655 -0.0011 -0.1537 -0.6095
20257SOL    HW163664   3.462   5.739   7.656  0.3382  0.3714  3.2694
20257SOL    HW263665   3.611   5.725   7.631 -0.0055  0.6041  0.8710
20258SOL     OW63666   5.226   0.474  10.550  0.5196 -0.4465  0.0859
20258SOL    HW163667   5.279   0.450  10.626 -0.5223 -1.6195  0.4586
20258SOL    HW263668   5.284   0.530  10.498  1.9594 -1.3155  0.7039
20259SOL     OW63669   2.293   5.416   2.202 -0.0063 -0.1938  0.0797
20259SOL    HW163670   2.284   5.489   2.140 -3.5459 -0.2897  0.2797
20259SOL    HW263671   2.325   5.343   2.149 -0.3847  0.4203 -1.0237
20260SOL     OW63672   3.730   7.674   1.903 -0.1393 -0.0297 -0.0765
20260SOL    HW163673   3.721   7.692   1.810 -0.0158 -1.1544 -0.3187
20260SOL    HW263674   3.649   7.629   1.927  0.5743 -1.4069 -0.0835
20261SOL     OW63675   0.960   4.956   2.178  0.2196  0.0966 -0.7835
20261SOL    HW163676   0.933   4.923   2.264  0.5305 -1.0572 -1.1260
20261SOL    HW263677   1.042   5.002   2.194  1.6759 -2.3266 -0.8370
20262SOL     OW63678   6.838   9.340   6.319 -0.4074  0.0657 -0.1021
20262SOL    HW163679   6.765   9.316   6.263 -0.9988 -1.4974  1.2658
20262SOL    HW263680   6.894   9.262   6.322 -0.3979  0.0877  1.4378
20263SOL     OW63681   5.951   0.153   9.188  0.1159  0.4964 -0.2992
20263SOL    HW163682   5.974   0.225   9.248  0.3654 -0.0686  0.2942
20263SOL    HW263683   5.856   0.154   9.186 -0.1485 -1.7506  3.0358
20264SOL     OW63684   5.766   4.870   1.835  0.5440  0.0675  0.6608
20264SOL    HW163685   5.797   4.780   1.819 -0.9383 -0.3299 -0.2478
20264SOL    HW263686   5.701   4.861   1.905 -1.4041 -0.0209 -1.0464
20265SOL     OW63687   6.949   3.981   4.489 -0.1022 -0.2545  0.2330
20265SOL    HW163688   6.870   3.985   4.435  0.9166  1.8241 -1.1978
20265SOL    HW263689   7.018   4.019   4.435  1.4626 -0.1264  2.2026
20266SOL     OW63690   3.293   9.942   6.795  0.8426  0.8111  0.1059
20266SOL    HW163691   3.345   9.893   6.731  0.8469  0.3099  0.4838
20266SOL    HW263692   3.226   9.987   6.743  0.5467  0.0210 -0.2113
20267SOL     OW63693   0.146   0.999  10.188  0.5443 -0.4385  0.0656
20267SOL    HW163694   0.240   0.984  10.186  0.5311 -0.6381  0.5845
20267SOL    HW263695   0.122   1.023  10.099  0.8002 -2.1160 -0.4853
20268SOL     OW63696   7.123   7.431   7.376  0.4887 -0.0444 -0.7521
20268SOL    HW163697   7.198   7.376   7.399 -0.3551 -0.2036  2.0220
20268SOL    HW263698   7.151   7.520   7.401  0.2253  0.0865 -0.9228
20269SOL     OW63699   0.326   9.871   5.942 -0.1870  0.2701 -0.5663
20269SOL    HW163700   0.340   9.813   5.868 -2.7896 -1.6013  0.2575
20269SOL    HW263701   0.264   9.937   5.910 -1.1178 -0.3938 -0.1868
20270SOL     OW63702   1.153   6.886   5.016  0.3275 -0.5822 -0.5987
20270SOL    HW163703   1.095   6.846   4.952  1.1526 -0.2209 -1.6020
20270SOL    HW263704   1.113   6.971   5.035  1.2820  0.3513 -2.4769
20271SOL     OW63705   2.136   7.513   1.081  0.0007  0.0748  0.1401
20271SOL    HW163706   2.138   7.444   1.147  1.0360  0.8783  1.0084
20271SOL    HW263707   2.200   7.485   1.016  0.4089  0.1950  0.4830
20272SOL     OW63708   9.455  10.436   7.724  0.0207 -0.0526  0.7586
20272SOL    HW163709   9.513  10.479   7.786  1.0808 -0.8713  0.3653
20272SOL    HW263710   9.508  10.365   7.686 -1.0557 -0.4741 -0.0179
20273SOL     OW63711   6.752   5.996   6.485 -0.1972  0.0355 -0.5300
20273SOL    HW163712   6.723   6.029   6.570 -2.6529 -1.7430 -0.5868
20273SOL    HW263713   6.835   5.952   6.503 -0.9132 -0.7141  1.0542
20274SOL     OW63714   9.874   7.270   7.232 -0.2556 -0.1666 -0.1109
20274SOL    HW163715   9.952   7.242   7.185 -0.1737 -0.5662  0.2624
20274SOL    HW263716   9.843   7.347   7.183  0.6075  0.2544 -0.0115
20275SOL     OW63717   9.946   9.445   7.692 -0.2602  0.2499  0.1118
20275SOL    HW163718   9.902   9.530   7.695  0.9368  1.0234 -1.9131
20275SOL    HW263719   9.912   9.397   7.768 -0.6474  2.6891  1.5959
20276SOL     OW63720   1.542   5.832   1.374  0.2811  0.0285  0.3613
20276SOL    HW163721   1.632   5.819   1.403  0.8600 -0.3910 -1.5145
20276SOL    HW263722   1.548   5.842   1.279 -1.6948 -0.3765  0.1482
20277SOL     OW63723   2.059   7.246   5.242 -0.0220 -0.5417  0.0732
20277SOL    HW163724   1.980   7.294   5.217  1.0661  0.9558 -0.5785
20277SOL    HW263725   2.027   7.157   5.261 -1.9349  0.1629  0.3967
20278SOL     OW63726   8.498   3.521   3.324  0.2309  0.2635 -0.1623
20278SOL    HW163727   8.446   3.556   3.252  0.5364  0.6285 -0.2066
20278SOL    HW263728   8.573   3.479   3.282 -0.2921 -0.7385 -0.1284
20279SOL     OW63729   0.210  10.265   2.136 -0.3015  0.2012  0.2045
20279SOL    HW163730   0.283  10.274   2.197 -0.3877  0.0537  0.3286
20279SOL    HW263731   0.134  10.294   2.186 -0.4113 -0.1695  0.2487
20280SOL     OW63732   1.115   4.384   0.912  0.5501 -0.4519  0.1645
20280SOL    HW163733   1.020   4.377   0.906  0.5264 -2.1339  1.5991
20280SOL    HW263734   1.147   4.353   0.828 -0.1617 -0.1535 -0.2191
20281SOL     OW63735   1.667   8.701   9.371  0.0464 -0.1098  0.2625
20281SOL    HW163736   1.667   8.792   9.401  0.1924 -0.0457  0.0713
20281SOL    HW263737   1.671   8.707   9.276  0.5418 -0.3195  0.2647
20282SOL     OW63738   7.334   7.252   5.130 -0.5002 -0.3582 -0.2358
20282SOL    HW163739   7.301   7.167   5.158 -0.8008 -0.7499 -1.7051
20282SOL    HW263740   7.361   7.239   5.039 -0.1739  1.0129 -0.3633
20283SOL     OW63741   0.251  10.750   3.257  0.1471 -0.5189  0.5367
20283SOL    HW163742   0.199  10.711   3.328  0.7617 -2.9709 -0.2916
20283SOL    HW263743   0.294  10.825   3.299 -0.6485 -1.0199  2.3754
20284SOL     OW63744   2.047   6.760   8.797 -0.4355 -0.1607  0.3797
20284SOL    HW163745   2.057   6.698   8.870  0.8999 -0.9206 -0.4060
20284SOL    HW263746   2.100   6.723   8.727 -0.9846  1.0178 -0.6936
20285SOL     OW63747   1.816   3.875   1.841 -0.1044 -0.3510  0.1363
20285SOL    HW163748   1.793   3.787   1.870 -1.2161 -0.2508 -0.4065
20285SOL    HW263749   1.758   3.933   1.891 -0.0863  0.0052 -0.2534
20286SOL     OW63750   4.954   5.876  10.013  0.4775  0.2006  0.0866
20286SOL    HW163751   4.988   5.939   9.950 -0.3568  1.0021  0.4208
20286SOL    HW263752   4.905   5.814   9.960 -1.2669  1.5637  0.0170
20287SOL     OW63753   1.103   5.410   1.097  0.6255  0.6957  0.1342
20287SOL    HW163754   1.045   5.459   1.156  0.1016  0.3603 -0.0966
20287SOL    HW263755   1.190   5.422   1.133  0.4921  1.7163  0.1496
20288SOL     OW63756   2.114   4.450   8.941 -0.1903  0.0705 -0.5075
20288SOL    HW163757   2.126   4.417   8.852  2.1270  0.6422 -0.4782
20288SOL    HW263758   2.091   4.542   8.930 -0.4138  0.0104 -0.5326
20289SOL     OW63759   5.508   6.408   9.814 -0.0367  0.1698  0.4231
20289SOL    HW163760   5.451   6.374   9.883 -2.3178  2.7424  0.0391
20289SOL    HW263761   5.513   6.502   9.832  0.8021  0.6313 -1.8613
20290SOL     OW63762   5.292   3.947  10.575  0.5737 -0.2167  0.0065
20290SOL    HW163763   5.368   4.006  10.583  0.0982  0.3732  0.2933
20290SOL    HW263764   5.233   3.977  10.644  0.0676 -0.6549 -0.2385
20291SOL     OW63765   7.519   2.477  10.404 -0.1056 -0.3440 -0.0768
20291SOL    HW163766   7.554   2.466  10.493  0.7272  3.3459  0.1839
20291SOL    HW263767   7.458   2.549  10.411  1.3637  1.3247 -2.7813
20292SOL     OW63768  10.676   2.255   8.333  0.7763 -0.4019 -0.9157
20292SOL    HW163769  10.600   2.197   8.330 -0.5347  1.2803 -2.2488
20292SOL    HW263770  10.751   2.197   8.320 -0.4053 -1.8792 -1.4746
20293SOL     OW63771   1.823   1.233   7.866 -0.3399 -0.3526  0.3122
20293SOL    HW163772   1.852   1.287   7.793  3.7508 -3.0850 -0.3831
20293SOL    HW263773   1.789   1.154   7.825 -0.9841 -0.6342  1.3611
20294SOL     OW63774   1.202   0.466   3.438 -0.5559  0.0310 -0.0120
20294SOL    HW163775   1.126   0.418   3.405 -1.6182  0.7554  1.2633
20294SOL    HW263776   1.256   0.400   3.480 -0.5772 -0.4670 -0.7549
20295SOL     OW63777   5.011   9.740   4.171 -0.4159 -0.1416  0.0749
20295SOL    HW163778   5.021   9.832   4.197 -0.5350 -0.3722  0.9612
20295SOL    HW263779   5.009   9.743   4.076  0.5884  0.6760  0.0616
20296SOL     OW63780   1.399   6.168   4.729 -0.0606 -0.1273  0.6433
20296SOL    HW163781   1.420   6.252   4.769 -0.7665 -0.0311  0.8233
20296SOL    HW263782   1.429   6.177   4.638  1.3244 -0.2627  1.0549
20297SOL     OW63783   7.252   8.613   4.046  0.0251 -0.0214 -0.2890
20297SOL    HW163784   7.206   8.695   4.062 -0.7005 -0.7090  1.3326
20297SOL    HW263785   7.226   8.556   4.119  2.2957 -0.9209 -0.0968
20298SOL     OW63786   8.413   0.279  10.611  0.1092  0.5880 -0.1443
20298SOL    HW163787   8.344   0.265  10.676 -0.5724  0.1365 -0.9513
20298SOL    HW263788   8.490   0.234  10.648 -0.7633 -1.2777 -0.4756
20299SOL     OW63789   1.207   4.910   6.967 -0.3384  0.1154  0.5580
20299SOL    HW163790   1.275   4.890   6.903  0.0878 -0.3193  1.1298
20299SOL    HW263791   1.239   4.871   7.049 -1.4668 -0.4503  0.7480
20300SOL     OW63792   6.554  10.014  10.660 -0.1114  0.4273  0.2243
20300SOL    HW163793   6.616  10.069  10.707  0.4246 -0.4743  0.6135
20300SOL    HW263794   6.490   9.987  10.726 -1.0136  1.4483 -0.2017
20301SOL     OW63795   1.501   1.556   1.930  0.6491  0.5283  0.4847
20301SOL    HW163796   1.431   1.571   1.994  1.3935  0.1810  1.4001
20301SOL    HW263797   1.473   1.606   1.853 -1.7004 -1.3770 -0.0132
20302SOL     OW63798  10.105   3.677   3.625 -0.4566  0.8158 -0.1521
20302SOL    HW163799  10.115   3.772   3.611  0.0339  0.6431 -1.0176
20302SOL    HW263800  10.012   3.667   3.646 -0.1615  1.6885  1.7305
20303SOL     OW63801   9.859   6.743   7.251 -0.2711 -0.1078 -0.1873
20303SOL    HW163802   9.801   6.811   7.217 -1.1999 -0.9459 -0.3353
20303SOL    HW263803   9.814   6.661   7.229  0.9283 -0.7732 -0.2034
20304SOL     OW63804   5.080   6.954   1.191 -0.0341 -0.2704  0.3185
20304SOL    HW163805   4.994   6.985   1.218  0.5663  1.1800  0.6908
20304SOL    HW263806   5.140   7.022   1.222  1.3025 -1.5188  0.5722
20305SOL     OW63807   3.915   9.832   6.410 -0.0578 -0.1168  0.6134
20305SOL    HW163808   3.896   9.832   6.316  3.5600  2.2902 -0.3019
20305SOL    HW263809   3.842   9.882   6.449  0.2188  2.1683 -1.5263
20306SOL     OW63810   3.180   7.731  10.781 -0.2061  0.4179  0.2392
20306SOL    HW163811   3.228   7.649  10.765 -1.2332 -0.0517 -0.5933
20306SOL    HW263812   3.176   7.739  10.876  1.0439  0.1885  0.3185
20307SOL     OW63813   6.874   0.958   0.523  0.2078  0.6139  0.2479
20307SOL    HW163814   6.822   0.968   0.443 -0.0176 -0.9527  0.1669
20307SOL    HW263815   6.964   0.945   0.492 -0.0723 -1.4133  0.1184
20308SOL     OW63816   6.109   8.443   4.255  0.2818  0.4273  0.3712
20308SOL    HW163817   6.195   8.483   4.240  0.6380  0.1557  1.5503
20308SOL    HW263818   6.097   8.385   4.180  1.1861  0.3760  0.2448
20309SOL     OW63819   7.431   1.328   5.765 -0.0765 -0.1829 -0.0633
20309SOL    HW163820   7.390   1.413   5.750  1.2536  0.4291 -0.3657
20309SOL    HW263821   7.505   1.348   5.822  0.4213 -1.1021 -0.3819
20310SOL     OW63822   2.550   4.487   7.724  0.5364 -0.2157  0.2941
20310SOL    HW163823   2.459   4.463   7.707  0.3510 -0.1168  1.1143
20310SOL    HW263824   2.597   4.403   7.723  0.1403 -0.4685  1.6302
20311SOL     OW63825   8.245  10.107   0.734 -0.1071  0.0633  0.4008
20311SOL    HW163826   8.337  10.091   0.756 -0.0893  0.1546  0.3939
20311SOL    HW263827   8.199  10.104   0.818 -0.1927 -0.6006  0.3354
20312SOL     OW63828   7.078   2.549   2.787  0.4815 -0.3763 -0.4140
20312SOL    HW163829   7.025   2.592   2.719 -0.3523 -0.1873  0.3424
20312SOL    HW263830   7.037   2.575   2.869  1.6438 -0.3910  0.1848
20313SOL     OW63831   5.048   7.951   8.171  0.6571  0.6337  0.7342
20313SOL    HW163832   5.078   7.948   8.262 -0.5306 -1.4955  1.1504
20313SOL    HW263833   5.025   7.860   8.151 -1.2388  1.3953 -0.9427
20314SOL     OW63834   7.473   0.625   8.451 -0.6225 -0.0997 -0.1903
20314SOL    HW163835   7.531   0.645   8.525 -0.5807 -0.4597 -0.1220
20314SOL    HW263836   7.525   0.648   8.374 -1.2147  1.7213 -0.0959
20315SOL     OW63837   6.537   9.812   0.098  0.2546 -0.1510 -0.8719
20315SOL    HW163838   6.501   9.744   0.155 -1.2977 -0.7235 -2.4331
20315SOL    HW263839   6.632   9.800   0.102  0.2009 -0.2290  1.4508
20316SOL     OW63840   6.658   8.393   0.863  0.6798 -0.1291 -0.0556
20316SOL    HW163841   6.581   8.449   0.866  1.3954  1.1635 -2.9355
20316SOL    HW263842   6.625   8.307   0.836  0.1130  0.0563  0.0418
20317SOL     OW63843  10.130   1.978   9.742  0.5673 -0.1131  0.0605
20317SOL    HW163844  10.194   1.957   9.810  2.9150  2.2818 -1.2279
20317SOL    HW263845  10.062   2.029   9.787  1.1152 -0.1421  0.9374
20318SOL     OW63846   7.607   9.809   2.874  0.3590 -0.1860  0.4836
20318SOL    HW163847   7.566   9.867   2.810  1.9412  0.5006  0.0267
20318SOL    HW263848   7.560   9.826   2.955  0.1121  0.9881  0.1167
20319SOL     OW63849   9.971  10.200   0.296  0.1220  0.1434  0.3246
20319SOL    HW163850  10.019  10.269   0.250  1.2109  0.2555  1.5478
20319SOL    HW263851  10.026  10.122   0.286  0.8730  0.3843  2.1552
20320SOL     OW63852   6.752   8.856   2.953 -0.1095 -0.4304  0.0574
20320SOL    HW163853   6.751   8.784   3.017 -0.3625 -1.2436 -0.8398
20320SOL    HW263854   6.750   8.812   2.868 -0.3941  0.6504 -0.5044
20321SOL     OW63855   1.006   7.102   2.489  0.1521 -0.1128  0.3357
20321SOL    HW163856   1.080   7.071   2.541  1.2959  0.6954 -0.7583
20321SOL    HW263857   0.932   7.102   2.551  1.7633  2.2515  2.4647
20322SOL     OW63858   0.475   0.813   0.031  0.4334 -0.3103 -0.4434
20322SOL    HW163859   0.500   0.751  -0.037  0.0965 -0.7412 -0.1779
20322SOL    HW263860   0.523   0.784   0.109 -0.5392 -0.8946 -0.0378
20323SOL     OW63861   7.455  10.312   3.530  0.3417 -0.2772  0.1369
20323SOL    HW163862   7.400  10.357   3.466 -0.3112 -0.8166  0.3120
20323SOL    HW263863   7.426  10.344   3.615  1.7772  1.0818  0.1704
20324SOL     OW63864   8.001   9.533   7.477  0.0280 -0.1637 -0.7447
20324SOL    HW163865   7.983   9.444   7.448  1.8329 -0.8518  0.1491
20324SOL    HW263866   7.979   9.533   7.571 -0.5647  0.5249 -0.8714
20325SOL     OW63867   5.978   2.231   5.385 -0.0207  0.1264  0.7866
20325SOL    HW163868   5.911   2.300   5.383  1.0214  1.2352  1.8385
20325SOL    HW263869   5.929   2.149   5.390 -1.2995  0.8134  0.0010
20326SOL     OW63870   6.865   2.969   9.625 -0.4613 -0.3595  0.4601
20326SOL    HW163871   6.924   2.964   9.701 -0.1839 -2.2370  0.1605
20326SOL    HW263872   6.781   2.938   9.659 -0.3443 -1.1695  0.0304
20327SOL     OW63873   8.023   0.171   5.267  0.3209 -0.1466 -0.4700
20327SOL    HW163874   8.096   0.230   5.287  0.0799 -0.3178  1.0180
20327SOL    HW263875   8.011   0.180   5.173  2.5652 -0.4689 -0.8465
20328SOL     OW63876   1.592   0.286   4.066 -0.2292  0.2205  0.3980
20328SOL    HW163877   1.684   0.303   4.049 -0.5571  1.7892  0.0225
20328SOL    HW263878   1.552   0.281   3.979 -0.5963  0.2144  0.5617
20329SOL     OW63879  10.615  10.787   5.365  0.5178  0.5113 -0.1742
20329SOL    HW163880  10.525  10.767   5.340  1.1599 -1.3075 -1.1940
20329SOL    HW263881  10.659  10.809   5.283  1.5906 -1.1067 -0.0741
20330SOL     OW63882   2.288   6.318   5.665 -0.2390  0.0141  0.3484
20330SOL    HW163883   2.242   6.238   5.637 -0.7951 -0.0681  1.4527
20330SOL    HW263884   2.367   6.320   5.611 -1.4337  0.0630 -1.4850
20331SOL     OW63885   4.920   6.542   6.418 -0.1212  0.0799  0.0737
20331SOL    HW163886   4.937   6.559   6.510  0.5588  1.2546 -0.2617
20331SOL    HW263887   5.005   6.546   6.375 -0.1592 -2.2001 -0.3791
20332SOL     OW63888   4.804   3.608   5.563  0.1900 -0.0572 -0.4623
20332SOL    HW163889   4.830   3.647   5.479  2.6067  1.3976  0.8373
20332SOL    HW263890   4.715   3.639   5.578 -0.3591 -0.4633 -2.5023
20333SOL     OW63891   6.449   8.867   4.659 -0.0778 -0.1669 -0.6266
20333SOL    HW163892   6.493   8.803   4.714  0.3777  0.8852  0.2691
20333SOL    HW263893   6.382   8.817   4.611  1.2236 -1.5539 -1.0484
20334SOL     OW63894   2.605  10.603   8.597 -0.1614  0.1263 -0.6251
20334SOL    HW163895   2.555  10.521   8.594 -0.4777  0.3347 -1.4154
20334SOL    HW263896   2.572  10.653   8.523 -0.3195  1.1831  0.1488
20335SOL     OW63897   3.920   7.844  10.049 -0.2777 -0.3316 -0.1758
20335SOL    HW163898   3.911   7.835  10.144 -0.4563 -0.2164 -0.1807
20335SOL    HW263899   3.844   7.896  10.023 -0.9791 -1.5143 -0.5593
20336SOL     OW63900   5.982   6.160   3.162  0.1220 -0.3189  0.6058
20336SOL    HW163901   5.987   6.238   3.217 -0.1172  0.8306 -0.9269
20336SOL    HW263902   5.988   6.087   3.223  1.1255  0.8888  2.0213
20337SOL     OW63903   3.099   0.057   6.214 -0.1821  0.0659 -0.0570
20337SOL    HW163904   3.054  -0.017   6.174  1.1989  0.0154 -1.6432
20337SOL    HW263905   3.187   0.024   6.232 -0.6120  0.2064  2.8003
20338SOL     OW63906   9.564   7.178   1.290 -0.1548  0.5861  0.0867
20338SOL    HW163907   9.623   7.254   1.292  1.2574 -0.3928 -1.2118
20338SOL    HW263908   9.512   7.186   1.370  0.2541  2.6543  0.2209
20339SOL     OW63909   5.390   9.792   0.937 -0.5064  0.3192 -0.2578
20339SOL    HW163910   5.425   9.725   0.879  0.3332  0.2362  0.3377
20339SOL    HW263911   5.395   9.873   0.886 -2.3490 -0.1737 -1.3159
20340SOL     OW63912   2.403   4.660   2.054  0.0991 -0.0611  0.1754
20340SOL    HW163913   2.481   4.694   2.098 -0.3417 -0.0716  0.9838
20340SOL    HW263914   2.350   4.738   2.036  0.5129  0.0066 -0.8469
20341SOL     OW63915   6.452   5.592   1.409  0.8010  0.0148 -1.0402
20341SOL    HW163916   6.367   5.603   1.366  0.9825 -0.0096 -1.4086
20341SOL    HW263917   6.430   5.561   1.497  0.4516 -0.8213 -1.4074
20342SOL     OW63918   8.605   8.721   6.582  0.1733 -0.0466 -0.1311
20342SOL    HW163919   8.560   8.740   6.499 -0.5505 -0.5707  0.1220
20342SOL    HW263920   8.655   8.800   6.601 -1.0367  0.7672 -0.1847
20343SOL     OW63921   0.926   1.421   3.119 -0.8545 -0.7530 -0.6380
20343SOL    HW163922   0.969   1.506   3.131  0.5256 -1.4626 -0.4241
20343SOL    HW263923   0.934   1.379   3.205 -2.2695 -0.7944 -0.5004
20344SOL     OW63924   4.743   1.021   5.162 -0.0658 -0.1128  0.3841
20344SOL    HW163925   4.681   1.029   5.234 -1.6810 -0.2803 -0.9220
20344SOL    HW263926   4.694   1.053   5.086  1.4222 -0.3910 -0.7139
20345SOL     OW63927   3.601   4.065  10.272 -0.3593 -0.4318 -0.1269
20345SOL    HW163928   3.656   4.091  10.199 -0.6632  0.0344 -0.1952
20345SOL    HW263929   3.555   4.145  10.298  0.2153 -0.4320  0.9845
20346SOL     OW63930   0.199   7.897   6.541 -0.3289  0.1926  0.2585
20346SOL    HW163931   0.215   7.878   6.449 -0.9777 -1.3101  0.4227
20346SOL    HW263932   0.171   7.988   6.543 -0.5566  0.1605 -1.0667
20347SOL     OW63933   6.805   0.610   0.855  0.3931 -0.0382 -0.0503
20347SOL    HW163934   6.847   0.652   0.780 -0.5928 -0.8753 -1.0949
20347SOL    HW263935   6.720   0.582   0.823  0.4710 -1.6051  0.9934
20348SOL     OW63936   3.490   3.572   2.398 -0.0761  0.1886 -0.0907
20348SOL    HW163937   3.510   3.478   2.392 -2.1372 -0.2788 -0.2126
20348SOL    HW263938   3.463   3.596   2.310 -1.2271  0.4831  0.3358
20349SOL     OW63939  10.604   9.866   5.986 -0.0048  0.5669  0.2142
20349SOL    HW163940  10.533   9.807   5.963  0.2266  1.0406 -1.8625
20349SOL    HW263941  10.681   9.810   5.991 -0.0074  0.4882 -0.5159
20350SOL     OW63942   8.464   8.632   6.794 -0.4104 -0.2004 -0.0178
20350SOL    HW163943   8.396   8.598   6.736  0.4340 -2.3718  0.1758
20350SOL    HW263944   8.527   8.673   6.735 -1.6243  1.4754 -0.2302
20351SOL     OW63945   5.453   5.549   2.173  0.3347  0.4438  0.1356
20351SOL    HW163946   5.471   5.455   2.172  1.1811  0.5769  1.4643
20351SOL    HW263947   5.537   5.590   2.158 -0.0114  1.0021 -0.3115
20352SOL     OW63948   5.170   7.267   4.982  0.3394  0.2423 -1.0341
20352SOL    HW163949   5.113   7.243   5.055 -2.4014  1.7731 -2.4867
20352SOL    HW263950   5.243   7.314   5.023 -1.0988  1.0448  0.7550
20353SOL     OW63951   7.062   5.977   7.454 -0.0276  0.3714 -0.3515
20353SOL    HW163952   6.984   5.935   7.417  1.1654 -1.8603 -0.5003
20353SOL    HW263953   7.134   5.945   7.400  1.1406  1.4308  0.5350
20354SOL     OW63954   6.421   3.976   0.003 -0.1501  1.1159 -0.0801
20354SOL    HW163955   6.416   4.049   0.064  1.8582  0.9254  0.3675
20354SOL    HW263956   6.486   3.918   0.040 -0.2333  0.0804 -1.4749
20355SOL     OW63957   8.791  10.579   5.949  0.4695 -0.0534  0.0052
20355SOL    HW163958   8.863  10.524   5.981 -1.6402 -2.6993  0.6307
20355SOL    HW263959   8.759  10.624   6.026  0.6027  0.0917 -0.0227
20356SOL     OW63960   2.001  10.288   0.370  0.0564 -0.1861  0.2779
20356SOL    HW163961   2.089  10.322   0.386  0.2083 -0.3941 -0.0948
20356SOL    HW263962   1.991  10.292   0.275 -1.0653  1.5928  0.4334
20357SOL     OW63963   5.359   1.481   7.283  0.0097 -0.0999  0.4486
20357SOL    HW163964   5.312   1.555   7.321 -0.9426 -0.6687  0.4308
20357SOL    HW263965   5.440   1.518   7.249 -1.0105  1.1525 -0.6993
20358SOL     OW63966   4.623   6.268   0.981 -0.2650 -0.6527 -0.1782
20358SOL    HW163967   4.611   6.199   1.046  1.8530  1.8992  3.3079
20358SOL    HW263968   4.717   6.266   0.963 -0.3027  0.8043 -0.6113
20359SOL     OW63969   8.833   0.480   5.853  0.2025  0.1254  0.6149
20359SOL    HW163970   8.797   0.430   5.779 -0.9351  1.9962 -0.1819
20359SOL    HW263971   8.926   0.486   5.835 -0.2686  1.9954 -1.6849
20360SOL     OW63972   7.244   4.496   8.861 -0.1864 -0.2268  0.4936
20360SOL    HW163973   7.161   4.448   8.867 -1.0880  1.3743  1.7908
20360SOL    HW263974   7.308   4.439   8.903 -0.7231 -1.2420 -0.0149
20361SOL     OW63975   4.287   9.176   7.416 -0.1206  0.3765 -0.5586
20361SOL    HW163976   4.227   9.195   7.344 -0.1189  0.5019 -0.5285
20361SOL    HW263977   4.256   9.094   7.453 -0.5106  0.6427 -0.2934
20362SOL     OW63978   2.648   3.108   5.403  0.0252 -0.2350  0.3587
20362SOL    HW163979   2.674   3.031   5.353  0.1783  0.3614 -0.5191
20362SOL    HW263980   2.623   3.075   5.488  0.4712 -1.2101  0.1241
20363SOL     OW63981   9.434   4.995   7.611  0.1332 -0.0279 -0.4220
20363SOL    HW163982   9.432   4.910   7.566 -0.2399 -0.4745  0.3994
20363SOL    HW263983   9.526   5.005   7.638 -0.4130 -2.0288  2.7607
20364SOL     OW63984   3.295   7.068   7.678 -0.1212 -0.1405  0.5157
20364SOL    HW163985   3.296   6.979   7.711 -0.0548 -0.3544 -0.0528
20364SOL    HW263986   3.336   7.062   7.592  1.4246  0.7121  1.1477
20365SOL     OW63987   6.818   0.126   7.429  0.0002 -0.5542 -0.5746
20365SOL    HW163988   6.894   0.079   7.465  0.2981  1.0372  1.0713
20365SOL    HW263989   6.852   0.171   7.352  0.3189 -1.1113 -0.7659
20366SOL     OW63990   4.245   1.995   9.679  0.1999 -0.1478  0.2614
20366SOL    HW163991   4.275   2.086   9.683 -0.2902  0.0063  0.4932
20366SOL    HW263992   4.324   1.945   9.660  0.4793  0.3233  0.1578
20367SOL     OW63993   2.117   3.648   3.009 -0.1313  0.5726 -0.3911
20367SOL    HW163994   2.049   3.581   3.018  0.5810 -0.3366 -1.5871
20367SOL    HW263995   2.111   3.699   3.090  0.4127 -1.9567  1.3406
20368SOL     OW63996   9.630   6.005   8.784  0.1393 -0.2889  0.0088
20368SOL    HW163997   9.597   6.091   8.812  1.0420  0.0272  0.1525
20368SOL    HW263998   9.602   5.945   8.853  0.2134  0.0448  0.3320
20369SOL     OW63999   1.622   5.953   0.759  0.6814 -0.0233  0.3991
20369SOL    HW164000   1.553   5.995   0.811 -1.0492 -1.8480 -0.2907
20369SOL    HW264001   1.608   5.986   0.670  2.3099  1.4803  0.6558
20370SOL     OW64002   4.112   6.162   6.226  0.0143 -0.1509  0.7029
20370SOL    HW164003   4.160   6.240   6.198 -0.7355 -0.3823 -1.4457
20370SOL    HW264004   4.165   6.124   6.296 -0.3690  3.1005  2.9997
20371SOL     OW64005   1.082   8.005   4.970 -0.3179 -0.6794 -0.2289
20371SOL    HW164006   0.998   7.958   4.972  0.4336 -2.0347  0.1544
20371SOL    HW264007   1.123   7.985   5.053  0.1440  0.4808 -0.1650
20372SOL     OW64008   7.268   0.237   4.601  0.7429 -0.0067 -0.1163
20372SOL    HW164009   7.215   0.272   4.529 -1.1248 -0.8327  0.8130
20372SOL    HW264010   7.339   0.190   4.557  0.0272  0.0752 -1.4100
20373SOL     OW64011   1.886   9.182   1.006 -0.1888  0.5046 -0.3970
20373SOL    HW164012   1.827   9.119   0.964 -0.5583  0.8751 -0.4484
20373SOL    HW264013   1.834   9.221   1.076 -0.0324  0.8995 -0.4983
20374SOL     OW64014   1.593   4.640   2.636 -0.0307  0.4335  1.4574
20374SOL    HW164015   1.670   4.611   2.588 -0.7122 -0.6970  0.9874
20374SOL    HW264016   1.592   4.587   2.715  0.8273  1.9590  2.5271
20375SOL     OW64017   6.068   6.421   7.397  0.6885  0.4390 -0.4849
20375SOL    HW164018   6.104   6.342   7.436  1.8130  1.4452  0.5992
20375SOL    HW264019   5.974   6.405   7.393  0.9115 -0.9930 -0.4059
20376SOL     OW64020   6.067   1.870   2.348 -0.3911 -0.4295  0.5546
20376SOL    HW164021   6.060   1.891   2.254  0.5261  0.5691  0.6867
20376SOL    HW264022   6.029   1.782   2.356 -0.9761 -0.3063 -0.6627
20377SOL     OW64023   7.393   8.707   6.474  0.5839  0.7787  0.0083
20377SOL    HW164024   7.376   8.634   6.533 -0.1526  1.4647  0.6715
20377SOL    HW264025   7.484   8.732   6.492  0.9476 -0.1862 -0.4724
20378SOL     OW64026   7.236   7.241   3.003  0.5075  0.7690  0.5502
20378SOL    HW164027   7.291   7.318   3.020  1.4220  0.5016 -1.0566
20378SOL    HW264028   7.152   7.263   3.044  1.1649  2.0457  1.2915
20379SOL     OW64029  10.781   2.075   6.082 -0.7562  0.0113 -0.1793
20379SOL    HW164030  10.790   2.106   5.992 -0.0506 -1.3214 -0.5871
20379SOL    HW264031  10.716   2.133   6.121 -0.6038  1.0112 -1.3526
20380SOL     OW64032   5.109  10.177   6.768 -0.1326 -0.1336 -0.1164
20380SOL    HW164033   5.202  10.188   6.752 -0.1856 -1.5723 -1.6938
20380SOL    HW264034   5.070  10.260   6.741  0.4576 -0.3918 -1.8416
20381SOL     OW64035   3.058   0.234   6.484 -0.5040  0.5488 -0.1247
20381SOL    HW164036   2.993   0.240   6.554  0.4040  2.1714  0.6435
20381SOL    HW264037   3.100   0.148   6.498 -2.5414 -0.6265 -0.7719
20382SOL     OW64038   3.914   2.324   8.402  0.7179  0.6656  0.0816
20382SOL    HW164039   3.983   2.372   8.355  0.1509  0.1175 -1.3624
20382SOL    HW264040   3.877   2.265   8.336 -1.8330  1.6686  0.5163
20383SOL     OW64041   4.518   8.652   1.690 -0.2797  0.2259  0.7403
20383SOL    HW164042   4.613   8.641   1.692  0.0086  1.9139 -0.6232
20383SOL    HW264043   4.485   8.567   1.662  0.9247 -0.1113  0.2649
20384SOL     OW64044   8.648   0.564   7.650  0.0417 -0.4454 -0.0034
20384SOL    HW164045   8.571   0.573   7.706 -0.7818 -0.2172 -1.1539
20384SOL    HW264046   8.645   0.473   7.619 -0.2628 -0.1837 -0.7525
20385SOL     OW64047   8.238   8.008   1.605  0.0554 -0.0697 -0.1406
20385SOL    HW164048   8.300   7.944   1.640 -0.3262 -0.4402 -0.1263
20385SOL    HW264049   8.217   8.065   1.678 -1.6890 -1.5827  0.6111
20386SOL     OW64050   4.545   2.843   8.036  0.3357  0.6418  0.3357
20386SOL    HW164051   4.590   2.793   7.967  0.4396  0.9005  0.2105
20386SOL    HW264052   4.594   2.823   8.116 -1.5080 -1.9679  0.9520
20387SOL     OW64053   4.172  10.231   5.973  0.2647  0.2868 -0.6006
20387SOL    HW164054   4.107  10.168   6.004  0.3541  0.4311 -0.1112
20387SOL    HW264055   4.143  10.315   6.009  0.8183  0.3243 -0.2170
20388SOL     OW64056   7.106  10.199  10.569  0.0704 -0.7572  0.0137
20388SOL    HW164057   7.083  10.167  10.656  0.8541 -1.0985  0.1095
20388SOL    HW264058   7.077  10.290  10.567  0.6770 -0.5323  0.8905
20389SOL     OW64059   8.888   6.505   5.513 -0.1377 -0.2626  0.5215
20389SOL    HW164060   8.983   6.504   5.510 -0.1227 -0.1561 -2.5502
20389SOL    HW264061   8.865   6.598   5.507 -0.3320 -0.3981 -2.0553
20390SOL     OW64062   6.128   1.227   8.356 -0.3766  0.1701  0.4289
20390SOL    HW164063   6.095   1.313   8.379 -1.6365  0.3526 -1.7418
20390SOL    HW264064   6.188   1.243   8.284 -0.2790 -0.7151  0.3002
20391SOL     OW64065  10.144   0.079   9.896  0.0507 -0.5662  0.1845
20391SOL    HW164066  10.234   0.050   9.906  0.9361  1.1694 -1.9237
20391SOL    HW264067  10.095   0.001   9.872  0.9410 -1.5358  1.3891
20392SOL     OW64068   4.740   2.710   5.489 -0.4653 -0.0678 -0.7265
20392SOL    HW164069   4.681   2.730   5.561  0.2954 -0.4734  0.0296
20392SOL    HW264070   4.727   2.616   5.472  1.8292 -0.8570  1.2643
20393SOL     OW64071   4.363   7.466   9.895 -0.5248  0.0080 -0.8294
20393SOL    HW164072   4.276   7.505   9.906 -0.1782  0.4299  0.5464
20393SOL    HW264073   4.357   7.379   9.934 -1.3646 -1.5693 -4.1146
20394SOL     OW64074   2.276   7.365   5.363  0.2455 -0.3884 -0.4643
20394SOL    HW164075   2.341   7.404   5.304  0.5086  1.1161  0.7661
20394SOL    HW264076   2.209   7.330   5.304 -1.2726  4.1028 -1.7473
20395SOL     OW64077   6.877  10.158   9.257 -0.5274 -0.1732  0.4035
20395SOL    HW164078   6.890  10.189   9.168 -0.2864 -0.5071  0.3192
20395SOL    HW264079   6.966  10.151   9.293 -0.4952 -1.6409  0.1183
20396SOL     OW64080   9.088   2.208   2.442 -0.2058  0.1566 -0.3997
20396SOL    HW164081   9.038   2.237   2.519 -1.6211 -2.7625 -0.0725
20396SOL    HW264082   9.096   2.286   2.388 -0.7133  1.9109  1.8775
20397SOL     OW64083   0.983   3.291   2.812  0.6108 -0.2398 -0.5929
20397SOL    HW164084   1.038   3.290   2.891  1.0413 -1.0458 -0.8936
20397SOL    HW264085   0.995   3.205   2.773 -1.5512 -0.7810 -0.2170
20398SOL     OW64086   9.128   9.814   9.730 -0.8542 -0.2823  0.3739
20398SOL    HW164087   9.041   9.784   9.705 -1.2855  0.2954  1.1403
20398SOL    HW264088   9.159   9.749   9.793 -1.6935  0.6797  1.8540
20399SOL     OW64089   1.887   4.723   3.952 -0.1952  0.2383 -0.2977
20399SOL    HW164090   1.821   4.784   3.919  0.4798  0.6759 -0.8775
20399SOL    HW264091   1.934   4.694   3.874  0.4268  0.0919  0.1215
20400SOL     OW64092   5.340   6.378   8.730 -0.0923 -0.1149  0.3540
20400SOL    HW164093   5.364   6.469   8.748 -0.2501 -0.0916  0.4501
20400SOL    HW264094   5.297   6.348   8.810  1.3220 -0.7477  0.9279
20401SOL     OW64095  10.042   0.134   0.621  0.1235 -0.4980  0.3422
20401SOL    HW164096  10.080   0.169   0.701  1.1165 -1.5905  0.3689
20401SOL    HW264097  10.062   0.040   0.623  0.1891 -0.5463 -1.1960
20402SOL     OW64098   0.447   8.144  10.471 -0.3374  0.0848 -0.2618
20402SOL    HW164099   0.500   8.089  10.530 -2.2164  0.9857  2.4789
20402SOL    HW264100   0.482   8.232  10.484  1.0003 -0.0083 -2.7004
20403SOL     OW64101   9.048  10.555   2.607  0.0063 -0.6083  0.3053
20403SOL    HW164102   9.088  10.536   2.522 -0.1143 -0.9865  0.3326
20403SOL    HW264103   9.079  10.486   2.665 -1.8753 -1.8295 -0.0405
20404SOL     OW64104  10.591   6.899   5.746  0.4894  0.2990 -0.4910
20404SOL    HW164105  10.564   6.926   5.834  0.7149  1.7820 -0.8589
20404SOL    HW264106  10.560   6.969   5.689  1.5817  0.0470 -1.4280
20405SOL     OW64107   0.739   6.114   6.685  0.3139  0.6146  0.5241
20405SOL    HW164108   0.752   6.059   6.608  1.7342  0.3060  0.9505
20405SOL    HW264109   0.644   6.124   6.692  0.0161 -1.4491  0.1974
20406SOL     OW64110   4.918  10.672   8.125  0.0613 -0.0654 -0.0223
20406SOL    HW164111   4.943  10.700   8.213 -0.7582 -0.2194  0.2706
20406SOL    HW264112   5.000  10.644   8.084  0.7836  2.0033 -0.0642
20407SOL     OW64113   2.123   9.158   6.476 -0.2049 -0.2686  0.1208
20407SOL    HW164114   2.191   9.091   6.487 -0.7296 -0.9241 -0.5386
20407SOL    HW264115   2.096   9.150   6.385  1.9102  2.9908 -0.9812
20408SOL     OW64116   2.785   0.199   5.458 -0.2826  0.5106  0.1443
20408SOL    HW164117   2.851   0.138   5.426 -1.0078  0.3772 -1.1600
20408SOL    HW264118   2.791   0.275   5.400 -1.9936  0.0289 -0.7340
20409SOL     OW64119   3.555   2.669   8.422 -0.2338  0.3535 -0.2970
20409SOL    HW164120   3.559   2.575   8.441 -1.3511  0.8482  2.9590
20409SOL    HW264121   3.465   2.683   8.392 -0.6418  0.6261  1.0121
20410SOL     OW64122   8.756   5.864   2.476 -0.0997 -0.6527 -0.4425
20410SOL    HW164123   8.693   5.799   2.507 -2.3044  2.0122  1.0356
20410SOL    HW264124   8.821   5.869   2.546 -2.2571  1.6275  1.5747
20411SOL     OW64125   9.822   1.869   7.991  0.3754 -0.3138 -0.0354
20411SOL    HW164126   9.886   1.940   7.989 -0.0057  0.1462  1.9914
20411SOL    HW264127   9.849   1.814   8.065 -0.0488 -1.6038 -0.8068
20412SOL     OW64128   4.223   2.282   1.371 -0.2931 -0.0491  0.3371
20412SOL    HW164129   4.235   2.268   1.277  0.2925 -0.4424  0.4704
20412SOL    HW264130   4.134   2.319   1.378 -0.1218  0.5411 -0.4180
20413SOL     OW64131   6.432   6.399   1.512 -0.1468 -0.1781  0.1057
20413SOL    HW164132   6.356   6.398   1.570  1.2458  0.6572  2.0954
20413SOL    HW264133   6.399   6.428   1.428 -2.2338 -1.1507  0.5299
20414SOL     OW64134   9.463   4.954   3.103  0.1450  0.3585 -0.2837
20414SOL    HW164135   9.505   5.033   3.071 -0.9748  0.2037 -2.3485
20414SOL    HW264136   9.397   4.985   3.166  1.8939  0.7356  1.4575
20415SOL     OW64137   0.662   2.117   1.435 -0.2804  0.4266  0.3958
20415SOL    HW164138   0.690   2.112   1.526 -1.9658 -3.1539  0.8877
20415SOL    HW264139   0.578   2.072   1.433 -0.1741  0.1020 -2.9826
20416SOL     OW64140   1.943   2.031   0.399 -0.1360 -0.3962 -0.1791
20416SOL    HW164141   1.875   2.094   0.425  1.1818  0.4820  1.3299
20416SOL    HW264142   1.928   1.955   0.455  0.7926  0.2600  1.0037
20417SOL     OW64143   4.817   2.227   8.733  0.1417  0.7726  0.3796
20417SOL    HW164144   4.904   2.231   8.693 -1.2056 -0.4780 -3.1190
20417SOL    HW264145   4.779   2.145   8.699 -2.3527  1.2257  1.8396
20418SOL     OW64146   4.053   4.807   0.318 -0.1175  0.7914 -0.0963
20418SOL    HW164147   3.994   4.876   0.348 -1.0276  0.6095 -1.3585
20418SOL    HW264148   4.141   4.844   0.328 -0.5207  1.6253  0.4581
20419SOL     OW64149   1.278   4.830   1.405  0.0894 -0.0798  0.5943
20419SOL    HW164150   1.219   4.899   1.435 -1.2446 -0.3807 -1.1855
20419SOL    HW264151   1.365   4.862   1.429 -0.7075  0.5156  3.0391
20420SOL     OW64152   8.246   6.771   9.771  0.2420 -0.1371  0.1697
20420SOL    HW164153   8.212   6.738   9.854 -0.4112  0.5788  0.1982
20420SOL    HW264154   8.172   6.765   9.711  0.4075  0.3302 -0.0844
20421SOL     OW64155   3.249   7.115   3.069  0.0315  0.2464 -0.2047
20421SOL    HW164156   3.292   7.044   3.020  1.8628 -1.6193  3.6470
20421SOL    HW264157   3.214   7.071   3.147  0.6830  3.4395  2.0613
20422SOL     OW64158   9.618   1.901   0.094  0.2639 -0.4855  0.5538
20422SOL    HW164159   9.608   1.835   0.163  2.2707 -0.8833  0.5406
20422SOL    HW264160   9.708   1.888   0.063 -0.1905  0.5259 -1.2774
20423SOL     OW64161  10.626   8.985   0.535 -0.0814 -0.1753  0.1416
20423SOL    HW164162  10.644   8.977   0.441 -0.0163  1.2717  0.0102
20423SOL    HW264163  10.696   8.934   0.577  0.1958 -0.4012 -0.5753
20424SOL     OW64164   8.178   9.541   1.044  0.8005 -0.1587 -0.0147
20424SOL    HW164165   8.225   9.478   1.098  2.4056 -0.5042 -1.7085
20424SOL    HW264166   8.229   9.546   0.964 -0.5456  1.6187 -0.8252
20425SOL     OW64167   1.403   8.357   3.239  0.1950  0.2771  0.5069
20425SOL    HW164168   1.485   8.308   3.251 -0.8317 -1.5851  0.3872
20425SOL    HW264169   1.377   8.383   3.327 -0.2837 -1.2516  0.8497
20426SOL     OW64170   4.194   1.881  10.145  0.4598  0.3980 -0.6946
20426SOL    HW164171   4.277   1.842  10.174  0.8775  0.3712 -1.8850
20426SOL    HW264172   4.132   1.856  10.213  1.5730  1.0886  0.6383
20427SOL     OW64173   7.586   2.711   3.681 -0.4089 -0.1356  0.6516
20427SOL    HW164174   7.642   2.692   3.756 -0.4420 -0.4461  0.5967
20427SOL    HW264175   7.545   2.628   3.660  1.2042 -0.5715 -1.0406
20428SOL     OW64176   3.353   3.509   8.488 -0.6893  0.3230 -0.2620
20428SOL    HW164177   3.268   3.546   8.464 -1.5297 -0.7528  0.9210
20428SOL    HW264178   3.416   3.556   8.433 -2.0169  1.2822 -1.0242
20429SOL     OW64179   9.961   5.167   9.980 -0.4270  0.0913 -0.0792
20429SOL    HW164180   9.869   5.193   9.991 -1.4413 -2.9484 -0.2467
20429SOL    HW264181   9.971   5.093  10.040  1.9744  0.4012 -0.0330
20430SOL     OW64182   8.057   1.034   6.335 -0.5415  0.2774  1.1143
20430SOL    HW164183   8.068   1.121   6.374 -2.1857  1.0165  0.0700
20430SOL    HW264184   8.074   1.047   6.242 -3.9771  0.3180  0.3576
20431SOL     OW64185   3.495   2.654   6.177  0.2620  0.4001 -0.3992
20431SOL    HW164186   3.422   2.661   6.116  1.0731  2.0286 -1.2451
20431SOL    HW264187   3.512   2.745   6.204  0.9937 -0.1154  0.9772
20432SOL     OW64188   3.632   3.137   2.998 -0.5374  0.1498 -0.0808
20432SOL    HW164189   3.582   3.076   3.052 -0.3636  0.3620  0.3270
20432SOL    HW264190   3.616   3.222   3.037 -0.4678  0.3166 -0.4124
20433SOL     OW64191   5.210   2.949   1.022 -0.2892 -0.9990  0.4145
20433SOL    HW164192   5.279   2.889   1.050 -0.1451  0.1521  2.7065
20433SOL    HW264193   5.250   3.036   1.028 -1.9501 -0.2793  2.0383
20434SOL     OW64194   7.201   3.471   5.085 -0.8521 -0.0650 -0.4218
20434SOL    HW164195   7.256   3.394   5.097 -1.2234 -0.2534  0.0911
20434SOL    HW264196   7.119   3.437   5.051 -0.9049  0.1389 -0.5013
20435SOL     OW64197   5.709   9.798   6.562  0.1452  0.2145  0.3012
20435SOL    HW164198   5.621   9.764   6.575 -0.2818  0.7727 -0.9882
20435SOL    HW264199   5.743   9.809   6.651 -1.1037  0.0630  0.8250
20436SOL     OW64200   9.521   2.107   0.523  0.3711  0.6060  0.7387
20436SOL    HW164201   9.600   2.083   0.474 -0.1363 -1.0739  0.6806
20436SOL    HW264202   9.489   2.186   0.480  0.8812  0.1301 -0.5612
20437SOL     OW64203   5.939   4.728  10.604 -0.0426 -0.2426  0.5564
20437SOL    HW164204   5.979   4.668  10.542  0.3328 -0.1833  0.7399
20437SOL    HW264205   5.866   4.679  10.641 -0.3974 -0.2069 -0.0768
20438SOL     OW64206   3.811   5.072   9.775  0.2707 -0.1041  0.2560
20438SOL    HW164207   3.796   5.043   9.865  0.9599 -0.6745  0.2000
20438SOL    HW264208   3.736   5.128   9.754  1.7023  2.8214  2.3144
20439SOL     OW64209   5.735   4.214   6.073 -0.1309 -0.3717 -0.1629
20439SOL    HW164210   5.662   4.247   6.020 -0.4294 -1.7748 -0.6631
20439SOL    HW264211   5.700   4.210   6.162 -0.3122 -0.0360 -0.2143
20440SOL     OW64212   7.275   3.970   9.480 -0.4693 -0.1165  0.0608
20440SOL    HW164213   7.360   3.931   9.459 -1.4302 -2.5242  0.3275
20440SOL    HW264214   7.264   3.955   9.574 -0.8078  1.0548  0.2299
20441SOL     OW64215   1.566   5.248   9.900 -0.4855  0.4273  0.4753
20441SOL    HW164216   1.479   5.215   9.877  1.0449 -1.2521 -3.9057
20441SOL    HW264217   1.606   5.176   9.949 -0.6653  0.0749  0.1092
20442SOL     OW64218   8.338   1.536   6.885  0.3055  0.1881  0.0566
20442SOL    HW164219   8.377   1.499   6.806  0.8773 -0.6144  0.7038
20442SOL    HW264220   8.368   1.480   6.956 -0.2642  0.8494  0.8462
20443SOL     OW64221   1.144   2.239   4.347  0.1205 -0.2919 -0.1066
20443SOL    HW164222   1.170   2.326   4.378  0.1161  0.7087 -2.6548
20443SOL    HW264223   1.053   2.230   4.374  0.7054 -0.4040  1.9388
20444SOL     OW64224   7.445   9.331   9.603 -0.0740 -0.5412 -0.5707
20444SOL    HW164225   7.536   9.302   9.617 -0.2823 -0.9123  0.0542
20444SOL    HW264226   7.454   9.421   9.572  0.5408 -0.8644 -1.3769
20445SOL     OW64227   4.419   1.442   7.711 -0.3094  0.3997  0.2052
20445SOL    HW164228   4.358   1.465   7.781 -1.0815  0.8954 -0.6120
20445SOL    HW264229   4.506   1.454   7.750 -0.6891  2.7065  0.4721
20446SOL     OW64230   8.614   5.404   0.680  0.8194 -0.2259  0.1796
20446SOL    HW164231   8.590   5.496   0.679 -1.9466 -0.8728  0.2023
20446SOL    HW264232   8.681   5.396   0.612  0.0503  1.5421 -0.8544
20447SOL     OW64233   9.976   4.285   7.517 -0.0557 -0.3000  0.0519
20447SOL    HW164234  10.040   4.240   7.572 -0.7839 -2.4615 -0.7893
20447SOL    HW264235   9.892   4.271   7.562 -0.5231 -1.2484 -1.0759
20448SOL     OW64236   9.957   0.191   8.115  0.4650 -0.6454 -0.0597
20448SOL    HW164237   9.895   0.161   8.182 -0.3543 -1.1259 -1.0028
20448SOL    HW264238  10.037   0.140   8.132 -0.0315 -1.4087  0.0066
20449SOL     OW64239   7.531   1.291   8.088 -0.4998  0.2300  0.0386
20449SOL    HW164240   7.496   1.375   8.118 -0.6309 -0.1443  0.9603
20449SOL    HW264241   7.480   1.225   8.135 -0.7300 -0.3867 -1.0384
20450SOL     OW64242   5.215   1.255   6.250 -0.2295 -0.4289  0.3226
20450SOL    HW164243   5.143   1.312   6.222 -0.4684 -0.8165  0.1495
20450SOL    HW264244   5.173   1.173   6.276 -0.0834  0.0702  2.3003
20451SOL     OW64245   4.734   6.872   0.318 -0.3103 -0.6763  0.4572
20451SOL    HW164246   4.790   6.821   0.259 -0.2879 -0.4542  0.2849
20451SOL    HW264247   4.646   6.839   0.302 -0.3965 -0.1441 -0.2042
20452SOL     OW64248   2.129   5.174   0.875  0.5308 -0.1840  0.0335
20452SOL    HW164249   2.168   5.139   0.956  2.0407 -1.9275 -1.3706
20452SOL    HW264250   2.037   5.189   0.898  1.0508  0.0341  2.2608
20453SOL     OW64251   1.655   4.536   9.528  0.7238 -0.4545 -0.1579
20453SOL    HW164252   1.605   4.599   9.578  2.2946  0.0215  0.8871
20453SOL    HW264253   1.615   4.451   9.549 -0.3884  0.0074 -0.3355
20454SOL     OW64254  10.364   9.051   7.571  0.4560 -0.3260 -0.1755
20454SOL    HW164255  10.286   9.052   7.626  1.0044 -1.4326  0.6503
20454SOL    HW264256  10.419   9.121   7.606  0.1128  0.0398 -0.3583
20455SOL     OW64257   2.584   4.403  10.301 -0.1943  0.0963  0.0571
20455SOL    HW164258   2.510   4.463  10.292  1.1857  1.9756  0.5950
20455SOL    HW264259   2.605   4.376  10.211 -0.8832  0.3460 -0.1826
20456SOL     OW64260   8.071   2.284   4.013  0.3339  0.5549  0.5985
20456SOL    HW164261   8.108   2.369   4.037  2.1863 -0.1826  0.5023
20456SOL    HW264262   8.077   2.282   3.918 -1.8924  1.2308  0.3955
20457SOL     OW64263   5.405  10.362   2.239 -0.7822  0.2406 -0.6377
20457SOL    HW164264   5.490  10.348   2.282 -1.4233  0.1771  0.6320
20457SOL    HW264265   5.412  10.313   2.157  0.1133 -0.4485 -0.1681
20458SOL     OW64266   0.537   7.091   2.820  0.1413 -0.4782  0.2587
20458SOL    HW164267   0.518   7.003   2.853 -0.3526 -1.3186 -2.0244
20458SOL    HW264268   0.629   7.087   2.794 -0.2591 -0.8795 -1.2368
20459SOL     OW64269   7.533   4.463   1.052 -0.0093 -0.0825  0.1239
20459SOL    HW164270   7.619   4.423   1.065 -0.0228  0.1073  0.8595
20459SOL    HW264271   7.471   4.395   1.076 -0.0323  0.3595  1.3931
20460SOL     OW64272   2.599   6.225   9.784 -0.1174  0.0473 -0.0592
20460SOL    HW164273   2.677   6.268   9.819 -1.1188  2.4859 -0.6490
20460SOL    HW264274   2.529   6.249   9.846 -0.5788 -1.4426  0.0306
20461SOL     OW64275   3.979   1.431   9.570 -0.1737 -0.1461 -0.2999
20461SOL    HW164276   4.054   1.410   9.513 -1.4141 -2.0359 -1.3816
20461SOL    HW264277   3.931   1.499   9.523 -0.3569 -0.6024 -0.7907
20462SOL     OW64278   1.756   6.383   9.722 -0.5991  0.3040  0.5285
20462SOL    HW164279   1.743   6.292   9.697 -1.8938  0.5336  0.3018
20462SOL    HW264280   1.815   6.418   9.655 -0.4493 -0.2449  0.3667
20463SOL     OW64281   7.193   0.901   8.491 -0.0083  0.6481 -0.1252
20463SOL    HW164282   7.133   0.878   8.562  1.6274 -1.6388  0.6478
20463SOL    HW264283   7.273   0.930   8.535  0.0087  2.1976 -1.1126
20464SOL     OW64284   5.242   2.377   0.906  0.4568 -0.4086  0.1646
20464SOL    HW164285   5.244   2.468   0.875  0.2187 -0.5207 -0.1823
20464SOL    HW264286   5.323   2.367   0.957  0.8449 -0.2191 -0.4101
20465SOL     OW64287   4.726   5.983   2.231 -0.4126 -0.0645  0.0641
20465SOL    HW164288   4.773   5.941   2.304 -1.0815  0.9627  1.1240
20465SOL    HW264289   4.770   6.067   2.219 -0.0445 -0.4025 -1.0149
20466SOL     OW64290   7.657   4.725   7.147  0.0142  0.0890 -0.4516
20466SOL    HW164291   7.639   4.815   7.174 -0.3467 -0.3099  0.7091
20466SOL    HW264292   7.707   4.733   7.066  0.2529  1.3348 -0.1904
20467SOL     OW64293  10.210   4.611   1.203  0.3062 -0.2576  0.2390
20467SOL    HW164294  10.159   4.532   1.219  0.1325 -0.5279 -1.4987
20467SOL    HW264295  10.229   4.645   1.290 -0.8121 -1.4442  0.9791
20468SOL     OW64296   3.841   3.764   7.718 -0.2203  0.0066 -0.1494
20468SOL    HW164297   3.891   3.754   7.799  0.9345 -1.8486 -1.0181
20468SOL    HW264298   3.813   3.675   7.696 -2.6956  0.8089 -0.4924
20469SOL     OW64299   0.639   7.313  10.468  0.1935 -0.1145 -0.0163
20469SOL    HW164300   0.671   7.394  10.429  1.0463 -0.1641  0.5616
20469SOL    HW264301   0.707   7.249  10.450  2.0923  0.4978  3.9341
20470SOL     OW64302   4.362   0.448   7.182 -0.0799 -0.2010 -0.5059
20470SOL    HW164303   4.346   0.427   7.090 -1.1098 -1.6261 -0.0448
20470SOL    HW264304   4.308   0.526   7.199  2.2735  1.8447 -1.7540
20471SOL     OW64305   6.355   5.641   7.691  0.3789  0.1196 -0.6627
20471SOL    HW164306   6.431   5.695   7.713  1.2719 -1.1479 -0.5272
20471SOL    HW264307   6.369   5.560   7.741 -1.8790  0.4512  0.6260
20472SOL     OW64308   2.744   4.466  10.019  0.0518 -0.3130 -0.2317
20472SOL    HW164309   2.772   4.453   9.929 -1.3285  0.1218 -0.7444
20472SOL    HW264310   2.672   4.404  10.031 -1.2947  1.2204 -0.1726
20473SOL     OW64311   4.132  10.442   7.245  0.6519  0.1689  0.5712
20473SOL    HW164312   4.080  10.521   7.262  0.1260 -0.4027  1.7967
20473SOL    HW264313   4.222  10.467   7.264  0.3897  0.2797  1.7625
20474SOL     OW64314   0.305   7.360   6.989  0.4095 -0.5757 -0.1076
20474SOL    HW164315   0.306   7.291   7.055 -0.4726  0.8194  1.4260
20474SOL    HW264316   0.387   7.349   6.941  0.5099 -2.3568  0.4194
20475SOL     OW64317   7.866   6.549   3.734  0.9416  0.4382 -0.4661
20475SOL    HW164318   7.803   6.495   3.687 -1.2845  1.3874  1.2357
20475SOL    HW264319   7.827   6.636   3.735  0.9578  0.5299  2.7883
20476SOL     OW64320   5.081   3.530   8.335  0.1512  0.2846  0.0439
20476SOL    HW164321   5.081   3.625   8.327 -0.0862  0.3417  0.6608
20476SOL    HW264322   5.054   3.513   8.425  2.0350 -0.3216  0.5357
20477SOL     OW64323   4.489   2.876   3.823  0.5338 -0.4333 -0.0657
20477SOL    HW164324   4.460   2.819   3.752 -2.3737  0.5170  0.2586
20477SOL    HW264325   4.505   2.816   3.896 -1.8460 -0.9956  0.0766
20478SOL     OW64326  10.075   7.701   6.450  0.6772  0.1295 -0.0658
20478SOL    HW164327  10.064   7.660   6.536  1.5680  0.2209  0.0996
20478SOL    HW264328  10.060   7.630   6.387  0.8359 -0.1288  0.1853
20479SOL     OW64329   3.858   6.361   0.580  0.4134 -0.1522  0.2012
20479SOL    HW164330   3.782   6.343   0.635  1.1038  0.0982  1.2699
20479SOL    HW264331   3.891   6.274   0.556 -2.0792 -0.4014 -3.0900
20480SOL     OW64332   2.880   4.228   1.177 -0.1763 -0.4693 -0.4458
20480SOL    HW164333   2.881   4.323   1.174 -1.4066 -0.3555  1.2291
20480SOL    HW264334   2.922   4.200   1.096  2.3707  1.4877  0.0787
20481SOL     OW64335   5.590   7.554   5.184  0.0738  0.3871  0.5905
20481SOL    HW164336   5.593   7.646   5.159  0.5138  0.9705  2.5962
20481SOL    HW264337   5.558   7.555   5.274  0.4048 -1.4120  0.7675
20482SOL     OW64338   4.707   6.917   0.587  0.0239  0.2581  0.1125
20482SOL    HW164339   4.716   6.887   0.497 -0.1693  1.4401 -0.3143
20482SOL    HW264340   4.724   7.011   0.584 -0.9799  0.5045  1.1343
20483SOL     OW64341   1.053   8.509   8.551 -0.1262  0.3291  0.4887
20483SOL    HW164342   1.138   8.468   8.533 -1.2524 -1.6557 -0.6425
20483SOL    HW264343   1.048   8.583   8.490  0.6181  0.2366  0.3115
20484SOL     OW64344   2.524   2.787   4.737  0.7381  0.2646 -0.2734
20484SOL    HW164345   2.448   2.737   4.708  0.3317  0.6497  0.1220
20484SOL    HW264346   2.572   2.726   4.793 -0.2500  0.5925  0.9752
20485SOL     OW64347   9.800   5.865   9.951  0.1883 -0.1283  0.0849
20485SOL    HW164348   9.708   5.854   9.927 -0.0444 -0.6075  1.1324
20485SOL    HW264349   9.828   5.944   9.905 -0.8114  0.1367 -0.0839
20486SOL     OW64350   1.401   8.165   5.175 -0.2676  0.7167  0.3010
20486SOL    HW164351   1.376   8.257   5.182  0.1420  0.8070  0.6481
20486SOL    HW264352   1.492   8.168   5.143 -0.2222  0.4380  0.4085
20487SOL     OW64353   4.078  10.737   4.514 -0.2113  0.6257  0.1527
20487SOL    HW164354   4.163  10.778   4.499 -0.0340  0.7314  1.3111
20487SOL    HW264355   4.034  10.795   4.577 -0.3025 -0.4783  1.1559
20488SOL     OW64356   1.967   6.272   1.065 -0.0189 -0.1266 -0.2261
20488SOL    HW164357   1.952   6.203   1.001  1.7377 -0.8853  0.1165
20488SOL    HW264358   2.007   6.344   1.015  1.3551 -0.7199 -0.0226
20489SOL     OW64359   7.173   6.646   9.205 -0.0123 -0.2783 -0.0697
20489SOL    HW164360   7.200   6.565   9.248 -0.6795 -0.0653  0.7747
20489SOL    HW264361   7.246   6.706   9.220 -0.4504 -0.0372  1.2736
20490SOL     OW64362   3.429  10.267   8.178 -0.0868 -0.2035  0.2583
20490SOL    HW164363   3.363  10.294   8.243 -0.2866  0.8219 -0.3626
20490SOL    HW264364   3.511  10.300   8.213  0.1675 -1.6503  1.1318
20491SOL     OW64365   0.025  10.253   9.005  0.8397 -0.2292  0.0283
20491SOL    HW164366   0.024  10.264   9.100  1.3268 -0.7941  0.1064
20491SOL    HW264367   0.021  10.342   8.970  0.2054 -0.0317  0.5691
20492SOL     OW64368   9.251   5.668   7.495 -0.2503  0.3388 -0.3562
20492SOL    HW164369   9.272   5.761   7.488  0.4028  0.1570 -0.9542
20492SOL    HW264370   9.172   5.665   7.549  0.6233  1.1407  1.0315
20493SOL     OW64371   3.084   0.421   9.048 -0.2740 -0.7910 -0.3446
20493SOL    HW164372   3.166   0.446   9.091 -0.4897 -1.0484  0.2296
20493SOL    HW264373   3.021   0.414   9.120 -1.5015  2.0429 -1.0569
20494SOL     OW64374   0.027   7.906  10.144  0.9656  0.0419  0.2187
20494SOL    HW164375   0.117   7.931  10.126  1.5864 -1.5300  0.9706
20494SOL    HW264376   0.027   7.880  10.236  0.2937 -2.1887 -0.3666
20495SOL     OW64377   0.054  10.036  10.020 -0.2805  0.7276 -0.3587
20495SOL    HW164378   0.035  10.001  10.107  0.8885  1.5765  0.2708
20495SOL    HW264379   0.138  10.082  10.030  0.0771  0.5207 -2.0249
20496SOL     OW64380   4.920   8.261  10.679 -0.5092  0.2560  0.0388
20496SOL    HW164381   4.976   8.277  10.604 -2.4991  0.4362 -1.5019
20496SOL    HW264382   4.856   8.333  10.678 -1.1888 -0.2793  1.3124
20497SOL     OW64383   7.065   8.269   4.659  0.5536  0.6813 -0.1584
20497SOL    HW164384   7.049   8.215   4.737 -1.3626  0.3472 -0.7274
20497SOL    HW264385   6.990   8.328   4.656  1.3621  1.6870 -0.9476
20498SOL     OW64386  10.378   8.722   5.805 -0.1374 -0.4809 -0.7872
20498SOL    HW164387  10.469   8.733   5.831  0.0077 -1.7863 -0.6682
20498SOL    HW264388  10.328   8.725   5.886 -0.3580  1.4797 -0.9640
20499SOL     OW64389   3.161  10.004   4.559 -0.6529  0.6352  0.6132
20499SOL    HW164390   3.201  10.042   4.637 -1.0784  0.0483  1.1315
20499SOL    HW264391   3.180   9.910   4.566  1.2427  0.8151 -1.1431
20500SOL     OW64392   4.911   3.162   4.659  0.3332  0.5510 -1.1828
20500SOL    HW164393   4.934   3.247   4.623  0.4599 -0.0607 -2.5955
20500SOL    HW264394   4.835   3.179   4.716  2.4541  2.1530  1.4160
20501SOL     OW64395   1.409   8.238   6.789 -0.2260 -0.6392 -0.2418
20501SOL    HW164396   1.378   8.300   6.723 -0.5153 -1.4012 -0.8411
20501SOL    HW264397   1.379   8.274   6.872 -0.6065 -0.1090 -0.6003
20502SOL     OW64398   4.352   8.681   4.281  0.2226  0.3901  0.4659
20502SOL    HW164399   4.267   8.654   4.245  0.2442 -0.9552  1.3271
20502SOL    HW264400   4.412   8.611   4.255  1.3846  1.9127 -1.1703
20503SOL     OW64401   5.621   3.932   8.815  0.4422 -0.1385  0.4239
20503SOL    HW164402   5.578   3.917   8.731  0.2832 -0.7007  0.6049
20503SOL    HW264403   5.552   3.918   8.880  1.0228 -1.5886  0.7496
20504SOL     OW64404   6.230   7.842   4.939  0.0935  0.2040 -0.2490
20504SOL    HW164405   6.255   7.856   5.030  1.3997  1.4702 -0.7763
20504SOL    HW264406   6.252   7.924   4.895 -0.6723 -0.3278 -1.6862
20505SOL     OW64407   9.815   5.099   9.180  0.1377  0.2555 -0.1406
20505SOL    HW164408   9.773   5.070   9.260  0.1679 -0.4557 -0.3757
20505SOL    HW264409   9.886   5.157   9.209 -1.2138  1.7820  0.2458
20506SOL     OW64410   8.659  10.759   0.001 -0.2958 -0.0786 -0.0237
20506SOL    HW164411   8.658  10.842  -0.047  0.3870  0.1687  0.3624
20506SOL    HW264412   8.596  10.703  -0.045 -0.7417  0.6432 -0.3042
20507SOL     OW64413   9.008   8.161   2.126  0.4986  0.0383  0.1988
20507SOL    HW164414   9.076   8.226   2.145 -1.1812  1.4931  1.6125
20507SOL    HW264415   8.995   8.115   2.208  1.0011 -1.4848 -0.5491
20508SOL     OW64416   2.944  10.076   2.547 -0.5551 -0.3125  0.6199
20508SOL    HW164417   2.967  10.110   2.633  1.7933 -0.0381 -0.0546
20508SOL    HW264418   2.952  10.151   2.488 -0.9213 -0.7768 -0.0390
20509SOL     OW64419   7.779   6.553   8.126 -0.2172  0.0259 -1.0231
20509SOL    HW164420   7.710   6.517   8.182  0.0124 -0.2822 -0.9353
20509SOL    HW264421   7.771   6.504   8.044 -2.2750  2.2460 -2.2857
20510SOL     OW64422   9.364   6.935   7.729 -0.4079  0.2989  0.4574
20510SOL    HW164423   9.450   6.978   7.734  0.1350  0.0864 -3.4883
20510SOL    HW264424   9.368   6.866   7.795  2.3681  0.4536  0.5894
20511SOL     OW64425   1.655   1.565   3.665  0.1024  0.3807 -0.4582
20511SOL    HW164426   1.694   1.604   3.587 -1.8196 -1.3167 -2.4378
20511SOL    HW264427   1.561   1.582   3.655 -0.1632  0.4066  1.7127
20512SOL     OW64428   1.625  10.277   8.245 -0.2694 -0.2827 -0.0152
20512SOL    HW164429   1.618  10.319   8.160 -3.5226  1.6394  1.0267
20512SOL    HW264430   1.544  10.227   8.255  1.0684 -2.3717  1.0635
20513SOL     OW64431   3.222   5.003   0.190 -0.2258 -0.4171  0.9700
20513SOL    HW164432   3.201   5.057   0.266  0.2353  0.1486  0.7099
20513SOL    HW264433   3.260   5.065   0.127  0.5407 -1.0908  0.7557
20514SOL     OW64434   9.310   3.391   1.469  0.4632  0.1004  0.1060
20514SOL    HW164435   9.376   3.437   1.520  1.5750 -1.4395  0.1217
20514SOL    HW264436   9.263   3.338   1.533 -0.4100  0.7181  0.0007
20515SOL     OW64437   0.382   4.740   1.956 -0.4130 -0.0448  0.2683
20515SOL    HW164438   0.358   4.819   1.907  0.7963 -0.5274 -1.1748
20515SOL    HW264439   0.459   4.766   2.006  0.4292 -0.4772 -0.7703
20516SOL     OW64440   0.375   5.203  10.653  0.0575  0.2506 -0.6245
20516SOL    HW164441   0.373   5.190  10.748 -1.0574  1.8332 -0.3820
20516SOL    HW264442   0.468   5.205  10.631  0.3228 -1.1789  0.2591
20517SOL     OW64443   8.305   7.789   4.999 -0.2348  0.2496  0.1658
20517SOL    HW164444   8.332   7.697   5.000  0.3896  0.4270 -0.1051
20517SOL    HW264445   8.387   7.838   4.996 -0.5204  0.8410  1.3604
20518SOL     OW64446   6.735   3.338   2.143  0.5820  0.3645  0.1527
20518SOL    HW164447   6.645   3.313   2.122  0.2073  1.8341 -0.1322
20518SOL    HW264448   6.757   3.406   2.079  2.4452 -0.9807 -0.7295
20519SOL     OW64449   1.469   0.743   5.798 -0.0366  0.0856 -0.4317
20519SOL    HW164450   1.389   0.770   5.843  0.2921 -0.3128  0.4176
20519SOL    HW264451   1.440   0.707   5.715 -0.6943  0.4199 -0.3497
20520SOL     OW64452   0.047   0.449   8.495 -0.2395 -0.1009  0.2391
20520SOL    HW164453   0.130   0.415   8.462 -0.4556  0.3426 -0.8043
20520SOL    HW264454  -0.017   0.430   8.426 -0.9159 -0.0473  0.8363
20521SOL     OW64455   0.862   9.428   2.458  0.2673  0.2119 -0.1140
20521SOL    HW164456   0.895   9.485   2.527 -0.4499  1.9931 -1.1811
20521SOL    HW264457   0.788   9.475   2.420  0.6327 -0.6824 -2.0980
20522SOL     OW64458   1.748   9.041   1.633  0.0062 -0.1074 -0.8613
20522SOL    HW164459   1.729   8.949   1.615 -0.7899  0.0163 -0.6976
20522SOL    HW264460   1.666   9.076   1.668  0.2880  0.6771 -0.9674
20523SOL     OW64461   0.767   1.055   7.151 -0.1599 -0.0541 -0.0567
20523SOL    HW164462   0.757   1.039   7.245  0.9768  0.2506  0.1401
20523SOL    HW264463   0.684   1.092   7.123 -0.8645 -1.0978  0.6200
20524SOL     OW64464   6.053   3.060   3.580  0.9136 -0.1619  0.0994
20524SOL    HW164465   6.086   2.975   3.552  1.5276  0.3449 -0.7735
20524SOL    HW264466   6.027   3.103   3.498  0.4368  0.4151  0.5527
20525SOL     OW64467   0.570   1.188   1.848  0.5066  0.1262 -0.8768
20525SOL    HW164468   0.631   1.222   1.912  0.5167 -1.3639 -0.0471
20525SOL    HW264469   0.496   1.156   1.900 -1.5100  2.7368 -1.8821
20526SOL     OW64470   0.478   7.362   2.842 -0.0376  0.1886  0.2972
20526SOL    HW164471   0.501   7.276   2.808  1.8560  0.2982  1.1704
20526SOL    HW264472   0.552   7.387   2.898 -1.6703  1.2983  2.0889
20527SOL     OW64473   7.361   9.282   2.989 -0.5774 -0.4345  0.0014
20527SOL    HW164474   7.318   9.227   2.923 -0.0848  0.1724 -0.8458
20527SOL    HW264475   7.389   9.220   3.056 -0.4818 -1.1620 -0.6850
20528SOL     OW64476   9.788   7.063   0.559  0.0683  0.3398 -0.7978
20528SOL    HW164477   9.735   7.091   0.485  0.8414  2.1485 -0.7018
20528SOL    HW264478   9.798   7.141   0.613  1.0431 -0.4953  0.2937
20529SOL     OW64479   4.930   5.603   9.118 -0.8065 -0.2878 -0.4173
20529SOL    HW164480   4.966   5.624   9.032  0.0574  1.0241  0.2284
20529SOL    HW264481   4.836   5.615   9.108 -0.5961  1.2284 -0.8454
20530SOL     OW64482   8.342   5.414   6.373  0.3606 -0.0638 -0.0459
20530SOL    HW164483   8.302   5.410   6.460 -1.4245  1.3476 -0.7365
20530SOL    HW264484   8.410   5.481   6.380 -0.5118  0.8325  0.0181
20531SOL     OW64485   6.129  10.493   2.253 -0.1819  0.2784 -0.1431
20531SOL    HW164486   6.065  10.436   2.296 -0.2746  0.3354 -0.2081
20531SOL    HW264487   6.166  10.439   2.184 -0.8182  0.5504 -0.7011
20532SOL     OW64488   3.734   4.654   9.853  0.3076 -0.6771 -0.0584
20532SOL    HW164489   3.702   4.727   9.801 -1.8295  0.1155  2.1960
20532SOL    HW264490   3.708   4.675   9.943  0.1392 -3.8986  0.7660
20533SOL     OW64491   7.676   8.321   8.213 -0.1880  0.1940 -0.3795
20533SOL    HW164492   7.620   8.244   8.209 -0.4248  0.2141  1.4579
20533SOL    HW264493   7.655   8.371   8.134 -0.2187 -1.4660 -1.4663
20534SOL     OW64494   7.928  10.551   7.413 -0.4281  0.1584  0.0087
20534SOL    HW164495   7.978  10.485   7.365  0.6317  0.9344  0.0160
20534SOL    HW264496   7.874  10.500   7.474  0.6214 -0.6899  0.2543
20535SOL     OW64497   6.460   1.631   4.442  0.2582 -0.2966 -0.2673
20535SOL    HW164498   6.534   1.574   4.460  0.7847  0.4668  0.0595
20535SOL    HW264499   6.416   1.592   4.367 -0.3093 -1.9953  0.8852
20536SOL     OW64500   7.907   9.636   5.099  1.1254 -0.5419 -0.2790
20536SOL    HW164501   7.952   9.719   5.085  1.5154 -0.6824  0.0945
20536SOL    HW264502   7.946   9.601   5.179 -0.2303 -0.2823  0.5266
20537SOL     OW64503   8.826   4.764   2.371 -0.3970  0.4608  0.4336
20537SOL    HW164504   8.736   4.783   2.344 -0.8640  0.4280  1.8835
20537SOL    HW264505   8.880   4.816   2.312 -1.3437  0.1944 -0.7037
20538SOL     OW64506   3.745   5.877   7.614  0.0949  0.1197  0.5846
20538SOL    HW164507   3.770   5.958   7.660 -0.3450  1.4596 -1.3887
20538SOL    HW264508   3.823   5.823   7.617  1.0964  1.4926  0.1685
20539SOL     OW64509   4.995   4.039   4.874  0.1041  0.0538  0.3578
20539SOL    HW164510   5.004   4.004   4.786  0.7456 -2.2798  1.2698
20539SOL    HW264511   5.070   4.098   4.884 -0.2728  0.7660 -0.7931
20540SOL     OW64512   5.781   0.970   0.133 -0.2389 -0.3316 -0.2894
20540SOL    HW164513   5.800   0.985   0.226 -1.2025  0.8630 -0.2669
20540SOL    HW264514   5.843   0.902   0.107 -1.5689 -2.4578  1.8195
20541SOL     OW64515   5.720   6.647   7.626 -0.0804  0.1400 -0.0908
20541SOL    HW164516   5.792   6.704   7.599 -0.4345  0.0522 -1.2586
20541SOL    HW264517   5.751   6.607   7.708  1.1604  0.1700 -0.5229
20542SOL     OW64518   8.870   5.280   3.289 -0.2588 -0.1235 -0.1740
20542SOL    HW164519   8.965   5.281   3.304 -0.3292  0.6319  0.2681
20542SOL    HW264520   8.832   5.278   3.376 -0.6673  4.1373 -0.0480
20543SOL     OW64521   3.706   8.988   3.122 -0.2405 -0.1021  0.1701
20543SOL    HW164522   3.698   9.079   3.152 -0.0779 -0.1245  0.2823
20543SOL    HW264523   3.627   8.973   3.071 -1.4608 -0.6159  2.0910
20544SOL     OW64524   7.502   4.540   2.995 -0.2509 -0.1104 -0.0121
20544SOL    HW164525   7.433   4.569   2.936  1.4695  1.6114 -1.3215
20544SOL    HW264526   7.583   4.556   2.947  1.0894 -4.0398  0.5743
20545SOL     OW64527   4.604   8.985   5.507  0.2967  0.2024  0.1566
20545SOL    HW164528   4.526   8.951   5.551  0.4489  0.8351  0.9537
20545SOL    HW264529   4.578   8.994   5.415  1.2005 -5.0107 -0.9022
20546SOL     OW64530   3.622   0.514   9.172  0.2831 -0.3232 -0.2160
20546SOL    HW164531   3.706   0.515   9.126 -0.2151  1.5962 -1.1859
20546SOL    HW264532   3.640   0.553   9.257 -0.0734  2.9654 -1.4931
20547SOL     OW64533   5.259   1.228   7.352 -0.4501 -0.0196 -0.6790
20547SOL    HW164534   5.303   1.308   7.325 -1.3106  1.0743  0.9764
20547SOL    HW264535   5.243   1.240   7.446 -1.2862 -1.8099 -0.5448
20548SOL     OW64536   8.685   2.798   1.391 -0.3907 -0.1998 -0.1145
20548SOL    HW164537   8.727   2.720   1.354  0.1220  0.1330 -0.2468
20548SOL    HW264538   8.756   2.863   1.396 -0.3904 -0.2764  1.5754
20549SOL     OW64539   0.076   5.230  10.726 -0.5005 -0.6986  0.8238
20549SOL    HW164540   0.159   5.188  10.704  0.0560 -1.3328  3.6902
20549SOL    HW264541   0.009   5.170  10.695  0.1824 -1.3310  0.5517
20550SOL     OW64542   0.916   1.066   6.391 -0.1727  0.8849 -0.0832
20550SOL    HW164543   0.903   0.993   6.451  0.0909  1.6604  0.9632
20550SOL    HW264544   1.011   1.079   6.388 -0.0017 -0.4719 -2.3644
20551SOL     OW64545   7.664   1.538   9.160 -0.5636 -0.2395  0.3559
20551SOL    HW164546   7.621   1.483   9.096  0.3582  0.0450 -0.5327
20551SOL    HW264547   7.632   1.626   9.142 -0.1575 -0.1303  0.1455
20552SOL     OW64548   8.149   8.698   7.329  0.3946  0.1545  0.3872
20552SOL    HW164549   8.068   8.672   7.286  1.4516 -1.1464 -0.8895
20552SOL    HW264550   8.158   8.791   7.308 -0.0472 -0.0290 -0.6943
20553SOL     OW64551   3.316   3.217   1.989  0.6599 -0.2975  0.1409
20553SOL    HW164552   3.369   3.140   1.968 -0.8672 -1.2611 -0.2891
20553SOL    HW264553   3.248   3.219   1.922  1.3123  2.1121 -0.5510
20554SOL     OW64554   6.670   9.845   1.154  0.5511 -0.0300 -0.5892
20554SOL    HW164555   6.705   9.922   1.109  0.6355 -0.8458 -2.0029
20554SOL    HW264556   6.589   9.876   1.195  1.1715  1.0648 -0.1573
20555SOL     OW64557   4.270   3.295   5.191  0.1998  0.4841 -0.2704
20555SOL    HW164558   4.305   3.357   5.128  0.9998 -0.9844 -1.3414
20555SOL    HW264559   4.230   3.226   5.138  1.5962 -1.2019  0.7242
20556SOL     OW64560   6.558   5.786   6.423 -0.5229 -0.5092 -0.1686
20556SOL    HW164561   6.592   5.875   6.415  2.9024 -1.7400 -1.0008
20556SOL    HW264562   6.525   5.765   6.335 -1.6500 -0.0101  0.1143
20557SOL     OW64563   1.866   0.834   1.709  0.3013  0.2416 -0.2750
20557SOL    HW164564   1.891   0.911   1.760 -1.5284  0.6990 -0.0076
20557SOL    HW264565   1.814   0.869   1.637 -0.5583 -0.7479 -0.1525
20558SOL     OW64566   7.558   1.662   7.449 -0.2708 -0.6169  0.4215
20558SOL    HW164567   7.591   1.628   7.366 -2.9873 -1.9619 -0.2161
20558SOL    HW264568   7.565   1.588   7.510 -2.6768 -1.2345  0.0450
20559SOL     OW64569   5.154   4.594   8.032 -0.4886  0.2224 -0.0466
20559SOL    HW164570   5.173   4.517   7.979 -1.2035  0.8175 -1.2114
20559SOL    HW264571   5.230   4.651   8.020  0.6879 -0.8505  1.9383
20560SOL     OW64572   6.639   6.375   3.368  0.7818 -0.3877  0.2779
20560SOL    HW164573   6.627   6.444   3.433  0.3794 -0.8987  0.7690
20560SOL    HW264574   6.575   6.394   3.300  0.7177 -0.2361  0.3806
20561SOL     OW64575   1.512   2.649   6.665 -0.3704  0.6760 -0.0227
20561SOL    HW164576   1.567   2.668   6.741  0.0663 -1.2587  0.1930
20561SOL    HW264577   1.572   2.649   6.591 -0.9246  3.4026 -0.5817
20562SOL     OW64578   2.768   4.797   4.963  0.8628  0.1093 -0.0251
20562SOL    HW164579   2.742   4.712   4.998  0.1314  1.2779  2.4731
20562SOL    HW264580   2.728   4.800   4.876 -2.0991 -0.7327  1.1947
20563SOL     OW64581   4.615  10.434   0.394  0.5482 -0.7575  0.2914
20563SOL    HW164582   4.675  10.509   0.391  1.8796 -1.7782  0.5175
20563SOL    HW264583   4.528  10.473   0.394  1.1581  0.7352 -1.5331
20564SOL     OW64584   7.596   9.886   9.886  0.2221  0.2720 -0.3059
20564SOL    HW164585   7.642   9.872   9.969  0.3285  0.2546 -0.3667
20564SOL    HW264586   7.539   9.962   9.902 -1.6634 -1.2457  0.5700
20565SOL     OW64587   4.525   6.002   0.357 -0.2062  0.1279  0.2161
20565SOL    HW164588   4.599   6.034   0.410  0.8123 -1.5607 -0.0961
20565SOL    HW264589   4.449   6.011   0.414  0.4901  0.5311  1.1080
20566SOL     OW64590   5.926   0.164   8.421  0.1336  0.0269  0.6335
20566SOL    HW164591   5.912   0.256   8.399  0.4947  0.2518  1.3160
20566SOL    HW264592   5.896   0.156   8.512 -0.1993 -0.6082  0.4783
20567SOL     OW64593   9.656   8.224   9.354 -0.7986 -0.5363  0.0642
20567SOL    HW164594   9.709   8.148   9.380  0.2755  0.0024 -0.5202
20567SOL    HW264595   9.654   8.220   9.258 -2.1791 -0.7729  0.0750
20568SOL     OW64596   1.207   9.238   1.283 -0.0662  0.0073  0.1553
20568SOL    HW164597   1.156   9.208   1.208 -2.3442  0.9287  1.2340
20568SOL    HW264598   1.146   9.293   1.333  0.6641 -2.1484  3.7479
20569SOL     OW64599   9.509   7.199   6.396  0.6077 -0.3567 -0.3385
20569SOL    HW164600   9.488   7.107   6.414 -0.8272  0.0130 -0.0076
20569SOL    HW264601   9.445   7.226   6.330  0.8100  0.5088 -0.1921
20570SOL     OW64602   8.876   8.242   1.930  0.7766 -0.2721 -0.3578
20570SOL    HW164603   8.915   8.226   2.016  0.6842  1.0043 -0.0584
20570SOL    HW264604   8.908   8.170   1.875 -0.1607 -1.8300  1.0254
20571SOL     OW64605  10.322   9.447   6.936 -0.1358  0.0037 -0.6700
20571SOL    HW164606  10.403   9.432   6.887 -0.1729  0.0871 -0.7553
20571SOL    HW264607  10.324   9.380   7.005 -1.0167 -1.4279 -1.9540
20572SOL     OW64608   3.266   0.000   1.037 -0.0306 -0.0312 -0.0648
20572SOL    HW164609   3.219  -0.080   1.014  0.9858 -1.1696  1.6212
20572SOL    HW264610   3.243   0.017   1.128  1.0074  0.6960  0.0845
20573SOL     OW64611  10.389   7.782   0.208  0.2953 -0.0999  0.1691
20573SOL    HW164612  10.312   7.732   0.180 -0.4166  1.6218 -1.1441
20573SOL    HW264613  10.387   7.862   0.154  1.1617  1.5386  2.3934
20574SOL     OW64614   9.175   2.474   0.310  0.2374  0.2479  0.5632
20574SOL    HW164615   9.106   2.442   0.367 -0.2310 -0.5301 -0.4162
20574SOL    HW264616   9.248   2.413   0.323  0.2779  0.3118  0.6348
20575SOL     OW64617   2.632   5.352  10.301 -0.4021  0.5847 -0.4714
20575SOL    HW164618   2.557   5.370  10.357 -0.0970 -0.2649  0.2420
20575SOL    HW264619   2.702   5.327  10.362  0.4758  1.4051 -1.1155
20576SOL     OW64620   8.659   5.159  10.742  0.1533  0.4996  0.6903
20576SOL    HW164621   8.745   5.155  10.698  0.8569 -0.9032  2.1138
20576SOL    HW264622   8.667   5.233  10.801  0.7250 -0.1539  1.4528
20577SOL     OW64623   1.172   2.813   6.983 -0.0450 -0.1847 -0.3437
20577SOL    HW164624   1.247   2.854   7.027 -0.5197  0.8791 -0.4900
20577SOL    HW264625   1.207   2.734   6.943  0.4636 -1.0903  1.7441
20578SOL     OW64626   1.360   1.692   1.731  0.2950 -0.4387  0.4041
20578SOL    HW164627   1.267   1.711   1.730  0.7791  2.4104 -0.8162
20578SOL    HW264628   1.373   1.626   1.664 -0.7916 -0.5277  0.2733
20579SOL     OW64629   5.565   3.788   9.592  0.0419 -0.1060  0.4891
20579SOL    HW164630   5.492   3.784   9.653  0.8781 -2.2336  1.4536
20579SOL    HW264631   5.577   3.881   9.575 -1.3667  0.4367  2.1830
20580SOL     OW64632   7.264   1.377   3.567  0.7251 -0.3831  0.8171
20580SOL    HW164633   7.241   1.299   3.618 -3.5482 -0.4016 -0.6913
20580SOL    HW264634   7.291   1.441   3.632 -0.1877 -1.7375  2.6319
20581SOL     OW64635   9.507   9.959  10.245 -0.0758  0.2549  0.2264
20581SOL    HW164636   9.512   9.877  10.197 -0.2662  0.4334 -0.0987
20581SOL    HW264637   9.424   9.956  10.292  0.4890 -0.2899  1.2336
20582SOL     OW64638   4.863   9.741   3.690  0.2471 -0.0597  0.3571
20582SOL    HW164639   4.905   9.689   3.621  1.6817  1.1759  0.2400
20582SOL    HW264640   4.838   9.822   3.646  0.1832  0.3114  1.0687
20583SOL     OW64641   3.288   5.898   9.335 -0.0212 -0.0512  0.6003
20583SOL    HW164642   3.310   5.809   9.363  1.9674  0.7058  1.6896
20583SOL    HW264643   3.193   5.898   9.328 -0.1360 -2.0261  1.4295
20584SOL     OW64644   7.451   8.523   1.749  0.2839  0.2880  0.2903
20584SOL    HW164645   7.475   8.435   1.777  0.2654  0.6501  1.5181
20584SOL    HW264646   7.402   8.559   1.823  1.4812  1.8046  0.4077
20585SOL     OW64647   8.890   9.522   3.712 -0.0739  0.6531 -0.0842
20585SOL    HW164648   8.855   9.507   3.800 -0.7006  1.4008 -0.1963
20585SOL    HW264649   8.832   9.471   3.654  1.1074 -0.8934  0.0272
20586SOL     OW64650   2.924   5.104   2.543 -0.0782 -0.0675  0.6551
20586SOL    HW164651   2.955   5.164   2.475 -0.7768  0.4156  0.7554
20586SOL    HW264652   2.960   5.019   2.517  1.2280  0.4438  0.7162
20587SOL     OW64653   9.390   0.402   2.669  0.4314 -0.1421 -0.6607
20587SOL    HW164654   9.482   0.378   2.670  0.0813 -1.6697 -1.3216
20587SOL    HW264655   9.385   0.480   2.614  1.1895 -0.7166 -1.5642
20588SOL     OW64656   9.035   2.941   0.495  0.7014 -0.0173  0.2455
20588SOL    HW164657   9.049   2.877   0.424 -1.3594 -0.6271  0.3342
20588SOL    HW264658   9.044   3.026   0.452  1.0737 -0.3679 -0.3939
20589SOL     OW64659   0.893   2.923   0.851  0.0598  0.2580 -0.9549
20589SOL    HW164660   0.932   2.965   0.774  0.7528  0.7026 -0.3727
20589SOL    HW264661   0.850   2.845   0.816  0.8868  0.1239 -1.7160
20590SOL     OW64662   3.109   9.026   0.172  0.0257  0.0883  0.2892
20590SOL    HW164663   3.047   9.038   0.100  0.0380  0.2944  0.3116
20590SOL    HW264664   3.100   9.106   0.224 -1.0528 -0.6696  1.3271
20591SOL     OW64665   7.721   3.731   0.696  0.1295  0.2395 -0.6901
20591SOL    HW164666   7.704   3.811   0.647  0.2259  0.4997 -0.3018
20591SOL    HW264667   7.709   3.661   0.632 -0.7970  0.5069 -0.8270
20592SOL     OW64668   4.665   6.388   9.356  0.2249 -0.8143 -0.4342
20592SOL    HW164669   4.677   6.300   9.392  1.6416 -0.6705 -0.5012
20592SOL    HW264670   4.731   6.395   9.287 -0.8523 -0.2149 -1.4261
20593SOL     OW64671   7.835   0.880   3.090 -0.1591 -0.0405 -0.1093
20593SOL    HW164672   7.860   0.826   3.014 -0.4905 -0.1574 -0.1353
20593SOL    HW264673   7.862   0.969   3.066  0.2898 -0.1730 -0.1120
20594SOL     OW64674   8.306   6.527   4.253 -0.1400 -0.9971 -0.0416
20594SOL    HW164675   8.267   6.497   4.171  0.0967 -2.6692  0.4170
20594SOL    HW264676   8.292   6.622   4.253 -3.4369 -1.3752 -0.2799
20595SOL     OW64677   3.477   2.442  10.368 -0.1605  0.1447 -0.0737
20595SOL    HW164678   3.467   2.418  10.460  0.0108  2.2115  0.5335
20595SOL    HW264679   3.570   2.463  10.358  0.1314 -1.4384 -1.1189
20596SOL     OW64680   4.437   4.707   0.754  0.2817 -0.4669 -0.2611
20596SOL    HW164681   4.523   4.702   0.713 -0.1829 -0.5429 -1.2407
20596SOL    HW264682   4.395   4.784   0.716  0.1657 -0.0269  0.7179
20597SOL     OW64683   9.164   5.281   9.975 -0.6104  0.0241 -0.3610
20597SOL    HW164684   9.197   5.272  10.064 -0.7551  1.0639 -0.1866
20597SOL    HW264685   9.079   5.237   9.977  0.1472 -1.5029 -0.4694
20598SOL     OW64686   7.108   7.333   1.497 -0.0389 -0.5432 -0.3236
20598SOL    HW164687   7.194   7.300   1.521 -0.4180 -0.5296  1.1818
20598SOL    HW264688   7.049   7.296   1.563 -1.0439  0.1370 -0.8134
20599SOL     OW64689   6.689   9.353  10.014  0.5308 -0.6010 -0.4684
20599SOL    HW164690   6.682   9.357  10.110  1.4761  1.3763 -0.4201
20599SOL    HW264691   6.635   9.426   9.983 -2.9522 -3.4533 -1.7668
20600SOL     OW64692   7.273   2.156   6.286 -0.3796 -0.0442 -0.4428
20600SOL    HW164693   7.293   2.227   6.347  0.3564 -0.3545 -0.3152
20600SOL    HW264694   7.359   2.123   6.259 -0.7118 -0.9252 -0.4494
20601SOL     OW64695   0.813   4.754   3.454  0.1348 -0.6199 -0.1321
20601SOL    HW164696   0.908   4.759   3.450  0.1188  0.5227  0.4519
20601SOL    HW264697   0.783   4.799   3.375  0.0851  1.3248  0.9215
20602SOL     OW64698  10.415   0.490   3.174  0.0087  0.0360 -0.0800
20602SOL    HW164699  10.363   0.458   3.247 -1.6519  0.1963 -1.1277
20602SOL    HW264700  10.408   0.422   3.107  0.7217  0.2930 -0.4325
20603SOL     OW64701   4.549   3.009   8.692 -0.4392  0.6843 -0.2330
20603SOL    HW164702   4.457   2.983   8.700 -0.1160 -0.9048 -1.2893
20603SOL    HW264703   4.586   2.994   8.779 -0.7373 -0.6223 -0.3077
20604SOL     OW64704   1.323   7.111  10.623 -0.0195 -0.3791 -0.0104
20604SOL    HW164705   1.399   7.143  10.574 -0.1024 -0.9321 -0.5135
20604SOL    HW264706   1.348   7.023  10.650 -0.0258 -0.1259  0.8522
20605SOL     OW64707   2.678   1.347   4.694 -0.0783  0.1976 -0.8374
20605SOL    HW164708   2.771   1.361   4.678  0.8971  0.0136  3.3511
20605SOL    HW264709   2.643   1.435   4.710 -0.0367  0.1025 -0.1701
20606SOL     OW64710   2.724   7.226   3.933 -0.9054 -0.0523 -0.1882
20606SOL    HW164711   2.734   7.249   4.026  1.2667  0.2857 -0.4354
20606SOL    HW264712   2.645   7.173   3.929 -1.3107  0.3295  1.7854
20607SOL     OW64713   2.047   7.743   9.309  0.0763 -0.2118  0.4400
20607SOL    HW164714   2.071   7.739   9.402 -0.6761 -0.6374  0.6257
20607SOL    HW264715   1.975   7.680   9.300 -0.3045  0.3096 -0.2927
20608SOL     OW64716   2.846  10.161   1.723 -0.3184  0.4383 -0.3264
20608SOL    HW164717   2.809  10.243   1.690 -0.0457  1.1720  1.1407
20608SOL    HW264718   2.777  10.123   1.777 -0.3409 -0.1662 -0.7757
20609SOL     OW64719   9.556   4.538   3.640  0.7584  0.3217  0.1974
20609SOL    HW164720   9.580   4.575   3.556 -0.0483 -1.2166 -0.7574
20609SOL    HW264721   9.592   4.599   3.705  0.3326  2.2029 -1.2531
20610SOL     OW64722   0.919   5.798   2.005  0.8090 -0.1186  0.0483
20610SOL    HW164723   0.898   5.833   1.918  0.0610  0.3160  0.4011
20610SOL    HW264724   0.977   5.865   2.044 -1.6073  1.4234  1.2081
20611SOL     OW64725   9.788   2.560   8.817  1.0457 -0.3613 -0.7175
20611SOL    HW164726   9.873   2.589   8.848  1.2824 -1.1444 -0.6015
20611SOL    HW264727   9.742   2.640   8.793  1.3924  0.1511  0.2947
20612SOL     OW64728   7.416   9.450   0.153  0.0216  0.4484 -0.0048
20612SOL    HW164729   7.359   9.382   0.120 -0.0755  0.9531 -0.9034
20612SOL    HW264730   7.486   9.403   0.199 -0.0833 -0.2389 -0.5412
20613SOL     OW64731   2.252   0.797   6.604  0.5518  0.0681  0.0305
20613SOL    HW164732   2.300   0.847   6.671  2.3493 -0.2891 -0.9271
20613SOL    HW264733   2.178   0.852   6.582  0.7639  0.8809  1.2308
20614SOL     OW64734   7.566   2.543   3.246  0.1488 -0.4637 -0.0057
20614SOL    HW164735   7.637   2.573   3.189 -1.2781 -0.2743 -1.7623
20614SOL    HW264736   7.533   2.623   3.288 -0.5627 -0.2077 -1.0314
20615SOL     OW64737   5.171   0.669   9.590 -0.0689  0.4310  0.8224
20615SOL    HW164738   5.111   0.618   9.535  0.3493  0.9536 -0.1446
20615SOL    HW264739   5.113   0.716   9.650 -0.6586  1.0062 -0.1704
20616SOL     OW64740   1.479   0.357   3.820 -0.3662  0.6852 -0.1143
20616SOL    HW164741   1.459   0.340   3.728  2.4630 -0.2896 -0.6472
20616SOL    HW264742   1.528   0.439   3.820 -0.3835  0.7060  0.5186
20617SOL     OW64743   2.152   0.366   5.874  0.1268  0.3399 -0.3221
20617SOL    HW164744   2.064   0.376   5.836  0.1844 -0.0104 -0.5557
20617SOL    HW264745   2.156   0.431   5.943  0.2673  1.5013 -1.3784
20618SOL     OW64746   0.222   6.763   9.881 -0.8506 -0.6323 -0.0350
20618SOL    HW164747   0.220   6.685   9.825  0.7142  0.0812 -1.1506
20618SOL    HW264748   0.314   6.779   9.898 -1.2635 -0.7796  2.8053
20619SOL     OW64749   9.534   4.756   0.191 -0.3846 -0.6151  0.1776
20619SOL    HW164750   9.466   4.807   0.145 -0.2113  0.4840  1.1116
20619SOL    HW264751   9.564   4.692   0.125  1.1654  2.0612 -1.9366
20620SOL     OW64752   0.127   8.235   0.551  0.0104 -0.2851 -0.1598
20620SOL    HW164753   0.179   8.264   0.476  1.4324 -2.1544  0.0325
20620SOL    HW264754   0.158   8.288   0.624  3.7411 -3.0045  0.5460
20621SOL     OW64755   2.733   8.319   4.825 -0.2389  0.5568 -0.4488
20621SOL    HW164756   2.667   8.387   4.840 -0.6480  0.2730 -0.9107
20621SOL    HW264757   2.744   8.277   4.910 -0.9714  0.3413 -0.4510
20622SOL     OW64758   2.755   4.812   9.733  0.0279  0.3804  0.1830
20622SOL    HW164759   2.800   4.822   9.649  1.5263 -0.4067  0.8530
20622SOL    HW264760   2.721   4.899   9.752  1.1096  0.9672 -0.4594
20623SOL     OW64761   2.567   7.857   6.929  0.0849  0.3632 -0.5150
20623SOL    HW164762   2.605   7.896   6.849  0.4324  1.3716  0.1208
20623SOL    HW264763   2.640   7.852   6.990 -0.3153  0.1712 -0.0483
20624SOL     OW64764   6.246   3.405  10.100  0.0112 -0.0887  0.5763
20624SOL    HW164765   6.185   3.362  10.040  0.3537 -0.4665  0.4916
20624SOL    HW264766   6.295   3.467  10.046 -0.2704  0.1866  0.6368
20625SOL     OW64767  10.663   6.528   0.095  0.0216 -0.3770  0.2159
20625SOL    HW164768  10.745   6.559   0.057 -0.9094  0.0260 -1.5959
20625SOL    HW264769  10.660   6.435   0.073  1.4667 -1.2074  3.1419
20626SOL     OW64770  10.793   9.170   9.145 -0.2241 -0.3517 -0.1419
20626SOL    HW164771  10.746   9.229   9.085 -0.7329 -0.1419  0.4601
20626SOL    HW264772  10.740   9.090   9.146 -0.8549  0.0663  0.9298
20627SOL     OW64773  10.427   3.647   3.062 -0.4852  0.0006 -0.0180
20627SOL    HW164774  10.392   3.603   2.984  0.2754 -0.3432 -0.1774
20627SOL    HW264775  10.350   3.668   3.115 -1.0169  0.2565 -0.8731
20628SOL     OW64776   6.154   2.239   4.266  0.0586  0.8564 -0.2997
20628SOL    HW164777   6.072   2.224   4.313  1.1392  1.9595  2.1062
20628SOL    HW264778   6.169   2.333   4.273  1.3535  0.7247 -1.0224
20629SOL     OW64779   4.428   7.839   6.797 -0.1784  0.7366  0.3527
20629SOL    HW164780   4.451   7.925   6.760  0.3827  0.4431  0.0132
20629SOL    HW264781   4.495   7.780   6.765 -0.5425  0.1676  0.6184
20630SOL     OW64782   2.466   7.693   6.235  0.7274 -0.6989  0.0375
20630SOL    HW164783   2.438   7.736   6.154 -1.7453  0.8001  1.5475
20630SOL    HW264784   2.532   7.751   6.272  1.4438 -1.0970 -0.5905
20631SOL     OW64785   3.884   7.073  10.677  0.1293 -0.3567  0.7081
20631SOL    HW164786   3.946   7.001  10.688 -0.4661 -1.0783 -0.4374
20631SOL    HW264787   3.905   7.110  10.592  0.0899  0.5177  1.0646
20632SOL     OW64788   8.009   7.659   4.114  0.2049 -0.1062 -0.5418
20632SOL    HW164789   7.943   7.592   4.094 -0.2196 -0.2393  1.1517
20632SOL    HW264790   8.005   7.669   4.209  2.0883  0.4637 -0.4803
20633SOL     OW64791   0.176   7.151   3.310 -0.4080 -0.0745  0.3579
20633SOL    HW164792   0.140   7.239   3.302  0.8796  0.4225 -0.3351
20633SOL    HW264793   0.220   7.135   3.226  0.5758 -0.8126  0.9804
20634SOL     OW64794   3.167   4.799  10.279  0.2117 -0.1507 -0.0449
20634SOL    HW164795   3.152   4.833  10.191 -2.4286  1.9445  1.0965
20634SOL    HW264796   3.257   4.825  10.300  0.5547  0.1269 -1.7294
20635SOL     OW64797   3.288   5.128   7.156 -0.0055 -0.2917  0.0227
20635SOL    HW164798   3.216   5.191   7.163 -0.2854 -0.5424 -0.5635
20635SOL    HW264799   3.296   5.111   7.062  0.8829 -0.1925  0.0734
20636SOL     OW64800   3.863   1.864   1.792  0.0183  0.3107 -0.0998
20636SOL    HW164801   3.837   1.826   1.876  0.2312 -0.3281 -0.3145
20636SOL    HW264802   3.947   1.822   1.772 -0.3227  0.0034 -0.9245
20637SOL     OW64803   6.200   2.720   2.753  0.0091 -0.2401  0.6433
20637SOL    HW164804   6.141   2.676   2.814 -1.6066  3.4714  2.1020
20637SOL    HW264805   6.279   2.737   2.805 -1.3344  2.8436  1.9654
20638SOL     OW64806  10.166   4.465   2.392 -0.6899 -0.3960 -0.2532
20638SOL    HW164807  10.183   4.558   2.411 -1.0539 -0.3264 -0.2644
20638SOL    HW264808  10.247   4.434   2.351 -0.4795 -0.1445 -0.0286
20639SOL     OW64809   7.935   6.112   4.624  0.0258 -0.1069  0.2938
20639SOL    HW164810   7.962   6.166   4.698  0.5181  1.5729 -1.0423
20639SOL    HW264811   8.013   6.062   4.601  0.5564  1.0218 -0.4400
20640SOL     OW64812   3.226   8.771   1.966  0.1582 -0.7098 -0.2667
20640SOL    HW164813   3.236   8.741   2.056  0.3558 -0.1406 -0.0904
20640SOL    HW264814   3.135   8.750   1.944 -0.1440 -0.1243  0.3523
20641SOL     OW64815   2.168   6.870   6.125  0.4176  0.1446  0.1683
20641SOL    HW164816   2.174   6.774   6.123  0.7984  0.1275  1.2310
20641SOL    HW264817   2.093   6.888   6.182  0.8613  0.4724  0.6621
20642SOL     OW64818   9.668   0.675   2.868  0.1320  0.3873  0.0605
20642SOL    HW164819   9.728   0.603   2.886  0.7375  1.1215  1.0843
20642SOL    HW264820   9.722   0.743   2.828 -0.0646  0.9314  0.6950
20643SOL     OW64821   8.313   3.561   0.580  0.1445 -0.0582 -0.0298
20643SOL    HW164822   8.228   3.575   0.623 -0.3450  0.6479 -1.1671
20643SOL    HW264823   8.312   3.469   0.555  0.1599 -0.3127  0.8662
20644SOL     OW64824   1.385   3.992   9.528 -0.2186 -0.6249 -0.2198
20644SOL    HW164825   1.293   4.012   9.540 -0.2775 -0.9401 -0.1463
20644SOL    HW264826   1.429   4.035   9.602 -0.3300 -0.6614 -0.1329
20645SOL     OW64827   1.548   0.191   2.678 -0.6469 -0.4388 -0.0200
20645SOL    HW164828   1.603   0.246   2.734  0.2100 -0.3243 -0.9408
20645SOL    HW264829   1.573   0.102   2.700 -1.7626 -0.4663  1.2031
20646SOL     OW64830   4.819   3.249   4.266 -0.0895 -0.0778  0.4596
20646SOL    HW164831   4.783   3.267   4.179  0.8627 -0.0352  0.0608
20646SOL    HW264832   4.744   3.256   4.325 -0.4397  1.6390 -0.1287
20647SOL     OW64833   9.768   9.711   3.261  0.1950  0.4903 -0.2472
20647SOL    HW164834   9.726   9.627   3.280  2.5541 -0.5742  0.8004
20647SOL    HW264835   9.861   9.694   3.276  1.2180  2.3184 -3.5951
20648SOL     OW64836   2.767   1.522   0.689 -0.7619  0.1823  0.2341
20648SOL    HW164837   2.810   1.530   0.774  0.6472  2.8939 -0.5925
20648SOL    HW264838   2.690   1.468   0.706  0.9172 -1.7008  2.5930
20649SOL     OW64839   1.151   1.396   8.995  0.1582 -0.2045 -0.1313
20649SOL    HW164840   1.127   1.468   9.053  0.8798  2.9021 -3.3706
20649SOL    HW264841   1.221   1.350   9.041 -1.0678  0.3957  2.5146
20650SOL     OW64842   2.477   0.522   9.681  0.0394 -0.0951 -0.4178
20650SOL    HW164843   2.472   0.588   9.612 -1.5765 -1.4314 -1.6620
20650SOL    HW264844   2.392   0.476   9.677 -0.2719 -0.0273  2.6844
20651SOL     OW64845   1.616   0.402   1.625 -0.0085  0.0630 -0.2071
20651SOL    HW164846   1.524   0.430   1.634 -0.4342 -1.7818  2.5291
20651SOL    HW264847   1.610   0.309   1.600  1.0916 -0.1516  0.2838
20652SOL     OW64848   2.711   1.388   1.347 -0.1653  0.2592  0.3013
20652SOL    HW164849   2.635   1.333   1.330  0.9744 -0.6222 -2.6321
20652SOL    HW264850   2.747   1.407   1.260  3.5935 -0.3650  1.5234
20653SOL     OW64851   7.390   1.900   4.258 -0.1883  0.5544  0.6668
20653SOL    HW164852   7.472   1.913   4.305 -0.1924  0.2608  0.7576
20653SOL    HW264853   7.370   1.985   4.219  0.5969  0.4232 -0.0661
20654SOL     OW64854   9.983   1.191   6.994 -0.0133  0.0052 -0.7137
20654SOL    HW164855  10.039   1.202   7.072 -0.4937 -0.0171 -0.3620
20654SOL    HW264856   9.922   1.121   7.018  0.1622 -0.3521 -1.3021
20655SOL     OW64857   6.523   3.810   9.928  0.3906  0.5661  0.1968
20655SOL    HW164858   6.617   3.824   9.924  0.4317  0.3622  0.4511
20655SOL    HW264859   6.485   3.894   9.904  0.6309  1.3759  2.4701
20656SOL     OW64860   8.902   4.300   2.534  0.8350 -0.0886 -0.1450
20656SOL    HW164861   8.930   4.390   2.550 -1.1264  0.4416  0.6163
20656SOL    HW264862   8.826   4.308   2.476  1.3976 -1.3530 -1.1101
20657SOL     OW64863   6.137   9.513   2.345 -0.1051  0.0290 -0.6332
20657SOL    HW164864   6.122   9.605   2.323 -0.2623  0.0389 -0.4849
20657SOL    HW264865   6.129   9.467   2.262 -2.2334 -0.1363 -0.4052
20658SOL     OW64866   0.218   4.358   1.076  0.3305 -0.3444 -0.0673
20658SOL    HW164867   0.167   4.347   1.157  0.5409 -1.9812 -0.1162
20658SOL    HW264868   0.230   4.269   1.043 -0.5567  0.3191 -2.4245
20659SOL     OW64869   4.134   5.801   9.000  0.0205 -0.8762  0.1835
20659SOL    HW164870   4.057   5.767   9.046 -1.0364 -0.7669 -1.4337
20659SOL    HW264871   4.201   5.810   9.068 -1.5475 -0.4769  1.7222
20660SOL     OW64872   1.630   7.718   1.504 -0.1980 -0.3352  0.1891
20660SOL    HW164873   1.654   7.666   1.581 -0.0156 -0.1988  0.2275
20660SOL    HW264874   1.595   7.799   1.540 -0.3448 -0.3731  0.1299
20661SOL     OW64875   1.934   6.102   1.303  0.1283 -0.0247  0.5591
20661SOL    HW164876   1.940   6.173   1.240 -1.1589 -0.1704  0.2406
20661SOL    HW264877   1.881   6.137   1.374  1.5430  0.1316  1.5874
20662SOL     OW64878   8.979   6.706   0.844 -0.5415  0.4533  0.1091
20662SOL    HW164879   9.045   6.750   0.897  1.0085 -0.5004 -0.9224
20662SOL    HW264880   9.017   6.704   0.756 -1.6382 -0.7383 -0.3690
20663SOL     OW64881   2.670   8.231   2.250 -0.2562 -0.1828 -0.2667
20663SOL    HW164882   2.626   8.286   2.185 -1.4358  0.3615  0.9291
20663SOL    HW264883   2.701   8.155   2.200 -1.5015  0.0015 -1.3903
20664SOL     OW64884   3.785   0.917   0.950 -0.2833 -0.4517 -0.2495
20664SOL    HW164885   3.804   0.825   0.966 -1.4435 -0.8721 -1.1872
20664SOL    HW264886   3.706   0.917   0.896 -0.7485  1.1203  0.3654
20665SOL     OW64887   7.407   3.748   0.013  0.5696 -0.2351  0.5269
20665SOL    HW164888   7.410   3.825  -0.045 -1.9282 -1.1127 -0.9068
20665SOL    HW264889   7.448   3.678  -0.039  1.8541 -0.1705  1.4064
20666SOL     OW64890   1.110   2.383   4.863  0.1429 -0.2783 -0.3117
20666SOL    HW164891   1.166   2.306   4.863 -1.5822 -1.6010  0.7442
20666SOL    HW264892   1.030   2.355   4.906 -0.4010  2.2317  0.4932
20667SOL     OW64893   6.281   5.445   8.671  0.5222 -0.1277 -0.1834
20667SOL    HW164894   6.321   5.397   8.599  3.2686  1.9024 -0.1483
20667SOL    HW264895   6.187   5.441   8.653  0.8809 -2.3907 -2.0544
20668SOL     OW64896   1.056   6.589   5.531 -0.1613  0.2067 -1.0673
20668SOL    HW164897   1.071   6.631   5.616  0.4340 -0.4389 -0.8446
20668SOL    HW264898   0.980   6.532   5.545  0.2779 -0.3238 -0.8064
20669SOL     OW64899   3.170   6.987   9.501 -0.1128 -0.5221 -0.1354
20669SOL    HW164900   3.163   7.064   9.444  0.2547  0.1261  0.6649
20669SOL    HW264901   3.127   7.014   9.583  2.5890 -0.0298  1.2533
20670SOL     OW64902   5.434   7.528   7.881  0.0409  0.4870 -0.3594
20670SOL    HW164903   5.434   7.585   7.959 -1.5644  0.0046  0.0295
20670SOL    HW264904   5.343   7.527   7.852  0.5048  0.1704 -1.9135
20671SOL     OW64905   5.213  10.432   0.753 -0.0983  1.0854 -0.1470
20671SOL    HW164906   5.146  10.493   0.783 -0.1845  0.5974  0.6969
20671SOL    HW264907   5.164  10.357   0.720  0.0023  1.5057 -1.3077
20672SOL     OW64908   7.159   6.084   5.161 -0.2562  0.0780  0.1545
20672SOL    HW164909   7.231   6.146   5.150  0.3513 -0.3525  1.5320
20672SOL    HW264910   7.086   6.138   5.191  0.2323  0.1800  1.2157
20673SOL     OW64911   7.011   0.533   3.700  0.2569 -0.1838  0.4320
20673SOL    HW164912   6.938   0.478   3.674  0.5629 -0.4063  0.0431
20673SOL    HW264913   6.970   0.609   3.741 -0.3746  1.3516 -2.7872
20674SOL     OW64914   1.717   7.947   3.082 -0.0967 -0.6444 -0.1920
20674SOL    HW164915   1.655   7.955   3.009  0.1033  3.0817 -0.1669
20674SOL    HW264916   1.799   7.984   3.048  0.5226 -0.4958  1.3860
20675SOL     OW64917   2.929   5.233   1.952  0.3582 -0.2315  0.0632
20675SOL    HW164918   2.881   5.173   1.895 -1.0954  0.1049  0.8700
20675SOL    HW264919   2.883   5.317   1.941 -0.3616 -0.2959  2.1395
20676SOL     OW64920   0.685   2.139   5.190  0.0559 -0.4013  0.2969
20676SOL    HW164921   0.680   2.048   5.159 -4.1523 -1.2942  2.7840
20676SOL    HW264922   0.676   2.191   5.110  0.5110 -2.1889 -0.9941
20677SOL     OW64923   9.532   8.869   0.945  0.0459  0.1656 -0.3571
20677SOL    HW164924   9.602   8.876   1.009  1.0922  0.3268 -1.4882
20677SOL    HW264925   9.503   8.778   0.951  2.0834 -0.6337 -1.5857
20678SOL     OW64926   0.734   7.456   6.085 -0.6427  0.0704  0.1122
20678SOL    HW164927   0.646   7.453   6.122 -0.6453  1.4004  0.2717
20678SOL    HW264928   0.772   7.537   6.120 -0.1398  0.6624 -1.6885
20679SOL     OW64929   3.298   9.333   6.709 -0.5854 -0.0064 -0.1805
20679SOL    HW164930   3.222   9.337   6.652 -2.2291  4.0274  1.8702
20679SOL    HW264931   3.264   9.354   6.796  2.4219 -1.5722  1.5623
20680SOL     OW64932   5.095   3.703   6.770  0.2725 -0.7260 -0.1468
20680SOL    HW164933   5.085   3.611   6.792  1.0331 -1.2551 -1.8675
20680SOL    HW264934   5.029   3.719   6.702  1.5741 -0.5846 -1.4096
20681SOL     OW64935   1.588   0.472   1.972  0.0923  0.3637 -0.1001
20681SOL    HW164936   1.636   0.418   2.035 -0.7062 -0.7644 -0.4342
20681SOL    HW264937   1.654   0.530   1.935  1.5648 -2.1090 -1.6065
20682SOL     OW64938   2.893  10.362   6.185 -0.5360 -0.0959 -0.8938
20682SOL    HW164939   2.866  10.433   6.244 -1.2982 -1.1582  0.0759
20682SOL    HW264940   2.978  10.391   6.151 -0.3031  0.7794  0.3398
20683SOL     OW64941   4.275   2.161  10.646 -0.5778  0.0452 -0.2517
20683SOL    HW164942   4.211   2.094  10.621 -0.0593 -0.5616 -0.0068
20683SOL    HW264943   4.337   2.164  10.573 -0.3943 -0.0168 -0.1023
20684SOL     OW64944   1.399   9.849   0.784  0.0124 -0.0858 -0.7899
20684SOL    HW164945   1.476   9.888   0.744  0.5964 -0.6088 -0.1983
20684SOL    HW264946   1.415   9.855   0.878  0.3877 -2.2142 -0.6719
20685SOL     OW64947   9.076   2.842   4.281 -0.0543 -0.0788  0.1505
20685SOL    HW164948   9.139   2.869   4.214  0.1149 -0.7610  0.0209
20685SOL    HW264949   9.031   2.922   4.306  2.5818  0.9381  2.0785
20686SOL     OW64950   9.778   4.042   4.483  0.4357 -0.3172  0.1647
20686SOL    HW164951   9.822   4.074   4.562  0.1703  0.4243  0.0200
20686SOL    HW264952   9.692   4.084   4.484  0.4490 -0.2548 -0.5417
20687SOL     OW64953   4.122   1.649   7.298 -0.0795 -0.1994 -0.1050
20687SOL    HW164954   4.068   1.725   7.277 -0.7665 -0.7255 -0.3082
20687SOL    HW264955   4.151   1.616   7.213 -1.3396 -1.2442 -0.1763
20688SOL     OW64956   5.330   8.212   4.591 -0.6282  0.3465 -0.2243
20688SOL    HW164957   5.342   8.255   4.676  0.3331  1.4995 -0.9103
20688SOL    HW264958   5.400   8.148   4.586 -0.6261  0.3465 -0.1950
20689SOL     OW64959   5.399   0.550   3.734  0.8825  0.0108 -0.5294
20689SOL    HW164960   5.484   0.508   3.748  1.5349  1.6806  0.8361
20689SOL    HW264961   5.360   0.553   3.821 -0.3705 -0.2444 -1.0621
20690SOL     OW64962   9.075   4.287  10.238 -0.1410 -0.4051  0.0733
20690SOL    HW164963   9.008   4.342  10.199 -0.6698 -0.7536  0.4806
20690SOL    HW264964   9.103   4.229  10.167  0.1535  0.1344 -0.2546
20691SOL     OW64965   4.841   9.317   1.969  0.0210 -0.3041 -0.2289
20691SOL    HW164966   4.803   9.297   2.054  0.9790  0.7444  0.4842
20691SOL    HW264967   4.777   9.375   1.927  0.9457  1.8046  1.1391
20692SOL     OW64968  10.035   7.344  10.157  0.3761  0.0069  0.1946
20692SOL    HW164969   9.997   7.432  10.168  1.2001  0.1883  1.7634
20692SOL    HW264970   9.989   7.290  10.221 -0.3447 -0.8063 -0.9766
20693SOL     OW64971   2.849   1.214   6.785 -0.2229  1.0229 -0.2854
20693SOL    HW164972   2.874   1.128   6.752  0.2403  0.8421  0.5121
20693SOL    HW264973   2.922   1.271   6.762  0.4551  0.7351  1.0514
20694SOL     OW64974   4.461  10.476   6.667 -0.4336  0.2958 -0.0709
20694SOL    HW164975   4.503  10.514   6.744 -1.6399  0.4684  0.5350
20694SOL    HW264976   4.516  10.503   6.594  0.9309 -0.1557  0.7567
20695SOL     OW64977   0.933   3.743   0.330 -0.0234 -0.3254 -0.7854
20695SOL    HW164978   0.996   3.689   0.377  1.5719  0.9334 -1.3768
20695SOL    HW264979   0.877   3.681   0.284  1.1565 -1.4893 -0.7083
20696SOL     OW64980   6.312   4.925   9.479 -0.0724 -0.7908  0.2736
20696SOL    HW164981   6.365   4.949   9.403  1.9527 -2.2415  1.1508
20696SOL    HW264982   6.255   5.001   9.493 -1.0119 -0.7354 -3.0434
20697SOL     OW64983   5.146   3.090   3.651 -0.1199 -1.1814 -0.2736
20697SOL    HW164984   5.126   3.182   3.669  1.8567 -0.8231  0.3034
20697SOL    HW264985   5.110   3.043   3.725 -0.9163 -0.8677 -0.4438
20698SOL     OW64986   9.622  10.110   6.385 -0.0468 -0.1322 -0.3949
20698SOL    HW164987   9.690  10.168   6.418 -0.8192  0.8387 -0.4373
20698SOL    HW264988   9.590  10.153   6.305 -0.4786 -0.7288 -0.5536
20699SOL     OW64989   6.863   3.423   4.940 -0.1154 -0.1276  0.0700
20699SOL    HW164990   6.902   3.339   4.967 -1.4182 -0.6670  0.3598
20699SOL    HW264991   6.812   3.451   5.016 -0.6845  0.3121 -0.4714
20700SOL     OW64992   6.450   0.632   8.407 -0.1097 -0.7225  0.4605
20700SOL    HW164993   6.422   0.696   8.473 -0.4397 -0.9359  0.5315
20700SOL    HW264994   6.399   0.554   8.427 -0.6193 -0.6195 -0.3855
20701SOL     OW64995   3.262   4.008   6.711  0.4064 -0.1676  0.4342
20701SOL    HW164996   3.207   3.942   6.754  0.6763  0.4652  1.8073
20701SOL    HW264997   3.248   4.087   6.762  0.2640  0.8060 -1.0574
20702SOL     OW64998   7.818   0.751   9.743 -0.2424 -0.0242  0.1692
20702SOL    HW164999   7.753   0.750   9.813 -0.7710  0.4433 -0.3104
20702SOL    HW265000   7.880   0.820   9.768  0.3026 -0.7315  0.8216
20703SOL     OW65001  10.063   2.972   2.262  0.0648  1.0218 -0.0875
20703SOL    HW165002  10.070   2.922   2.343 -0.4795  0.2826 -0.4849
20703SOL    HW265003  10.119   2.926   2.200  0.3701  1.5048 -0.1747
20704SOL     OW65004   2.398   5.489   9.561  0.3765  0.3378 -0.0834
20704SOL    HW165005   2.352   5.526   9.636 -0.5587 -0.0504 -0.4579
20704SOL    HW265006   2.340   5.420   9.528  0.1559  1.3595 -1.9484
20705SOL     OW65007   6.490  10.056   4.151  0.0406  0.4975  0.0991
20705SOL    HW165008   6.419  10.110   4.185  0.0488  0.9171 -0.5220
20705SOL    HW265009   6.464  10.037   4.061  1.2385  1.6386 -0.5319
20706SOL     OW65010   8.968   1.412   4.403 -0.3417  0.6467 -0.0868
20706SOL    HW165011   8.873   1.414   4.416 -0.2684 -1.0967  1.1766
20706SOL    HW265012   8.994   1.504   4.402 -1.7657  1.1504  2.0076
20707SOL     OW65013   1.053   0.251   8.366  0.1164 -0.0347 -0.2918
20707SOL    HW165014   1.035   0.251   8.460  3.0360 -1.0630  0.3739
20707SOL    HW265015   1.058   0.343   8.342  1.1492  0.2646  0.9995
20708SOL     OW65016  10.301  10.562   5.634 -0.0658 -0.3941 -0.0400
20708SOL    HW165017  10.280  10.570   5.542  2.1468 -0.0249 -0.5737
20708SOL    HW265018  10.376  10.620   5.647  0.7400 -1.7149  1.5922
20709SOL     OW65019   7.593   1.372   1.887 -0.2350 -0.4127 -0.0041
20709SOL    HW165020   7.583   1.452   1.836  0.4340 -1.2655 -1.5534
20709SOL    HW265021   7.536   1.308   1.843 -2.1301 -0.3831  2.2388
20710SOL     OW65022   2.910   0.451   3.546 -0.4449  0.0773  0.5658
20710SOL    HW165023   2.913   0.364   3.586  1.2040  0.0221  0.3814
20710SOL    HW265024   2.850   0.441   3.472 -0.2675 -0.9033  0.5399
20711SOL     OW65025   4.983   2.831   1.582 -0.1149  0.8642 -0.5467
20711SOL    HW165026   4.988   2.909   1.526 -2.5901  0.9313 -0.8026
20711SOL    HW265027   4.930   2.769   1.531  0.8786 -0.5843  0.1229
20712SOL     OW65028   8.423   0.414   3.275  0.1726  0.4801 -0.2007
20712SOL    HW165029   8.364   0.426   3.201 -1.9775 -1.6310  1.0282
20712SOL    HW265030   8.384   0.466   3.345 -0.2419 -0.9113  0.6195
20713SOL     OW65031  10.259   8.450   4.650  0.0323 -0.0739  0.3237
20713SOL    HW165032  10.217   8.487   4.572  2.4184  0.9730 -0.5737
20713SOL    HW265033  10.260   8.522   4.713 -0.1056 -0.2882  0.5713
20714SOL     OW65034   7.047   3.495   1.689  0.4600 -0.8694  0.6196
20714SOL    HW165035   7.065   3.577   1.642  0.4179 -2.3445 -2.1317
20714SOL    HW265036   6.977   3.518   1.751  0.4467  1.1566 -0.0754
20715SOL     OW65037   9.220  10.717   6.759 -0.8895  0.5421 -0.3963
20715SOL    HW165038   9.231  10.700   6.852 -0.2480 -0.2940 -0.6121
20715SOL    HW265039   9.136  10.678   6.736 -0.8360  0.3535 -0.2666
20716SOL     OW65040   2.823   1.489   5.865 -0.8521 -0.4357  0.5159
20716SOL    HW165041   2.821   1.401   5.901  0.4323 -0.9141 -0.5188
20716SOL    HW265042   2.895   1.488   5.802 -1.1823  1.1871  0.0623
20717SOL     OW65043  10.467   8.387   0.374 -0.1459  0.0505  0.4610
20717SOL    HW165044  10.519   8.333   0.434 -0.6944 -0.8675  0.1381
20717SOL    HW265045  10.410   8.324   0.329  1.3516  0.4291 -2.2063
20718SOL     OW65046   1.489   1.706   9.462 -0.0238 -0.1082  0.0315
20718SOL    HW165047   1.438   1.702   9.543  0.5978 -0.9593  0.3938
20718SOL    HW265048   1.458   1.786   9.419 -0.6640  0.1348  0.8993
20719SOL     OW65049  10.297   5.678  10.025 -0.1205 -0.8548 -0.1046
20719SOL    HW165050  10.208   5.689  10.059 -0.6529 -2.8758 -0.7268
20719SOL    HW265051  10.309   5.752   9.965 -0.4275  0.8183  1.8016
20720SOL     OW65052   3.765   8.266   5.579 -0.2420  0.0314 -0.3057
20720SOL    HW165053   3.850   8.309   5.586 -0.4005  0.3320 -0.2105
20720SOL    HW265054   3.748   8.231   5.666 -1.6090  2.6313  0.5731
20721SOL     OW65055   8.425  10.466   6.033  0.6628 -0.3754 -0.2168
20721SOL    HW165056   8.371  10.402   6.079  0.1177 -0.4890 -0.9884
20721SOL    HW265057   8.472  10.414   5.967 -0.9647  0.1756 -1.9211
20722SOL     OW65058   9.291   2.057   1.472  0.0774 -0.6158  0.3115
20722SOL    HW165059   9.321   2.137   1.430  0.4369 -0.6325  0.5310
20722SOL    HW265060   9.195   2.063   1.470  0.0916  0.5671  1.6959
20723SOL     OW65061   2.913   3.810   3.282  0.4158  0.0705 -0.4146
20723SOL    HW165062   2.891   3.725   3.243  1.5051 -0.0352 -0.8509
20723SOL    HW265063   2.899   3.798   3.376 -0.1100 -0.3776 -0.5452
20724SOL     OW65064   7.138   3.996   1.287  0.3098  0.2955  0.5071
20724SOL    HW165065   7.119   3.941   1.210 -0.6391  1.2907 -0.0052
20724SOL    HW265066   7.233   3.998   1.292  0.5344  2.3861 -2.3317
20725SOL     OW65067   4.519   6.082   6.258  0.2667 -0.2780  0.1704
20725SOL    HW165068   4.465   6.116   6.330  0.2318 -0.5160  0.2573
20725SOL    HW265069   4.576   6.155   6.235 -1.2237  0.5422 -1.0563
20726SOL     OW65070   8.516   9.927   2.109  0.1297  0.0855  0.1074
20726SOL    HW165071   8.433   9.971   2.127  1.2497  1.5476  2.2239
20726SOL    HW265072   8.505   9.839   2.144 -1.5372 -0.8750 -2.5511
20727SOL     OW65073   6.845   0.969   9.891  0.2506 -0.2493 -0.3650
20727SOL    HW165074   6.908   0.955   9.962  0.5083  0.6253 -0.4002
20727SOL    HW265075   6.872   0.909   9.822  0.2400 -0.8257  0.1208
20728SOL     OW65076   2.226   1.499   3.276  0.1528 -0.0940  0.1143
20728SOL    HW165077   2.243   1.593   3.276  0.1012 -0.0792 -0.3660
20728SOL    HW265078   2.308   1.460   3.248 -0.1322 -0.1193 -0.7199
20729SOL     OW65079   4.178   7.660   9.709 -0.3335  0.2584 -0.5162
20729SOL    HW165080   4.124   7.738   9.723 -0.1676  0.3151 -0.1749
20729SOL    HW265081   4.161   7.606   9.786  2.3424  1.5777  1.1283
20730SOL     OW65082   5.403   2.481   9.746  0.0368  0.1814  0.3752
20730SOL    HW165083   5.350   2.450   9.673  2.3705 -2.3382 -0.4306
20730SOL    HW265084   5.444   2.561   9.714  0.1355 -0.2713 -0.6761
20731SOL     OW65085   4.323   0.345   2.762  0.1466  0.0095  0.0215
20731SOL    HW165086   4.377   0.382   2.693  0.7314 -1.0854 -0.1386
20731SOL    HW265087   4.280   0.420   2.803  0.4333  0.7411 -0.9889
20732SOL     OW65088   4.310   5.217   9.023  0.4639  0.5295  0.1252
20732SOL    HW165089   4.313   5.229   9.118 -1.4256 -1.3433  0.5165
20732SOL    HW265090   4.333   5.125   9.010  0.4029  0.6786 -1.2091
20733SOL     OW65091   8.768   4.007   4.847  0.0791 -0.3501 -0.0387
20733SOL    HW165092   8.752   4.000   4.941  0.4055 -2.4200 -0.0872
20733SOL    HW265093   8.853   3.965   4.834  0.1097  0.0512 -1.2355
20734SOL     OW65094  10.214  10.354   4.964  0.5389 -0.0913  0.0977
20734SOL    HW165095  10.225  10.300   5.043  0.6790  1.4110  1.1555
20734SOL    HW265096  10.249  10.300   4.893  0.8189 -1.3146  1.1186
20735SOL     OW65097   4.500   3.660   4.912  0.3149 -0.7540  0.0717
20735SOL    HW165098   4.587   3.658   4.872  1.1668  1.8347  1.5610
20735SOL    HW265099   4.466   3.747   4.891 -2.0572 -1.7733 -0.6412
20736SOL     OW65100   9.450   2.338   7.581  0.1160  0.0246  0.2715
20736SOL    HW165101   9.493   2.257   7.553  0.2323  0.5307 -1.0785
20736SOL    HW265102   9.517   2.406   7.571 -0.4973  0.5586 -0.3196
20737SOL     OW65103   6.740   4.832   0.072  0.4260 -0.2311  0.1913
20737SOL    HW165104   6.729   4.755   0.016 -0.6030  0.8054 -1.0811
20737SOL    HW265105   6.700   4.903   0.023  1.8090  1.2422  1.1152
20738SOL     OW65106   6.799   6.026   4.329 -0.3902 -0.2788  0.3392
20738SOL    HW165107   6.842   5.975   4.260  2.5699  1.0456  1.0611
20738SOL    HW265108   6.839   5.995   4.410 -2.4328 -0.4747  1.3324
20739SOL     OW65109   0.609   4.948   5.886 -0.1372  0.1030 -0.5135
20739SOL    HW165110   0.667   5.022   5.903 -0.2549  0.0260  0.2670
20739SOL    HW265111   0.641   4.911   5.804  0.0812  0.8627 -0.7754
20740SOL     OW65112   3.533   7.722   1.143  0.1685 -0.3397  0.4758
20740SOL    HW165113   3.606   7.691   1.090  0.2215 -0.9603  0.9033
20740SOL    HW265114   3.503   7.801   1.098 -0.9796 -1.8195 -1.5165
20741SOL     OW65115   4.643   1.979   3.494 -0.1257 -0.2804 -0.2947
20741SOL    HW165116   4.556   1.956   3.461  0.1067 -0.8274 -0.5284
20741SOL    HW265117   4.662   2.064   3.454 -0.1434 -0.6088 -1.0007
20742SOL     OW65118   8.418   0.537   7.405  0.1288  0.1309 -0.2791
20742SOL    HW165119   8.491   0.486   7.438  0.1650  0.0796 -0.4345
20742SOL    HW265120   8.360   0.549   7.481  0.0263 -0.3031 -0.2843
20743SOL     OW65121   5.961   4.961   6.187 -0.0155 -0.1811  0.9615
20743SOL    HW165122   5.979   4.880   6.141 -2.1140 -0.9922  1.4459
20743SOL    HW265123   5.910   4.935   6.264 -0.9861  1.5864  0.9829
20744SOL     OW65124   6.191   0.379   1.730 -0.2712  0.5369  0.1383
20744SOL    HW165125   6.156   0.446   1.788 -2.4983  1.0001 -1.5921
20744SOL    HW265126   6.164   0.407   1.643 -3.5866 -3.7222 -0.5300
20745SOL     OW65127   2.911   3.828   0.724  0.6537  0.2752 -0.2157
20745SOL    HW165128   2.953   3.912   0.706  1.7238  0.0976  1.2407
20745SOL    HW265129   2.829   3.831   0.676 -0.3614  3.0265  1.4333
20746SOL     OW65130   0.256   1.672   4.729  0.4527 -0.0699 -0.3789
20746SOL    HW165131   0.306   1.596   4.758 -2.5079 -2.3933 -0.8593
20746SOL    HW265132   0.312   1.715   4.664  1.8731 -2.3971 -0.7846
20747SOL     OW65133   5.157   7.210   5.705  0.1370 -0.2068  0.0447
20747SOL    HW165134   5.167   7.305   5.696 -0.2865 -0.1929 -0.3231
20747SOL    HW265135   5.233   7.182   5.756  0.4142  0.2922 -0.0914
20748SOL     OW65136   3.921   4.142   0.136  0.1987  0.2983  0.0811
20748SOL    HW165137   3.899   4.098   0.218  0.4591  0.3297  0.1706
20748SOL    HW265138   4.000   4.097   0.105  0.5694  0.8193  0.2649
20749SOL     OW65139   6.621   7.777   5.066 -0.4407 -0.3208  0.2881
20749SOL    HW165140   6.629   7.701   5.123 -0.7036 -0.5866 -0.0311
20749SOL    HW265141   6.540   7.820   5.095  0.3238  0.5204  1.2794
20750SOL     OW65142   8.550   9.500   4.167  0.1188 -0.0981  0.1387
20750SOL    HW165143   8.508   9.569   4.219 -1.8110 -1.0528 -0.0795
20750SOL    HW265144   8.485   9.431   4.162  1.3210 -1.1861 -1.2232
20751SOL     OW65145   8.859   0.509   4.664  0.4339 -0.1484  0.8169
20751SOL    HW165146   8.831   0.449   4.594  1.1596 -0.1439  0.5201
20751SOL    HW265147   8.930   0.560   4.626 -1.1373  1.9625  0.5818
20752SOL     OW65148   0.163   4.006   2.589  0.8149 -0.4699  0.0970
20752SOL    HW165149   0.108   3.969   2.521 -1.2077  0.6900  0.9955
20752SOL    HW265150   0.168   4.100   2.569  1.9469 -0.4430  0.4002
20753SOL     OW65151   4.367   1.604   1.167 -0.5916  0.2638 -0.4299
20753SOL    HW165152   4.347   1.534   1.105 -0.3944  0.3358 -0.5768
20753SOL    HW265153   4.287   1.656   1.172 -0.4344  0.5749 -1.0410
20754SOL     OW65154   6.696   7.611   6.133 -0.0588  0.1607  0.1416
20754SOL    HW165155   6.740   7.667   6.070 -1.8231 -0.3612 -1.6856
20754SOL    HW265156   6.623   7.573   6.084 -2.1777  0.5150  2.7984
20755SOL     OW65157   8.548  10.219   3.157  0.2299  0.7943  0.0474
20755SOL    HW165158   8.576  10.283   3.092  0.4471  0.2025 -0.4562
20755SOL    HW265159   8.460  10.192   3.129 -0.5515  2.0474  1.1698
20756SOL     OW65160   7.812   1.270   2.018  0.8018  0.0557  0.3140
20756SOL    HW165161   7.827   1.203   1.952 -1.6223 -0.3661  0.0959
20756SOL    HW265162   7.738   1.320   1.985  1.3977  1.7043  1.3483
20757SOL     OW65163   2.311   7.736   9.248  0.3066  0.1034 -0.3197
20757SOL    HW165164   2.335   7.706   9.336 -1.4487  3.1778  1.3476
20757SOL    HW265165   2.216   7.740   9.249  0.2882  0.8576 -2.1411
20758SOL     OW65166   9.693   9.650   1.197  0.2408  0.0366 -0.3832
20758SOL    HW165167   9.756   9.714   1.230  1.4516  0.1457 -2.6852
20758SOL    HW265168   9.693   9.663   1.102  0.8412 -3.5421 -1.0484
20759SOL     OW65169   4.535   0.359  10.274  0.4411 -0.1792  0.4367
20759SOL    HW165170   4.611   0.335  10.327 -0.6760 -0.7579  1.8570
20759SOL    HW265171   4.522   0.452  10.291  0.1825 -0.3277  1.0923
20760SOL     OW65172   0.260   0.221   3.381 -0.0466  0.4677  0.3522
20760SOL    HW165173   0.292   0.242   3.469 -0.4592  3.7790 -0.1619
20760SOL    HW265174   0.307   0.280   3.323 -0.1471 -1.2969 -1.6599
20761SOL     OW65175   4.301   6.827   7.861  0.0972  0.0068 -0.2607
20761SOL    HW165176   4.386   6.845   7.902 -0.4043 -1.2011  1.4268
20761SOL    HW265177   4.317   6.749   7.808  0.3531  0.5961 -1.0650
20762SOL     OW65178   3.355   2.337  10.146 -0.4277 -0.3134  0.6873
20762SOL    HW165179   3.399   2.387  10.215 -1.4980 -0.5300  1.5472
20762SOL    HW265180   3.344   2.400  10.074 -1.2938  0.5742  1.5585
20763SOL     OW65181   6.709   6.837   9.290  0.3111  0.3130 -0.4077
20763SOL    HW165182   6.764   6.894   9.342  1.5827 -0.4255 -0.9107
20763SOL    HW265183   6.725   6.863   9.199  0.0049 -0.0681 -0.5771
20764SOL     OW65184   9.856   9.440   9.369  0.4171  0.2387  0.3599
20764SOL    HW165185   9.825   9.425   9.458  0.9165  0.2400  0.5382
20764SOL    HW265186   9.886   9.531   9.369 -0.4762  0.5416 -0.0814
20765SOL     OW65187   7.486   7.143   6.270  0.2246 -0.3781 -0.0231
20765SOL    HW165188   7.497   7.134   6.365 -0.2470 -0.0222  0.0706
20765SOL    HW265189   7.405   7.098   6.250 -1.0846  1.7374  0.1557
20766SOL     OW65190   7.862   7.638   9.546 -0.1782  1.0435  0.0163
20766SOL    HW165191   7.956   7.620   9.549 -0.3722  0.0599  0.6923
20766SOL    HW265192   7.825   7.568   9.493 -0.8645 -0.2803  2.1310
20767SOL     OW65193   4.407   1.812   4.229  0.4209 -0.0769 -0.2215
20767SOL    HW165194   4.500   1.833   4.227  0.5551 -0.6897 -0.6143
20767SOL    HW265195   4.363   1.894   4.204  0.8698  0.1091 -0.4029
20768SOL     OW65196   5.310   4.791   5.481 -0.8071 -0.4500 -0.2160
20768SOL    HW165197   5.305   4.873   5.531  1.1262  0.3701 -1.2662
20768SOL    HW265198   5.236   4.794   5.421 -1.9231 -0.4562  1.1066
20769SOL     OW65199   7.715   7.619   0.105  0.1582 -0.2320 -0.3121
20769SOL    HW165200   7.750   7.667   0.180  0.2600 -1.6690  0.5957
20769SOL    HW265201   7.787   7.615   0.043  1.4692 -2.4351  1.1930
20770SOL     OW65202   4.548   3.338   4.942  0.0085 -0.7670 -0.0439
20770SOL    HW165203   4.537   3.424   4.982 -0.8038 -0.7178 -0.3630
20770SOL    HW265204   4.541   3.276   5.015  0.4021 -0.5799  0.1560
20771SOL     OW65205   3.819   2.714   9.934 -0.6060  0.3361  0.3308
20771SOL    HW165206   3.888   2.668   9.884 -1.3133 -1.1082  0.6284
20771SOL    HW265207   3.739   2.666   9.914 -1.3588  1.3479  0.8331
20772SOL     OW65208   7.516  10.641   1.809 -0.5084 -0.4769 -0.4334
20772SOL    HW165209   7.516  10.696   1.887  1.9169 -1.6023  0.4637
20772SOL    HW265210   7.425  10.612   1.800 -1.1829  1.0807  0.9230
20773SOL     OW65211   9.747   0.207   7.042 -0.3810 -0.3135 -0.6433
20773SOL    HW165212   9.827   0.159   7.066 -0.0832  0.7759  0.6590
20773SOL    HW265213   9.777   0.296   7.025 -0.7582 -0.7055 -4.1359
20774SOL     OW65214   1.435   6.213   4.245  0.3351 -0.2900 -0.4990
20774SOL    HW165215   1.358   6.242   4.196 -1.7580 -1.3367  1.9509
20774SOL    HW265216   1.478   6.295   4.271 -1.2571  0.4408 -0.0118
20775SOL     OW65217   6.084   0.911   3.285 -0.4405 -0.0253  0.2415
20775SOL    HW165218   6.044   0.996   3.266  1.3063  1.1184  1.4764
20775SOL    HW265219   6.094   0.870   3.200  0.1331  1.6847 -0.5505
20776SOL     OW65220  10.410   7.149   8.873 -0.4463  0.2745 -0.1129
20776SOL    HW165221  10.372   7.230   8.907  0.8853  1.1826 -0.6748
20776SOL    HW265222  10.409   7.160   8.778 -0.6399 -0.5675 -0.2132
20777SOL     OW65223   8.921   2.099   5.290  0.0944  0.1664  0.3820
20777SOL    HW165224   8.970   2.170   5.250  0.7466 -0.0299  0.8172
20777SOL    HW265225   8.924   2.116   5.384  3.3319 -2.2455  0.8933
20778SOL     OW65226   3.998   3.085   0.720  0.4206 -0.1660 -0.1655
20778SOL    HW165227   4.046   3.099   0.801  1.1437  0.7663 -0.7223
20778SOL    HW265228   4.012   2.992   0.699  1.7504  0.0025 -0.1395
20779SOL     OW65229   5.622   1.120   6.807  0.1300  1.1881 -1.0708
20779SOL    HW165230   5.591   1.167   6.885  0.6143  0.9959 -0.7527
20779SOL    HW265231   5.679   1.051   6.842 -0.3710  0.5202 -1.5455
20780SOL     OW65232  10.787   3.454   5.447  0.4436 -0.3107 -0.6726
20780SOL    HW165233  10.782   3.527   5.509 -0.2015 -0.4904 -0.5078
20780SOL    HW265234  10.697   3.441   5.418 -0.0788 -3.0363  1.6708
20781SOL     OW65235   2.006   9.705   8.065 -0.1124  0.2828  0.2065
20781SOL    HW165236   2.052   9.760   8.002 -1.3949  0.4646 -0.5878
20781SOL    HW265237   2.075   9.650   8.103  0.5803 -0.3736 -1.8844
20782SOL     OW65238   2.225   4.409   0.133 -0.0171  0.8070  0.1449
20782SOL    HW165239   2.238   4.460   0.213  0.0635  2.1356 -0.6914
20782SOL    HW265240   2.314   4.389   0.103 -0.0440 -0.6616  0.9595
20783SOL     OW65241   1.756   7.328   5.469 -0.0361 -0.2120  0.1197
20783SOL    HW165242   1.700   7.338   5.392  0.9258 -0.0153 -0.5671
20783SOL    HW265243   1.798   7.413   5.480  0.3269 -0.4300  0.4763
20784SOL     OW65244   7.535   9.713   2.051  0.1688 -0.5388  0.2075
20784SOL    HW165245   7.535   9.807   2.068  2.3179 -0.2808 -0.8519
20784SOL    HW265246   7.568   9.674   2.132  1.1271 -0.1827  0.0021
20785SOL     OW65247   8.947   1.771   1.960  0.0304 -0.2756 -0.4374
20785SOL    HW165248   8.866   1.727   1.984 -0.4855  1.1418  0.5589
20785SOL    HW265249   8.921   1.839   1.897  0.4092  0.2291 -0.0677
20786SOL     OW65250   6.431   7.365   5.462  0.2836 -0.2598  0.0580
20786SOL    HW165251   6.414   7.272   5.479 -0.4553 -0.0045  0.7611
20786SOL    HW265252   6.379   7.384   5.384 -0.0310 -0.2972  0.2561
20787SOL     OW65253  10.690   0.214   3.576  0.3624  0.5367  0.3832
20787SOL    HW165254  10.634   0.209   3.654  0.4091  0.7478  0.4302
20787SOL    HW265255  10.662   0.295   3.532  0.8488  0.8100  0.5733
20788SOL     OW65256   8.398   3.310   2.996 -0.0324  0.3406  0.1117
20788SOL    HW165257   8.484   3.351   3.009  0.8417 -1.1591 -0.6773
20788SOL    HW265258   8.379   3.266   3.079 -0.0763  0.7259  0.3083
20789SOL     OW65259   5.961   3.505   4.954 -0.6100  0.0501  0.2985
20789SOL    HW165260   5.999   3.464   5.032 -1.4775 -0.9999  0.1983
20789SOL    HW265261   5.874   3.466   4.946 -1.4343  1.8309  0.0810
20790SOL     OW65262   7.310   1.511   1.076 -0.5997 -0.0272  0.9719
20790SOL    HW165263   7.245   1.459   1.028 -0.5213 -0.4622  1.3260
20790SOL    HW265264   7.289   1.494   1.168 -0.2368  0.1508  1.0873
20791SOL     OW65265   7.611   5.254   1.679  0.2327 -0.3713 -0.1347
20791SOL    HW165266   7.665   5.333   1.688  0.6739 -0.6226 -0.5507
20791SOL    HW265267   7.583   5.234   1.768 -0.0095  0.3416 -0.0420
20792SOL     OW65268  10.082   1.332   8.860  0.3576  0.1875  0.4465
20792SOL    HW165269  10.038   1.384   8.926  0.2968 -0.8981  1.2861
20792SOL    HW265270  10.162   1.381   8.840 -0.0193  0.9257  0.7198
20793SOL     OW65271   4.012  10.260   0.682 -0.9049  0.3101 -0.3605
20793SOL    HW165272   4.082  10.300   0.630 -1.0148 -0.0667 -0.8128
20793SOL    HW265273   3.952  10.332   0.702  0.6400  1.0816  1.8112
20794SOL     OW65274   0.142   5.304   6.716  0.0469 -0.1181 -0.6412
20794SOL    HW165275   0.218   5.272   6.765 -0.2170  0.5738  0.2458
20794SOL    HW265276   0.109   5.227   6.671  0.1828 -0.8375  0.4431
20795SOL     OW65277   4.881   1.444   7.229  0.2027  0.0565  0.2940
20795SOL    HW165278   4.801   1.411   7.270  0.1250  0.7956  0.7617
20795SOL    HW265279   4.941   1.460   7.302  0.0968  1.3017  0.1192
20796SOL     OW65280  10.461   7.150   7.144  0.9653 -0.3298 -0.2275
20796SOL    HW165281  10.418   7.108   7.069  0.9337 -0.6732 -0.0197
20796SOL    HW265282  10.553   7.125   7.136  1.0337 -0.0334 -0.3750
20797SOL     OW65283   1.595  10.122   2.960  0.7667 -0.8136 -0.3667
20797SOL    HW165284   1.565  10.181   2.891  0.9167  1.5831  1.5266
20797SOL    HW265285   1.668  10.075   2.920 -0.6431 -1.3207 -2.5958
20798SOL     OW65286   9.334   9.525   9.412  0.0676 -0.1416 -0.0733
20798SOL    HW165287   9.322   9.545   9.505  1.6475  0.2507  0.0910
20798SOL    HW265288   9.264   9.572   9.368  0.3373  1.1503  0.8022
20799SOL     OW65289   0.084   6.398   3.208 -0.1353  0.1581 -0.1328
20799SOL    HW165290   0.066   6.490   3.187  3.0372  1.4889  2.2253
20799SOL    HW265291   0.159   6.375   3.153  0.8086 -0.0742  1.2061
20800SOL     OW65292   9.733   0.947  10.154 -0.5599  0.1719 -0.1479
20800SOL    HW165293   9.653   0.988  10.121 -0.9106 -1.4320 -1.4192
20800SOL    HW265294   9.720   0.853  10.140  1.5912 -0.1321 -0.5132
20801SOL     OW65295  10.257   8.243   3.558 -0.3982 -0.7035 -0.1594
20801SOL    HW165296  10.171   8.269   3.589 -0.2885 -3.2009  2.7067
20801SOL    HW265297  10.239   8.197   3.476 -1.5112  0.4719 -0.6158
20802SOL     OW65298   0.527   0.470   6.147 -0.2144 -0.6775 -0.0449
20802SOL    HW165299   0.449   0.448   6.095  0.0097 -0.7476 -0.3509
20802SOL    HW265300   0.600   0.433   6.097 -0.2031 -3.4015  1.7781
20803SOL     OW65301   6.519   3.373   9.610 -0.0637  0.1224 -0.4830
20803SOL    HW165302   6.428   3.383   9.582 -0.1795 -0.6601 -0.4004
20803SOL    HW265303   6.551   3.463   9.617 -0.8675  0.4141 -0.3690
20804SOL     OW65304   7.096  10.207   2.019  0.6612  0.0594  0.4337
20804SOL    HW165305   7.022  10.179   2.073  1.4161  2.0877  2.6639
20804SOL    HW265306   7.170  10.155   2.051  0.6632 -0.3973 -0.2904
20805SOL     OW65307   9.370   6.889   8.007  0.1665 -0.3399  0.5753
20805SOL    HW165308   9.394   6.930   8.089  0.6411  1.9850 -0.6455
20805SOL    HW265309   9.307   6.949   7.967 -0.6002 -1.7639 -0.4522
20806SOL     OW65310   7.550  10.593   8.899 -0.0518  0.0860 -0.4074
20806SOL    HW165311   7.540  10.578   8.993 -1.2839  0.2259 -0.5058
20806SOL    HW265312   7.644  10.584   8.884  0.3200  1.2370  1.0289
20807SOL     OW65313   0.177   1.227   7.846  0.2127  0.2796 -0.3538
20807SOL    HW165314   0.213   1.241   7.934  2.4177  0.0190 -1.1658
20807SOL    HW265315   0.139   1.311   7.822  1.1776  0.8758  0.1585
20808SOL     OW65316   4.987   1.070   2.333 -0.2399 -0.1802 -0.3152
20808SOL    HW165317   4.944   1.092   2.415 -1.7059  0.7420 -1.2745
20808SOL    HW265318   4.948   1.129   2.269  1.4869 -0.2730 -1.5306
20809SOL     OW65319   1.232   8.676   1.235  0.2896  0.1784  0.3587
20809SOL    HW165320   1.216   8.636   1.150 -0.1883  1.4345 -0.1695
20809SOL    HW265321   1.202   8.611   1.299 -2.4420  0.4855 -0.5021
20810SOL     OW65322   1.978   6.736   0.598  0.0186  0.2287  0.3812
20810SOL    HW165323   1.964   6.708   0.689 -2.0300 -2.1495 -0.5540
20810SOL    HW265324   2.051   6.683   0.568 -0.0708  0.1538  0.2968
20811SOL     OW65325   8.961   2.656   8.509  0.3571 -0.4265  0.0493
20811SOL    HW165326   9.013   2.622   8.435 -1.0490 -0.2120 -1.0723
20811SOL    HW265327   8.941   2.746   8.485  0.6099 -0.0719  1.1188
20812SOL     OW65328   5.665   7.602   7.712 -0.2583  0.3205 -0.0578
20812SOL    HW165329   5.592   7.618   7.772 -0.3893  0.0981 -0.1550
20812SOL    HW265330   5.717   7.535   7.756  0.3219  1.0452  0.3769
20813SOL     OW65331   1.112  10.680   4.864 -0.2102  0.2394 -0.3605
20813SOL    HW165332   1.101  10.725   4.948 -1.4588 -0.1162 -0.3222
20813SOL    HW265333   1.183  10.617   4.880 -1.1631 -0.5940  0.7622
20814SOL     OW65334   0.371  10.760   7.237  0.7694  0.5555  0.3066
20814SOL    HW165335   0.285  10.718   7.245  0.9474  0.3492  1.2364
20814SOL    HW265336   0.422  10.724   7.309  0.6645  3.0367  1.7464
20815SOL     OW65337   0.005   5.501   1.914 -0.1215 -0.2225 -0.3378
20815SOL    HW165338   0.075   5.501   1.980  0.2156 -0.6937 -0.6859
20815SOL    HW265339   0.050   5.520   1.832 -0.8497  2.6962 -0.1678
20816SOL     OW65340   4.052   5.848   6.333 -0.3099  0.3853  0.0062
20816SOL    HW165341   4.006   5.904   6.270 -1.0347 -0.2195 -0.0209
20816SOL    HW265342   4.094   5.782   6.278  0.3860  0.7799  0.0521
20817SOL     OW65343   5.307   9.656  10.319 -0.6302 -0.2754  0.4293
20817SOL    HW165344   5.242   9.705  10.269 -0.6986 -2.1398 -1.4428
20817SOL    HW265345   5.304   9.567  10.284  1.8469 -0.8287  1.3375
20818SOL     OW65346   5.526   7.663   1.584  0.0852 -0.5971  0.1512
20818SOL    HW165347   5.537   7.696   1.495  0.9442  1.5427  0.9882
20818SOL    HW265348   5.437   7.628   1.586 -0.3659  0.3730 -1.2294
20819SOL     OW65349  10.718  10.050   0.809  0.0757 -0.2092  0.0546
20819SOL    HW165350  10.641  10.056   0.752  0.2329 -0.6420 -0.2102
20819SOL    HW265351  10.701  10.113   0.879 -0.8417 -0.8023  0.3818
20820SOL     OW65352  10.240  10.457   8.265 -0.0420 -0.0572  0.1157
20820SOL    HW165353  10.190  10.426   8.190 -0.1170  0.6032 -0.1155
20820SOL    HW265354  10.325  10.481   8.229  0.5197 -1.3420  0.5364
20821SOL     OW65355  10.005   1.126   7.614 -0.0580 -0.2665 -0.6587
20821SOL    HW165356   9.969   1.068   7.547  0.9692 -0.7128 -0.8472
20821SOL    HW265357  10.091   1.152   7.580  0.4903 -0.5137  0.4780
20822SOL     OW65358   4.043   6.063   8.241 -0.4931 -0.9695 -0.1998
20822SOL    HW165359   4.067   6.119   8.315 -1.3393  0.4854 -0.9704
20822SOL    HW265360   3.981   6.116   8.190 -0.6611 -2.2924 -1.4425
20823SOL     OW65361   2.490   7.353   8.442  0.3272 -0.7152 -0.5642
20823SOL    HW165362   2.416   7.397   8.400 -0.0008 -1.7457 -1.1082
20823SOL    HW265363   2.456   7.322   8.526  0.3327 -0.6207 -0.5268
20824SOL     OW65364   8.186   0.649   9.176 -0.8071 -0.2652  0.5341
20824SOL    HW165365   8.094   0.668   9.196 -0.2635  0.9612  2.1034
20824SOL    HW265366   8.194   0.555   9.190 -2.2503 -0.7753 -1.6240
20825SOL     OW65367   0.274   7.804   8.492  0.1534 -0.6267 -0.3579
20825SOL    HW165368   0.320   7.877   8.535 -0.9620 -0.9824  1.5813
20825SOL    HW265369   0.209   7.846   8.436  1.7851 -0.1368 -1.9587
20826SOL     OW65370   7.793   0.498   2.180  0.0677  0.3533  0.0374
20826SOL    HW165371   7.866   0.537   2.131  1.2193 -1.1915  0.4369
20826SOL    HW265372   7.835   0.436   2.239 -1.5071  0.3152  1.1595
20827SOL     OW65373   9.526   7.334   1.039  0.0412  0.0755  0.3067
20827SOL    HW165374   9.513   7.271   1.110 -2.3723  0.1209 -0.0354
20827SOL    HW265375   9.556   7.414   1.083 -0.7351 -0.1152  1.2153
20828SOL     OW65376   1.862   3.696  10.774 -0.4766 -0.2576 -0.0380
20828SOL    HW165377   1.815   3.780  10.776  1.0953  0.6841  2.8432
20828SOL    HW265378   1.802   3.636  10.729 -2.2007  2.0540 -1.0554
20829SOL     OW65379   5.392   7.129   8.398  0.0889 -0.2726 -0.0191
20829SOL    HW165380   5.315   7.080   8.426  0.1739 -1.1831 -1.2741
20829SOL    HW265381   5.462   7.064   8.396  0.7452  0.4004  0.4374
20830SOL     OW65382   3.666   9.085   1.064 -0.3993  0.7988  0.0018
20830SOL    HW165383   3.612   9.074   1.142  0.7910  0.3943  0.7956
20830SOL    HW265384   3.749   9.118   1.097  0.1196  0.6179 -1.0931
20831SOL     OW65385   8.842   6.650   2.547  0.5190 -0.1796  0.2208
20831SOL    HW165386   8.803   6.585   2.606  0.7868  0.7627  1.4728
20831SOL    HW265387   8.892   6.708   2.604  0.3708  1.0836 -0.8682
20832SOL     OW65388   9.407   5.621   4.319  0.0900  0.0938  0.6028
20832SOL    HW165389   9.332   5.563   4.307 -1.3171  1.8342  0.5734
20832SOL    HW265390   9.450   5.622   4.234 -0.2662 -0.3711  0.4135
20833SOL     OW65391   3.486   4.545   6.358 -0.2005  0.3852 -0.3333
20833SOL    HW165392   3.508   4.495   6.280 -1.7653 -1.8949  0.5793
20833SOL    HW265393   3.391   4.555   6.355 -0.0064  3.2187 -0.3385
20834SOL     OW65394   2.470   1.935   6.007  0.4487  0.2798 -0.0748
20834SOL    HW165395   2.389   1.934   6.057  0.8938 -1.1224  0.6848
20834SOL    HW265396   2.524   2.001   6.050 -0.4350  1.5711 -0.8835
20835SOL     OW65397   7.860   9.300   8.583 -0.1187 -0.1378  0.0805
20835SOL    HW165398   7.881   9.217   8.628  1.8480  0.8126  1.0638
20835SOL    HW265399   7.870   9.367   8.651  0.1074  1.0787 -1.1135
20836SOL     OW65400   6.845   5.734   8.526  0.1033  0.1851 -0.6156
20836SOL    HW165401   6.792   5.667   8.483 -0.5962  0.6200 -0.4476
20836SOL    HW265402   6.878   5.788   8.454  1.1452 -0.6588 -0.7998
20837SOL     OW65403   2.902   1.883   2.996  0.7687 -0.3372 -0.3868
20837SOL    HW165404   2.931   1.820   2.931  0.6625 -0.9447  0.1481
20837SOL    HW265405   2.823   1.844   3.034  0.3366  0.4075 -0.4861
20838SOL     OW65406   7.080   4.969  10.640 -0.1411 -0.0683  0.5399
20838SOL    HW165407   7.105   5.016  10.560  0.6684 -0.0468  0.7946
20838SOL    HW265408   7.103   5.028  10.711 -2.4619  0.6520  0.7685
20839SOL     OW65409   9.206   5.478   9.758 -0.4430  0.6166 -0.3424
20839SOL    HW165410   9.193   5.453   9.849  0.6590  1.5236  0.0815
20839SOL    HW265411   9.145   5.551   9.744  1.3515  2.3695  0.5402
20840SOL     OW65412   9.296   1.502   0.106  0.3176 -0.2374 -0.1400
20840SOL    HW165413   9.331   1.547   0.183  1.3803 -0.9839 -0.1613
20840SOL    HW265414   9.205   1.483   0.129  1.2563 -2.7196  2.0594
20841SOL     OW65415   5.920   5.587   8.427 -0.1270  0.9292  0.0299
20841SOL    HW165416   5.832   5.603   8.461 -0.5515  1.6491 -1.3525
20841SOL    HW265417   5.920   5.495   8.401 -0.1992  0.7135  0.7794
20842SOL     OW65418  10.571  10.485   4.791 -0.2883  0.0249  0.5727
20842SOL    HW165419  10.547  10.534   4.870 -0.9696 -0.2165  0.5279
20842SOL    HW265420  10.623  10.411   4.824 -2.0848 -1.0996  1.0201
20843SOL     OW65421   7.229   7.018   1.779  0.0597 -0.2673  0.2219
20843SOL    HW165422   7.321   7.018   1.752 -0.0633 -0.4784 -0.2028
20843SOL    HW265423   7.187   7.078   1.717 -0.3095 -1.1103 -0.3692
20844SOL     OW65424   6.516   3.784   5.176 -0.1061  0.5805 -0.2672
20844SOL    HW165425   6.455   3.839   5.226  0.1191  1.3812 -0.8516
20844SOL    HW265426   6.478   3.696   5.180 -0.4333  0.7571  0.7465
20845SOL     OW65427   4.207   2.178   2.312  0.1011 -0.3996 -0.2595
20845SOL    HW165428   4.242   2.102   2.266  3.4720  1.6179 -1.3880
20845SOL    HW265429   4.175   2.236   2.243 -0.1921  0.2311  0.3843
20846SOL     OW65430   2.105   4.873   6.068  0.4431 -0.2147  0.3276
20846SOL    HW165431   2.110   4.948   6.008  1.8814 -1.3131 -1.0024
20846SOL    HW265432   2.186   4.878   6.119 -0.1917 -0.0018  1.3324
20847SOL     OW65433  10.047   3.902   6.389  0.0222  0.0283 -0.1166
20847SOL    HW165434  10.047   3.972   6.325 -0.6955  1.3322  1.2336
20847SOL    HW265435  10.100   3.936   6.462  2.0879 -1.9994 -0.5702
20848SOL     OW65436   7.653   7.236  10.354  0.0264  0.1106 -0.0044
20848SOL    HW165437   7.642   7.141  10.358  1.1438  0.0067  1.5486
20848SOL    HW265438   7.569   7.271  10.382 -0.5569 -0.4001 -1.0787
20849SOL     OW65439   1.308   3.189   3.179  0.3094  0.3034 -0.0670
20849SOL    HW165440   1.353   3.228   3.254  1.2589  0.1034 -0.5281
20849SOL    HW265441   1.299   3.097   3.202  0.3494  0.2967 -0.0777
20850SOL     OW65442   4.955   7.708   7.421  0.1119 -0.1457 -0.3534
20850SOL    HW165443   4.968   7.615   7.402 -0.1064 -0.0616 -0.9151
20850SOL    HW265444   5.041   7.737   7.452  0.4669 -0.3009 -1.1519
20851SOL     OW65445  10.737   1.965   8.555 -0.3893  0.3422  0.0278
20851SOL    HW165446  10.730   1.940   8.463 -2.4567  1.3324 -0.1476
20851SOL    HW265447  10.803   2.034   8.556  1.1719 -1.0871 -0.3502
20852SOL     OW65448   1.038   5.465  10.367 -1.2657  0.1659 -0.5292
20852SOL    HW165449   1.054   5.417  10.448  1.1741 -0.1097 -1.1048
20852SOL    HW265450   1.038   5.557  10.392 -1.3232  0.0522 -0.1103
20853SOL     OW65451   9.129   2.622   6.514 -0.0764  0.1255 -0.3616
20853SOL    HW165452   9.105   2.706   6.476 -0.8714 -0.1761 -0.5449
20853SOL    HW265453   9.192   2.585   6.452  0.0445  0.4473 -0.4330
20854SOL     OW65454   7.771   1.485   9.417  0.3537  0.1942 -0.4456
20854SOL    HW165455   7.722   1.494   9.336 -1.5349  0.9641  0.7241
20854SOL    HW265456   7.713   1.520   9.485  1.6234 -0.9324  1.3256
20855SOL     OW65457   9.288   7.644   8.953  0.3184  0.2089 -0.3933
20855SOL    HW165458   9.226   7.571   8.947 -2.7643  2.5031  1.0009
20855SOL    HW265459   9.261   7.704   8.883  0.8419  1.3801  0.3843
20856SOL     OW65460   1.900   6.912   2.865  1.1756 -0.1569  0.2708
20856SOL    HW165461   1.952   6.993   2.871  0.4913  0.3110  0.0099
20856SOL    HW265462   1.944   6.861   2.797  1.4517  0.1100  0.2435
20857SOL     OW65463   1.721   8.133   7.857 -0.5732  0.6546  0.8401
20857SOL    HW165464   1.704   8.081   7.935  0.6281  1.8694  1.9547
20857SOL    HW265465   1.640   8.184   7.844 -0.7585  0.4806  1.3121
20858SOL     OW65466   7.106   1.941   2.312  0.0516 -0.2848 -0.8172
20858SOL    HW165467   7.097   2.012   2.249  2.4376  0.9987  0.1404
20858SOL    HW265468   7.093   1.861   2.261 -2.0035  0.7773 -2.0613
20859SOL     OW65469   5.535   8.605   3.713 -0.3951 -0.5407 -0.7593
20859SOL    HW165470   5.521   8.517   3.748 -0.4069 -1.5660 -3.1554
20859SOL    HW265471   5.467   8.615   3.645 -0.2601  1.2384 -0.6814
20860SOL     OW65472   3.988   2.397   8.935  0.6476  0.4134 -0.2968
20860SOL    HW165473   4.041   2.336   8.988  1.2187  1.4134  0.3359
20860SOL    HW265474   4.010   2.376   8.845  1.2016  0.0027 -0.0731
20861SOL     OW65475   9.945   0.202   0.349 -0.0446 -0.0696 -0.4240
20861SOL    HW165476  10.003   0.183   0.422  1.4109  0.3375 -1.4270
20861SOL    HW265477   9.906   0.287   0.371  1.6699  0.8727 -0.8483
20862SOL     OW65478   4.363   5.775   1.646  0.4704  0.4010 -0.0330
20862SOL    HW165479   4.307   5.697   1.644 -1.5270  1.7173  1.1488
20862SOL    HW265480   4.449   5.743   1.618 -0.7889 -1.7560 -1.7973
20863SOL     OW65481   4.683   2.205   0.845 -0.3508  0.5067 -0.4402
20863SOL    HW165482   4.639   2.239   0.767 -0.3848  1.0035 -0.2085
20863SOL    HW265483   4.611   2.181   0.904 -0.3215  0.8471 -0.2619
20864SOL     OW65484   8.633   8.558   1.965 -0.4844 -0.2602  0.3514
20864SOL    HW165485   8.608   8.527   1.878  1.5962  0.8413 -0.7060
20864SOL    HW265486   8.597   8.647   1.970  1.2926  0.5493 -0.3614
20865SOL     OW65487  10.425   7.486  10.487 -0.2567 -0.1435  0.4638
20865SOL    HW165488  10.451   7.576  10.468 -2.0323  0.0861 -1.1795
20865SOL    HW265489  10.330   7.488  10.487 -0.3374 -1.7565  1.9451
20866SOL     OW65490   9.498   3.491   6.528 -0.5051 -0.3537  0.2155
20866SOL    HW165491   9.513   3.488   6.433 -0.8597 -0.9008  0.1727
20866SOL    HW265492   9.583   3.515   6.565 -0.6703  1.1588 -0.3233
20867SOL     OW65493  10.090   9.703   0.734 -0.6742  0.2888 -0.0963
20867SOL    HW165494  10.153   9.636   0.707  0.1648  1.7703 -2.0285
20867SOL    HW265495  10.066   9.747   0.653 -3.1699  0.6972  0.7814
20868SOL     OW65496   7.342   8.432   7.632 -0.2046 -0.3711  0.0649
20868SOL    HW165497   7.257   8.419   7.674 -0.2641  0.2570  0.1587
20868SOL    HW265498   7.382   8.345   7.631 -1.0486 -0.7640 -0.4322
20869SOL     OW65499   2.457   3.877   0.082  0.0054  0.1092  0.1284
20869SOL    HW165500   2.474   3.791   0.044 -0.2188 -0.6673  1.7064
20869SOL    HW265501   2.389   3.915   0.026 -0.9860 -1.3776  0.2820
20870SOL     OW65502   5.879  10.131   7.468  0.5377  0.0878 -0.4750
20870SOL    HW165503   5.812  10.175   7.416  0.5644 -0.5144 -1.0370
20870SOL    HW265504   5.887  10.184   7.547 -0.3460  0.3722 -0.5625
20871SOL     OW65505   0.270   4.969   6.321 -0.6411 -0.7556  0.4174
20871SOL    HW165506   0.345   4.935   6.370  1.4768  1.0272 -1.3612
20871SOL    HW265507   0.263   4.913   6.244 -1.6279 -1.3214  0.8921
20872SOL     OW65508   8.534   9.308   8.561  0.2368 -0.5195 -0.9303
20872SOL    HW165509   8.581   9.224   8.565  0.1270 -0.5747 -0.8180
20872SOL    HW265510   8.566   9.357   8.636 -0.3202 -0.7813 -0.5223
20873SOL     OW65511   0.663   0.096   9.445 -0.1302 -0.1499  0.1783
20873SOL    HW165512   0.658   0.000   9.443 -1.7787 -0.1842  2.0383
20873SOL    HW265513   0.630   0.124   9.360 -0.0025 -1.2242 -0.2388
20874SOL     OW65514   3.762   9.545   4.047  0.6234  0.0591  0.6756
20874SOL    HW165515   3.803   9.631   4.048 -1.2246  0.9797  1.6939
20874SOL    HW265516   3.749   9.525   3.954  1.5502  0.6252  0.4185
20875SOL     OW65517   5.464   8.237   2.387  1.0912  0.9438  0.3243
20875SOL    HW165518   5.427   8.267   2.304  0.9930 -1.2790 -0.5146
20875SOL    HW265519   5.546   8.286   2.396  0.3344  2.3641 -0.2534
20876SOL     OW65520   6.234   5.708   0.975  0.2819  0.3879 -0.4719
20876SOL    HW165521   6.253   5.800   0.955  2.0024 -0.0846 -1.1737
20876SOL    HW265522   6.300   5.684   1.040 -0.4598 -0.2392  0.0650
20877SOL     OW65523   4.032   4.117   7.369  0.3146  0.0569 -0.3510
20877SOL    HW165524   4.055   4.161   7.287  0.3892 -0.0833 -0.4050
20877SOL    HW265525   3.940   4.092   7.358 -0.5025  2.3300  0.6107
20878SOL     OW65526   2.510  10.056   9.431 -0.5518  0.1281 -0.6137
20878SOL    HW165527   2.602  10.055   9.406 -0.0353 -0.2518  1.1571
20878SOL    HW265528   2.464  10.089   9.354  1.0269  0.0403 -1.6242
20879SOL     OW65529   5.371   3.715   0.442  0.0765  0.0544 -0.5656
20879SOL    HW165530   5.298   3.736   0.384  1.0527 -1.2565 -2.4170
20879SOL    HW265531   5.343   3.636   0.488  0.7942 -1.3832 -2.4261
20880SOL     OW65532   0.588   2.541   5.812  0.3846  0.2369  0.3013
20880SOL    HW165533   0.683   2.529   5.817  0.4180  0.5594  0.4942
20880SOL    HW265534   0.555   2.460   5.773  0.7999  0.3786 -0.3485
20881SOL     OW65535   4.470   8.589   5.069 -0.2944  0.7764 -0.0007
20881SOL    HW165536   4.426   8.513   5.108  0.1593  0.6910  0.3424
20881SOL    HW265537   4.475   8.568   4.975 -1.0475  0.8211 -0.0622
20882SOL     OW65538   7.692   2.185   1.540  0.0883  0.2659  0.4674
20882SOL    HW165539   7.666   2.237   1.616 -1.9662  0.4591 -0.2903
20882SOL    HW265540   7.673   2.095   1.565 -0.1207  0.2806  0.3621
20883SOL     OW65541  10.122   0.435   7.491 -0.5626  0.0000 -0.8852
20883SOL    HW165542  10.192   0.455   7.554 -0.4934 -1.0255 -0.6261
20883SOL    HW265543  10.056   0.387   7.543  0.0750 -2.0100 -1.8446
20884SOL     OW65544   3.204   4.688   1.568 -0.5527 -0.3615 -0.0739
20884SOL    HW165545   3.131   4.750   1.569  0.8409  1.3566  1.1504
20884SOL    HW265546   3.166   4.606   1.599 -2.0957  0.3115 -0.1033
20885SOL     OW65547   7.795   4.034   4.708  0.1644 -0.1145  0.0689
20885SOL    HW165548   7.718   4.009   4.759 -0.6464 -0.3912 -1.2326
20885SOL    HW265549   7.869   4.017   4.766 -0.7058 -0.6002  1.0720
20886SOL     OW65550  10.027   1.404  10.354  0.2252  0.0761  0.3698
20886SOL    HW165551  10.041   1.456  10.274  0.2948  0.1361  0.4214
20886SOL    HW265552  10.001   1.318  10.322  0.5058  0.0255  0.2776
20887SOL     OW65553   0.565   0.991   6.381 -0.2997 -0.5815 -0.1323
20887SOL    HW165554   0.571   0.954   6.469 -3.6711  0.3479  0.6097
20887SOL    HW265555   0.540   0.918   6.325  0.2264 -0.8286 -0.0570
20888SOL     OW65556   4.724   9.476   3.372 -0.3762 -0.1219  0.7241
20888SOL    HW165557   4.685   9.498   3.456  0.2996  0.5131  0.8811
20888SOL    HW265558   4.659   9.420   3.329 -0.4372 -1.0247  1.9471
20889SOL     OW65559   0.664   9.722   3.361  0.4701 -0.4413  0.3454
20889SOL    HW165560   0.625   9.657   3.420 -0.1938  0.1062  0.5268
20889SOL    HW265561   0.661   9.804   3.410 -1.3906  0.3263 -0.9126
20890SOL     OW65562   5.814   8.994   8.441  0.0095 -0.2285 -0.2930
20890SOL    HW165563   5.747   8.964   8.502 -0.3993  3.0598  1.0852
20890SOL    HW265564   5.895   8.954   8.472 -0.5734 -0.4329  1.0311
20891SOL     OW65565   9.491   6.463   8.613  0.5503  0.1557  0.5499
20891SOL    HW165566   9.557   6.397   8.634  1.5964  1.1454  0.4821
20891SOL    HW265567   9.541   6.535   8.574 -0.8310  0.0523 -1.5894
20892SOL     OW65568  10.316   5.718   7.068 -0.5405  0.2333 -0.0499
20892SOL    HW165569  10.313   5.641   7.126 -2.1238  1.4596  1.6114
20892SOL    HW265570  10.378   5.693   7.000  0.8191 -1.6271  1.7089
20893SOL     OW65571   7.405  10.562   7.724 -0.7026 -0.0942 -0.6866
20893SOL    HW165572   7.355  10.609   7.658  0.9710 -0.6199 -2.4239
20893SOL    HW265573   7.443  10.488   7.677  1.2398 -0.0189  0.6398
20894SOL     OW65574   8.465   6.574  10.188 -0.0235 -0.6892  0.3744
20894SOL    HW165575   8.517   6.578  10.268 -0.0242 -0.1725  0.3552
20894SOL    HW265576   8.413   6.655  10.190 -1.2975 -1.4938  0.7149
20895SOL     OW65577   4.756   7.487   8.049  0.3306  0.0410  0.2565
20895SOL    HW165578   4.835   7.438   8.028  0.8460  0.6311  0.7563
20895SOL    HW265579   4.692   7.421   8.075  1.0036 -0.3669  0.9039
20896SOL     OW65580   9.910   5.409   6.299 -0.0336 -0.0634 -0.1133
20896SOL    HW165581   9.939   5.496   6.271  1.2837 -0.8215 -1.2645
20896SOL    HW265582   9.901   5.360   6.217 -0.4885 -1.0971  0.5395
20897SOL     OW65583   7.839   0.473   5.127 -0.0198 -0.3528  0.1924
20897SOL    HW165584   7.837   0.535   5.200 -0.3707  1.1759 -1.0663
20897SOL    HW265585   7.929   0.474   5.096 -0.3329  0.6677 -0.7386
20898SOL     OW65586   1.976   7.941  10.220  0.0001 -0.0549  0.7025
20898SOL    HW165587   1.974   7.847  10.237  0.7295  0.4909  4.7882
20898SOL    HW265588   1.894   7.974  10.256 -1.0217  0.8263 -2.1400
20899SOL     OW65589   6.286   4.189   3.352 -0.2721  0.1496  0.4983
20899SOL    HW165590   6.318   4.267   3.306 -1.7039  0.8787  0.6699
20899SOL    HW265591   6.238   4.140   3.285 -1.1442  0.4911  0.8578
20900SOL     OW65592   2.798   3.214   8.399  0.3316  0.0488 -0.5840
20900SOL    HW165593   2.780   3.193   8.491 -1.5791 -0.7856 -1.0975
20900SOL    HW265594   2.873   3.160   8.376 -1.4130 -2.6161 -0.4641
20901SOL     OW65595   8.462   4.901   7.583 -0.5790  0.5600  0.1479
20901SOL    HW165596   8.535   4.923   7.524  0.6743 -0.3070  1.3062
20901SOL    HW265597   8.458   4.975   7.644  1.3374 -0.6768  1.8952
20902SOL     OW65598   9.375   7.280   3.006 -0.2681 -0.3774  0.2856
20902SOL    HW165599   9.349   7.308   3.094 -0.0390 -2.1395  0.9590
20902SOL    HW265600   9.471   7.283   3.008 -0.2674  0.5949 -0.2888
20903SOL     OW65601   3.518   7.034   4.718  0.2365 -0.4620  0.2869
20903SOL    HW165602   3.507   7.123   4.753  0.2336 -0.2354 -0.2768
20903SOL    HW265603   3.523   6.979   4.796 -2.0253 -0.2526  0.6737
20904SOL     OW65604   2.694   4.994   0.711 -0.2392 -0.7228 -0.2172
20904SOL    HW165605   2.772   5.033   0.673 -1.1744  1.7196  0.1491
20904SOL    HW265606   2.621   5.032   0.662 -1.2562 -2.7300 -0.3852
20905SOL     OW65607   6.410   3.858   4.836 -0.4075 -0.0926  0.7299
20905SOL    HW165608   6.429   3.950   4.815  0.9382 -0.1147  1.7295
20905SOL    HW265609   6.360   3.863   4.918  0.7300 -0.2767  1.4558
20906SOL     OW65610   1.692   1.926   5.218  0.5517  0.3852  0.0623
20906SOL    HW165611   1.747   1.918   5.140  1.7679 -0.3164  0.9629
20906SOL    HW265612   1.743   1.981   5.278  0.5821 -0.7923  1.1607
20907SOL     OW65613   7.553   5.556   6.360 -0.0047  0.3767 -0.1515
20907SOL    HW165614   7.585   5.471   6.331  0.2114  0.2842  0.3513
20907SOL    HW265615   7.531   5.602   6.279  1.6997  0.5698 -0.5471
20908SOL     OW65616  10.733   0.101   8.470  0.2663  0.0661 -0.5521
20908SOL    HW165617  10.659   0.115   8.528 -1.1545  0.1145 -2.2972
20908SOL    HW265618  10.750   0.007   8.475  0.0808  0.0554 -0.1362
20909SOL     OW65619   1.996   8.252  10.511 -0.8297  0.2274  0.6011
20909SOL    HW165620   1.957   8.257  10.598 -1.8028  0.8489  0.1473
20909SOL    HW265621   1.965   8.169  10.475  1.5940 -1.3031  1.7391
20910SOL     OW65622  10.681   3.139   5.394 -0.5664  0.2873  0.2228
20910SOL    HW165623  10.746   3.135   5.324  0.9598 -1.6248  1.6604
20910SOL    HW265624  10.598   3.122   5.350  0.1301  0.7607 -1.3433
20911SOL     OW65625   7.385   3.487   6.636 -0.0674 -0.2729 -0.3005
20911SOL    HW165626   7.446   3.514   6.705  0.2878  0.5353 -0.9128
20911SOL    HW265627   7.435   3.424   6.584 -0.9634 -2.3808  1.2481
20912SOL     OW65628   2.587   4.108   6.704  0.1015 -0.4311 -0.1812
20912SOL    HW165629   2.633   4.028   6.730 -1.3345 -1.3634 -0.3775
20912SOL    HW265630   2.627   4.133   6.621 -0.3089 -1.7344 -0.7978
20913SOL     OW65631   7.186   7.431   4.257  0.1433  0.6496  0.3932
20913SOL    HW165632   7.271   7.422   4.215  0.5570  1.7392  0.9658
20913SOL    HW265633   7.169   7.525   4.258 -1.7946  0.3958 -1.1295
20914SOL     OW65634   9.640   4.430   4.626  0.5683 -0.0313 -0.4429
20914SOL    HW165635   9.672   4.368   4.561 -1.7850 -1.6855 -0.1493
20914SOL    HW265636   9.549   4.444   4.603 -0.0158  0.2449  1.7746
20915SOL     OW65637   9.357   1.467   8.391 -0.5077 -0.5275  0.2125
20915SOL    HW165638   9.388   1.528   8.324  0.8491 -0.3293  0.9827
20915SOL    HW265639   9.266   1.491   8.406 -0.2430  0.7381 -0.1155
20916SOL     OW65640   7.670   8.083   0.241  0.7900  0.3309  0.6026
20916SOL    HW165641   7.575   8.089   0.238  0.7803 -0.1215  0.0211
20916SOL    HW265642   7.689   8.033   0.321  0.5077 -0.3655  0.2338
20917SOL     OW65643   3.003   1.168   1.683  0.2116 -0.3664 -0.1029
20917SOL    HW165644   2.916   1.134   1.705 -0.0449  0.5125  0.2804
20917SOL    HW265645   3.061   1.092   1.692 -0.5965 -1.1091 -0.9752
20918SOL     OW65646   0.778   0.724   5.510 -0.5856  0.4831  0.1299
20918SOL    HW165647   0.735   0.801   5.548 -1.1760  0.4405 -0.4367
20918SOL    HW265648   0.742   0.650   5.559  0.7695  0.6254  1.3975
20919SOL     OW65649   0.797   0.223   5.835  0.0208 -0.1094 -0.1348
20919SOL    HW165650   0.739   0.239   5.761 -0.4910  0.6181  0.4006
20919SOL    HW265651   0.879   0.194   5.796 -0.6453 -1.0013 -0.9132
20920SOL     OW65652   0.235   2.262   3.381  0.6622 -0.2930  0.4010
20920SOL    HW165653   0.270   2.206   3.451 -1.4982 -0.8500  1.1351
20920SOL    HW265654   0.218   2.346   3.424  1.1000 -0.0244  0.0539
20921SOL     OW65655  10.214   4.849   8.333 -0.4065 -0.5981 -0.1588
20921SOL    HW165656  10.298   4.807   8.351  0.4133 -0.0430 -2.3294
20921SOL    HW265657  10.228   4.941   8.355 -1.0044 -0.7638  1.0105
20922SOL     OW65658   4.849   1.664  10.343  0.1769  0.0316  0.0889
20922SOL    HW165659   4.844   1.704  10.257  0.1695 -0.3891 -0.1075
20922SOL    HW265660   4.801   1.582  10.335  1.3643 -0.6973  0.1015
20923SOL     OW65661   9.054   1.414  10.120  0.1152 -0.2278  0.0431
20923SOL    HW165662   9.004   1.387  10.043  0.0464  0.5650 -0.1990
20923SOL    HW265663   9.144   1.386  10.100  0.4359  1.4133 -1.1026
20924SOL     OW65664   0.012   7.358   2.065 -0.0868  0.2157  0.0320
20924SOL    HW165665   0.048   7.425   2.123  0.2564  0.6859 -0.7148
20924SOL    HW265666   0.071   7.357   1.990 -2.1290  1.6925 -1.6987
20925SOL     OW65667   0.772   7.129   7.190 -0.0597 -0.4585  0.2523
20925SOL    HW165668   0.817   7.144   7.273 -0.6086 -0.0362  0.4756
20925SOL    HW265669   0.835   7.158   7.124  1.3789 -3.0089  0.3371
20926SOL     OW65670   8.884   6.081   5.578  0.9272 -0.0450 -0.1468
20926SOL    HW165671   8.897   6.162   5.628  0.8309 -0.3396  0.3543
20926SOL    HW265672   8.944   6.090   5.503  1.8376 -0.0559  0.5610
20927SOL     OW65673   7.740   3.760   0.968 -0.6952  0.0382 -0.5781
20927SOL    HW165674   7.733   3.855   0.981 -4.3162 -0.4246  2.2221
20927SOL    HW265675   7.719   3.747   0.876 -1.3057  1.8865 -0.7371
20928SOL     OW65676   3.083   2.046   0.082 -0.6779  0.2381 -0.6495
20928SOL    HW165677   3.092   1.952   0.066  0.6090  0.4050 -1.0657
20928SOL    HW265678   3.081   2.054   0.178  1.0999 -0.0970 -0.5570
20929SOL     OW65679   5.843   4.324   0.064  0.1653 -0.2894  0.3344
20929SOL    HW165680   5.799   4.270   0.130 -0.2008 -0.1160  0.2333
20929SOL    HW265681   5.910   4.373   0.112  0.6343 -0.9744  0.3984
20930SOL     OW65682   3.145   4.358  10.711  0.1956  0.6010  0.0646
20930SOL    HW165683   3.214   4.322  10.766  1.5820 -0.7012 -2.3374
20930SOL    HW265684   3.064   4.333  10.754  1.1877 -1.5488  0.8213
20931SOL     OW65685   4.030   7.763   4.751  0.1068  0.6577  1.0843
20931SOL    HW165686   3.963   7.706   4.715  0.7896  0.6353 -0.2219
20931SOL    HW265687   4.100   7.704   4.778  0.3970  0.8049  0.6614
20932SOL     OW65688   6.860   8.823   8.999  0.5104 -0.1133 -0.5286
20932SOL    HW165689   6.931   8.787   9.053  0.1296  0.8689  0.6920
20932SOL    HW265690   6.819   8.889   9.056 -1.4646 -0.7561 -1.1442
20933SOL     OW65691   3.065   2.036   0.379  1.0715 -0.2474  0.2088
20933SOL    HW165692   3.143   2.009   0.428  0.7332 -0.2070  0.7647
20933SOL    HW265693   3.019   1.954   0.360  1.5817 -0.3429 -0.7051
20934SOL     OW65694  10.343   5.167   0.427 -0.0806  0.0655  0.0163
20934SOL    HW165695  10.360   5.084   0.383  0.6075  0.3811 -0.3305
20934SOL    HW265696  10.312   5.142   0.514  0.3360 -0.5533 -0.0082
20935SOL     OW65697   0.600   4.170   0.051  0.3112  0.4148  0.0875
20935SOL    HW165698   0.527   4.118   0.017  0.0221  0.7050  0.2675
20935SOL    HW265699   0.639   4.115   0.119 -0.8885  1.0052  1.3049
20936SOL     OW65700  10.547   9.783   1.912 -0.5499 -0.5642 -0.0777
20936SOL    HW165701  10.619   9.791   1.974  1.0212 -0.1166 -1.8725
20936SOL    HW265702  10.541   9.690   1.894  1.3865 -0.4127 -1.8593
20937SOL     OW65703   2.186   9.171   5.981  0.0646 -0.0069 -0.3267
20937SOL    HW165704   2.097   9.170   6.015 -0.6623  0.7663 -2.0910
20937SOL    HW265705   2.240   9.140   6.054 -1.2694  2.3874  1.8431
20938SOL     OW65706   6.277   4.202   2.917  0.1562 -0.3996 -0.4231
20938SOL    HW165707   6.310   4.171   2.833 -1.7095 -0.3830 -1.2265
20938SOL    HW265708   6.284   4.127   2.975  0.4595 -0.7452 -0.9000
20939SOL     OW65709   6.959  10.642   7.963  0.0680 -0.0014 -0.7710
20939SOL    HW165710   6.943  10.549   7.944 -0.5403  0.2646 -1.6086
20939SOL    HW265711   6.975  10.644   8.058  1.4807 -1.1369 -0.9568
20940SOL     OW65712   9.240   3.102   4.680 -0.7440  0.5759 -0.1268
20940SOL    HW165713   9.257   3.046   4.755  1.0619  0.2937 -0.7106
20940SOL    HW265714   9.323   3.146   4.662 -0.9348  0.1908 -2.3012
20941SOL     OW65715  10.495   2.318   7.519 -0.4953 -0.2091 -0.0306
20941SOL    HW165716  10.459   2.383   7.580 -0.3900  0.4301 -0.6407
20941SOL    HW265717  10.522   2.245   7.575  1.8114  1.3208  0.9911
20942SOL     OW65718   4.986   8.678   0.598  0.6191 -0.2116 -0.4671
20942SOL    HW165719   5.052   8.712   0.658 -0.1421 -0.5303  0.5848
20942SOL    HW265720   4.922   8.635   0.655 -1.1710  1.1686 -1.3253
20943SOL     OW65721   1.125   3.314   9.738  0.3921 -0.3470  0.1401
20943SOL    HW165722   1.162   3.401   9.751 -0.4901  0.2754 -1.3600
20943SOL    HW265723   1.099   3.286   9.826  1.2372  0.6281  0.7224
20944SOL     OW65724   5.752   1.266   3.690  0.5945  0.3246  0.1616
20944SOL    HW165725   5.762   1.172   3.705  0.9819  0.3495  0.0416
20944SOL    HW265726   5.784   1.281   3.602  0.3094  0.5350  0.0895
20945SOL     OW65727   9.359   3.159   6.774 -0.3265 -0.0339 -0.1895
20945SOL    HW165728   9.378   3.234   6.831 -0.8248  1.2113 -1.5776
20945SOL    HW265729   9.321   3.093   6.832 -0.3076  0.9663  0.9969
20946SOL     OW65730   3.374   3.223   6.249 -0.0258  0.0485  0.0522
20946SOL    HW165731   3.405   3.139   6.284 -4.4762 -1.6146  0.7266
20946SOL    HW265732   3.313   3.255   6.316 -1.3831  1.8247 -1.9105
20947SOL     OW65733   2.188   5.342   0.467 -0.0390  0.3926  0.0580
20947SOL    HW165734   2.223   5.425   0.500 -0.6317  1.0975 -1.0095
20947SOL    HW265735   2.146   5.366   0.384 -0.3060 -0.9663 -0.2130
20948SOL     OW65736   9.004   0.672   1.308 -0.2398 -0.0023 -0.3955
20948SOL    HW165737   9.028   0.659   1.216 -1.0924  0.5671 -0.7078
20948SOL    HW265738   9.083   0.707   1.348 -0.4326  1.5873 -1.3431
20949SOL     OW65739   0.566  10.369   7.545 -0.1333 -0.5214  0.5492
20949SOL    HW165740   0.523  10.328   7.469  0.3901  2.9290 -1.8560
20949SOL    HW265741   0.659  10.367   7.524 -0.1401  2.5784 -0.2225
20950SOL     OW65742   3.846   6.240   4.621  0.7048 -0.2658  0.2629
20950SOL    HW165743   3.864   6.279   4.536 -0.7880  0.6896  0.3556
20950SOL    HW265744   3.894   6.295   4.683 -0.5373  0.8501  0.2865
20951SOL     OW65745  10.156   7.291   5.458 -0.0516 -0.0554  0.4351
20951SOL    HW165746  10.110   7.207   5.451 -1.6038  0.8190 -0.3903
20951SOL    HW265747  10.182   7.311   5.368  0.8034  0.0912  0.7131
20952SOL     OW65748   6.677   7.672   2.003 -0.2368  0.4165 -0.2063
20952SOL    HW165749   6.714   7.627   1.927 -0.4935  1.5186 -0.9995
20952SOL    HW265750   6.715   7.760   2.000  0.5081  0.2068  1.4982
20953SOL     OW65751   7.246   8.527   0.977  0.3185  0.5537 -0.7654
20953SOL    HW165752   7.308   8.548   1.047  0.7449  0.8198 -1.2132
20953SOL    HW265753   7.271   8.439   0.949  0.4733  0.6455 -0.9196
20954SOL     OW65754   3.880   0.523   4.245  0.0350 -0.3097  0.1739
20954SOL    HW165755   3.951   0.526   4.181  0.2979  0.2021  0.4817
20954SOL    HW265756   3.910   0.578   4.317 -0.4562 -0.5042  0.5355
20955SOL     OW65757   9.371   3.615   0.619  0.6267  0.0560 -0.3268
20955SOL    HW165758   9.325   3.536   0.648  1.1990 -0.0490  0.3216
20955SOL    HW265759   9.339   3.630   0.530 -0.9536  0.2245  0.2513
20956SOL     OW65760   7.647   7.376   0.781 -0.0854  0.1053 -0.1177
20956SOL    HW165761   7.626   7.453   0.728  1.4235  0.1071 -0.7490
20956SOL    HW265762   7.638   7.406   0.871 -1.4791  0.4421 -0.3388
20957SOL     OW65763   3.032   1.229   0.857 -0.2083  0.4905  0.4359
20957SOL    HW165764   3.079   1.154   0.821 -1.0979 -0.2228  0.7235
20957SOL    HW265765   2.957   1.191   0.903 -0.6222  1.5480  0.6727
20958SOL     OW65766   7.955   7.250   6.164 -0.1063  0.0415 -0.4090
20958SOL    HW165767   7.924   7.269   6.252 -1.0841 -0.1944 -0.6845
20958SOL    HW265768   7.922   7.322   6.111  2.2384  1.2972 -0.2636
20959SOL     OW65769   1.404   7.106   5.424  0.4634 -0.2136 -0.2863
20959SOL    HW165770   1.326   7.147   5.386  2.1676  0.7815 -2.9515
20959SOL    HW265771   1.397   7.014   5.400  0.7366  0.1213 -1.7217
20960SOL     OW65772   7.366   6.345   2.143 -0.4998 -0.0870  0.1138
20960SOL    HW165773   7.347   6.398   2.066 -1.3337  0.3118  0.5819
20960SOL    HW265774   7.352   6.254   2.114 -0.6798  0.0524 -0.2387
20961SOL     OW65775   2.268   1.083   9.271  0.3718  0.3986  0.1204
20961SOL    HW165776   2.333   1.017   9.247  0.4077 -0.0387  1.3554
20961SOL    HW265777   2.223   1.045   9.346 -0.6389  1.1335 -0.1024
20962SOL     OW65778   2.682   8.113   1.076  0.0703  0.3671  0.4401
20962SOL    HW165779   2.627   8.039   1.052 -0.1060  0.3657  0.8385
20962SOL    HW265780   2.628   8.165   1.136  0.1341  0.9019  0.0346
20963SOL     OW65781   4.028   7.287   6.364  0.0079  0.0437  0.2553
20963SOL    HW165782   3.952   7.262   6.416  0.3927 -1.4308  0.1395
20963SOL    HW265783   4.011   7.252   6.276  0.2970  0.7136 -0.0790
20964SOL     OW65784  10.304   4.015   5.780  0.0797 -0.7756  0.6756
20964SOL    HW165785  10.388   3.973   5.799 -0.7363 -1.9258  1.9523
20964SOL    HW265786  10.247   3.987   5.852 -1.0888  0.8865  0.4358
20965SOL     OW65787   8.922   0.942   5.197 -0.0846  0.6748  0.0329
20965SOL    HW165788   8.877   1.021   5.166 -0.8931 -0.1038 -0.8475
20965SOL    HW265789   8.852   0.887   5.233  0.5162  0.4929  0.9475
20966SOL     OW65790   5.447   0.714   5.778 -0.3259 -0.3258  0.0439
20966SOL    HW165791   5.530   0.704   5.732 -1.5777  0.8659 -2.7237
20966SOL    HW265792   5.403   0.630   5.766 -1.0232  0.2563 -1.9458
20967SOL     OW65793   0.323   3.764   8.327 -0.4286  0.1663 -0.2437
20967SOL    HW165794   0.386   3.711   8.278  0.9468  1.4785  0.0369
20967SOL    HW265795   0.326   3.850   8.285 -0.7218  0.7388  0.8774
20968SOL     OW65796   4.084   2.442   7.992  0.1644 -0.0185  0.4162
20968SOL    HW165797   4.123   2.491   7.919  3.2424  1.1368  2.6280
20968SOL    HW265798   4.131   2.358   7.992  0.4465  0.1299  1.2298
20969SOL     OW65799   3.775   7.977   4.408  0.1067  0.0349  0.4670
20969SOL    HW165800   3.853   7.984   4.463  0.4490 -0.7371  0.1013
20969SOL    HW265801   3.705   7.954   4.468  0.5747 -1.3145  0.5362
20970SOL     OW65802   2.524   4.507   1.061 -0.0770  0.1094 -0.1740
20970SOL    HW165803   2.525   4.600   1.038 -0.6073 -0.3241 -2.2188
20970SOL    HW265804   2.505   4.505   1.155  0.5218  2.0627  0.0290
20971SOL     OW65805   5.264   9.875   3.537  0.5293  0.3936  0.0356
20971SOL    HW165806   5.246   9.786   3.567  0.0002  0.2915 -0.5658
20971SOL    HW265807   5.251   9.930   3.615 -0.9642  0.1525 -0.0114
20972SOL     OW65808   4.063   2.943   3.558  0.0833  0.4068  0.1451
20972SOL    HW165809   4.011   2.863   3.569  0.7396 -0.0390  0.0451
20972SOL    HW265810   4.136   2.917   3.502  0.4169  1.0280  0.2802
20973SOL     OW65811   0.786  10.048   9.394  0.5422 -0.5039 -0.3455
20973SOL    HW165812   0.839  10.005   9.461  0.9414  1.0599  0.3934
20973SOL    HW265813   0.699  10.010   9.404  0.7218 -0.6639  0.7331
20974SOL     OW65814   0.966   3.760   3.527 -0.1201  0.6016 -0.2846
20974SOL    HW165815   0.900   3.703   3.488 -0.7410 -0.0572  1.6126
20974SOL    HW265816   0.930   3.784   3.613  2.8213 -1.2115  1.6369
20975SOL     OW65817   6.783   9.204   5.524 -0.0019  0.0601 -0.4514
20975SOL    HW165818   6.716   9.271   5.539  0.6997  0.6281  0.2031
20975SOL    HW265819   6.803   9.169   5.611  1.4447  0.7838 -0.4586
20976SOL     OW65820   3.653   1.886   9.463  0.0529  0.1914 -0.0202
20976SOL    HW165821   3.709   1.951   9.420  2.5585 -0.8755  1.3943
20976SOL    HW265822   3.588   1.938   9.511  0.9941  1.5911 -0.2003
20977SOL     OW65823  10.417   1.311   8.179  0.2589 -0.1678 -0.0363
20977SOL    HW165824  10.498   1.346   8.214  0.5612 -0.5679 -0.3218
20977SOL    HW265825  10.391   1.374   8.111  0.0350  0.2468  0.4351
20978SOL     OW65826   3.070   0.628   1.191  0.1232 -0.1844 -0.4007
20978SOL    HW165827   3.079   0.541   1.152  0.5715  0.5239 -1.9779
20978SOL    HW265828   3.120   0.623   1.272 -1.5308 -1.9636  0.5996
20979SOL     OW65829  10.078   3.768   4.534  0.3403 -0.1590  0.2143
20979SOL    HW165830  10.045   3.748   4.622 -0.9613 -0.6015 -0.3640
20979SOL    HW265831  10.050   3.695   4.480  2.4189 -0.6330 -0.3055
20980SOL     OW65832   0.250   9.181   1.163  0.4607  0.1871  0.3937
20980SOL    HW165833   0.181   9.126   1.201  0.2356  0.1517 -0.0608
20980SOL    HW265834   0.215   9.270   1.168 -0.6368 -0.0496 -1.9539
20981SOL     OW65835   4.807   6.446   5.738  0.0928 -0.8260 -0.2236
20981SOL    HW165836   4.757   6.366   5.748  0.4130 -1.5118 -3.1773
20981SOL    HW265837   4.809   6.462   5.644  0.9366  2.1016  0.1777
20982SOL     OW65838   1.874   8.418   4.225 -0.2716 -0.1470  0.5152
20982SOL    HW165839   1.844   8.346   4.280  0.2692 -1.1705 -0.5118
20982SOL    HW265840   1.968   8.404   4.215 -0.4741 -0.4194 -1.2711
20983SOL     OW65841   1.452   8.974   3.965  0.7235 -0.6780 -0.5458
20983SOL    HW165842   1.400   9.052   3.983 -1.5931 -2.4508  1.1780
20983SOL    HW265843   1.451   8.966   3.870  1.3066  1.5284 -0.7771
20984SOL     OW65844   8.800  10.258   0.443 -0.1767  0.0877 -0.0567
20984SOL    HW165845   8.760  10.272   0.358 -0.9042 -0.1041  0.2489
20984SOL    HW265846   8.762  10.177   0.476  1.0873 -0.5589 -0.1103
20985SOL     OW65847  10.368   3.428   6.082 -0.0323 -0.0608 -0.1558
20985SOL    HW165848  10.348   3.398   6.170  0.5057  0.9185  0.3157
20985SOL    HW265849  10.310   3.503   6.068 -1.7151 -1.5364 -1.5058
20986SOL     OW65850   6.898   5.452   0.366  0.6177 -0.0498 -0.4876
20986SOL    HW165851   6.879   5.546   0.364  0.0244 -0.1596 -2.1569
20986SOL    HW265852   6.992   5.447   0.380  0.4809  0.7369  0.8859
20987SOL     OW65853   4.105   6.231   5.429  0.5378  0.2758  0.3523
20987SOL    HW165854   4.197   6.239   5.405  0.4486  2.5358  0.5144
20987SOL    HW265855   4.076   6.321   5.440 -0.8552 -0.4403  3.6030
20988SOL     OW65856   9.425  10.154   2.615  0.0028  0.1051 -0.3261
20988SOL    HW165857   9.452  10.216   2.546  0.8503 -0.6776 -0.7294
20988SOL    HW265858   9.342  10.119   2.584  0.9042 -1.0827 -1.5850
20989SOL     OW65859   1.972   9.857   3.967  0.0343 -0.2938 -0.3630
20989SOL    HW165860   1.989   9.911   3.890 -0.1986 -0.9782 -0.9048
20989SOL    HW265861   2.059   9.826   3.994  0.7168  3.3119  2.2405
20990SOL     OW65862   3.172   7.809   8.688 -0.1057  0.0485  0.1913
20990SOL    HW165863   3.086   7.813   8.645 -1.0270 -0.4202  1.9003
20990SOL    HW265864   3.230   7.770   8.623 -1.5634 -1.1220 -0.4668
20991SOL     OW65865   0.182   3.947   0.221 -0.0497  0.4067 -0.1746
20991SOL    HW165866   0.163   3.975   0.310  0.2115  0.1153 -0.0281
20991SOL    HW265867   0.267   3.987   0.201  0.0004  0.2796 -0.2111
20992SOL     OW65868   8.966   3.515   9.420  0.0141 -0.2047 -0.0619
20992SOL    HW165869   9.041   3.497   9.364 -0.5015  1.6554 -1.4780
20992SOL    HW265870   8.890   3.493   9.366 -0.4877  0.3926  0.3870
20993SOL     OW65871   0.793   0.977   0.147  0.5711  0.0774 -0.8275
20993SOL    HW165872   0.734   1.043   0.110  0.7997 -0.2371 -1.7675
20993SOL    HW265873   0.859   1.028   0.193 -1.2045  0.4263  1.5658
20994SOL     OW65874  10.047   8.554   2.126 -0.5104 -0.7081 -0.2543
20994SOL    HW165875  10.054   8.574   2.219 -1.9280 -0.8390 -0.0945
20994SOL    HW265876  10.063   8.460   2.120 -2.6415 -1.1503  0.1947
20995SOL     OW65877   0.682   8.926   3.808  0.3652  0.5271  0.5131
20995SOL    HW165878   0.607   8.875   3.836  1.0794  0.2426  1.9873
20995SOL    HW265879   0.646   8.987   3.743 -0.9075 -0.3509  0.3598
20996SOL     OW65880   5.673   2.884   1.309 -0.0574 -0.4700  0.1750
20996SOL    HW165881   5.615   2.960   1.298  0.2421 -0.2319  0.2333
20996SOL    HW265882   5.653   2.851   1.397  0.8195  0.4047  0.7183
20997SOL     OW65883   4.143   5.705   0.425  0.5123 -0.1284  0.0839
20997SOL    HW165884   4.135   5.695   0.520 -0.1609 -1.3995 -0.0815
20997SOL    HW265885   4.236   5.698   0.407  0.8064  1.6674  0.7907
20998SOL     OW65886   4.853   0.290   0.828 -0.1772  0.4561  0.2007
20998SOL    HW165887   4.771   0.317   0.786  0.5695 -1.1517 -2.5529
20998SOL    HW265888   4.885   0.369   0.871 -1.5605  2.0079 -1.4481
20999SOL     OW65889   2.625   1.817   5.319  0.0204 -0.9227 -0.3756
20999SOL    HW165890   2.534   1.795   5.338 -0.4495  1.9620  1.3088
20999SOL    HW265891   2.670   1.805   5.403  0.7319 -0.2697 -0.6494
21000SOL     OW65892   4.169   2.591   3.509 -0.1969 -0.2412  0.1923
21000SOL    HW165893   4.157   2.659   3.443  1.2330 -2.3497 -2.4303
21000SOL    HW265894   4.138   2.511   3.466  1.2844 -1.7941  1.8790
21001SOL     OW65895   8.395   7.367   2.916 -0.0275  0.4923  0.1792
21001SOL    HW165896   8.380   7.354   3.010  2.2168 -2.2622  0.3054
21001SOL    HW265897   8.476   7.418   2.911  0.9744 -1.0492 -0.1496
21002SOL     OW65898   6.705   3.062   9.939 -0.8377 -0.0906 -0.6439
21002SOL    HW165899   6.634   2.999   9.948  1.1194 -2.2800  0.2957
21002SOL    HW265900   6.731   3.083  10.029 -1.0177  1.6501 -0.9452
21003SOL     OW65901   8.603   3.582  10.718  0.2868 -0.6366 -0.9248
21003SOL    HW165902   8.622   3.520  10.647  0.6458  0.0781 -1.4662
21003SOL    HW265903   8.598   3.667  10.675 -0.3898 -0.3046 -0.2156
21004SOL     OW65904   1.843   8.076   6.574 -0.1551  0.3036 -0.5319
21004SOL    HW165905   1.935   8.053   6.564  0.2274  1.9786 -1.1068
21004SOL    HW265906   1.829   8.079   6.668  0.9233  2.0236 -0.3977
21005SOL     OW65907   3.643   4.240   6.928 -0.7027  0.3026  0.0878
21005SOL    HW165908   3.655   4.335   6.918  0.7685  0.3148  1.5262
21005SOL    HW265909   3.667   4.204   6.843 -0.2772  1.1566 -0.1713
21006SOL     OW65910   7.336   7.182  10.561  0.2202 -0.1074 -0.2404
21006SOL    HW165911   7.408   7.216  10.615 -0.7087 -0.7995  1.5088
21006SOL    HW265912   7.341   7.233  10.480  2.1696  0.4214  0.1438
21007SOL     OW65913   4.942   3.907   4.069 -0.1253 -0.1819 -0.3411
21007SOL    HW165914   4.847   3.900   4.062  0.1318 -2.7695 -3.8945
21007SOL    HW265915   4.967   3.967   3.999  0.9305 -0.8397 -0.5497
21008SOL     OW65916   9.603   0.743   0.178  0.3920 -0.6016  0.5555
21008SOL    HW165917   9.668   0.682   0.144  1.0417  0.1402  0.4175
21008SOL    HW265918   9.577   0.794   0.102  1.6266  0.8687  1.0544
21009SOL     OW65919   6.046   4.509   2.300  0.0950 -0.7002 -0.1726
21009SOL    HW165920   6.070   4.591   2.344  0.2399  0.6867 -2.6785
21009SOL    HW265921   5.968   4.479   2.346  0.9446 -0.0376  1.8048
21010SOL     OW65922   5.378   3.035   4.174  0.1974 -0.3129 -0.6168
21010SOL    HW165923   5.340   3.109   4.128 -0.4106  0.4940  1.0869
21010SOL    HW265924   5.402   3.070   4.260  1.2977 -1.7350 -0.3025
21011SOL     OW65925   8.019   3.626   1.558  0.0965  0.2377  0.1594
21011SOL    HW165926   7.961   3.698   1.534  1.5234  0.3939 -3.4375
21011SOL    HW265927   8.097   3.668   1.594 -0.0222  0.3718  0.2553
21012SOL     OW65928  10.512   0.851   5.594 -0.4452 -0.4494  0.7316
21012SOL    HW165929  10.522   0.788   5.523  1.2638  0.0899  0.4495
21012SOL    HW265930  10.582   0.829   5.656 -1.2327 -0.2224  1.7261
21013SOL     OW65931   7.431   2.942   3.738  0.3814  0.1553  0.0652
21013SOL    HW165932   7.487   2.872   3.706  0.4954 -0.0685  0.7455
21013SOL    HW265933   7.356   2.898   3.777  0.4016  0.4066  0.4001
21014SOL     OW65934   8.847  10.515   0.516 -0.0153 -0.1737 -0.5159
21014SOL    HW165935   8.837  10.423   0.491  1.5906 -0.6551  0.4052
21014SOL    HW265936   8.827  10.516   0.610  1.8743 -0.0075 -0.0718
21015SOL     OW65937  10.427   5.461   0.398 -0.0176  0.0536  0.6382
21015SOL    HW165938  10.420   5.486   0.490  1.2828  0.1493  0.7251
21015SOL    HW265939  10.424   5.365   0.400 -0.9807  0.0756  0.6764
21016SOL     OW65940  10.643   5.202   2.287 -0.0426  0.0298 -0.0086
21016SOL    HW165941  10.612   5.125   2.335 -0.9408  0.8601  0.7822
21016SOL    HW265942  10.583   5.211   2.213  0.7323 -0.6623 -0.7344
21017SOL     OW65943   2.467   3.600   8.423 -0.1708 -0.0140 -0.3858
21017SOL    HW165944   2.560   3.620   8.436 -0.2701  1.0829 -1.2232
21017SOL    HW265945   2.420   3.667   8.471 -0.5162  0.4446 -1.3355
21018SOL     OW65946   3.159   5.984   9.571  0.0733  0.2540 -0.1927
21018SOL    HW165947   3.081   5.931   9.589 -0.2346  0.8068  0.1092
21018SOL    HW265948   3.206   5.935   9.503  0.7543 -1.3780  1.3548
21019SOL     OW65949   9.811  10.558   6.652  0.6108 -0.0095 -0.3772
21019SOL    HW165950   9.751  10.516   6.591  0.4425 -2.0578  1.0999
21019SOL    HW265951   9.850  10.630   6.602 -1.2568 -0.1119 -2.1093
21020SOL     OW65952   7.196   8.199   2.205 -0.1270 -0.1616  0.0123
21020SOL    HW165953   7.222   8.163   2.120  1.0822  0.9312 -0.1081
21020SOL    HW265954   7.101   8.209   2.199 -0.0102  0.2921 -1.3753
21021SOL     OW65955   4.852   4.376   4.316  0.5453 -0.6510 -0.2247
21021SOL    HW165956   4.848   4.324   4.236 -1.4472 -1.4838  0.3534
21021SOL    HW265957   4.805   4.457   4.294  1.0621 -0.3496 -0.2416
21022SOL     OW65958   7.838   0.457   7.015  0.3554 -0.1755 -0.0366
21022SOL    HW165959   7.774   0.388   7.002  2.4360 -1.7334 -3.7160
21022SOL    HW265960   7.790   0.529   7.056 -3.3991 -1.6287 -1.5384
21023SOL     OW65961   6.820   3.572   9.095 -0.2085  0.2273  0.0876
21023SOL    HW165962   6.844   3.574   9.188 -2.5429 -1.2606  0.7971
21023SOL    HW265963   6.799   3.663   9.074  0.9913  0.6966  0.8050
21024SOL     OW65964   4.033  10.598   0.338  0.1591 -0.0221 -0.4967
21024SOL    HW165965   4.049  10.628   0.248 -0.6963 -1.4844 -1.1747
21024SOL    HW265966   3.969  10.527   0.328 -0.3926  0.1859  1.3365
21025SOL     OW65967   5.781   2.351   8.033 -0.0681 -0.4145 -0.2756
21025SOL    HW165968   5.709   2.299   8.067 -1.4232  0.4944 -1.6591
21025SOL    HW265969   5.774   2.435   8.079  1.7477 -1.1369  1.5075
21026SOL     OW65970   8.308   8.569   4.402  0.0721 -0.1980  0.0771
21026SOL    HW165971   8.386   8.517   4.384 -0.1830 -0.8254  0.7267
21026SOL    HW265972   8.236   8.506   4.402 -0.8841  0.7144 -3.1187
21027SOL     OW65973   3.583   3.012   1.658 -0.3164 -0.0803  0.0707
21027SOL    HW165974   3.506   2.962   1.683 -0.1411  0.1374  1.0864
21027SOL    HW265975   3.549   3.098   1.634 -0.9143 -1.2030 -3.9076
21028SOL     OW65976  10.624   3.473   8.018 -0.5286  0.5464 -0.5378
21028SOL    HW165977  10.616   3.465   8.113 -1.0360  3.9159 -0.1691
21028SOL    HW265978  10.534   3.466   7.986 -0.4054 -0.1564 -0.7511
21029SOL     OW65979  10.567   7.742   4.037 -0.0389 -0.6586 -0.6563
21029SOL    HW165980  10.524   7.658   4.052 -2.5310  0.0929 -2.8052
21029SOL    HW265981  10.565   7.753   3.942  0.9147  1.5050 -0.4880
21030SOL     OW65982   1.825   4.569   2.496  0.1432 -0.5423 -0.0663
21030SOL    HW165983   1.838   4.499   2.560 -2.4384 -0.2443  0.8801
21030SOL    HW265984   1.913   4.601   2.477  1.1358 -2.0912  1.6864
21031SOL     OW65985  10.177   6.375   6.493  0.5484  0.2244  0.2996
21031SOL    HW165986  10.143   6.390   6.404  1.4789  2.3008  0.2308
21031SOL    HW265987  10.111   6.416   6.549  0.5588 -0.0404  0.5050
21032SOL     OW65988   8.475   5.831   0.986 -0.3948  0.5681  0.2970
21032SOL    HW165989   8.554   5.801   1.031 -0.5298 -0.4529 -0.1222
21032SOL    HW265990   8.427   5.880   1.053  0.0986  0.3061  0.8546
21033SOL     OW65991   0.350   6.478   8.872 -0.0464  0.4793  0.1160
21033SOL    HW165992   0.352   6.420   8.948  0.0283 -0.9695 -0.9677
21033SOL    HW265993   0.264   6.520   8.876  0.1362  0.7759  1.2418
21034SOL     OW65994   3.555   6.451   3.025 -0.1561  0.2642  0.1136
21034SOL    HW165995   3.501   6.464   3.103 -0.1179  1.1385  0.0095
21034SOL    HW265996   3.493   6.445   2.953 -0.1312  1.5860 -0.0471
21035SOL     OW65997   0.966   9.698   7.827 -0.4958 -0.2340  0.0542
21035SOL    HW165998   0.924   9.612   7.819 -0.5133 -0.3413  1.2019
21035SOL    HW265999   1.060   9.679   7.829 -0.3655 -0.0276 -2.0435
21036SOL     OW66000   4.475   1.183   7.759 -0.4661  0.0937  0.4648
21036SOL    HW166001   4.551   1.218   7.806 -0.4638  0.6049  0.0886
21036SOL    HW266002   4.451   1.253   7.697 -1.2411 -0.0668  0.5797
21037SOL     OW66003   9.217   5.937   6.595  0.8306  0.3323 -0.1042
21037SOL    HW166004   9.255   5.852   6.615  0.4937  0.1440 -0.2609
21037SOL    HW266005   9.288   5.999   6.611  1.7683 -0.1543 -2.0444
21038SOL     OW66006   1.008   0.042   7.734 -0.4831  0.0191 -0.2160
21038SOL    HW166007   0.990   0.062   7.643 -1.1346 -0.8475 -0.2957
21038SOL    HW266008   1.031  -0.051   7.734 -0.9462 -0.1092  0.5512
21039SOL     OW66009   6.002   2.000   8.971 -0.8572  0.7160  0.1364
21039SOL    HW166010   6.031   1.912   8.948 -1.4674  0.1870  1.3074
21039SOL    HW266011   6.042   2.057   8.905  0.0065 -0.3698 -0.3020
21040SOL     OW66012   7.873   7.294   8.498 -0.2474  0.1034 -0.3587
21040SOL    HW166013   7.814   7.247   8.558 -0.7915  0.0389 -0.9299
21040SOL    HW266014   7.958   7.253   8.511 -0.1879  0.5821  0.9121
21041SOL     OW66015   9.359   8.803   5.359  0.2312 -0.2664  0.1772
21041SOL    HW166016   9.274   8.847   5.366 -0.6006 -1.5382 -1.0622
21041SOL    HW266017   9.384   8.783   5.449 -0.0854  1.3544  0.6560
21042SOL     OW66018  10.127   3.308   2.579 -0.4039  0.2278 -0.0535
21042SOL    HW166019  10.196   3.281   2.518  0.2699 -0.2033  0.8800
21042SOL    HW266020  10.173   3.355   2.649 -1.2136  1.0765 -0.0687
21043SOL     OW66021   1.157   3.105   6.835  0.6757 -0.1670  0.2765
21043SOL    HW166022   1.199   3.041   6.779  1.4297 -0.7251  1.4499
21043SOL    HW266023   1.063   3.089   6.825  0.7846 -0.0446 -1.0374
21044SOL     OW66024   1.205   9.382   2.476  0.0129  0.4298  0.4911
21044SOL    HW166025   1.175   9.454   2.531  1.3706 -0.4815  2.5595
21044SOL    HW266026   1.293   9.362   2.508  0.4462 -0.8688 -1.3378
21045SOL     OW66027   1.210   7.886   6.474  0.1146  0.3210  0.5946
21045SOL    HW166028   1.236   7.954   6.411 -0.3178  0.7206  0.8399
21045SOL    HW266029   1.269   7.899   6.549  0.9632 -0.4707  0.0909
21046SOL     OW66030   7.011   0.926   1.623 -0.5074  0.3260  0.4574
21046SOL    HW166031   6.954   0.857   1.588 -0.2560 -0.2124  1.0889
21046SOL    HW266032   6.950   0.992   1.656 -0.7595  0.2404  0.1675
21047SOL     OW66033   4.686   1.628   9.113  0.3230 -0.8489 -0.1942
21047SOL    HW166034   4.657   1.604   9.025 -1.3339 -0.1243  0.1076
21047SOL    HW266035   4.720   1.546   9.150  0.2904 -1.3468 -1.2233
21048SOL     OW66036   7.880  10.258   7.257  0.1055  0.4843 -0.3643
21048SOL    HW166037   7.869  10.296   7.170  1.4505  0.5476 -0.5339
21048SOL    HW266038   7.860  10.165   7.245  0.1269  0.5224 -0.7067
21049SOL     OW66039   1.413  10.747   8.758  0.0068 -0.1005  0.3370
21049SOL    HW166040   1.365  10.826   8.733  0.4012 -0.1957 -0.7507
21049SOL    HW266041   1.430  10.702   8.676  0.1941 -1.0943  0.9091
21050SOL     OW66042   6.597   0.404   2.189 -0.4598 -0.4755  0.0986
21050SOL    HW166043   6.516   0.411   2.139 -0.2749 -0.6643 -0.2267
21050SOL    HW266044   6.620   0.312   2.185 -1.2387 -0.7809  1.7901
21051SOL     OW66045   2.952   0.978   7.335 -0.3258 -0.1937  0.0293
21051SOL    HW166046   2.924   0.907   7.277 -1.0452 -0.1058  0.2632
21051SOL    HW266047   2.992   1.042   7.276  1.4057 -1.2904 -0.0556
21052SOL     OW66048   3.096   1.995  10.045 -0.1663 -0.2921  0.1666
21052SOL    HW166049   3.176   2.016   9.996 -0.2243 -0.4594  0.0001
21052SOL    HW266050   3.087   2.067  10.107  0.6259 -0.7485  0.8242
21053SOL     OW66051   3.632  10.537   0.838 -0.2554  0.4762 -0.4523
21053SOL    HW166052   3.604  10.525   0.929  0.5910  1.4474 -0.0425
21053SOL    HW266053   3.550  10.538   0.788 -0.9051  2.0061  0.5636
21054SOL     OW66054   7.662   4.184   5.990 -0.4596 -0.3613  0.5939
21054SOL    HW166055   7.658   4.137   6.073 -2.2873  0.2158  0.8666
21054SOL    HW266056   7.753   4.214   5.984  0.3632 -2.5962  1.1207
21055SOL     OW66057   8.211   1.175   0.902 -0.3630  0.3506 -0.4439
21055SOL    HW166058   8.218   1.260   0.945 -1.1598  1.3479 -2.1876
21055SOL    HW266059   8.302   1.149   0.886 -0.1206  1.5256 -1.0808
21056SOL     OW66060   0.405   1.237   6.385  0.3326 -0.0018  0.2052
21056SOL    HW166061   0.475   1.172   6.375 -0.4461 -0.8168 -0.1180
21056SOL    HW266062   0.331   1.187   6.421  0.4057  1.1654  2.1392
21057SOL     OW66063   9.991   9.211   2.376  0.2109  0.7734  0.0185
21057SOL    HW166064  10.029   9.185   2.292 -0.0332  0.1044  0.1106
21057SOL    HW266065  10.024   9.147   2.439  0.3908  1.2704  0.4398
21058SOL     OW66066   5.533   5.508   9.163  0.4008 -0.5630 -0.5492
21058SOL    HW166067   5.595   5.580   9.167 -1.0572  0.6945  0.3968
21058SOL    HW266068   5.475   5.522   9.237 -0.9332 -1.7922 -1.3080
21059SOL     OW66069  10.084   9.651  10.254 -0.2125  0.8913 -0.0615
21059SOL    HW166070  10.143   9.601  10.311  0.6074  0.7440 -0.9976
21059SOL    HW266071  10.119   9.741  10.256  0.0504  0.8117 -0.5830
21060SOL     OW66072   9.566  10.543   1.615 -0.1697 -0.7138  0.1441
21060SOL    HW166073   9.550  10.559   1.522  0.3214  1.8856  0.4177
21060SOL    HW266074   9.661  10.550   1.625 -0.3910  2.4015  1.2385
21061SOL     OW66075   7.244   2.757   3.526  0.2121  0.5859 -1.0085
21061SOL    HW166076   7.161   2.795   3.497 -0.6668 -0.5350 -0.0687
21061SOL    HW266077   7.219   2.684   3.583  1.7531  2.3961  2.3147
21062SOL     OW66078   8.711   0.593   9.475  0.2591 -0.6562 -0.4033
21062SOL    HW166079   8.774   0.534   9.516  1.2076 -0.5022 -1.5964
21062SOL    HW266080   8.758   0.632   9.401 -0.0472  2.2262  0.7753
21063SOL     OW66081   2.985   1.168   9.033 -0.0820  0.0918  0.1223
21063SOL    HW166082   3.031   1.086   9.016  0.8583  0.5288  0.4790
21063SOL    HW266083   2.967   1.205   8.946  0.0650 -0.1786 -0.0220
21064SOL     OW66084   1.607   0.757   9.922  0.8122  0.7786  0.2206
21064SOL    HW166085   1.636   0.811   9.995 -0.9303  1.8037  0.2295
21064SOL    HW266086   1.552   0.690   9.962  2.5543 -0.7434  0.1536
21065SOL     OW66087  10.180   9.339  10.243 -0.3949  0.2705  0.0197
21065SOL    HW166088  10.249   9.280  10.210 -0.2421  1.0243 -1.0453
21065SOL    HW266089  10.214   9.370  10.326  1.0330  1.3901 -0.9278
21066SOL     OW66090   6.818  10.333   1.745  0.2502  0.3814  0.0348
21066SOL    HW166091   6.891  10.389   1.772  0.3131  1.5091 -2.2558
21066SOL    HW266092   6.831  10.319   1.651 -0.5865 -2.3321  0.2313
21067SOL     OW66093   7.750   2.216   6.856 -1.0706 -0.2158  0.4084
21067SOL    HW166094   7.679   2.261   6.903 -2.5615 -0.5497 -1.4402
21067SOL    HW266095   7.778   2.147   6.916 -1.3429  0.7770  1.7313
21068SOL     OW66096   3.962   1.201   8.886  0.3388  0.5866 -0.6963
21068SOL    HW166097   4.005   1.228   8.805 -1.3014  1.1718 -1.4162
21068SOL    HW266098   3.975   1.107   8.890  1.5183  0.7228 -0.9702
21069SOL     OW66099   8.366  10.525   8.009 -0.4497 -0.2984 -0.3126
21069SOL    HW166100   8.293  10.528   7.948 -1.2617  1.2547  0.6631
21069SOL    HW266101   8.384  10.616   8.031  1.8402 -0.6234 -0.5360
21070SOL     OW66102   3.847   5.486   0.068 -0.5106  0.1855  0.3153
21070SOL    HW166103   3.900   5.407   0.080 -1.2541 -0.1044  1.8691
21070SOL    HW266104   3.782   5.462   0.002 -0.2038 -0.2145  0.1535
21071SOL     OW66105   7.786   1.855   5.270  0.4097 -0.0332 -0.7318
21071SOL    HW166106   7.872   1.895   5.285 -0.0279  0.0767  2.0400
21071SOL    HW266107   7.729   1.929   5.248  0.2368  0.5288  1.3984
21072SOL     OW66108   4.666   5.666   9.037 -0.1134 -0.2156  0.0130
21072SOL    HW166109   4.640   5.684   9.128 -1.7531 -1.4158 -0.1771
21072SOL    HW266110   4.597   5.609   9.003  0.2484  0.5350 -2.1367
21073SOL     OW66111   9.063   2.723   5.245  0.6595 -0.4781 -0.0971
21073SOL    HW166112   9.124   2.656   5.277 -0.1402 -1.3487 -0.3541
21073SOL    HW266113   8.977   2.695   5.278  0.4530  1.0383  0.7376
21074SOL     OW66114   1.213   2.251   9.657 -0.4911  0.0289  0.4864
21074SOL    HW166115   1.170   2.329   9.693 -0.9240 -0.4008  0.9091
21074SOL    HW266116   1.306   2.266   9.671 -0.4717  1.0115 -0.5123
21075SOL     OW66117   8.593   3.129   6.782  0.4500 -0.3969 -0.4461
21075SOL    HW166118   8.609   3.062   6.848 -1.2463 -0.7600 -0.3568
21075SOL    HW266119   8.571   3.207   6.833 -1.3055 -0.7934 -0.5369
21076SOL     OW66120   4.385   6.731   5.741  0.2875  0.4507  0.3291
21076SOL    HW166121   4.294   6.702   5.736 -0.3253  2.1715  0.8150
21076SOL    HW266122   4.435   6.650   5.749 -1.0677 -0.6054 -1.2534
21077SOL     OW66123   1.469   6.072   9.098  0.5231 -0.5724 -0.4298
21077SOL    HW166124   1.443   6.034   9.014  0.6389 -0.2885 -0.5928
21077SOL    HW266125   1.516   6.001   9.143  0.4820 -0.7144 -0.6118
21078SOL     OW66126   6.717   3.450   7.255 -0.1078 -0.0674  0.3109
21078SOL    HW166127   6.740   3.525   7.311  0.6720 -1.3011  1.7288
21078SOL    HW266128   6.793   3.438   7.199 -0.0767 -0.0192  0.3425
21079SOL     OW66129   6.004   9.549   7.478 -0.1491 -0.3744 -0.1075
21079SOL    HW166130   6.084   9.601   7.480 -0.7421  0.5661 -0.5002
21079SOL    HW266131   5.993   9.520   7.569 -0.6246  1.4605  0.4639
21080SOL     OW66132   8.578   6.770   6.470  0.3376 -0.2143  0.1467
21080SOL    HW166133   8.621   6.742   6.390  1.3138  1.5955 -0.0058
21080SOL    HW266134   8.508   6.829   6.440 -0.1379 -0.5501  0.5718
21081SOL     OW66135   8.173  10.333   7.239 -0.1982 -0.4777 -0.1780
21081SOL    HW166136   8.203  10.397   7.174 -1.8846 -0.4099 -0.9526
21081SOL    HW266137   8.089  10.303   7.205 -1.4730  0.0549  2.3154
21082SOL     OW66138   1.045   6.538   4.555 -0.6380  0.1277 -0.5235
21082SOL    HW166139   1.046   6.468   4.620  0.1056  0.4071 -0.2250
21082SOL    HW266140   0.964   6.525   4.507 -1.1265 -0.1799  0.3586
21083SOL     OW66141   6.217   4.889   0.192  0.1260 -0.2906 -0.1709
21083SOL    HW166142   6.186   4.857   0.108  0.8805  0.0609 -0.5935
21083SOL    HW266143   6.138   4.919   0.237 -0.1768  0.4761 -1.1696
21084SOL     OW66144  10.206   2.811   4.415 -0.6250 -0.2664 -0.6950
21084SOL    HW166145  10.257   2.732   4.397 -1.2999 -0.7495 -0.5659
21084SOL    HW266146  10.163   2.831   4.332  0.9385  1.0416 -1.2406
21085SOL     OW66147   2.579   4.837  10.305 -0.5086  0.2601  0.0161
21085SOL    HW166148   2.647   4.788  10.351 -0.4583  2.0948  2.1095
21085SOL    HW266149   2.611   4.845  10.215  1.7847  0.5191  0.7787
21086SOL     OW66150   5.696   2.547   3.121  0.2011 -0.1163 -0.3456
21086SOL    HW166151   5.706   2.534   3.215 -0.5917  1.7121  0.0360
21086SOL    HW266152   5.618   2.497   3.098  0.7637 -1.1006 -0.1841
21087SOL     OW66153   6.103   7.729   0.361  0.4000 -0.6582 -0.3769
21087SOL    HW166154   6.132   7.668   0.429 -0.2229 -0.1190  0.3962
21087SOL    HW266155   6.132   7.815   0.393  0.0211 -0.3877 -0.7488
21088SOL     OW66156  10.144   1.348   5.626 -0.3803 -0.0366 -0.1236
21088SOL    HW166157  10.127   1.380   5.714 -1.1994 -1.3261  0.2099
21088SOL    HW266158  10.232   1.380   5.606 -1.2881  2.8296 -0.0483
21089SOL     OW66159   6.883   6.433  10.529  0.2198  0.0181  0.6011
21089SOL    HW166160   6.881   6.360  10.591  0.7265 -0.3653  0.1764
21089SOL    HW266161   6.848   6.507  10.578  0.2574 -0.3720  1.2260
21090SOL     OW66162   8.536   8.825   4.702  0.1362 -0.4726 -0.4053
21090SOL    HW166163   8.609   8.840   4.761 -0.2903 -0.7677  0.2191
21090SOL    HW266164   8.576   8.802   4.618  0.7502  0.9277 -0.5041
21091SOL     OW66165   0.073   8.837   2.497 -0.8425 -0.2279  0.0174
21091SOL    HW166166   0.036   8.825   2.409 -0.2063 -0.9482 -0.1660
21091SOL    HW266167   0.064   8.931   2.514  2.7305  0.8295 -2.5578
21092SOL     OW66168   8.792   8.670   3.950 -0.1959 -0.1205  0.2550
21092SOL    HW166169   8.787   8.692   4.043  0.5317 -0.3215  0.3483
21092SOL    HW266170   8.862   8.605   3.944 -0.5920 -0.5016 -0.3670
21093SOL     OW66171   3.812  10.628   7.476  0.2492 -0.1906  0.0172
21093SOL    HW166172   3.789  10.534   7.474  0.8550 -0.3332 -1.2355
21093SOL    HW266173   3.878  10.635   7.544  0.0747 -0.6474  0.2414
21094SOL     OW66174   1.092   2.073   2.907  0.3381 -0.2872 -0.2056
21094SOL    HW166175   1.106   1.987   2.947  0.6103  1.3551  3.6650
21094SOL    HW266176   1.173   2.121   2.925 -1.2943  2.0246  1.5400
21095SOL     OW66177   2.823   2.192  10.167 -0.3128  0.9399 -0.7494
21095SOL    HW166178   2.916   2.167  10.160 -0.5107 -1.6885  2.9586
21095SOL    HW266179   2.777   2.127  10.115 -0.2250 -0.4918  0.8732
21096SOL     OW66180   4.445  10.401  10.792 -0.5223 -0.1058 -0.3210
21096SOL    HW166181   4.359  10.358  10.787 -0.8277  0.5421 -0.7496
21096SOL    HW266182   4.426  10.494  10.788  0.0766  0.1412  1.5264
21097SOL     OW66183   3.721   4.523   3.540  0.1739 -0.5028 -0.1515
21097SOL    HW166184   3.634   4.504   3.503 -1.3789  2.2263  1.6818
21097SOL    HW266185   3.748   4.442   3.582 -1.6189 -1.3631 -0.5478
21098SOL     OW66186   7.008   8.471  10.446 -0.4036  0.1001  0.3679
21098SOL    HW166187   7.092   8.511  10.422 -0.9782  1.1182  0.0220
21098SOL    HW266188   7.005   8.390  10.394  1.3544 -1.1317  2.0595
21099SOL     OW66189   9.644   7.613   7.530  0.2278  0.5027 -0.3337
21099SOL    HW166190   9.556   7.649   7.540  0.3462  1.1051 -1.2836
21099SOL    HW266191   9.653   7.598   7.436  0.9765  0.0200 -0.1938
21100SOL     OW66192   4.003   5.752  10.741 -0.2843  0.3580  0.1604
21100SOL    HW166193   4.046   5.795  10.814 -0.4381 -0.6460  0.8701
21100SOL    HW266194   3.951   5.682  10.782 -1.0024  0.2849 -0.8402
21101SOL     OW66195   6.556   6.789   7.944 -0.2047  0.0571 -0.3644
21101SOL    HW166196   6.479   6.819   7.992  0.3486  1.2718 -0.1902
21101SOL    HW266197   6.629   6.802   8.005  0.1224 -1.2821 -0.4507
21102SOL     OW66198   2.374   6.518   8.035 -0.3094  0.6202  0.3009
21102SOL    HW166199   2.348   6.562   7.954  2.1736  0.1384 -0.8632
21102SOL    HW266200   2.384   6.589   8.099 -1.3385  1.1241 -0.0875
21103SOL     OW66201   5.734   1.210   2.770 -0.0945  0.4124  0.7767
21103SOL    HW166202   5.740   1.265   2.848  0.8614  0.7220  0.4956
21103SOL    HW266203   5.756   1.268   2.698 -1.2279  0.1933  0.2304
21104SOL     OW66204   5.797   3.204   0.175 -0.3183  0.4883 -0.0516
21104SOL    HW166205   5.780   3.121   0.218 -0.0203 -1.1489 -2.8193
21104SOL    HW266206   5.892   3.211   0.173 -0.2410  2.8025  3.2791
21105SOL     OW66207   4.410   7.705   0.627  0.4605  0.0780 -0.3792
21105SOL    HW166208   4.505   7.711   0.636  0.7450 -1.0752 -2.1623
21105SOL    HW266209   4.396   7.674   0.538 -1.5125 -1.6546  0.4366
21106SOL     OW66210   6.389   3.543   3.504 -0.4706  0.1673  0.4797
21106SOL    HW166211   6.392   3.469   3.564 -1.0368 -0.0149  0.2874
21106SOL    HW266212   6.478   3.551   3.471 -0.3190 -0.1768  0.8075
21107SOL     OW66213   8.752   1.726   3.329  0.0912 -0.5344 -0.1779
21107SOL    HW166214   8.689   1.718   3.400 -0.3856  0.0595 -0.5271
21107SOL    HW266215   8.742   1.645   3.278  0.4883 -0.9946  0.4677
21108SOL     OW66216   5.232   1.563   6.592 -0.2336 -0.5545 -0.0989
21108SOL    HW166217   5.259   1.586   6.681  0.5029 -2.3887  0.1872
21108SOL    HW266218   5.188   1.642   6.560  1.7801  1.0925  0.9230
21109SOL     OW66219   3.443   9.397   4.447  0.0340 -0.1212 -0.1775
21109SOL    HW166220   3.520   9.438   4.407 -0.3067 -1.5681 -2.4389
21109SOL    HW266221   3.399   9.470   4.492  1.9594  1.0008  0.0310
21110SOL     OW66222   1.347   2.185   7.324 -0.3894 -0.2988  0.2360
21110SOL    HW166223   1.347   2.203   7.417 -2.3340 -0.3721  0.2957
21110SOL    HW266224   1.270   2.129   7.310 -2.1510  2.3659 -1.8356
21111SOL     OW66225   1.339   2.863   8.768 -0.2683  0.2066  0.3194
21111SOL    HW166226   1.278   2.913   8.714  0.6525 -0.8974 -1.8932
21111SOL    HW266227   1.418   2.918   8.771  0.3488 -0.5109 -1.1757
21112SOL     OW66228   4.367   2.018   1.632 -0.5708 -0.0394  0.0535
21112SOL    HW166229   4.291   2.039   1.577  0.0713  2.4297  0.0006
21112SOL    HW266230   4.393   1.930   1.605 -3.0605 -0.7420 -0.2948
21113SOL     OW66231   0.316   2.351   9.572 -0.6065  0.0307  0.3086
21113SOL    HW166232   0.226   2.326   9.553 -0.6084 -1.6121  2.1871
21113SOL    HW266233   0.369   2.290   9.521 -0.5831 -0.4780  0.9329
21114SOL     OW66234   2.375   8.381   6.477 -0.3629  0.0175 -0.7892
21114SOL    HW166235   2.281   8.366   6.468 -0.0208 -1.0368 -3.9666
21114SOL    HW266236   2.387   8.473   6.455 -0.6976  0.4303  0.6467
21115SOL     OW66237   8.455   7.792   4.503 -0.3200 -0.8775  0.0025
21115SOL    HW166238   8.466   7.822   4.593  3.8365  0.2250 -0.6226
21115SOL    HW266239   8.460   7.696   4.509 -0.3946 -0.8279  0.9852
21116SOL     OW66240   5.738   4.763   3.958  0.0729  0.1630 -0.3090
21116SOL    HW166241   5.649   4.741   3.930 -0.7842  1.8664  0.9177
21116SOL    HW266242   5.759   4.696   4.024 -0.9677  0.6570  0.5661
21117SOL     OW66243   0.604  10.269  10.415  0.0313  0.1580  0.4996
21117SOL    HW166244   0.684  10.226  10.384 -0.9803 -0.1708 -1.8978
21117SOL    HW266245   0.622  10.363  10.404  0.6831  0.1913  1.6579
21118SOL     OW66246   9.323  10.685   3.768 -0.6040 -0.0528  0.1265
21118SOL    HW166247   9.377  10.697   3.690 -1.2071  2.5494  0.0264
21118SOL    HW266248   9.373  10.726   3.839 -0.4188 -1.7001  1.0025
21119SOL     OW66249   0.165   4.651   8.261  0.0604  0.2107  0.1193
21119SOL    HW166250   0.244   4.619   8.218  1.6831  1.0088  2.2672
21119SOL    HW266251   0.114   4.573   8.279  0.6442 -0.4004 -0.8086
21120SOL     OW66252   2.233   7.515  10.276 -0.2337 -0.4179  0.0118
21120SOL    HW166253   2.167   7.447  10.284 -1.7303  1.0944  1.1798
21120SOL    HW266254   2.253   7.518  10.182 -1.6857 -1.0474 -0.3409
21121SOL     OW66255   9.241   4.910   4.909 -0.4458  0.5835  0.3165
21121SOL    HW166256   9.289   4.843   4.861  0.1888  1.3067 -0.0730
21121SOL    HW266257   9.149   4.881   4.905 -0.2414 -0.0192 -0.2261
21122SOL     OW66258   0.978   7.557   1.803 -0.2968 -0.1401 -0.4819
21122SOL    HW166259   0.936   7.635   1.840 -1.2109 -0.9363  0.2038
21122SOL    HW266260   0.921   7.485   1.828  0.1541 -0.9610 -1.7165
21123SOL     OW66261   2.643   2.101   7.565  0.4580 -0.3374  0.6913
21123SOL    HW166262   2.630   2.195   7.551  0.3306 -0.5704 -0.9665
21123SOL    HW266263   2.591   2.081   7.643 -0.1478  0.8308  0.6136
21124SOL     OW66264   6.313   3.419  10.359 -0.0946  0.9564  0.5053
21124SOL    HW166265   6.280   3.434  10.271 -0.7342  0.8377  0.7185
21124SOL    HW266266   6.310   3.324  10.371  0.8791  0.8937  0.3250
21125SOL     OW66267   3.921   4.879   5.273  0.4611  0.9499 -1.6931
21125SOL    HW166268   3.950   4.965   5.244 -2.1622  1.6515 -2.5172
21125SOL    HW266269   4.002   4.832   5.294  1.9782  3.5615 -1.2561
21126SOL     OW66270   6.878   6.871   0.384  0.3719  0.1085  0.1712
21126SOL    HW166271   6.838   6.945   0.338 -1.3312 -0.2863  0.9421
21126SOL    HW266272   6.840   6.875   0.472  1.2125 -0.9500  0.5950
21127SOL     OW66273   6.120   5.356  10.318  0.1340 -0.1491 -0.2400
21127SOL    HW166274   6.152   5.412  10.389  2.3869  0.4274 -1.6052
21127SOL    HW266275   6.194   5.301  10.296 -1.2467 -1.9117 -0.6826
21128SOL     OW66276   5.068   6.651   1.503  0.1907 -0.0810 -0.1124
21128SOL    HW166277   5.107   6.676   1.419 -0.0359  0.9633  0.0795
21128SOL    HW266278   4.977   6.679   1.497 -0.4522 -2.0931 -0.3734
21129SOL     OW66279   4.633   7.025   9.620  0.8772  0.2360 -0.8614
21129SOL    HW166280   4.591   7.062   9.697  1.9675  1.3332 -0.7675
21129SOL    HW266281   4.604   7.081   9.547  2.3364  1.1966 -0.7535
21130SOL     OW66282   5.233  10.102   0.942  0.0610  0.2502 -0.4795
21130SOL    HW166283   5.180  10.180   0.958 -2.1588 -1.2907  0.0952
21130SOL    HW266284   5.197  10.036   1.000  2.9564 -0.8123  0.2498
21131SOL     OW66285   0.111   6.609   8.066  0.0244 -0.0008  0.3830
21131SOL    HW166286   0.195   6.575   8.038 -0.6591 -1.0350 -0.5080
21131SOL    HW266287   0.096   6.686   8.010  0.0616 -0.2324  0.0519
21132SOL     OW66288   8.671   9.065   5.652 -0.1276 -0.5685  0.2707
21132SOL    HW166289   8.642   9.156   5.649 -0.7890 -0.7502  0.8413
21132SOL    HW266290   8.626   9.023   5.579 -1.1423 -0.7940  1.0043
21133SOL     OW66291   4.113   4.247   7.160  0.1722  0.0666 -0.1424
21133SOL    HW166292   4.065   4.293   7.092  0.9801 -1.4856 -1.8665
21133SOL    HW266293   4.199   4.289   7.162 -0.0161  0.4448  0.3187
21134SOL     OW66294   2.359  10.752   3.742  0.7040 -0.2716 -0.1923
21134SOL    HW166295   2.362  10.734   3.648 -0.8245 -1.0576 -0.1222
21134SOL    HW266296   2.414  10.683   3.781  1.0957 -0.1251 -0.4739
21135SOL     OW66297   3.763   3.035   6.177 -0.1606  0.1588  0.3759
21135SOL    HW166298   3.753   3.105   6.241 -1.7949 -0.8849  1.3393
21135SOL    HW266299   3.800   2.962   6.227  0.1456 -0.1466 -0.2766
21136SOL     OW66300   4.896   8.157   9.328  0.8983  0.3071  0.6831
21136SOL    HW166301   4.910   8.064   9.346  3.0597  0.3430 -0.5102
21136SOL    HW266302   4.842   8.188   9.401 -0.0415 -1.9017  0.9908
21137SOL     OW66303   2.079   7.736   0.532  0.6301 -0.0730  0.1167
21137SOL    HW166304   2.002   7.682   0.551  0.3262  0.0095 -0.8305
21137SOL    HW266305   2.097   7.720   0.440  0.9190  0.9601 -0.0168
21138SOL     OW66306   5.593   8.597   8.614 -0.6384  0.3860  0.1867
21138SOL    HW166307   5.505   8.605   8.649 -0.5389 -0.3261  0.5980
21138SOL    HW266308   5.581   8.576   8.521 -0.8965  1.8294 -0.1380
21139SOL     OW66309   7.935   7.247   1.738  0.0549  0.0493  0.0220
21139SOL    HW166310   7.966   7.205   1.819  1.5057  2.3745  0.7705
21139SOL    HW266311   7.857   7.295   1.765  0.1971  0.3421 -0.0877
21140SOL     OW66312   1.789   7.530   5.918 -0.3653  0.2791  0.4368
21140SOL    HW166313   1.722   7.462   5.922  1.4665 -1.5885  0.5299
21140SOL    HW266314   1.835   7.514   5.836  0.1560  1.3593  0.4996
21141SOL     OW66315   3.118   4.030   1.437  0.0237  0.1394  0.1495
21141SOL    HW166316   3.211   4.014   1.452  0.1680  2.2489  1.8972
21141SOL    HW266317   3.075   3.993   1.514 -0.4085  0.8134  0.2347
21142SOL     OW66318   7.375   8.108   2.388 -0.8194 -0.4112 -0.8137
21142SOL    HW166319   7.364   8.022   2.429 -1.6523  0.0091 -0.1232
21142SOL    HW266320   7.299   8.116   2.330 -1.3204  0.2909 -0.0785
21143SOL     OW66321   9.375   6.371   0.440  0.3053 -0.0489 -0.2584
21143SOL    HW166322   9.441   6.438   0.423  0.0186 -0.1136 -1.7291
21143SOL    HW266323   9.399   6.299   0.381 -1.8803  0.4804 -1.9001
21144SOL     OW66324   3.825   7.099   7.777  0.5377  0.2080  0.5163
21144SOL    HW166325   3.846   7.181   7.821  2.2761 -0.9237  1.9741
21144SOL    HW266326   3.908   7.050   7.778 -0.6344 -1.8862  0.4399
21145SOL     OW66327  10.779   1.348   7.025 -0.1993 -0.2033 -0.2327
21145SOL    HW166328  10.796   1.432   7.067 -0.1781 -0.8582  1.1440
21145SOL    HW266329  10.786   1.284   7.097  1.0356 -1.5182 -1.4622
21146SOL     OW66330   2.914   2.332   6.109 -0.6455  0.1313  0.3041
21146SOL    HW166331   2.987   2.281   6.143  0.1540  0.7239 -0.4629
21146SOL    HW266332   2.901   2.401   6.173  0.1266  0.5941 -0.0168
21147SOL     OW66333   8.935  10.189   9.016  0.3908  0.2025  0.5419
21147SOL    HW166334   8.986  10.263   9.050 -0.7708  1.2801  0.0186
21147SOL    HW266335   8.845  10.208   9.042  0.2539 -1.8673  1.8132
21148SOL     OW66336   3.792   9.922  10.065 -0.6968 -0.4966 -0.0417
21148SOL    HW166337   3.759   9.957   9.982  1.0263 -0.8161 -0.9067
21148SOL    HW266338   3.826   9.836  10.043 -0.0199 -0.5014  0.9582
21149SOL     OW66339   3.255   2.623   4.570  0.4900  0.0332  0.0677
21149SOL    HW166340   3.206   2.601   4.490  1.6123 -1.4390 -0.2699
21149SOL    HW266341   3.347   2.616   4.544  1.0341  4.1972  0.2840
21150SOL     OW66342   7.992   5.803   3.087 -0.0225  0.5018  0.1776
21150SOL    HW166343   7.976   5.733   3.149 -0.4288 -0.2878 -0.7972
21150SOL    HW266344   8.039   5.761   3.014 -1.0277  1.0384 -0.8149
21151SOL     OW66345   6.583   6.693   9.620  0.0600  0.7345  0.0993
21151SOL    HW166346   6.635   6.769   9.647  0.7755 -0.1198  1.1595
21151SOL    HW266347   6.564   6.646   9.701 -2.2356  0.8973 -0.2642
21152SOL     OW66348  10.099   1.714   5.136 -0.2696 -0.3938  0.3400
21152SOL    HW166349  10.004   1.725   5.143 -0.0703  0.8263  1.4773
21152SOL    HW266350  10.113   1.620   5.149 -1.3282 -0.6285 -0.0985
21153SOL     OW66351   0.092  10.232   7.127 -0.1012  0.1707 -0.3210
21153SOL    HW166352   0.125  10.252   7.214 -1.8167 -0.0219  0.4068
21153SOL    HW266353   0.123  10.143   7.110 -0.9622 -0.3552  0.7318
21154SOL     OW66354   1.083   8.010   3.569  0.2573  0.4219 -0.2109
21154SOL    HW166355   1.118   7.987   3.482 -1.7459  0.4844 -1.0793
21154SOL    HW266356   1.107   8.102   3.580  0.7295  0.3480 -0.5940
21155SOL     OW66357   6.047  10.477   7.186  0.1675  0.2944  0.1342
21155SOL    HW166358   6.050  10.383   7.205  2.4648  0.2645 -0.1542
21155SOL    HW266359   5.973  10.486   7.126 -0.8737 -1.1077  1.1250
21156SOL     OW66360   0.549   6.054   8.471 -0.1786  0.0839  0.5172
21156SOL    HW166361   0.533   5.961   8.489  0.5368 -0.0989  0.2382
21156SOL    HW266362   0.529   6.065   8.378 -0.6147  0.2917  0.6333
21157SOL     OW66363   5.407   0.852   5.420  0.0790  0.4794  0.3495
21157SOL    HW166364   5.364   0.925   5.376  0.5641 -0.4207 -1.7481
21157SOL    HW266365   5.499   0.876   5.423  0.5150 -0.6726 -1.8673
21158SOL     OW66366   3.248   4.889   8.318  0.4141  0.1674 -0.2192
21158SOL    HW166367   3.270   4.968   8.268  0.6363  1.4577  1.8092
21158SOL    HW266368   3.156   4.899   8.340  0.2131 -0.5865 -0.6750
21159SOL     OW66369   6.603   4.252   9.649  0.0538  0.2232 -0.3382
21159SOL    HW166370   6.677   4.312   9.658 -0.3205  0.7693 -0.8285
21159SOL    HW266371   6.585   4.221   9.738  1.2129 -0.3362 -0.2768
21160SOL     OW66372   9.462   4.572  10.778 -0.0340 -0.0431  0.0937
21160SOL    HW166373   9.431   4.626  10.704  0.6572  2.3924  1.4641
21160SOL    HW266374   9.382   4.533  10.814 -0.7680  1.1159 -0.1914
21161SOL     OW66375   4.594  10.293   6.225  0.2576  0.8058 -0.2114
21161SOL    HW166376   4.519  10.256   6.272  1.7256 -2.0855  0.1328
21161SOL    HW266377   4.577  10.387   6.223 -3.9482  0.2630 -1.2283
21162SOL     OW66378   1.946   8.665   5.571  0.0376 -0.5926  0.0985
21162SOL    HW166379   2.007   8.735   5.550 -0.7229 -0.4060 -1.6541
21162SOL    HW266380   1.860   8.699   5.546 -0.4865 -1.7236  0.2883
21163SOL     OW66381   0.091   9.697  10.717  0.2312 -0.0165  0.1611
21163SOL    HW166382   0.168   9.723  10.666  3.1527 -0.6185  3.8055
21163SOL    HW266383   0.089   9.602  10.710 -1.1096  0.0619 -0.9726
21164SOL     OW66384   1.847   8.875   8.209 -0.1834 -0.1540  0.7613
21164SOL    HW166385   1.811   8.911   8.291  0.0655  1.4491  0.1999
21164SOL    HW266386   1.940   8.862   8.227  0.1784  1.5903  0.3197
21165SOL     OW66387   1.578   9.460   0.844  0.2237  0.2498  0.1061
21165SOL    HW166388   1.539   9.380   0.810 -1.3355  1.0092  0.0239
21165SOL    HW266389   1.522   9.484   0.918  0.4259  1.4846 -0.1304
21166SOL     OW66390   0.860   4.225   4.995 -0.1620  0.6121  0.3081
21166SOL    HW166391   0.908   4.298   4.957 -0.6872  1.6009  1.4738
21166SOL    HW266392   0.770   4.236   4.963 -0.6096  1.4552  1.7576
21167SOL     OW66393   9.538   2.502   6.215 -0.5478  0.5260 -0.5717
21167SOL    HW166394   9.583   2.553   6.282  0.0072 -3.3973  2.4437
21167SOL    HW266395   9.602   2.489   6.146  0.1469  1.6005 -0.1523
21168SOL     OW66396   8.394   9.268   0.373  0.2233  0.3235 -0.2567
21168SOL    HW166397   8.345   9.294   0.294  0.2658  0.7205 -0.1567
21168SOL    HW266398   8.415   9.176   0.359  0.7591  0.5439 -0.9967
21169SOL     OW66399   4.897   0.849   4.800 -0.8289 -0.4837  0.2418
21169SOL    HW166400   4.857   0.809   4.876 -0.7140 -0.7945  0.1395
21169SOL    HW266401   4.969   0.791   4.776  0.2312  0.5008  0.9367
21170SOL     OW66402   9.655   9.068  10.085  0.0688  0.4852 -0.2644
21170SOL    HW166403   9.686   9.155  10.058 -0.4438  2.0722  3.5833
21170SOL    HW266404   9.712   9.044  10.157 -0.8926 -1.6100 -0.1351
21171SOL     OW66405   9.316   4.135   3.393 -0.6068  0.5952  0.0074
21171SOL    HW166406   9.379   4.201   3.364 -0.4666  1.2906  1.7825
21171SOL    HW266407   9.241   4.186   3.424 -0.8437 -0.1143  0.6309
21172SOL     OW66408   0.924   8.033   4.637  0.3443  0.0841  0.3279
21172SOL    HW166409   0.914   8.049   4.543  0.9853  0.2563  0.2856
21172SOL    HW266410   0.953   8.117   4.673 -0.5331  0.2074  0.7908
21173SOL     OW66411   0.912   0.429  10.206 -0.1323 -0.4998  0.3862
21173SOL    HW166412   0.870   0.512  10.185 -0.9144 -1.2528 -1.1314
21173SOL    HW266413   0.944   0.441  10.296 -0.0476  1.4962  0.1353
21174SOL     OW66414   4.240   7.940   0.265  0.1767 -0.8892  0.4794
21174SOL    HW166415   4.217   7.847   0.259 -1.0824 -0.5880  0.2761
21174SOL    HW266416   4.247   7.956   0.359 -0.2522 -1.0501  0.5418
21175SOL     OW66417   1.410   7.404   5.535 -0.2866 -0.1424 -0.1910
21175SOL    HW166418   1.391   7.455   5.613  1.0890  0.3407 -0.1493
21175SOL    HW266419   1.449   7.323   5.568 -3.1542 -1.6638 -0.2064
21176SOL     OW66420  10.249   4.708   2.142 -0.0931 -0.2388 -0.0695
21176SOL    HW166421  10.323   4.673   2.092  0.5731 -0.7802  1.2314
21176SOL    HW266422  10.172   4.674   2.097  0.4740 -0.4898 -0.8772
21177SOL     OW66423   6.463   2.670   2.856 -0.1961 -0.2905 -0.2457
21177SOL    HW166424   6.495   2.582   2.832 -0.9744 -1.2002  1.8092
21177SOL    HW266425   6.499   2.685   2.944 -2.1469  0.3105  0.5035
21178SOL     OW66426   9.060   0.630   9.676 -0.4186  0.4247  0.4052
21178SOL    HW166427   9.042   0.537   9.663 -1.8663  0.7756 -0.2407
21178SOL    HW266428   9.130   0.650   9.614  0.6275 -0.4448  1.2705
21179SOL     OW66429   1.511   3.571   1.644 -0.1906  0.3460  0.5944
21179SOL    HW166430   1.484   3.642   1.702  0.0443  1.1755 -0.2894
21179SOL    HW266431   1.578   3.610   1.588 -0.6131 -0.3613 -0.4198
21180SOL     OW66432   0.246   4.267   7.952 -0.3287 -0.2752 -0.2401
21180SOL    HW166433   0.303   4.330   7.906 -0.0569 -1.2205 -1.2435
21180SOL    HW266434   0.283   4.182   7.931 -1.7002 -0.8777 -0.3139
21181SOL     OW66435   5.117   6.849   9.226  0.0827  0.5994  0.3125
21181SOL    HW166436   5.077   6.902   9.295 -1.3160 -1.2168  0.9865
21181SOL    HW266437   5.112   6.759   9.259 -0.1351 -0.2628 -1.9161
21182SOL     OW66438   6.271   5.899   3.258 -1.0397  0.3198 -0.2062
21182SOL    HW166439   6.269   5.845   3.337 -0.5275  1.1495  0.3942
21182SOL    HW266440   6.233   5.844   3.190 -2.7506  0.0617  0.9116
21183SOL     OW66441   5.741   1.758   4.547 -0.4251 -0.4807  0.1363
21183SOL    HW166442   5.834   1.739   4.533 -0.7209 -0.2277 -2.7636
21183SOL    HW266443   5.738   1.851   4.567  0.0048 -0.7190  1.3861
21184SOL     OW66444   0.709   8.546   8.723 -0.3351 -0.2037  0.4800
21184SOL    HW166445   0.660   8.626   8.742 -0.6539 -0.2105 -0.2532
21184SOL    HW266446   0.688   8.527   8.631  0.3963 -0.6659  0.3997
21185SOL     OW66447   4.442   0.445   4.003  0.0368 -0.3398 -0.2285
21185SOL    HW166448   4.534   0.467   3.987  0.5603  0.5455  3.3238
21185SOL    HW266449   4.394   0.525   3.979  0.6899  0.6598  1.6113
21186SOL     OW66450   5.535   0.759   2.639  0.5934 -0.1673  0.1014
21186SOL    HW166451   5.594   0.817   2.591  1.2419 -0.7399  0.1962
21186SOL    HW266452   5.572   0.755   2.728 -1.2344  1.8207  1.0564
21187SOL     OW66453   4.470   7.827   1.571  0.5053 -0.0019 -0.0810
21187SOL    HW166454   4.555   7.849   1.533  0.4734 -1.0055 -0.7702
21187SOL    HW266455   4.489   7.757   1.634  0.3217  0.4952  0.5429
21188SOL     OW66456  10.396   8.743   0.917 -0.1719  0.6758  0.2106
21188SOL    HW166457  10.378   8.792   0.837  0.6512  0.8301  0.1205
21188SOL    HW266458  10.313   8.747   0.966  0.2034  3.2196  0.7768
21189SOL     OW66459   4.088   6.807   2.152  0.4357  0.4155 -0.2289
21189SOL    HW166460   4.071   6.743   2.221  0.5549  0.5485 -0.0751
21189SOL    HW266461   4.008   6.808   2.099  0.7630 -0.5310 -0.7683
21190SOL     OW66462   2.073   0.992   6.459 -0.3418 -0.6420  0.2647
21190SOL    HW166463   2.110   0.971   6.373  1.1268 -1.3183  1.0269
21190SOL    HW266464   2.058   1.086   6.456 -0.0057 -0.6069 -0.6204
21191SOL     OW66465   8.126   5.940   7.635  0.1328  0.2716 -0.2778
21191SOL    HW166466   8.043   5.957   7.590  1.1412  1.6675 -1.7319
21191SOL    HW266467   8.102   5.932   7.727 -1.5469  1.3000 -0.5794
21192SOL     OW66468   5.738   5.838   6.997 -0.6710 -0.3584  0.1229
21192SOL    HW166469   5.813   5.781   7.012  2.2685  1.8928 -4.0085
21192SOL    HW266470   5.689   5.797   6.925 -1.8743 -0.4368  0.9529
21193SOL     OW66471   4.019   8.908   2.380 -0.1362  0.5655 -0.0623
21193SOL    HW166472   4.114   8.910   2.366 -0.1534  2.2626 -0.1531
21193SOL    HW266473   3.982   8.889   2.293  0.1272 -2.4873  0.3770
21194SOL     OW66474  10.074   4.898   7.581 -0.2341 -0.2486  0.5277
21194SOL    HW166475  10.018   4.975   7.589  0.3421  0.1917  0.3884
21194SOL    HW266476  10.013   4.825   7.575 -0.7935  0.2146  0.4537
21195SOL     OW66477   0.458   0.652   3.781  0.1523 -0.1965  0.2089
21195SOL    HW166478   0.549   0.623   3.786 -0.2079 -1.1391  2.4162
21195SOL    HW266479   0.455   0.733   3.833 -0.0069  0.6856 -1.1204
21196SOL     OW66480  10.121   2.877   5.660 -0.5436  0.1970 -0.1379
21196SOL    HW166481  10.050   2.936   5.635 -0.3857  0.6377  0.4408
21196SOL    HW266482  10.178   2.930   5.715  0.4562 -0.0253 -0.9140
21197SOL     OW66483   6.340   6.678  10.451  0.0318  0.1400  0.4436
21197SOL    HW166484   6.273   6.659  10.385  1.1414  0.4676 -0.8214
21197SOL    HW266485   6.328   6.771  10.472 -0.7360 -0.1214  1.2089
21198SOL     OW66486   3.513   9.395   4.132  0.0123  0.0135  0.0929
21198SOL    HW166487   3.569   9.363   4.203  0.0265 -0.0753  0.0418
21198SOL    HW266488   3.566   9.462   4.088 -0.1419  0.3400  0.4037
21199SOL     OW66489   8.257   6.946   6.011 -0.4259 -0.0350 -0.1935
21199SOL    HW166490   8.243   7.013   6.078 -3.3978  2.1159 -2.6892
21199SOL    HW266491   8.304   6.876   6.057 -1.1577  1.7862  3.7520
21200SOL     OW66492  10.560   4.409   4.069  0.1692 -0.0402  0.3361
21200SOL    HW166493  10.500   4.335   4.063 -1.1522  1.1112 -1.8595
21200SOL    HW266494  10.636   4.382   4.016 -0.3792  0.2119 -0.5930
21201SOL     OW66495   8.135   5.766   2.025  0.0245 -0.3222  0.2068
21201SOL    HW166496   8.098   5.816   2.099 -1.5371 -2.6482  1.1294
21201SOL    HW266497   8.075   5.784   1.953 -0.4400 -0.7124  0.4894
21202SOL     OW66498   0.080   9.995   4.904  0.2358  0.3824 -0.1022
21202SOL    HW166499   0.168   9.990   4.941  0.0968 -0.3639  0.1604
21202SOL    HW266500   0.076  10.080   4.862  1.8045 -0.3521 -1.9151
21203SOL     OW66501   3.600   7.349   5.942 -0.0907 -0.1979  0.2593
21203SOL    HW166502   3.645   7.402   6.008 -0.1432 -1.4150  1.3186
21203SOL    HW266503   3.670   7.302   5.897 -0.1191 -0.0511  0.0606
21204SOL     OW66504   6.797   0.592   5.466 -0.2453  0.5437  0.3453
21204SOL    HW166505   6.814   0.670   5.519 -0.6646  0.2192  0.9643
21204SOL    HW266506   6.704   0.597   5.446 -0.0497  0.7816 -0.5681
21205SOL     OW66507  10.166   1.031   1.990  0.2158  0.0775  0.2352
21205SOL    HW166508  10.116   1.005   2.068 -0.8840 -0.4612 -0.6291
21205SOL    HW266509  10.114   1.102   1.952 -0.1692 -0.8222 -0.9487
21206SOL     OW66510   9.482   5.433   2.730 -0.1677 -0.2577 -0.0182
21206SOL    HW166511   9.446   5.515   2.763 -1.3088  0.0444 -1.8625
21206SOL    HW266512   9.406   5.377   2.717  0.3738 -0.8253 -0.8353
21207SOL     OW66513   3.170   6.943   1.801 -0.8396  0.0544 -0.2887
21207SOL    HW166514   3.141   6.889   1.727 -1.3453  1.4046 -1.1207
21207SOL    HW266515   3.157   6.887   1.878 -0.6353 -1.2655 -1.1719
21208SOL     OW66516   6.898   2.855   5.768  0.4205 -0.0465  0.4257
21208SOL    HW166517   6.844   2.808   5.831  0.8059 -0.1064  0.7090
21208SOL    HW266518   6.965   2.792   5.741 -0.6711 -0.5750 -1.2645
21209SOL     OW66519  10.707   6.239   5.646  0.5027 -0.1862 -0.3834
21209SOL    HW166520  10.723   6.175   5.714 -0.1363 -0.4998 -0.5179
21209SOL    HW266521  10.756   6.207   5.570 -0.2932 -0.8581 -0.6365
21210SOL     OW66522   1.823   1.286   8.463  0.2734  0.1384 -0.1651
21210SOL    HW166523   1.789   1.315   8.548 -1.4614 -2.4387  0.1134
21210SOL    HW266524   1.789   1.349   8.400 -0.6601  0.5632  0.7485
21211SOL     OW66525   6.903   6.511   5.029  0.1650 -0.3916  0.2290
21211SOL    HW166526   6.993   6.493   5.002  0.8485  1.2166  1.3081
21211SOL    HW266527   6.850   6.449   4.978  1.6119  0.4070 -2.4206
21212SOL     OW66528   1.817   1.528   5.576 -0.0077 -0.1108  0.2094
21212SOL    HW166529   1.871   1.530   5.655  0.0976  1.6795  0.1384
21212SOL    HW266530   1.759   1.453   5.588 -0.4521  0.5187  2.3168
21213SOL     OW66531  10.089   3.524   4.376  0.0968  0.1448 -0.3690
21213SOL    HW166532  10.101   3.557   4.287  0.1603 -0.3426 -0.5431
21213SOL    HW266533  10.163   3.464   4.389 -1.1020 -1.4723 -0.7726
21214SOL     OW66534   8.936   5.896   8.280 -0.0237 -0.2714  0.7867
21214SOL    HW166535   8.872   5.827   8.301 -0.7334  0.3220  0.6087
21214SOL    HW266536   8.936   5.953   8.357  1.8226 -1.3654  1.6624
21215SOL     OW66537   0.011   2.068   6.717 -0.1674  0.3092  0.2910
21215SOL    HW166538  -0.084   2.076   6.720 -0.3372  0.2743 -2.2846
21215SOL    HW266539   0.028   1.974   6.729 -0.8721 -0.3987 -3.1298
21216SOL     OW66540   6.007   1.929   0.916 -0.3367 -0.3527  0.6291
21216SOL    HW166541   6.027   1.966   1.002  3.9673  0.1097 -0.3610
21216SOL    HW266542   6.002   2.004   0.858 -1.0534 -0.8130  0.0775
21217SOL     OW66543   0.630   2.374   4.059  0.3604 -0.1767  0.7431
21217SOL    HW166544   0.677   2.293   4.041  1.1154  0.5909 -1.0126
21217SOL    HW266545   0.663   2.403   4.144  0.5495 -1.3591  1.0876
21218SOL     OW66546   2.160   7.797   5.317  0.1244 -0.6036 -0.1594
21218SOL    HW166547   2.071   7.809   5.283  0.7088 -1.4714 -2.1307
21218SOL    HW266548   2.149   7.796   5.412 -2.2166 -2.2438 -0.3632
21219SOL     OW66549   0.407   2.955   2.859  0.0062  0.4412  0.1043
21219SOL    HW166550   0.324   2.922   2.825 -0.4986  1.5747  0.1819
21219SOL    HW266551   0.421   3.037   2.811  0.9861  0.3661  0.2345
21220SOL     OW66552   3.558   0.185   3.539  0.0448  0.3356 -0.6883
21220SOL    HW166553   3.489   0.151   3.596  0.0165  2.4068  0.6180
21220SOL    HW266554   3.513   0.210   3.459 -0.1964 -1.0710 -1.0144
21221SOL     OW66555   4.840   8.972  10.105 -0.2966  0.0305 -0.1920
21221SOL    HW166556   4.778   8.913  10.063 -0.3218 -0.1432  0.0930
21221SOL    HW266557   4.903   8.915  10.149 -0.5751  0.2188  0.4552
21222SOL     OW66558   9.969   4.954   4.938 -0.6962  0.1197 -0.0910
21222SOL    HW166559   9.977   4.899   4.860 -0.4996 -1.9956  1.3540
21222SOL    HW266560  10.004   5.039   4.910  2.4513 -1.4591 -1.4375
21223SOL     OW66561   3.110   5.893   1.597 -0.2057 -0.2295  0.1800
21223SOL    HW166562   3.043   5.830   1.571 -1.4341  0.5277  1.3690
21223SOL    HW266563   3.134   5.938   1.516 -0.2956 -1.2948 -0.4493
21224SOL     OW66564   8.757   8.425   5.175 -0.0078 -0.6043  0.2216
21224SOL    HW166565   8.787   8.499   5.123  1.8776 -1.4816 -0.0220
21224SOL    HW266566   8.673   8.400   5.135 -0.0867  0.6361 -0.4279
21225SOL     OW66567   3.068   1.548   3.054  0.3437  0.4964  0.6986
21225SOL    HW166568   3.130   1.515   2.989 -2.3331 -1.7127 -0.9900
21225SOL    HW266569   3.026   1.623   3.011  0.7661  1.0412  1.2224
21226SOL     OW66570   7.592   0.894   8.024 -0.3466 -0.4463  0.1619
21226SOL    HW166571   7.663   0.955   8.041 -0.1921 -0.8024  0.8260
21226SOL    HW266572   7.588   0.887   7.928 -1.4052  1.8116 -0.0125
21227SOL     OW66573   6.214   4.838   8.383  0.3743 -0.2523  0.6158
21227SOL    HW166574   6.218   4.782   8.461  2.5661 -1.0335 -0.0006
21227SOL    HW266575   6.170   4.917   8.413 -1.5681 -1.7130  1.8677
21228SOL     OW66576   4.015   4.994   9.612  0.6365 -0.3887  1.1208
21228SOL    HW166577   3.986   4.907   9.582  0.2208 -0.2008  0.9730
21228SOL    HW266578   3.959   5.014   9.686 -0.5206  0.5332  0.0469
21229SOL     OW66579   6.981  10.410   0.162  0.2031  0.4533  0.2826
21229SOL    HW166580   7.035  10.339   0.196 -2.0860 -1.4464  0.2611
21229SOL    HW266581   6.892  10.384   0.185 -1.2181  0.8197 -3.9133
21230SOL     OW66582   3.541   7.696   4.583  0.3580 -0.2189  0.2752
21230SOL    HW166583   3.573   7.743   4.660 -0.4196 -1.8903  1.7091
21230SOL    HW266584   3.451   7.728   4.571 -0.4557 -1.7676  1.7384
21231SOL     OW66585   4.103   2.939   9.975 -0.0925 -0.2216  0.2645
21231SOL    HW166586   4.153   3.020   9.987 -0.3325  0.6082 -3.3921
21231SOL    HW266587   4.012   2.964   9.993  0.0602 -0.2277  1.0898
21232SOL     OW66588   5.696   4.398   4.949  0.2459 -0.5988 -0.4636
21232SOL    HW166589   5.669   4.334   4.883  0.2146 -0.6102 -0.4396
21232SOL    HW266590   5.778   4.435   4.916 -1.0580  1.2759 -1.7854
21233SOL     OW66591   1.919   5.962   5.506  0.3293  0.0302  0.2662
21233SOL    HW166592   1.970   5.882   5.521  1.2794  0.7309  0.9082
21233SOL    HW266593   1.846   5.956   5.567  0.6775 -0.1223  0.6776
21234SOL     OW66594   6.811   7.171   7.283  0.4071 -0.1994 -0.2340
21234SOL    HW166595   6.886   7.224   7.255 -0.3900  0.9111 -0.3365
21234SOL    HW266596   6.787   7.207   7.369  0.5075 -1.1161  0.1911
21235SOL     OW66597   1.279   4.510   8.306 -0.4700 -0.1510 -0.4013
21235SOL    HW166598   1.194   4.501   8.262 -0.1807 -0.1414 -0.9675
21235SOL    HW266599   1.280   4.602   8.335  0.1357  0.4191 -2.0886
21236SOL     OW66600   9.691  10.538   5.411 -0.2955  0.1397 -0.3153
21236SOL    HW166601   9.717  10.620   5.453 -0.1393  0.0980 -0.3281
21236SOL    HW266602   9.604  10.556   5.375 -0.7202 -0.0378  0.6054
21237SOL     OW66603   1.859   0.100  10.219  0.0459 -0.0742 -0.1624
21237SOL    HW166604   1.878   0.148  10.139 -0.3872  1.2409  0.4853
21237SOL    HW266605   1.943   0.066  10.248  0.1382 -0.9133 -1.3783
21238SOL     OW66606   9.181   6.157   6.152  0.1152  0.5604 -0.1826
21238SOL    HW166607   9.176   6.236   6.099 -0.5027 -0.4150 -1.6336
21238SOL    HW266608   9.271   6.157   6.186  0.9078  0.6690 -2.1384
21239SOL     OW66609   3.240   5.864   0.987 -0.5991 -0.0248 -0.3921
21239SOL    HW166610   3.217   5.957   0.985 -0.7586 -0.0665 -0.5566
21239SOL    HW266611   3.200   5.830   1.066  0.7300  0.3670  0.4841
21240SOL     OW66612   3.803   1.508   7.126 -0.1901  0.1348  0.0840
21240SOL    HW166613   3.863   1.481   7.195  1.8526  1.1134 -1.1938
21240SOL    HW266614   3.759   1.585   7.161 -0.1889 -0.1798  0.7856
21241SOL     OW66615  10.619   9.938   6.439  0.0881 -0.0246 -0.2080
21241SOL    HW166616  10.615   9.953   6.533 -2.2792  0.7034 -0.3771
21241SOL    HW266617  10.699   9.983   6.410  0.4236  0.3878  1.3149
21242SOL     OW66618   5.133  10.006  10.567 -0.3379 -0.4510  0.2113
21242SOL    HW166619   5.141   9.937  10.632  0.2229  0.4638  1.1410
21242SOL    HW266620   5.048  10.046  10.584  0.3582  0.6398  1.2766
21243SOL     OW66621   1.093   5.297  10.180 -0.0771 -0.5415  0.0531
21243SOL    HW166622   1.001   5.274  10.166 -0.1672 -0.7321  0.8755
21243SOL    HW266623   1.092   5.350  10.260  0.5172 -0.4646  0.0126
21244SOL     OW66624   2.483   6.322   8.636 -0.3807  0.2941  0.3193
21244SOL    HW166625   2.578   6.322   8.627 -0.5164 -1.6914 -2.0547
21244SOL    HW266626   2.463   6.243   8.686 -0.8726 -0.5181 -1.1240
21245SOL     OW66627   3.872   1.039   9.923  0.5711 -0.6771 -0.6502
21245SOL    HW166628   3.910   1.124   9.906  0.0845 -0.1688  0.6127
21245SOL    HW266629   3.915   1.010  10.004 -0.3886 -0.8982 -0.2053
21246SOL     OW66630   6.229  10.693   2.857  0.7259  0.6406  0.1398
21246SOL    HW166631   6.162  10.642   2.903 -0.0017 -0.1596 -1.7308
21246SOL    HW266632   6.257  10.637   2.785  3.1491  1.1247  0.6152
21247SOL     OW66633   5.775   9.091   7.818  0.3584  0.2142 -0.1603
21247SOL    HW166634   5.761   9.040   7.898  0.5849 -1.4056 -1.1050
21247SOL    HW266635   5.827   9.034   7.762 -1.9591  0.1870 -2.5023
21248SOL     OW66636   0.700   4.748   0.036 -0.2117 -0.9014  0.0363
21248SOL    HW166637   0.683   4.658   0.011  1.0795 -1.0937 -0.1876
21248SOL    HW266638   0.626   4.797  -0.000 -2.1579 -2.1167  2.0924
21249SOL     OW66639   8.267   4.059   7.497 -0.0467 -0.1730  0.0574
21249SOL    HW166640   8.202   3.993   7.520  0.8726 -1.1020  0.1080
21249SOL    HW266641   8.304   4.028   7.414  1.2692 -0.4272  0.7021
21250SOL     OW66642   7.642   2.928  10.366  0.0349  0.1125  0.0645
21250SOL    HW166643   7.652   2.986  10.441  0.4855  0.1572 -0.0255
21250SOL    HW266644   7.625   2.987  10.292 -0.2109  0.0813  0.0946
21251SOL     OW66645   6.744   5.258   3.085 -0.3915  0.2530 -0.3000
21251SOL    HW166646   6.728   5.182   3.029 -0.7104 -0.5076  0.7889
21251SOL    HW266647   6.772   5.221   3.169  0.2394  1.3691  0.0136
21252SOL     OW66648   0.162   2.544   9.455  0.0692 -0.2949 -0.1354
21252SOL    HW166649   0.073   2.535   9.490  0.4612  0.6137  1.2055
21252SOL    HW266650   0.214   2.484   9.508  0.4705  0.1771  0.0093
21253SOL     OW66651   8.078  10.411  10.329  0.4810  0.3883  0.3250
21253SOL    HW166652   8.011  10.468  10.366  0.5970  0.1290  0.9392
21253SOL    HW266653   8.101  10.351  10.400  1.1542  0.2881  0.0271
21254SOL     OW66654   0.692   0.474   2.377  0.0268 -0.2286  0.2701
21254SOL    HW166655   0.714   0.460   2.285 -0.6969 -1.2379  0.2356
21254SOL    HW266656   0.714   0.391   2.419  0.7228  0.3543  1.0887
21255SOL     OW66657   5.796   1.671  10.591  0.2606 -0.1268 -0.0426
21255SOL    HW166658   5.757   1.724  10.522  1.5228 -0.5037 -1.0934
21255SOL    HW266659   5.786   1.724  10.670  1.7645  1.8783 -1.1061
21256SOL     OW66660   5.608   5.214   1.259 -0.0791 -0.2169  0.6557
21256SOL    HW166661   5.565   5.155   1.197  1.3458 -0.9974  0.3661
21256SOL    HW266662   5.537   5.265   1.298 -1.3119 -1.8446  0.6142
21257SOL     OW66663   3.294   2.901   6.278  0.5717  0.2154  0.5751
21257SOL    HW166664   3.245   2.823   6.303  0.1251 -0.1012 -1.1662
21257SOL    HW266665   3.247   2.936   6.202  3.2878 -0.4551 -1.5875
21258SOL     OW66666  10.449   9.325   8.041 -0.2655  0.6175  0.5041
21258SOL    HW166667  10.533   9.295   8.075 -0.9123  0.6987  2.2618
21258SOL    HW266668  10.386   9.304   8.110 -1.5859  1.1808 -0.4845
21259SOL     OW66669   0.194   5.730   3.187 -0.1771  0.4552 -0.3562
21259SOL    HW166670   0.208   5.691   3.101  0.1364 -1.0406  0.3264
21259SOL    HW266671   0.156   5.659   3.239  0.5576  1.0140  0.9948
21260SOL     OW66672   0.134   6.249   9.988  0.5428  0.0062 -0.1960
21260SOL    HW166673   0.132   6.195   9.909 -1.9900  0.6145 -0.6431
21260SOL    HW266674   0.060   6.219  10.040  1.4058  0.4826  1.3700
21261SOL     OW66675   3.855   3.774   1.504  0.3464 -0.3090  0.5232
21261SOL    HW166676   3.843   3.680   1.493 -0.3359 -0.0727 -1.0707
21261SOL    HW266677   3.862   3.786   1.598  1.0558 -2.0123  0.7294
21262SOL     OW66678   2.871   2.057   2.782 -0.5211 -0.0060 -0.3477
21262SOL    HW166679   2.793   2.108   2.801 -0.4109  0.0681 -0.1014
21262SOL    HW266680   2.885   2.003   2.860 -0.9027 -0.7549 -0.7831
21263SOL     OW66681   5.877   4.785   6.828 -0.4045  0.6288 -0.4856
21263SOL    HW166682   5.954   4.738   6.795 -0.1519  1.0317 -0.4775
21263SOL    HW266683   5.805   4.723   6.819  0.4828 -1.1508  2.7587
21264SOL     OW66684   0.208   1.496   5.343 -0.0370  0.5169  0.4081
21264SOL    HW166685   0.150   1.421   5.344  0.5853  0.0107  2.1649
21264SOL    HW266686   0.177   1.550   5.270  0.1779 -1.9346 -1.6442
21265SOL     OW66687   4.388  10.130   8.578 -0.1107 -0.2388  0.5886
21265SOL    HW166688   4.341  10.180   8.645  1.6192  2.6841 -0.2122
21265SOL    HW266689   4.459  10.087   8.626 -0.8661 -0.9603  1.0921
21266SOL     OW66690   9.558   6.014   9.646 -0.7169 -0.3055  0.3391
21266SOL    HW166691   9.569   6.093   9.698  1.9554 -0.5255  0.2408
21266SOL    HW266692   9.573   5.942   9.708  2.4151 -0.5720 -0.5714
21267SOL     OW66693   8.229   7.691   0.813 -0.3780 -0.4896  0.7032
21267SOL    HW166694   8.228   7.596   0.802 -0.8197 -0.6136  1.6517
21267SOL    HW266695   8.315   7.709   0.851 -0.6127 -0.6205  1.3083
21268SOL     OW66696  10.230   5.165   8.786 -0.0009  0.3139 -0.2978
21268SOL    HW166697  10.169   5.142   8.715 -2.3193 -0.2992  1.7519
21268SOL    HW266698  10.291   5.091   8.789 -0.3119  0.0002 -1.2094
21269SOL     OW66699   7.005   7.851   9.705 -0.3891  0.4515 -0.4952
21269SOL    HW166700   7.076   7.854   9.640  0.0973 -0.4675 -0.0408
21269SOL    HW266701   6.926   7.868   9.655 -0.0473 -0.4620 -1.3865
21270SOL     OW66702   8.623   2.857   8.691  0.3702 -0.7264 -0.4683
21270SOL    HW166703   8.654   2.894   8.773 -1.7520  0.9411 -0.3425
21270SOL    HW266704   8.632   2.928   8.627  0.3675 -1.4292 -1.2705
21271SOL     OW66705   5.412   5.859   6.400 -0.8038 -0.4692 -0.3553
21271SOL    HW166706   5.317   5.867   6.412 -1.1910 -1.1895 -2.4144
21271SOL    HW266707   5.449   5.933   6.447 -2.2745 -0.7880  1.4462
21272SOL     OW66708   6.090   2.622   2.023  0.1560 -0.6858 -0.3272
21272SOL    HW166709   6.134   2.548   2.065  0.5981  0.3647  1.1147
21272SOL    HW266710   6.017   2.582   1.975  0.7755 -2.1147 -0.1313
21273SOL     OW66711   5.059   1.071   4.784 -0.2332  0.4848 -0.4002
21273SOL    HW166712   5.043   1.116   4.868 -0.7554 -1.4353  0.5910
21273SOL    HW266713   5.020   0.984   4.796 -0.0859  0.0672 -2.5690
21274SOL     OW66714   3.873   4.791   7.398 -0.3026 -0.0895  0.3721
21274SOL    HW166715   3.836   4.868   7.354  0.2814  1.1855  2.0043
21274SOL    HW266716   3.880   4.725   7.329 -1.7594  0.9712 -0.8701
21275SOL     OW66717   7.823   2.349   9.828  0.1484 -0.0054 -0.2801
21275SOL    HW166718   7.843   2.430   9.875  1.9779 -0.6449  0.1520
21275SOL    HW266719   7.885   2.285   9.864  0.1853 -1.0512 -2.0913
21276SOL     OW66720   3.924   9.067   6.882  0.1565 -0.3684 -0.3503
21276SOL    HW166721   3.974   9.053   6.963  1.3343  0.5618 -0.8953
21276SOL    HW266722   3.839   9.027   6.900  1.1062 -2.1374  0.5622
21277SOL     OW66723   7.635   0.481   3.205 -0.6858  0.4173  0.2284
21277SOL    HW166724   7.601   0.396   3.178 -3.1069  0.6775  2.1205
21277SOL    HW266725   7.728   0.466   3.224 -1.2107 -1.9891  1.2022
21278SOL     OW66726   3.061   2.726   4.157 -0.1997  0.4780 -0.1597
21278SOL    HW166727   3.010   2.791   4.206 -1.2523 -1.4503  1.4329
21278SOL    HW266728   3.032   2.736   4.067 -1.6949  0.9951  0.3484
21279SOL     OW66729   2.102   2.881   8.079  0.0217 -0.9994  0.3968
21279SOL    HW166730   2.008   2.867   8.093 -0.3281 -0.2512 -1.0520
21279SOL    HW266731   2.121   2.833   7.998  1.0652 -1.7594  1.0702
21280SOL     OW66732   4.823   2.458   3.476  0.5075  0.9032  0.1001
21280SOL    HW166733   4.789   2.516   3.544  0.4629 -0.5339  1.3768
21280SOL    HW266734   4.918   2.472   3.478  0.7876 -0.7424  2.1420
21281SOL     OW66735  10.250   5.597   5.136 -0.0848 -0.2262 -0.4445
21281SOL    HW166736  10.255   5.603   5.040  0.5754  1.2774 -0.3442
21281SOL    HW266737  10.159   5.621   5.156  0.2930  1.5034 -0.6107
21282SOL     OW66738   8.921   2.955   3.956 -0.3924 -0.1930  0.6635
21282SOL    HW166739   8.905   3.007   3.877  1.1441 -0.2007  0.3218
21282SOL    HW266740   8.890   3.010   4.028 -2.1705 -0.3395  0.0679
21283SOL     OW66741   4.419   2.601   5.087 -0.0778  0.1778  0.1984
21283SOL    HW166742   4.330   2.573   5.065 -0.7690 -0.6388  3.5278
21283SOL    HW266743   4.475   2.550   5.028 -1.7397 -1.0486 -0.3925
21284SOL     OW66744   6.985   8.213   1.585  0.2207  0.1013  0.3190
21284SOL    HW166745   6.970   8.210   1.490  2.3873  2.1479 -0.1900
21284SOL    HW266746   6.919   8.275   1.617 -0.4992 -0.5693  0.1557
21285SOL     OW66747   6.183   4.185   7.041  0.0696  0.2293 -0.0647
21285SOL    HW166748   6.231   4.202   6.959 -0.1094 -0.3279 -0.2907
21285SOL    HW266749   6.206   4.095   7.064 -0.2471  0.2274  0.2536
21286SOL     OW66750  10.270  10.664   8.550 -0.4101 -0.4768 -0.0836
21286SOL    HW166751  10.355  10.622   8.538  1.2890  2.2622  1.3667
21286SOL    HW266752  10.214  10.595   8.585  1.6928 -1.9677  0.5282
21287SOL     OW66753   8.754   4.596   8.038  0.0835 -0.1347  0.3171
21287SOL    HW166754   8.824   4.532   8.042 -0.2467 -0.4328  1.8850
21287SOL    HW266755   8.771   4.655   8.111  1.1397  2.4302 -1.8300
21288SOL     OW66756   4.602   0.486   6.189  0.1362  0.4760  0.0824
21288SOL    HW166757   4.537   0.511   6.255 -0.2131 -2.7523  1.0933
21288SOL    HW266758   4.554   0.432   6.127  1.3444  0.1578 -0.6100
21289SOL     OW66759   7.732   9.525   9.128  0.1032 -0.3126 -0.3582
21289SOL    HW166760   7.651   9.503   9.172  0.8744 -2.6765  0.0291
21289SOL    HW266761   7.754   9.612   9.160 -1.3410 -0.3771  0.9045
21290SOL     OW66762   0.037   8.680   8.063 -0.3725 -0.0864  0.5399
21290SOL    HW166763   0.107   8.637   8.113 -0.0614 -2.7512 -1.9427
21290SOL    HW266764   0.081   8.751   8.018  0.4081 -0.7330  0.2585
21291SOL     OW66765   5.765   5.340   6.194 -0.3799 -0.2055  0.3795
21291SOL    HW166766   5.824   5.371   6.263 -0.7534  0.3534  0.4554
21291SOL    HW266767   5.743   5.419   6.144 -1.3192 -0.3490  0.5505
21292SOL     OW66768  10.743   0.972   9.704 -0.3146  0.4107  0.6203
21292SOL    HW166769  10.695   0.933   9.777  0.4765  1.1553  1.5604
21292SOL    HW266770  10.782   1.052   9.740  1.7363 -0.2263 -0.0508
21293SOL     OW66771   7.223   4.871   7.071  0.3642 -0.3835 -0.6179
21293SOL    HW166772   7.129   4.862   7.061  0.3508  1.1282 -2.1505
21293SOL    HW266773   7.238   4.864   7.166 -1.3553  0.0847 -0.2855
21294SOL     OW66774   3.540   9.025   8.206  0.0515 -0.7969 -0.2122
21294SOL    HW166775   3.539   9.115   8.175 -1.4130 -0.2831  1.1984
21294SOL    HW266776   3.477   8.979   8.149  1.0410 -1.0526 -1.1471
21295SOL     OW66777   8.241   4.228   5.181 -0.2908 -0.2693  0.5067
21295SOL    HW166778   8.269   4.145   5.219 -0.1625  0.0822  1.1956
21295SOL    HW266779   8.267   4.294   5.245 -0.5677  0.2879  0.0583
21296SOL     OW66780   7.115   1.430   2.489 -0.8913 -0.5806  0.1337
21296SOL    HW166781   7.208   1.446   2.501 -0.6075 -2.6145  1.1934
21296SOL    HW266782   7.074   1.468   2.567 -1.0285  0.6959 -0.5400
21297SOL     OW66783   2.962   9.300  10.774 -0.5286 -0.4188 -0.6654
21297SOL    HW166784   3.056   9.287  10.763 -0.3227 -1.7253  1.8507
21297SOL    HW266785   2.922   9.236  10.715  0.2609 -1.8265  0.2605
21298SOL     OW66786   2.986   7.581  10.156  0.3148  0.0409 -0.1067
21298SOL    HW166787   3.024   7.506  10.110 -1.4795 -1.0551  0.1393
21298SOL    HW266788   2.895   7.583  10.128  0.2102  1.8771  0.2528
21299SOL     OW66789   4.362   1.533   6.779  0.5770 -0.2122  0.2989
21299SOL    HW166790   4.271   1.512   6.803  0.5138 -0.0958  0.1664
21299SOL    HW266791   4.374   1.622   6.812  0.6818 -0.2709  0.4194
21300SOL     OW66792   1.351  10.511   6.090  0.0777  0.0634 -0.0347
21300SOL    HW166793   1.373  10.581   6.152  1.4274 -0.5455  0.1972
21300SOL    HW266794   1.259  10.528   6.067  0.1826  1.5230  0.5124
21301SOL     OW66795   4.597   7.944   5.512  0.4106 -0.0781  0.0584
21301SOL    HW166796   4.635   8.013   5.565 -1.4115  0.0070  1.3589
21301SOL    HW266797   4.668   7.880   5.501  1.3697  0.7835  1.0131
21302SOL     OW66798   1.213   5.944   7.335  0.1379  0.3539  0.2269
21302SOL    HW166799   1.233   5.912   7.423  0.6447  1.0312  0.3672
21302SOL    HW266800   1.152   6.016   7.349 -0.7804 -0.3418 -0.0678
21303SOL     OW66801   5.154   9.237   7.622 -0.0514 -0.1194 -0.2836
21303SOL    HW166802   5.167   9.157   7.673  0.6286 -0.5132 -1.0417
21303SOL    HW266803   5.204   9.304   7.670 -0.5279 -0.1607  0.2889
21304SOL     OW66804   1.584   2.853  10.207 -0.8977  0.3558 -0.2971
21304SOL    HW166805   1.562   2.937  10.248 -0.6006 -0.2559  1.2124
21304SOL    HW266806   1.514   2.794  10.236 -0.6074 -0.1279 -0.5732
21305SOL     OW66807   1.175   0.210   9.356 -0.2615  0.2402  0.0060
21305SOL    HW166808   1.270   0.214   9.367 -0.1609  0.7228 -0.9670
21305SOL    HW266809   1.160   0.126   9.313 -0.4052 -0.3793  1.2028
21306SOL     OW66810  10.417   8.758   9.999 -0.1407  0.3344 -0.1353
21306SOL    HW166811  10.355   8.786  10.066  0.4885  1.5258 -0.0303
21306SOL    HW266812  10.381   8.792   9.917  0.8112  1.8632  0.0362
21307SOL     OW66813   5.065   7.582   4.574 -1.2160  0.5866  0.2397
21307SOL    HW166814   5.093   7.567   4.483 -0.8208  1.2046  0.2517
21307SOL    HW266815   4.997   7.517   4.589 -0.2661 -0.5018 -0.0236
21308SOL     OW66816   9.779   9.367  10.618 -0.4482 -0.4097 -0.0990
21308SOL    HW166817   9.821   9.281  10.624 -1.9229 -1.1410  0.4689
21308SOL    HW266818   9.778   9.399  10.708  1.0025  0.6939 -0.4488
21309SOL     OW66819   1.565   9.035   1.169  0.5297  0.3401 -0.1708
21309SOL    HW166820   1.548   8.964   1.232 -0.3540 -0.4832 -1.2713
21309SOL    HW266821   1.640   9.005   1.119  0.3797  0.3415 -0.3992
21310SOL     OW66822   1.537   8.720   2.344 -0.5426 -0.3725 -0.4649
21310SOL    HW166823   1.528   8.627   2.364 -1.0990 -0.1587  0.2853
21310SOL    HW266824   1.462   8.761   2.385  0.8253  0.6872  1.0748
21311SOL     OW66825   8.338   6.940   2.490 -0.0444 -0.1202 -0.2041
21311SOL    HW166826   8.337   7.025   2.534  1.5836 -0.7373  1.1232
21311SOL    HW266827   8.405   6.890   2.536 -0.7847 -2.0530 -1.1175
21312SOL     OW66828   1.661   3.595   3.668  0.2016 -0.3387  0.6766
21312SOL    HW166829   1.737   3.544   3.638 -0.7321 -1.0859 -0.4867
21312SOL    HW266830   1.612   3.534   3.724 -1.1160 -0.9236 -1.0188
21313SOL     OW66831   2.345   7.089   4.930 -0.3991 -0.6972 -0.5937
21313SOL    HW166832   2.297   7.044   4.999 -0.4643 -1.2233 -0.9803
21313SOL    HW266833   2.432   7.050   4.930  1.1880  2.2994  2.1835
21314SOL     OW66834   4.972   9.206   7.223  0.0371 -0.1421  0.1665
21314SOL    HW166835   4.932   9.192   7.309  0.1552  1.8062  0.6033
21314SOL    HW266836   4.899   9.229   7.166  0.0869 -0.3126  0.0363
21315SOL     OW66837   8.337   3.089   2.847 -0.1658  0.3482  0.7445
21315SOL    HW166838   8.363   3.170   2.891  1.7550 -0.1742  0.6703
21315SOL    HW266839   8.303   3.033   2.916  1.6093  0.0227  1.4199
21316SOL     OW66840   1.171   3.755   9.563 -0.1333  0.2902  0.2016
21316SOL    HW166841   1.127   3.670   9.569 -0.3597  0.3152 -0.9584
21316SOL    HW266842   1.235   3.744   9.493 -0.5841  1.2508 -0.3819
21317SOL     OW66843   2.695   0.302   6.085  0.0392  0.2420  0.2252
21317SOL    HW166844   2.654   0.305   5.999 -0.1632  0.3713  0.3262
21317SOL    HW266845   2.774   0.355   6.076  1.2237 -1.5262 -0.5106
21318SOL     OW66846   2.830   4.217   8.290  0.4551  0.1559 -0.2698
21318SOL    HW166847   2.865   4.134   8.323  1.1906  0.4055 -0.3926
21318SOL    HW266848   2.748   4.193   8.246  0.0441 -0.3315  0.7358
21319SOL     OW66849   0.191   9.204   3.157 -0.6245  0.2910  0.4026
21319SOL    HW166850   0.110   9.159   3.181 -1.4514  1.0304 -0.8536
21319SOL    HW266851   0.219   9.160   3.076  1.3193 -1.2263  1.7907
21320SOL     OW66852   1.583   3.039   7.383  0.5299  0.2263  0.0505
21320SOL    HW166853   1.644   3.067   7.450 -1.6554  1.1792  1.7788
21320SOL    HW266854   1.546   3.120   7.349  1.4375 -0.2396 -2.2588
21321SOL     OW66855   6.925   9.577   6.006  0.1505  0.0032  0.2771
21321SOL    HW166856   6.989   9.521   6.051  1.2481  1.5293  0.6730
21321SOL    HW266857   6.841   9.535   6.024  1.0494 -2.5014 -0.9154
21322SOL     OW66858   9.024   0.187   5.738  0.0411 -0.1933  0.1282
21322SOL    HW166859   8.965   0.240   5.685 -0.2568 -0.8792 -0.2240
21322SOL    HW266860   9.075   0.252   5.788  0.4016  0.4695 -1.0544
21323SOL     OW66861   1.899   6.616   6.566 -0.0090 -0.1325 -0.2526
21323SOL    HW166862   1.940   6.703   6.560  1.5606 -0.9621 -3.2033
21323SOL    HW266863   1.805   6.634   6.573  0.3353  1.7877  0.0288
21324SOL     OW66864   1.527   9.674   4.935  0.3032 -0.0270  0.6612
21324SOL    HW166865   1.559   9.690   4.846  0.7620 -0.6019  0.7207
21324SOL    HW266866   1.435   9.651   4.923  0.0867  0.8882  0.4268
21325SOL     OW66867   5.376   2.083   9.210 -0.3548 -0.6470 -0.0834
21325SOL    HW166868   5.365   2.001   9.259 -1.9865  0.1026  0.9003
21325SOL    HW266869   5.470   2.101   9.213  0.4311 -3.6371 -2.3451
21326SOL     OW66870   9.141   7.877   6.815  0.0496  0.3221 -0.7634
21326SOL    HW166871   9.069   7.905   6.759 -0.4472  1.9036  0.5787
21326SOL    HW266872   9.220   7.893   6.764 -0.4494  0.5050 -1.4873
21327SOL     OW66873  10.115   7.690   1.795 -0.1911  0.2282 -0.2951
21327SOL    HW166874  10.058   7.615   1.812 -0.8731  0.8811  0.3738
21327SOL    HW266875  10.060   7.766   1.815  0.6523  0.8925 -0.4773
21328SOL     OW66876   7.093   5.931   9.898  0.2666  0.1477  0.2782
21328SOL    HW166877   7.118   6.022   9.880  0.2293  0.1129  0.0448
21328SOL    HW266878   7.138   5.881   9.830 -0.7700  0.1226 -0.4001
21329SOL     OW66879   8.263   1.381   7.641 -0.2335 -0.3286  0.3019
21329SOL    HW166880   8.188   1.343   7.596 -0.8961 -1.0839  1.9831
21329SOL    HW266881   8.280   1.322   7.714  1.4429  0.3183  0.4654
21330SOL     OW66882   2.737   0.032   9.334 -0.0950  0.4728  0.3596
21330SOL    HW166883   2.830   0.009   9.332  0.0064  0.9441 -0.9587
21330SOL    HW266884   2.700  -0.009   9.256 -1.1009 -0.0351  1.0631
21331SOL     OW66885   2.914   6.088   6.656 -0.5214 -0.2815  0.1335
21331SOL    HW166886   2.935   6.166   6.707 -0.1866  0.0469 -0.4837
21331SOL    HW266887   2.999   6.051   6.632 -0.6689 -1.3750  1.1969
21332SOL     OW66888   6.459  10.298   3.865  0.3120 -0.3583 -0.5074
21332SOL    HW166889   6.407  10.222   3.838  1.3503 -0.8842 -1.1479
21332SOL    HW266890   6.534  10.297   3.805  0.9168  0.5195  0.2074
21333SOL     OW66891   8.235   8.802   4.310  0.2979  0.1849 -0.4641
21333SOL    HW166892   8.249   8.718   4.354  0.9362 -0.0587 -1.1216
21333SOL    HW266893   8.256   8.868   4.377 -0.4116 -0.1609  0.1212
21334SOL     OW66894   7.941   5.860   9.299  0.4656  0.1975  0.7145
21334SOL    HW166895   7.923   5.871   9.392  2.8517 -0.6255  1.3661
21334SOL    HW266896   7.934   5.948   9.262 -2.2690  0.2896  1.2392
21335SOL     OW66897   5.656   3.897   4.808  0.0179 -0.1833 -0.4018
21335SOL    HW166898   5.733   3.951   4.828  0.2188 -0.7094  0.3015
21335SOL    HW266899   5.652   3.834   4.880 -1.7850  0.5973  0.2378
21336SOL     OW66900   7.811   9.824   8.015  0.5179 -0.1824  0.6855
21336SOL    HW166901   7.800   9.833   7.920 -0.1143 -1.6517  0.5864
21336SOL    HW266902   7.863   9.744   8.025  1.1003  0.2963  1.5635
21337SOL     OW66903   8.256   2.176   1.492  0.3266  0.0099 -0.2047
21337SOL    HW166904   8.311   2.100   1.474  1.3818  1.0507 -1.4975
21337SOL    HW266905   8.316   2.250   1.497 -0.9403  1.3354 -2.5510
21338SOL     OW66906  10.608   2.985   9.444 -0.2849 -0.8445 -0.0902
21338SOL    HW166907  10.514   2.969   9.449 -1.0375  2.7260  0.0540
21338SOL    HW266908  10.623   3.012   9.353  0.6390 -1.4228 -0.1253
21339SOL     OW66909   0.420   5.491   2.327 -0.5507  0.4201 -0.0414
21339SOL    HW166910   0.497   5.468   2.378 -0.1772  0.6163 -0.5109
21339SOL    HW266911   0.447   5.480   2.236 -0.6079  1.8964 -0.2600
21340SOL     OW66912   6.078   4.146   9.285 -0.2595  0.4796  0.0366
21340SOL    HW166913   6.131   4.159   9.363 -3.1774 -0.9563  2.4297
21340SOL    HW266914   6.066   4.235   9.250  0.3360  1.2873  1.7648
21341SOL     OW66915   3.596   0.583   6.017 -0.3515 -0.1831  0.3031
21341SOL    HW166916   3.570   0.658   6.071 -1.5049 -0.5998  0.3445
21341SOL    HW266917   3.523   0.572   5.956  0.1330 -0.8397 -0.1602
21342SOL     OW66918   5.625   5.767   5.158 -0.1601  0.4408  0.5734
21342SOL    HW166919   5.563   5.723   5.216  1.5598 -1.7086  0.9276
21342SOL    HW266920   5.597   5.743   5.069  1.3933 -2.5905  0.7623
21343SOL     OW66921   8.371   9.139   5.984  0.3118  0.2740 -0.0900
21343SOL    HW166922   8.337   9.121   6.071  0.7897  1.5865  0.3835
21343SOL    HW266923   8.380   9.234   5.980  1.3511  0.1604 -1.1579
21344SOL     OW66924   6.116   8.041   1.704 -0.2077  0.5845 -0.2672
21344SOL    HW166925   6.072   8.005   1.627 -1.4787 -2.3748  1.6397
21344SOL    HW266926   6.205   8.007   1.698  0.1470  1.5915 -1.0990
21345SOL     OW66927   8.580   7.209   5.989  0.0974 -0.5386  0.1367
21345SOL    HW166928   8.492   7.188   5.958 -0.1176  1.3453 -0.6855
21345SOL    HW266929   8.633   7.210   5.909  1.5600 -4.3403  0.8788
21346SOL     OW66930   9.920   5.030   3.345 -0.4229 -0.3743 -0.0137
21346SOL    HW166931   9.843   5.086   3.346 -0.7568 -0.7632 -1.3992
21346SOL    HW266932   9.942   5.021   3.252  0.6440 -1.1493  0.2892
21347SOL     OW66933   9.859   8.691   1.653  0.2153  0.1201  0.0450
21347SOL    HW166934   9.794   8.622   1.636  1.4806 -0.8513 -1.0913
21347SOL    HW266935   9.916   8.654   1.721  0.2728  0.4939  0.2023
21348SOL     OW66936   8.930   2.351   3.376  0.0182 -0.2572 -0.2523
21348SOL    HW166937   8.932   2.419   3.309  3.6358 -0.3876 -0.4936
21348SOL    HW266938   8.995   2.287   3.347 -0.7654 -2.0539  1.7112
21349SOL     OW66939   0.428   3.549   3.985  0.2019 -0.1978  0.3256
21349SOL    HW166940   0.477   3.629   3.965 -0.3124  0.3674  1.2158
21349SOL    HW266941   0.388   3.524   3.902 -0.3006  0.9495  0.2037
21350SOL     OW66942   2.517  10.637   9.883  0.2712 -0.5196 -0.1324
21350SOL    HW166943   2.422  10.639   9.872  0.1996  0.4776  0.5058
21350SOL    HW266944   2.538  10.545   9.898 -0.3830 -0.9887 -1.9136
21351SOL     OW66945   1.192   3.580   3.011  0.4423 -0.1266 -0.1752
21351SOL    HW166946   1.152   3.626   3.085 -0.8549 -1.8506  0.2733
21351SOL    HW266947   1.175   3.487   3.029  2.1852 -0.7481 -1.4653
21352SOL     OW66948   1.575   5.763   5.179  0.0225  0.1736 -0.3910
21352SOL    HW166949   1.607   5.805   5.259 -0.6379  0.7710 -0.4294
21352SOL    HW266950   1.589   5.829   5.110 -0.0111 -0.0866 -0.6483
21353SOL     OW66951   6.652   4.645   2.600  0.1980  0.8205 -0.6001
21353SOL    HW166952   6.729   4.589   2.609 -0.8188 -0.4922  0.4563
21353SOL    HW266953   6.686   4.734   2.603  1.7648  0.2723 -1.1683
21354SOL     OW66954   8.928   4.153   3.234  0.0944 -0.3300 -0.3539
21354SOL    HW166955   8.889   4.184   3.152  1.4445  1.1280 -0.4775
21354SOL    HW266956   8.890   4.209   3.302 -0.0509 -0.7010 -0.1214
21355SOL     OW66957   4.507  10.332   1.364  0.0456  0.6095 -0.2140
21355SOL    HW166958   4.512  10.259   1.427  0.1575 -0.9270 -1.9347
21355SOL    HW266959   4.490  10.409   1.419  0.2450 -0.6358  1.7104
21356SOL     OW66960   8.372   9.224   7.917 -0.5185 -0.7781 -0.2015
21356SOL    HW166961   8.404   9.212   7.828  0.6985 -0.4970  0.1734
21356SOL    HW266962   8.381   9.318   7.933 -0.4240 -0.8685  0.3100
21357SOL     OW66963   7.485   7.270   1.803  0.1110 -0.2377  0.1247
21357SOL    HW166964   7.507   7.182   1.832 -0.9205 -0.4498  0.3192
21357SOL    HW266965   7.470   7.319   1.884  0.9728  0.2024  0.0254
21358SOL     OW66966   7.568   1.866   7.173 -0.3555 -0.0430  0.0671
21358SOL    HW166967   7.586   1.812   7.251  0.1868  0.4211  0.2690
21358SOL    HW266968   7.482   1.905   7.191  0.1125  0.7001  0.8197
21359SOL     OW66969   8.255   7.342   7.941 -0.7301  0.2499  0.4484
21359SOL    HW166970   8.192   7.413   7.949 -1.7097 -0.5186 -0.2659
21359SOL    HW266971   8.333   7.384   7.904 -1.7736  0.7469 -1.3290
21360SOL     OW66972   7.455   5.919  10.202  0.8086 -0.2291  0.1632
21360SOL    HW166973   7.439   5.912  10.297  0.4607  0.1355  0.1315
21360SOL    HW266974   7.428   6.008  10.180  0.6525 -0.3994 -0.3284
21361SOL     OW66975   6.906   7.944   6.724  0.0106 -0.4571 -0.4306
21361SOL    HW166976   6.980   7.886   6.709 -0.2556 -1.1111  0.6364
21361SOL    HW266977   6.879   7.972   6.637  0.8943 -0.9906 -0.8887
21362SOL     OW66978   2.438   1.928   2.837  0.5566  0.1366  0.0031
21362SOL    HW166979   2.467   1.922   2.746  0.5756 -1.8181  0.0987
21362SOL    HW266980   2.361   1.986   2.834  0.4585 -0.0297 -1.2855
21363SOL     OW66981   0.384   2.043   5.168  0.3859 -0.2053 -0.1720
21363SOL    HW166982   0.419   2.100   5.099 -0.6512 -0.2766 -0.7805
21363SOL    HW266983   0.439   2.061   5.244  2.3333 -1.0236 -1.3292
21364SOL     OW66984   4.768   4.341   1.367  0.3588  0.4555  0.0305
21364SOL    HW166985   4.765   4.270   1.430  1.1575 -1.2886 -1.7675
21364SOL    HW266986   4.786   4.298   1.283  0.6974  2.7670 -1.1811
21365SOL     OW66987   9.808   5.242   4.647  0.1018  0.0238  0.1226
21365SOL    HW166988   9.747   5.277   4.582  0.7489 -0.4760 -0.7673
21365SOL    HW266989   9.764   5.164   4.682  1.0103 -1.4782 -1.9170
21366SOL     OW66990   7.354   8.411   5.337 -0.5431 -0.4150  0.4429
21366SOL    HW166991   7.323   8.501   5.337  1.4048  0.3133  0.3296
21366SOL    HW266992   7.344   8.382   5.246  1.4119  0.7190 -0.2066
21367SOL     OW66993   0.851   6.391   8.604 -0.1518 -0.1146  1.0096
21367SOL    HW166994   0.779   6.402   8.666 -0.4462  1.2890  0.4544
21367SOL    HW266995   0.824   6.319   8.547 -1.8741  1.3665 -0.1637
21368SOL     OW66996   9.656   2.900   0.490 -0.6166  0.0671  0.2862
21368SOL    HW166997   9.697   2.845   0.557  0.2184  0.8034  0.3926
21368SOL    HW266998   9.730   2.932   0.437 -0.9494  2.1033  0.9947
21369SOL     OW66999  10.147   8.754   5.588  0.7258  0.0768 -0.3877
21369SOL    HW167000  10.169   8.777   5.679 -2.1274 -0.9107  0.6730
21369SOL    HW267001  10.117   8.836   5.549  1.9444  0.5035 -0.4767
21370SOL     OW67002   5.988   1.685   6.910 -0.3274 -0.0495 -0.3074
21370SOL    HW167003   6.007   1.711   6.820  0.4782  1.3281  0.2240
21370SOL    HW267004   6.061   1.720   6.961 -0.5817 -1.1273  0.8342
21371SOL     OW67005   6.826   2.095   2.150 -0.3918  0.0803 -0.0798
21371SOL    HW167006   6.875   2.045   2.085  1.3802 -0.4692  1.5965
21371SOL    HW267007   6.766   2.031   2.189  1.4235 -0.6701  1.6147
21372SOL     OW67008   3.360   9.575   6.102 -0.9843  0.3250 -0.1725
21372SOL    HW167009   3.359   9.552   6.009 -1.0483  0.7283 -0.2740
21372SOL    HW267010   3.313   9.504   6.145 -1.7747  0.5908 -0.5611
21373SOL     OW67011   9.417   5.059   1.215  0.2217  0.7145  0.1936
21373SOL    HW167012   9.460   5.143   1.203 -0.2184  0.6224 -2.6232
21373SOL    HW267013   9.440   5.008   1.137 -2.2676 -0.5293  0.1551
21374SOL     OW67014   1.971   7.801   4.643 -0.2840  0.4666  0.3599
21374SOL    HW167015   1.967   7.885   4.687  1.5157 -0.2632  2.0632
21374SOL    HW267016   1.985   7.822   4.551  2.9772  2.1094  1.0944
21375SOL     OW67017   2.763   5.798   5.459 -0.1758 -0.1379  0.3812
21375SOL    HW167018   2.689   5.763   5.410 -0.9127  0.6687  0.8828
21375SOL    HW267019   2.784   5.730   5.523 -1.1130  0.0098  0.8661
21376SOL     OW67020   9.564   6.909   2.671 -0.4425  0.0218  0.1921
21376SOL    HW167021   9.502   6.978   2.691  0.1884  0.6091  0.1520
21376SOL    HW267022   9.647   6.939   2.708  0.2881  0.1988 -1.5067
21377SOL     OW67023  10.076   0.475   0.227  0.0676  0.4009  0.3056
21377SOL    HW167024  10.141   0.450   0.294  0.4767  0.6851  0.0201
21377SOL    HW267025  10.076   0.401   0.166  0.7418  0.7591 -0.1435
21378SOL     OW67026   3.410   2.964   0.061  0.7062 -0.6203 -0.3794
21378SOL    HW167027   3.360   2.883   0.061  0.9534 -0.7730 -0.4157
21378SOL    HW267028   3.352   3.028   0.104  0.2854 -0.6694 -0.8607
21379SOL     OW67029   5.870   4.983  10.132  0.8346  0.2664  0.5742
21379SOL    HW167030   5.884   5.074  10.107 -0.9825  0.7270  1.0697
21379SOL    HW267031   5.809   4.950  10.066  0.9236 -0.3870  0.8113
21380SOL     OW67032  10.765   3.334   4.546 -0.3332  0.0428  0.1565
21380SOL    HW167033  10.834   3.399   4.557  1.7689 -1.7267 -1.6313
21380SOL    HW267034  10.685   3.386   4.532  1.0328  2.2032 -0.0237
21381SOL     OW67035   4.514  10.434   0.980  0.1323  0.0594 -0.0975
21381SOL    HW167036   4.608  10.448   0.988 -0.0305  1.9481 -1.0757
21381SOL    HW267037   4.483  10.432   1.071  1.0608 -0.3679  0.2280
21382SOL     OW67038   8.635   1.913   5.823 -0.1777 -0.9074 -0.0989
21382SOL    HW167039   8.552   1.875   5.792 -0.6359  0.9344 -1.3324
21382SOL    HW267040   8.655   1.865   5.903 -2.5547 -1.3013  0.3540
21383SOL     OW67041   4.365   1.732   0.795  0.5857  0.4577 -0.3961
21383SOL    HW167042   4.324   1.758   0.877  1.8182 -2.9800  1.5007
21383SOL    HW267043   4.409   1.811   0.763 -1.3488  2.3257  1.2817
21384SOL     OW67044   6.317   6.769   5.632  0.1989 -0.6161 -0.6951
21384SOL    HW167045   6.275   6.764   5.546  0.2551 -0.3397 -0.7398
21384SOL    HW267046   6.245   6.764   5.695  0.2675 -2.3657 -0.7138
21385SOL     OW67047  10.225  10.422   2.965 -0.1672  0.6579  0.1271
21385SOL    HW167048  10.148  10.443   3.020 -0.5134 -1.3275  0.4858
21385SOL    HW267049  10.190  10.416   2.877 -0.4448 -0.2776  0.2952
21386SOL     OW67050   6.054   0.908   9.911 -0.0216  0.8739  0.1608
21386SOL    HW167051   5.970   0.943   9.883 -0.7295 -0.1606  0.9009
21386SOL    HW267052   6.119   0.960   9.864 -1.0876  0.9362 -1.3259
21387SOL     OW67053   0.956   4.161   6.169  0.3667 -0.5093  0.2801
21387SOL    HW167054   0.956   4.089   6.233  1.9401 -0.8800 -0.1039
21387SOL    HW267055   1.039   4.152   6.123  0.4759  1.4116  0.0316
21388SOL     OW67056   1.141   7.304   0.671  0.1300  0.1136 -0.0071
21388SOL    HW167057   1.165   7.225   0.622  0.0175  0.3824 -0.5007
21388SOL    HW267058   1.060   7.280   0.716  0.0884 -0.0502 -0.1654
21389SOL     OW67059  10.230   4.641   5.230  0.3402 -0.2552 -0.3830
21389SOL    HW167060  10.137   4.622   5.239  0.2204  0.3208 -0.3691
21389SOL    HW267061  10.233   4.734   5.209  1.0096  0.2289  1.6287
21390SOL     OW67062   2.755   1.098   2.450  0.3649 -0.0062 -0.0209
21390SOL    HW167063   2.767   1.193   2.456  0.7867 -0.0991  0.7549
21390SOL    HW267064   2.755   1.068   2.541  0.2357 -0.7499 -0.2610
21391SOL     OW67065  10.030   5.751   7.836 -0.7345  0.6406 -0.2310
21391SOL    HW167066   9.989   5.824   7.883  1.3212  0.1768  2.5089
21391SOL    HW267067  10.093   5.793   7.778  0.6016  1.1109  1.4956
21392SOL     OW67068   7.621   2.728   0.895  0.6236 -0.8738  0.1725
21392SOL    HW167069   7.626   2.636   0.919  1.0829 -0.9896 -0.3498
21392SOL    HW267070   7.581   2.728   0.808  1.3184 -0.6286 -0.1475
21393SOL     OW67071   6.409  10.368   1.857 -0.0236 -0.2026 -0.0611
21393SOL    HW167072   6.392  10.462   1.863  1.7194  0.2363 -1.1060
21393SOL    HW267073   6.324  10.327   1.869 -1.1028  1.5869 -1.1467
21394SOL     OW67074   1.425   9.147   7.339 -0.3357  0.2079 -0.0656
21394SOL    HW167075   1.387   9.167   7.254  0.2108 -0.5776 -0.5048
21394SOL    HW267076   1.353   9.107   7.389 -0.7656  1.0391 -0.0128
21395SOL     OW67077   1.640   5.420   7.127  0.7927 -0.8620  0.5589
21395SOL    HW167078   1.665   5.338   7.169  2.3947 -1.0896 -0.7174
21395SOL    HW267079   1.562   5.449   7.174  0.6022 -2.7483  1.4887
21396SOL     OW67080   7.717  10.716   8.035  0.0033 -0.0459 -0.4928
21396SOL    HW167081   7.776  10.756   7.972  0.7560 -0.1950  0.1020
21396SOL    HW267082   7.683  10.638   7.991  1.7999 -1.0673 -0.1371
21397SOL     OW67083   8.037   7.742   0.999  0.7936  0.5212 -0.5049
21397SOL    HW167084   7.958   7.696   0.970  1.0126  0.7541 -1.5149
21397SOL    HW267085   8.099   7.731   0.928  0.9354  2.1634 -0.6827
21398SOL     OW67086   4.715   4.152   4.439 -0.0604 -0.2250  0.3087
21398SOL    HW167087   4.772   4.223   4.412 -0.3541 -0.0348  0.1825
21398SOL    HW267088   4.774   4.084   4.472  0.1796  0.3763  1.1413
21399SOL     OW67089   2.934   8.484   7.340 -0.8563  0.0043  0.6468
21399SOL    HW167090   2.981   8.412   7.382 -1.1274 -1.2581 -1.1208
21399SOL    HW267091   2.989   8.561   7.355  0.9438 -1.1222  0.0564
21400SOL     OW67092   0.178   2.757   0.261  0.1443  0.1224 -0.1424
21400SOL    HW167093   0.186   2.764   0.356 -2.2745  0.2447  0.1109
21400SOL    HW267094   0.109   2.692   0.248  0.2672  0.2937 -1.8283
21401SOL     OW67095   3.583   7.840   4.822 -0.3584  0.1947 -0.0756
21401SOL    HW167096   3.655   7.847   4.885  0.4241  0.0515 -0.9372
21401SOL    HW267097   3.520   7.907   4.850 -0.0698  0.0752  0.8985
21402SOL     OW67098   2.582   8.978   2.401 -0.0846 -0.1363 -0.1972
21402SOL    HW167099   2.517   8.992   2.470 -0.1473  0.8947 -0.4592
21402SOL    HW267100   2.534   8.987   2.320  0.3528  0.4907 -0.3935
21403SOL     OW67101   6.018   2.746   5.099 -0.4388  0.1176 -0.2971
21403SOL    HW167102   6.085   2.708   5.155 -0.2493  0.0777 -0.5515
21403SOL    HW267103   6.064   2.814   5.049 -0.3773 -0.5560 -1.1634
21404SOL     OW67104   3.903   2.655   8.030  0.0601  0.0387  0.1252
21404SOL    HW167105   3.845   2.694   7.964 -0.7876 -0.2696  0.6796
21404SOL    HW267106   3.936   2.576   7.988  1.2195  0.9398 -0.7313
21405SOL     OW67107   5.522   6.762   7.788  0.1309 -0.2709  0.0942
21405SOL    HW167108   5.597   6.726   7.739  1.0042 -1.5524  2.2516
21405SOL    HW267109   5.456   6.693   7.783 -0.3747  0.2464 -0.5428
21406SOL     OW67110   8.380   0.341   9.592  0.2810 -0.0334  0.3193
21406SOL    HW167111   8.413   0.257   9.558 -1.3214 -1.2013  1.4884
21406SOL    HW267112   8.301   0.358   9.540 -0.1014  0.0868  0.9297
21407SOL     OW67113   2.745   0.900   5.081  0.1779 -0.1398  0.1856
21407SOL    HW167114   2.838   0.908   5.103 -0.1481  1.0992  1.2658
21407SOL    HW267115   2.700   0.916   5.164 -1.0630  1.8034 -0.8125
21408SOL     OW67116   2.572  10.418  10.669  0.3698  0.1897  0.1802
21408SOL    HW167117   2.547  10.480  10.601  2.0252  0.5560 -0.1458
21408SOL    HW267118   2.667  10.409  10.659  0.2432 -2.1071  0.4630
21409SOL     OW67119   0.240   1.010   8.522 -0.2019 -0.3294  0.3356
21409SOL    HW167120   0.333   0.990   8.516  0.0324  0.8909 -0.7998
21409SOL    HW267121   0.205   0.985   8.436 -1.0137 -1.2089  0.9137
21410SOL     OW67122   9.091   2.126   6.624  0.0743  0.0872 -0.1494
21410SOL    HW167123   9.038   2.166   6.555  1.2304 -1.1054 -1.8200
21410SOL    HW267124   9.166   2.186   6.635  0.5533 -0.3636 -0.8898
21411SOL     OW67125   8.881   5.539   9.931  0.2363 -0.0476  0.9641
21411SOL    HW167126   8.880   5.449   9.898  1.5505 -1.1964  3.7012
21411SOL    HW267127   8.813   5.584   9.881  0.9868 -1.9353 -2.0228
21412SOL     OW67128   1.052   1.163   7.144  0.1329 -0.5377 -0.3839
21412SOL    HW167129   0.992   1.233   7.172  1.7078  0.2874  1.1254
21412SOL    HW267130   1.069   1.113   7.223  2.1311 -0.1908 -0.5542
21413SOL     OW67131   0.126   5.605   6.632 -0.8142 -0.3669  0.1241
21413SOL    HW167132   0.170   5.662   6.568 -0.7222 -1.0619 -0.4440
21413SOL    HW267133   0.163   5.518   6.616 -1.4657 -0.7176  0.5012
21414SOL     OW67134   9.668  10.623   5.078 -0.0203  0.3667  0.0153
21414SOL    HW167135   9.710  10.538   5.075 -0.2621  0.2076  0.9875
21414SOL    HW267136   9.598  10.614   5.142  0.5453  1.5658  0.8387
21415SOL     OW67137   0.001   1.203   7.282 -0.3258  0.2767  0.2977
21415SOL    HW167138   0.095   1.197   7.269 -0.1445  1.9617  0.6560
21415SOL    HW267139  -0.014   1.159   7.366  0.1023 -0.1693  0.1467
21416SOL     OW67140   5.446   8.107   3.658  0.2937  0.1740  0.5205
21416SOL    HW167141   5.417   8.105   3.567 -0.2663  0.3012  0.6940
21416SOL    HW267142   5.541   8.094   3.653  0.3481  0.7743 -0.1189
21417SOL     OW67143   8.986   4.239   8.053  0.5717 -0.3508 -0.9369
21417SOL    HW167144   8.986   4.159   8.106  2.5374  0.2983  0.1700
21417SOL    HW267145   8.922   4.222   7.984 -2.0490 -1.3268  1.4952
21418SOL     OW67146   3.672   2.622   2.263 -0.1731  0.5535  0.3154
21418SOL    HW167147   3.735   2.616   2.335  0.0143  0.2267  0.1269
21418SOL    HW267148   3.711   2.570   2.193 -1.3137 -0.8348  0.6733
21419SOL     OW67149   2.855   7.987   5.965  0.2406 -0.2401 -0.4826
21419SOL    HW167150   2.805   7.919   6.010 -1.0399  1.7916  1.3627
21419SOL    HW267151   2.807   8.004   5.884 -0.8162  0.0974  0.1972
21420SOL     OW67152   7.619   9.615   8.586  0.3396  0.2742 -0.0645
21420SOL    HW167153   7.645   9.705   8.564 -0.4692  0.9235  1.4802
21420SOL    HW267154   7.616   9.614   8.681 -2.3081 -0.5972 -0.0829
21421SOL     OW67155   2.467   6.689   5.980  0.0051  0.4684  0.0424
21421SOL    HW167156   2.410   6.766   5.980 -0.1710  0.3395  0.0219
21421SOL    HW267157   2.544   6.716   6.030  0.3907  0.9813 -0.8100
21422SOL     OW67158   9.483   6.458   1.646  0.5547 -0.0276 -0.2322
21422SOL    HW167159   9.484   6.548   1.615  2.4877 -0.1209 -0.5979
21422SOL    HW267160   9.517   6.463   1.735 -1.9887 -0.1181  0.8002
21423SOL     OW67161   5.242   2.770   2.966 -0.3259  0.3083  0.1329
21423SOL    HW167162   5.301   2.705   2.928  1.4418  1.7053  0.3474
21423SOL    HW267163   5.300   2.833   3.007 -2.0024  1.7641  0.3737
21424SOL     OW67164   6.655   6.825   0.195 -0.0923  0.2151  0.1861
21424SOL    HW167165   6.711   6.821   0.117 -0.0309 -1.1714  0.2675
21424SOL    HW267166   6.713   6.797   0.267 -0.7520 -0.8413  0.3360
21425SOL     OW67167   0.001   4.324  10.507  0.0138 -0.4643  0.2024
21425SOL    HW167168   0.026   4.307  10.416 -1.2597  0.7101 -0.3935
21425SOL    HW267169   0.037   4.410  10.526 -0.5896 -0.2724  0.4791
21426SOL     OW67170   8.282   2.613   2.365  0.4715  0.5835 -0.7125
21426SOL    HW167171   8.304   2.527   2.401 -0.0745  0.6688 -0.1458
21426SOL    HW267172   8.360   2.666   2.378  1.6130 -0.3975 -3.0333
21427SOL     OW67173   9.802   3.255   3.766 -0.0504 -0.3245  0.1550
21427SOL    HW167174   9.816   3.324   3.831  0.6482  0.2209 -0.5585
21427SOL    HW267175   9.890   3.220   3.750 -0.4351 -1.6191  0.7533
21428SOL     OW67176   3.386   2.351   4.409 -0.6714  0.3820 -0.4253
21428SOL    HW167177   3.425   2.287   4.469 -1.4681 -0.6100 -0.9455
21428SOL    HW267178   3.304   2.376   4.452 -1.2660 -0.3641 -1.1089
21429SOL     OW67179   6.594  10.646   1.614 -0.0097 -0.0860  0.0697
21429SOL    HW167180   6.505  10.677   1.631  0.7133  2.3485 -0.0877
21429SOL    HW267181   6.644  10.674   1.691  0.6757 -1.1694  0.0277
21430SOL     OW67182   8.771   9.197   9.891  1.6045 -0.9158  0.2377
21430SOL    HW167183   8.698   9.178   9.832  0.9375  1.5577  0.1546
21430SOL    HW267184   8.847   9.158   9.849  0.9299 -0.2853 -1.6684
21431SOL     OW67185   7.535   9.643   8.241 -0.0105  0.2055 -0.3134
21431SOL    HW167186   7.510   9.589   8.166 -0.7683  0.3425 -0.1648
21431SOL    HW267187   7.558   9.728   8.203  1.9277 -0.4055 -0.6348
21432SOL     OW67188   0.116   5.941   8.532  0.5728  0.1850 -0.6793
21432SOL    HW167189   0.121   5.944   8.627  0.0001  1.2461 -0.6703
21432SOL    HW267190   0.075   6.024   8.507 -0.6486 -0.6958 -1.7448
21433SOL     OW67191   7.427   3.956   1.251 -0.1251 -0.1195 -0.0629
21433SOL    HW167192   7.477   3.881   1.219 -0.9694 -0.7658  0.1166
21433SOL    HW267193   7.485   3.997   1.316  1.5414  1.1331 -2.2119
21434SOL     OW67194   1.502   5.550   6.843  0.2900  0.2545  0.0284
21434SOL    HW167195   1.530   5.599   6.920  2.7213  0.7016 -1.0367
21434SOL    HW267196   1.533   5.602   6.769  0.1000 -1.3197 -1.2088
21435SOL     OW67197   4.377   8.866   6.716  0.1238  0.4776  0.3859
21435SOL    HW167198   4.311   8.835   6.778 -0.3353  1.5428  0.4579
21435SOL    HW267199   4.329   8.923   6.656  0.7437  0.2279 -0.3713
21436SOL     OW67200   9.637   7.958   6.194 -0.1251 -0.2834 -0.3116
21436SOL    HW167201   9.660   7.959   6.101 -1.2360  0.2037 -0.6000
21436SOL    HW267202   9.711   7.915   6.237  0.1278 -1.0695 -1.4919
21437SOL     OW67203   8.025   8.193   4.944 -0.1923  0.0100  0.1784
21437SOL    HW167204   8.044   8.105   4.975  0.0877  0.3570  1.0476
21437SOL    HW267205   7.935   8.189   4.912  0.1735 -0.8371 -0.7797
21438SOL     OW67206   9.396   9.488   4.244  0.2341 -0.5552 -0.1482
21438SOL    HW167207   9.403   9.398   4.212 -1.8124 -1.3902  1.4710
21438SOL    HW267208   9.348   9.535   4.175  0.4377 -0.9700 -0.5750
21439SOL     OW67209   5.734   1.602   8.543  0.4621 -0.0697 -0.3605
21439SOL    HW167210   5.730   1.586   8.637 -1.2898  1.4122 -0.1214
21439SOL    HW267211   5.671   1.541   8.505  1.2359 -0.7331 -0.6190
21440SOL     OW67212   7.630   1.009   6.261 -0.1016  0.2632 -0.8392
21440SOL    HW167213   7.692   1.042   6.196 -1.5902  1.6471 -1.6415
21440SOL    HW267214   7.676   1.019   6.345  1.3803 -0.3917 -1.5378
21441SOL     OW67215   1.430   0.953   0.821 -0.7173  0.2373 -0.0127
21441SOL    HW167216   1.414   0.985   0.732 -2.3209 -0.0670  0.1406
21441SOL    HW267217   1.427   1.031   0.876 -0.3038  0.3525 -0.1499
21442SOL     OW67218   4.279  10.581   9.808 -0.3869  0.6518 -0.1055
21442SOL    HW167219   4.295  10.507   9.867  0.3507  0.4502 -0.5509
21442SOL    HW267220   4.327  10.654   9.848  0.3816  0.4364 -0.6110
21443SOL     OW67221   0.161   2.756   9.690 -0.3039  0.3771 -0.4721
21443SOL    HW167222   0.241   2.706   9.674 -0.9322 -0.6819 -0.3952
21443SOL    HW267223   0.090   2.701   9.656 -1.0258  1.2036 -0.3616
21444SOL     OW67224   2.903   0.660   2.514 -0.4496  0.1653  0.1343
21444SOL    HW167225   2.937   0.717   2.584  0.3473  2.5368 -2.0049
21444SOL    HW267226   2.978   0.649   2.455 -1.1363 -1.6516 -0.4376
21445SOL     OW67227   5.447   6.945   0.387 -0.0059 -0.2453  0.4699
21445SOL    HW167228   5.398   7.028   0.384  0.7495  0.2374  1.0534
21445SOL    HW267229   5.441   6.911   0.298 -0.6097  0.2697  0.3020
21446SOL     OW67230   7.840   1.445   8.428  0.0259 -0.1659 -0.5844
21446SOL    HW167231   7.873   1.355   8.427  0.1861 -0.1049 -1.2668
21446SOL    HW267232   7.751   1.438   8.392  0.2814  0.0328 -1.2690
21447SOL     OW67233   1.895   7.619   6.142 -0.2885 -0.1032 -0.2357
21447SOL    HW167234   1.877   7.540   6.193 -0.7927  0.1922  0.0482
21447SOL    HW267235   1.853   7.604   6.058  0.5267 -0.5832 -0.5686
21448SOL     OW67236   8.291   3.623   4.008 -0.0100 -0.3421  0.5316
21448SOL    HW167237   8.224   3.588   3.948  0.4005 -0.7209  0.2865
21448SOL    HW267238   8.242   3.678   4.068 -0.8761 -2.2219  1.6417
21449SOL     OW67239   8.593   9.949   9.975 -0.0145 -0.2192  0.4013
21449SOL    HW167240   8.580   9.940  10.069  1.9178  1.5674  0.9196
21449SOL    HW267241   8.567   9.865   9.938  0.1529 -1.3087  2.6388
21450SOL     OW67242   5.730   5.487   3.986  0.8260 -0.5681  0.5456
21450SOL    HW167243   5.751   5.466   3.895  1.2857  1.2788  0.1753
21450SOL    HW267244   5.799   5.446   4.037  2.4138  0.9890 -0.2350
21451SOL     OW67245   2.470   4.240   5.744  0.2892 -0.0029  0.3298
21451SOL    HW167246   2.452   4.157   5.788 -1.1165  0.7934  1.3338
21451SOL    HW267247   2.402   4.299   5.775  0.5149  1.2003 -1.3159
21452SOL     OW67248   5.599   8.865   0.476  0.6509 -0.1043 -0.4541
21452SOL    HW167249   5.694   8.876   0.474  0.4021  3.4499  0.6436
21452SOL    HW267250   5.582   8.814   0.555  1.6167  0.2318 -0.0123
21453SOL     OW67251   4.037   7.018   1.327  0.2360  0.4067  0.3978
21453SOL    HW167252   4.004   6.939   1.284  2.7500 -1.3019  1.3440
21453SOL    HW267253   4.036   7.085   1.260 -1.3276 -0.6088 -0.6465
21454SOL     OW67254   4.013   3.855   0.117 -0.4872 -0.0134 -0.0328
21454SOL    HW167255   4.056   3.786   0.169 -1.0547 -1.2102 -1.1104
21454SOL    HW267256   3.920   3.845   0.138 -0.5865  0.3253 -0.3202
21455SOL     OW67257   7.152   9.629   4.385  0.3748  0.1943 -0.4876
21455SOL    HW167258   7.189   9.715   4.367 -0.2610  0.1825 -2.0059
21455SOL    HW267259   7.071   9.647   4.433  1.7386  0.2656  1.8889
21456SOL     OW67260   5.355   1.570   6.094  0.2696  0.0156 -0.0380
21456SOL    HW167261   5.367   1.558   6.188  1.7560  1.1068 -0.0546
21456SOL    HW267262   5.396   1.493   6.054  1.1236  0.3513  0.1681
21457SOL     OW67263   9.836   4.392   8.328 -0.5432  0.1034  0.5253
21457SOL    HW167264   9.889   4.411   8.251 -0.9411  0.8483  0.4230
21457SOL    HW267265   9.783   4.471   8.341 -0.8275 -0.1966  1.2772
21458SOL     OW67266   1.511   0.977   7.538 -0.2709  0.5139 -0.2726
21458SOL    HW167267   1.469   0.908   7.487  1.3887 -0.3452 -0.5561
21458SOL    HW267268   1.503   0.949   7.629  1.1399 -0.5433 -0.4388
21459SOL     OW67269   9.817   0.465   8.234 -0.4191 -0.3577  0.9573
21459SOL    HW167270   9.789   0.466   8.325 -1.9209  1.0648  0.5321
21459SOL    HW267271   9.747   0.511   8.187 -0.6038 -2.6372 -1.1888
21460SOL     OW67272   9.022  10.502   7.206  0.2292  0.1751  0.1067
21460SOL    HW167273   8.969  10.447   7.148 -0.1827  1.1320 -0.4504
21460SOL    HW267274   9.070  10.440   7.261 -0.5732 -0.7265 -0.1850
21461SOL     OW67275   3.026   5.674   8.286 -0.5904  0.5103  0.4158
21461SOL    HW167276   2.992   5.589   8.259 -1.0806  0.9771 -0.5213
21461SOL    HW267277   3.086   5.699   8.215 -1.8988  1.7755 -0.2880
21462SOL     OW67278   2.044   7.462   9.868 -0.0076 -0.1486  0.6622
21462SOL    HW167279   1.961   7.504   9.842 -0.1977 -0.2725  1.0624
21462SOL    HW267280   2.071   7.414   9.789  0.9009  1.7704 -0.2613
21463SOL     OW67281   6.023   4.539   2.701 -0.6753  0.3835 -0.4214
21463SOL    HW167282   5.998   4.447   2.705  0.1516  0.1501  3.6342
21463SOL    HW267283   5.948   4.586   2.739  0.1002  1.0218  0.3465
21464SOL     OW67284   6.782   7.443   6.653  0.1602 -0.3253  0.0016
21464SOL    HW167285   6.775   7.521   6.708  0.8648 -1.2959  1.5346
21464SOL    HW267286   6.762   7.370   6.712 -1.8748 -1.2547 -1.7311
21465SOL     OW67287   2.770   1.045   8.017  1.0224  0.1614  0.2066
21465SOL    HW167288   2.709   1.056   8.090  2.0059  0.8860  0.9420
21465SOL    HW267289   2.850   1.011   8.057  1.2312 -0.4707 -0.7019
21466SOL     OW67290   1.967  10.051   7.492  0.3909  0.3028  0.4536
21466SOL    HW167291   1.871  10.054   7.482  0.4216 -1.0804 -0.6662
21466SOL    HW267292   2.000  10.104   7.419  0.4792  0.2288  0.4402
21467SOL     OW67293  10.320   4.780   4.694 -0.1377 -0.0954  0.9720
21467SOL    HW167294  10.350   4.761   4.783 -2.1823 -0.1481  1.6912
21467SOL    HW267295  10.311   4.875   4.691 -0.9842 -0.1641  1.1490
21468SOL     OW67296   8.019   4.970   1.269 -0.2090 -0.6119  0.1757
21468SOL    HW167297   8.030   4.902   1.336  0.0810 -0.2192  0.5301
21468SOL    HW267298   7.957   5.032   1.306  1.6860  0.8328  1.0770
21469SOL     OW67299   7.287   7.676   7.251  0.4696  0.5730 -0.1350
21469SOL    HW167300   7.302   7.660   7.158  1.9617  2.2818 -0.2358
21469SOL    HW267301   7.364   7.640   7.295  1.0601  2.1195  0.1543
21470SOL     OW67302   0.576   7.612   8.942  0.4284  0.1762 -0.1132
21470SOL    HW167303   0.574   7.707   8.933  1.6432  0.3012  0.6306
21470SOL    HW267304   0.484   7.587   8.953  0.0385  1.1861 -0.8836
21471SOL     OW67305   9.379   5.159   0.666 -0.3175 -0.3534 -0.2102
21471SOL    HW167306   9.465   5.201   0.672 -0.9013  0.8201  0.1455
21471SOL    HW267307   9.399   5.068   0.642  1.0384 -0.1775  0.1547
21472SOL     OW67308   4.569   2.389   4.661 -0.3448  0.1637  0.5778
21472SOL    HW167309   4.478   2.373   4.685 -1.3965  0.7910 -2.4697
21472SOL    HW267310   4.607   2.302   4.648 -0.7408 -0.0855  1.0725
21473SOL     OW67311   5.274   0.474   9.780 -0.3050  0.2379  0.0641
21473SOL    HW167312   5.280   0.393   9.730 -1.7281 -0.1542  0.4784
21473SOL    HW267313   5.207   0.526   9.735 -1.3895  0.0031  1.3307
21474SOL     OW67314   9.495   9.311   1.855 -0.1791 -0.4123  0.0621
21474SOL    HW167315   9.432   9.340   1.921 -1.2942  1.0348 -1.5467
21474SOL    HW267316   9.580   9.341   1.888 -0.8593  1.4222  0.2589
21475SOL     OW67317   6.442   3.608   0.287 -0.3395  0.2915  0.0196
21475SOL    HW167318   6.500   3.531   0.288  0.7619  1.1062  0.5793
21475SOL    HW267319   6.402   3.606   0.200  1.8445  0.6350 -1.0669
21476SOL     OW67320   9.941   5.086   6.715 -0.6187  0.2318 -0.6847
21476SOL    HW167321   9.909   5.175   6.698 -0.7222  0.1747 -0.7946
21476SOL    HW267322   9.945   5.079   6.810  1.3693  1.0586 -0.6568
21477SOL     OW67323   5.560   3.056   2.632  0.1965  0.1514 -0.4409
21477SOL    HW167324   5.527   3.145   2.620  1.3780  0.6553  0.0011
21477SOL    HW267325   5.490   3.011   2.679 -0.1842  0.9880 -0.1894
21478SOL     OW67326   4.268   0.510   4.822 -0.1656 -0.4532 -0.4390
21478SOL    HW167327   4.268   0.425   4.777  0.8268 -0.0619 -1.2290
21478SOL    HW267328   4.359   0.525   4.846 -0.2613  0.5552 -0.6470
21479SOL     OW67329   6.501   2.527   4.143  0.2018 -1.0018 -0.1058
21479SOL    HW167330   6.476   2.488   4.227  0.1310 -0.6491  0.0410
21479SOL    HW267331   6.552   2.459   4.099 -1.7935 -2.1177 -0.8286
21480SOL     OW67332   3.537   3.665   8.052 -0.6931 -0.0687  0.1141
21480SOL    HW167333   3.495   3.751   8.058 -1.1178 -0.3345  1.0797
21480SOL    HW267334   3.464   3.604   8.037 -0.5124 -0.3899  0.5351
21481SOL     OW67335   1.241   8.583   4.720  0.3989  0.0999 -0.3658
21481SOL    HW167336   1.222   8.634   4.641  0.0329 -0.2509 -0.5050
21481SOL    HW267337   1.243   8.493   4.690 -1.1280 -0.1701  0.2747
21482SOL     OW67338   7.780   9.333   1.299  0.1097  0.2568  0.2808
21482SOL    HW167339   7.831   9.398   1.250 -0.5283  0.2575 -0.3962
21482SOL    HW267340   7.839   9.305   1.369  0.4290  1.5144  0.5551
21483SOL     OW67341   3.469   3.897   3.981 -0.4296 -0.2976 -0.3616
21483SOL    HW167342   3.434   3.969   4.034  2.8521  0.5335  0.9293
21483SOL    HW267343   3.431   3.818   4.019  1.3666  0.3028  3.0965
21484SOL     OW67344   7.792   0.592   5.376 -0.2816  0.5558 -0.6082
21484SOL    HW167345   7.768   0.528   5.443  1.5303  1.2163  0.7497
21484SOL    HW267346   7.790   0.676   5.422  1.5352  0.9627 -1.1912
21485SOL     OW67347   9.117   3.319   8.193 -0.2243  0.8594 -0.1186
21485SOL    HW167348   9.051   3.250   8.194  0.0833  0.5591  0.2660
21485SOL    HW267349   9.201   3.272   8.194  0.0399  1.1980 -2.1143
21486SOL     OW67350   4.822  10.360  10.558 -0.5593 -0.0297  0.2390
21486SOL    HW167351   4.879  10.398  10.492 -1.1602  0.6580  0.0990
21486SOL    HW267352   4.865  10.378  10.642 -1.3161  1.9315  0.2695
21487SOL     OW67353   7.745  10.345   2.159 -0.2340 -0.0354 -0.0404
21487SOL    HW167354   7.756  10.263   2.208  1.7326  1.4589  2.2425
21487SOL    HW267355   7.692  10.400   2.217 -0.9179  0.5910 -1.2199
21488SOL     OW67356   7.221   0.228   9.526  0.1905 -0.0256  0.4999
21488SOL    HW167357   7.133   0.193   9.512  0.5701 -0.3837 -1.2000
21488SOL    HW267358   7.279   0.154   9.513  0.7385 -0.0604  2.7315
21489SOL     OW67359   3.550   6.785   7.122 -0.5444 -0.8898  0.5731
21489SOL    HW167360   3.555   6.693   7.098  0.1703 -0.6475 -0.2220
21489SOL    HW267361   3.532   6.831   7.040  1.4504 -0.1018  0.5202
21490SOL     OW67362   9.977   6.237   0.638 -0.1103  0.1508 -0.1387
21490SOL    HW167363   9.946   6.292   0.566 -0.6574  0.7243  0.5334
21490SOL    HW267364  10.049   6.287   0.677 -0.0179 -0.0208 -0.0865
21491SOL     OW67365   5.562   4.185   9.154 -0.1810 -0.5957  0.3624
21491SOL    HW167366   5.507   4.144   9.221  0.2993  1.1615  1.9167
21491SOL    HW267367   5.513   4.264   9.129  0.1355 -0.7055 -0.6340
21492SOL     OW67368   1.399   5.703   2.553  0.1186 -0.0597 -0.6452
21492SOL    HW167369   1.367   5.621   2.515  3.4994 -0.6175 -2.6552
21492SOL    HW267370   1.487   5.683   2.584 -0.2697  1.9908  2.2018
21493SOL     OW67371   0.722   4.652   5.316  0.3534  0.7084  0.1514
21493SOL    HW167372   0.638   4.696   5.323  0.4647  1.5867 -2.7869
21493SOL    HW267373   0.700   4.559   5.309 -0.2366  0.7877  0.8007
21494SOL     OW67374   9.263   2.560   3.402  0.5893 -0.0758  0.5150
21494SOL    HW167375   9.272   2.479   3.353  1.7929 -0.4076  1.2212
21494SOL    HW267376   9.270   2.629   3.337 -1.3283 -0.5150 -0.2160
21495SOL     OW67377   0.311   3.279   7.390 -0.4694 -0.5425  0.4466
21495SOL    HW167378   0.297   3.215   7.461 -0.5707 -0.0616  0.8683
21495SOL    HW267379   0.224   3.312   7.369 -0.2277  1.1281  1.8287
21496SOL     OW67380   2.482   4.670   7.912 -0.5065  0.1056 -0.5582
21496SOL    HW167381   2.560   4.651   7.965 -0.5866  0.3143 -0.3640
21496SOL    HW267382   2.494   4.618   7.832  0.0323  0.4447 -0.7055
21497SOL     OW67383   7.516   2.243   1.007 -0.0808 -0.8409  0.6130
21497SOL    HW167384   7.451   2.292   1.057 -0.1974 -1.9009  1.5388
21497SOL    HW267385   7.483   2.153   1.006  0.0576 -0.9183 -1.1620
21498SOL     OW67386   2.143   6.507   0.290  0.0257  0.2682  0.2436
21498SOL    HW167387   2.157   6.585   0.345  0.1858  1.0708 -0.8987
21498SOL    HW267388   2.048   6.505   0.277  0.2338  2.3172 -2.5007
21499SOL     OW67389  10.708   7.315   8.129 -0.6926 -0.6836  0.4519
21499SOL    HW167390  10.737   7.269   8.051  1.3655 -0.5920  1.1030
21499SOL    HW267391  10.695   7.406   8.100  1.1740 -0.3836  0.3741
21500SOL     OW67392   7.153   5.511   5.595  0.0627 -0.3586  0.4878
21500SOL    HW167393   7.142   5.581   5.531 -0.0599 -0.0936  0.7929
21500SOL    HW267394   7.083   5.526   5.659 -0.4765 -1.2522  0.1202
21501SOL     OW67395   7.698   2.922   2.791  0.4406  0.2960 -0.4574
21501SOL    HW167396   7.654   2.926   2.876 -3.0521  1.6091 -2.1323
21501SOL    HW267397   7.760   2.995   2.793  0.4817  0.2521  0.9664
21502SOL     OW67398   5.653   7.161   6.946  0.0090  0.4922 -0.3926
21502SOL    HW167399   5.745   7.166   6.974 -0.1895 -2.4210  1.1762
21502SOL    HW267400   5.603   7.193   7.022 -0.3356  1.2155 -0.9102
21503SOL     OW67401   7.910   6.139   2.330 -0.0835 -0.4325  0.5507
21503SOL    HW167402   7.994   6.184   2.319  0.2021 -0.6295  1.8009
21503SOL    HW267403   7.851   6.208   2.361 -0.5606 -0.1540 -0.9202
21504SOL     OW67404   9.793   2.598   4.805  0.5003 -0.1531  0.2487
21504SOL    HW167405   9.857   2.534   4.833  0.2628 -1.0937 -1.2435
21504SOL    HW267406   9.793   2.592   4.709 -2.2473 -0.6491  0.1974
21505SOL     OW67407   7.305   5.229   2.413  0.1090  0.5489  0.2687
21505SOL    HW167408   7.261   5.213   2.330  1.9898  1.1969 -0.9134
21505SOL    HW267409   7.352   5.148   2.431  0.4169  0.7209  0.2392
21506SOL     OW67410   3.454   0.162   4.649 -0.2388 -0.3718 -0.0554
21506SOL    HW167411   3.466   0.098   4.719  1.4909 -0.8171 -0.6901
21506SOL    HW267412   3.441   0.110   4.570 -0.8325  0.0984 -0.2741
21507SOL     OW67413   9.417   1.732   7.512  0.0679 -0.9026  0.0793
21507SOL    HW167414   9.355   1.794   7.550  0.6942 -0.4908  0.4595
21507SOL    HW267415   9.406   1.652   7.564  0.1402 -0.6986  0.4118
21508SOL     OW67416   1.429   5.067   9.099 -0.0382  0.3497 -0.2542
21508SOL    HW167417   1.516   5.101   9.119  0.4456 -1.5953  1.2944
21508SOL    HW267418   1.377   5.087   9.177 -0.7966  0.8175 -0.8561
21509SOL     OW67419   9.936  10.788   4.483  0.1774  0.0689 -0.3278
21509SOL    HW167420  10.010  10.848   4.477 -1.6363  2.3067 -2.2626
21509SOL    HW267421   9.890  10.814   4.563  0.1279  0.3609 -0.4505
21510SOL     OW67422   7.408   7.049   7.069  0.3983 -0.0802  0.2197
21510SOL    HW167423   7.484   7.107   7.078  1.1184 -1.0461  0.5419
21510SOL    HW267424   7.335   7.100   7.104  1.0520  0.5590  0.6875
21511SOL     OW67425   1.947   9.596   5.448  0.3686  0.0901 -0.4933
21511SOL    HW167426   1.864   9.624   5.408  0.1410  1.0037  0.5702
21511SOL    HW267427   1.920   9.543   5.523  0.7946 -2.0068 -1.7403
21512SOL     OW67428   1.393   5.979   2.765  0.0574 -0.0598  0.4747
21512SOL    HW167429   1.457   5.976   2.694  0.1472 -2.1365  0.5900
21512SOL    HW267430   1.319   5.927   2.733 -0.2089 -0.4018  1.6138
21513SOL     OW67431   9.580   6.181   9.387 -0.2606  0.0478  0.3130
21513SOL    HW167432   9.547   6.261   9.429 -2.4200 -0.7562  0.2602
21513SOL    HW267433   9.603   6.124   9.460  0.6705  0.4454  0.3492
21514SOL     OW67434   3.458   2.476   5.196  0.0145 -0.1572 -0.4393
21514SOL    HW167435   3.416   2.534   5.132 -2.0855 -0.6538  0.4093
21514SOL    HW267436   3.470   2.530   5.274  2.5949  0.4549 -1.1543
21515SOL     OW67437   6.313   6.338   3.838 -0.3669  0.2281  0.0706
21515SOL    HW167438   6.292   6.248   3.864 -2.1733  0.4389 -0.5067
21515SOL    HW267439   6.229   6.384   3.843 -0.1393  1.1125 -2.7115
21516SOL     OW67440   0.973   8.524   8.800  0.4669  0.0281  0.4366
21516SOL    HW167441   0.882   8.552   8.803  0.4229 -0.0268 -0.2195
21516SOL    HW267442   0.995   8.523   8.706  1.0748 -0.1644  0.5747
21517SOL     OW67443   4.572   2.032   2.347 -0.0581  0.0158  0.0380
21517SOL    HW167444   4.613   2.111   2.384 -0.9723  0.6232 -0.2051
21517SOL    HW267445   4.501   2.012   2.408 -1.7582  1.1826 -1.4270
21518SOL     OW67446   9.764   3.536   0.185 -0.4360 -0.1489  0.4292
21518SOL    HW167447   9.730   3.625   0.193 -0.4734 -0.2367  1.3882
21518SOL    HW267448   9.694   3.487   0.143 -1.4313 -0.2779  2.1603
21519SOL     OW67449   3.618   3.451   4.362 -0.0569 -0.4571  0.0501
21519SOL    HW167450   3.529   3.473   4.390 -0.7950 -2.1949 -0.7547
21519SOL    HW267451   3.609   3.433   4.268  0.7885 -2.2988  0.2929
21520SOL     OW67452   3.437   9.757   8.162  0.2723 -0.5961 -0.3325
21520SOL    HW167453   3.525   9.751   8.197  1.3606 -3.3599 -3.0986
21520SOL    HW267454   3.386   9.695   8.214 -1.0678  3.0586  3.2583
21521SOL     OW67455   3.840   3.458   5.148 -0.0527 -0.3181 -0.2747
21521SOL    HW167456   3.765   3.507   5.181  1.0457  2.1194 -1.1294
21521SOL    HW267457   3.830   3.461   5.053  1.5193  0.8437 -0.4508
21522SOL     OW67458   5.479   2.129   5.511  0.2591  0.0690  0.3953
21522SOL    HW167459   5.393   2.165   5.531  0.6842 -0.0148  2.7559
21522SOL    HW267460   5.466   2.035   5.510  0.0103  0.1079 -1.0654
21523SOL     OW67461   4.396  10.181   5.390  0.5601 -0.0633 -0.2912
21523SOL    HW167462   4.441  10.194   5.307 -0.0250  1.4630 -0.3963
21523SOL    HW267463   4.455  10.126   5.441  2.2629  1.3264 -0.6646
21524SOL     OW67464   1.258   9.722   5.057  0.2584  0.0799 -0.2751
21524SOL    HW167465   1.212   9.696   5.137  0.6972 -0.7768 -0.2959
21524SOL    HW267466   1.201   9.693   4.986 -0.3549  1.2485 -0.2917
21525SOL     OW67467   0.443   2.238   9.338  0.8085 -0.1214 -0.3107
21525SOL    HW167468   0.448   2.310   9.276 -1.8736 -0.2733 -0.8095
21525SOL    HW267469   0.456   2.159   9.285  0.6235 -0.1595 -0.2980
21526SOL     OW67470   5.960   7.690   4.412  0.1675 -0.4223  0.2403
21526SOL    HW167471   5.972   7.717   4.503 -0.8174 -0.1579  0.2987
21526SOL    HW267472   6.020   7.615   4.402  0.4395 -0.3246  1.0389
21527SOL     OW67473   6.143   7.552   9.727  0.3870 -0.6031  0.0168
21527SOL    HW167474   6.128   7.460   9.751  0.7414 -0.2240  1.8650
21527SOL    HW267475   6.236   7.556   9.706  0.0395 -0.9738 -1.7284
21528SOL     OW67476   0.252   7.828   8.988 -0.3858  0.2271  0.2021
21528SOL    HW167477   0.240   7.824   9.083  2.6860  1.4925  0.7541
21528SOL    HW267478   0.288   7.743   8.964  0.7497  0.6072  0.5302
21529SOL     OW67479   6.405   7.454   4.625 -0.4067  0.9052 -0.4239
21529SOL    HW167480   6.476   7.391   4.639 -0.9443  0.6839  1.6824
21529SOL    HW267481   6.420   7.522   4.690 -1.9408  1.0158 -0.1593
21530SOL     OW67482   8.943   0.402   3.193 -0.0129  0.1774 -0.3666
21530SOL    HW167483   8.924   0.401   3.099  0.4757  1.1417 -0.4865
21530SOL    HW267484   8.858   0.417   3.235 -0.4128 -1.3114 -0.5776
21531SOL     OW67485   4.758   9.828   5.874 -0.3526 -0.3227  0.4876
21531SOL    HW167486   4.730   9.858   5.960  1.3557 -0.1088  0.9910
21531SOL    HW267487   4.775   9.908   5.825  0.5243 -0.4462  0.5828
21532SOL     OW67488   3.321   2.889   6.700  0.3087 -0.2655 -0.0887
21532SOL    HW167489   3.327   2.950   6.627 -0.3265  0.9516  0.8298
21532SOL    HW267490   3.227   2.881   6.717  0.4833  0.8395  1.6496
21533SOL     OW67491   0.550   8.786  10.614  0.3142 -0.1459  0.0895
21533SOL    HW167492   0.626   8.779  10.557  1.6601 -0.6422  1.8335
21533SOL    HW267493   0.579   8.842  10.686 -1.3425  0.5396  0.2905
21534SOL     OW67494   8.478   7.471   1.547  0.0189  0.5901  0.4584
21534SOL    HW167495   8.392   7.433   1.531 -0.1619  1.1512  0.0564
21534SOL    HW267496   8.539   7.415   1.498 -0.2128  0.6554  0.0917
21535SOL     OW67497   9.004   8.218   0.708 -0.7534 -0.3304 -0.4286
21535SOL    HW167498   9.082   8.268   0.684  0.2772 -1.4481  0.4366
21535SOL    HW267499   8.933   8.283   0.707  0.6666  1.4200  1.5668
21536SOL     OW67500   9.373   2.140   6.749 -0.5623  0.3977 -0.4191
21536SOL    HW167501   9.359   2.208   6.683 -0.3894  0.3721 -0.4827
21536SOL    HW267502   9.423   2.183   6.818 -0.4152  0.3224 -0.4795
21537SOL     OW67503   8.169   8.273   0.308  0.3396 -0.1951 -0.3499
21537SOL    HW167504   8.229   8.304   0.240  0.1633  1.6395  0.2918
21537SOL    HW267505   8.085   8.266   0.264  0.3725  0.2866 -0.4920
21538SOL     OW67506   6.228   8.424   6.535  0.3269  0.0301 -0.1810
21538SOL    HW167507   6.308   8.385   6.503  0.6271  0.3286  0.1960
21538SOL    HW267508   6.233   8.417   6.630  1.1993  2.4696  0.0220
21539SOL     OW67509   0.318   1.969   6.822 -0.4499  0.2931  0.2117
21539SOL    HW167510   0.259   1.980   6.897 -0.3115  0.5841  0.2796
21539SOL    HW267511   0.381   2.041   6.830  0.1677 -0.2537  0.3756
21540SOL     OW67512   0.534  10.522   6.993 -0.0236 -0.5459  0.0698
21540SOL    HW167513   0.580  10.484   7.068  0.7864  1.0024  0.3829
21540SOL    HW267514   0.577  10.606   6.978 -0.4825 -0.6006 -1.8364
21541SOL     OW67515   8.567   5.561   1.018 -0.3145 -0.3717  0.0786
21541SOL    HW167516   8.613   5.478   1.001 -2.2471 -1.1183 -1.9291
21541SOL    HW267517   8.558   5.602   0.932  0.0897  1.6998  0.9638
21542SOL     OW67518   4.772   4.230   7.492  0.5140  0.4138  0.0756
21542SOL    HW167519   4.759   4.315   7.451 -1.8800  1.5820  2.8938
21542SOL    HW267520   4.755   4.245   7.585  0.9177 -2.9687  0.8375
21543SOL     OW67521   3.780   3.230   7.387 -0.0536 -0.2037  0.6723
21543SOL    HW167522   3.762   3.139   7.363  0.1483 -0.0851  0.0564
21543SOL    HW267523   3.783   3.277   7.304  0.4588  0.2568  0.9411
21544SOL     OW67524   0.100   5.552   6.089 -0.0517  0.4025 -0.2028
21544SOL    HW167525   0.047   5.552   6.008 -2.7505  0.8249  1.4259
21544SOL    HW267526   0.042   5.590   6.155  2.5902  1.4535  1.6540
21545SOL     OW67527   5.075   2.126   7.050 -0.2445 -0.3938 -0.3732
21545SOL    HW167528   5.122   2.044   7.042 -1.6604 -1.1802 -1.0002
21545SOL    HW267529   5.143   2.194   7.048  0.8463 -1.4839 -1.0510
21546SOL     OW67530   9.787   0.054   5.817 -0.2074  0.3936 -0.0938
21546SOL    HW167531   9.754  -0.034   5.836 -1.3236  0.5104 -1.3139
21546SOL    HW267532   9.792   0.097   5.902  0.2139 -0.7998  0.5042
21547SOL     OW67533   0.713   2.726   3.816 -0.2683 -0.0106  0.6311
21547SOL    HW167534   0.655   2.659   3.781 -3.1608  1.0824  2.9813
21547SOL    HW267535   0.728   2.700   3.907  2.4937  0.1145  0.2938
21548SOL     OW67536   7.174   5.336  10.255 -0.1350 -0.2258 -0.4046
21548SOL    HW167537   7.261   5.330  10.216 -0.0105 -0.4750 -0.0912
21548SOL    HW267538   7.114   5.323  10.182  0.1001 -0.9639 -0.4736
21549SOL     OW67539   6.633   0.374   6.563  0.2500  0.7759  0.1956
21549SOL    HW167540   6.661   0.463   6.583  1.9392 -0.0823  2.0326
21549SOL    HW267541   6.607   0.337   6.647  1.1834 -0.9601 -0.2106
21550SOL     OW67542   3.569   6.718   3.556  0.3659 -0.2753 -0.1863
21550SOL    HW167543   3.574   6.713   3.460 -1.4445  1.8905 -0.4689
21550SOL    HW267544   3.620   6.796   3.578  0.9238 -0.8669  0.6613
21551SOL     OW67545   3.029   1.472   3.566 -0.0069  0.5018  0.4085
21551SOL    HW167546   3.068   1.479   3.653  2.8388  0.1174 -0.6982
21551SOL    HW267547   2.978   1.391   3.569  0.6311  0.1152  1.5446
21552SOL     OW67548   2.577   6.000  10.165 -0.2254 -0.7696  0.0610
21552SOL    HW167549   2.522   6.076  10.185 -0.0810 -0.1334 -1.7963
21552SOL    HW267550   2.587   5.956  10.249 -0.3612  1.2185  1.1883
21553SOL     OW67551   4.363   7.469   8.678 -0.6025 -0.3403  0.3167
21553SOL    HW167552   4.299   7.406   8.711  0.9705 -1.6617  0.9809
21553SOL    HW267553   4.396   7.428   8.598 -0.6954  0.4168 -0.1147
21554SOL     OW67554  10.148   0.097   8.646  0.3583 -0.6230 -0.2491
21554SOL    HW167555  10.189   0.159   8.586 -1.5751 -0.7722 -1.8328
21554SOL    HW267556  10.182   0.011   8.619  0.9676 -0.5108  0.1562
21555SOL     OW67557   3.064   3.744   2.384  0.2395 -0.7793 -0.7193
21555SOL    HW167558   2.978   3.756   2.423  0.7304  2.4435 -0.3600
21555SOL    HW267559   3.079   3.650   2.387 -2.5425 -1.2760  0.7299
21556SOL     OW67560   6.107   1.041  10.144  0.2164 -0.6067  0.4620
21556SOL    HW167561   6.086   0.967  10.087 -0.4698 -0.7025  0.8237
21556SOL    HW267562   6.075   1.117  10.095  0.7266 -0.5648  0.1871
21557SOL     OW67563   3.915   8.946   1.392 -0.2739  0.3167  0.2329
21557SOL    HW167564   3.860   8.876   1.356 -0.0930  0.2257  0.1356
21557SOL    HW267565   3.993   8.947   1.337 -1.0897  1.8519 -0.9830
21558SOL     OW67566   1.095   6.566   1.927  0.9164 -0.2523  0.1900
21558SOL    HW167567   1.089   6.602   2.015  0.0908 -0.5693  0.2723
21558SOL    HW267568   1.189   6.557   1.911  1.2822  3.3128 -0.4259
21559SOL     OW67569  10.435   6.416   1.653 -0.1931 -0.5103  0.6666
21559SOL    HW167570  10.528   6.433   1.669 -0.2754  0.5536  0.0695
21559SOL    HW267571  10.434   6.329   1.612  0.6118 -0.2144 -0.0097
21560SOL     OW67572   6.915   4.291   0.648 -0.3164  0.1411 -0.0551
21560SOL    HW167573   6.917   4.256   0.737  0.5177 -1.8641 -0.7951
21560SOL    HW267574   6.906   4.385   0.659  1.2064  0.1093  2.2052
21561SOL     OW67575   0.318   9.075   6.456 -0.0289  0.6469  0.4538
21561SOL    HW167576   0.377   9.145   6.430  2.0611 -1.0557  0.3837
21561SOL    HW267577   0.329   9.007   6.390 -0.1419 -0.7441  1.8073
21562SOL     OW67578   7.514   6.850   2.782 -0.2315  0.4187 -0.1679
21562SOL    HW167579   7.453   6.787   2.743  0.5181  0.0081 -0.7050
21562SOL    HW267580   7.525   6.918   2.715 -2.6673  2.3189  1.1734
21563SOL     OW67581   8.175   5.989   4.520  0.3094  0.2081 -0.7321
21563SOL    HW167582   8.150   5.900   4.495 -4.9383  1.5101 -1.3308
21563SOL    HW267583   8.174   6.039   4.439  2.1706  1.0909 -0.2704
21564SOL     OW67584   0.337   8.998   9.788 -0.0212  0.0776 -0.0936
21564SOL    HW167585   0.333   8.905   9.767  1.1599  0.1211 -0.6239
21564SOL    HW267586   0.311   9.042   9.706 -2.0527  0.2405  0.5780
21565SOL     OW67587   9.210   4.887   0.883 -0.1688  0.1127 -0.0817
21565SOL    HW167588   9.209   4.844   0.798 -0.3441 -0.0877  0.0222
21565SOL    HW267589   9.171   4.973   0.867  0.8863  0.5323 -0.4491
21566SOL     OW67590   4.234   5.061   5.005  0.1995 -0.0307 -0.0220
21566SOL    HW167591   4.194   5.109   5.077 -1.3622 -0.4355 -0.5890
21566SOL    HW267592   4.175   4.988   4.988  0.3549  0.2229 -1.8966
21567SOL     OW67593  10.705   2.686   1.824  0.4751  0.0963 -0.2441
21567SOL    HW167594  10.796   2.661   1.812 -0.0042 -1.5445 -0.6878
21567SOL    HW267595  10.692   2.686   1.919  0.1931 -2.6668 -0.2214
21568SOL     OW67596   9.557   7.344   6.628 -0.2375 -0.0862  0.7249
21568SOL    HW167597   9.582   7.255   6.654  0.8618 -0.3407 -1.0573
21568SOL    HW267598   9.534   7.336   6.535 -2.0709  1.1422  1.0080
21569SOL     OW67599   0.317   6.036   4.698 -0.4603  0.7000 -0.2498
21569SOL    HW167600   0.251   5.968   4.712 -0.2572  0.4303 -0.5755
21569SOL    HW267601   0.324   6.042   4.603  1.3157 -0.5911 -0.2433
21570SOL     OW67602   8.160   9.767   7.418  0.0417  0.3090 -0.1574
21570SOL    HW167603   8.120   9.683   7.443  0.3308  0.2853  0.2365
21570SOL    HW267604   8.109   9.796   7.343  1.0328 -1.0852 -1.4360
21571SOL     OW67605   9.411   9.700   7.088 -0.0554 -0.3535  0.7064
21571SOL    HW167606   9.398   9.605   7.095 -1.4009 -0.1542  1.2658
21571SOL    HW267607   9.344   9.728   7.026  0.2853  0.2440  0.6072
21572SOL     OW67608   8.885   1.638   0.073  0.2520  0.6212  0.1743
21572SOL    HW167609   8.869   1.557   0.026 -0.7581 -0.4811  2.2516
21572SOL    HW267610   8.798   1.670   0.096  0.6821  1.0969  1.2365
21573SOL     OW67611   7.346   1.688   7.050 -0.6909  0.3717 -0.7966
21573SOL    HW167612   7.411   1.755   7.069 -1.7649  1.7679 -1.8288
21573SOL    HW267613   7.274   1.706   7.110  0.2561 -1.8969  1.1791
21574SOL     OW67614   2.628   6.983   0.180 -0.0713 -0.3561  0.4219
21574SOL    HW167615   2.553   7.033   0.211 -0.1780  0.1456 -0.5888
21574SOL    HW267616   2.673   7.043   0.120  0.1992 -1.2252 -0.2670
21575SOL     OW67617   7.807   1.622   7.025  0.0232  0.4974 -0.8045
21575SOL    HW167618   7.758   1.652   6.948  1.7247 -0.1711 -2.1976
21575SOL    HW267619   7.895   1.658   7.014 -0.0694  1.7839  1.7119
21576SOL     OW67620   3.178   0.986   0.834 -0.0509  0.4940  0.0434
21576SOL    HW167621   3.154   0.893   0.838  2.3296 -0.1376  1.0207
21576SOL    HW267622   3.190   1.011   0.926 -0.8014  1.8492 -0.1976
21577SOL     OW67623   3.985   7.679   4.249  0.3287  0.0259 -0.2211
21577SOL    HW167624   4.045   7.624   4.200 -1.1336 -1.4304 -0.4738
21577SOL    HW267625   3.915   7.700   4.186 -0.3620  0.1318  0.5658
21578SOL     OW67626   0.366   0.967   4.335  0.2213 -0.0625 -0.1191
21578SOL    HW167627   0.423   1.035   4.301 -0.4078 -0.6000 -2.4403
21578SOL    HW267628   0.424   0.894   4.356  0.7928  0.8183  1.5570
21579SOL     OW67629   8.250   3.639   7.901 -0.4731 -0.6557 -0.0636
21579SOL    HW167630   8.326   3.697   7.889  0.3640 -1.4617  1.1672
21579SOL    HW267631   8.175   3.693   7.876  0.4534  0.2765 -0.9774
21580SOL     OW67632   9.688   7.615   6.636 -0.2086 -0.0137  0.0335
21580SOL    HW167633   9.644   7.538   6.673  0.7446 -0.7418 -0.2886
21580SOL    HW267634   9.679   7.682   6.703 -0.3934 -0.6476  0.6625
21581SOL     OW67635   0.058   2.124   4.136 -0.0831  0.1653  0.5541
21581SOL    HW167636   0.108   2.043   4.141  0.2689  0.2953 -0.5796
21581SOL    HW267637   0.111   2.189   4.182  0.8194  0.3011 -0.6271
21582SOL     OW67638   5.428   2.187   5.882  0.6673 -0.6560 -0.4614
21582SOL    HW167639   5.341   2.211   5.852  1.0291  0.5787 -0.5484
21582SOL    HW267640   5.442   2.237   5.962  2.2433  1.1317 -1.7704
21583SOL     OW67641   5.209  10.178   5.748 -0.0264  0.4040  0.0487
21583SOL    HW167642   5.257  10.253   5.713  0.5888 -0.0566 -0.1071
21583SOL    HW267643   5.176  10.208   5.833  0.3405  0.8042  0.0519
21584SOL     OW67644   9.945   7.432   9.603  0.4910 -0.2848  0.1186
21584SOL    HW167645  10.010   7.364   9.621  0.6447  0.1125  1.1305
21584SOL    HW267646   9.967   7.502   9.664 -1.3464 -0.4395  1.0069
21585SOL     OW67647   1.758   7.912  10.411 -0.1618 -0.2965 -0.1710
21585SOL    HW167648   1.724   7.998  10.437  0.8776 -0.0030  0.2775
21585SOL    HW267649   1.684   7.852  10.424  0.1459 -0.1482  3.3398
21586SOL     OW67650   8.423   5.504   3.894 -0.1342  0.0191 -0.9415
21586SOL    HW167651   8.457   5.575   3.950 -2.0300  1.0489 -1.0119
21586SOL    HW267652   8.350   5.544   3.846 -1.9277 -2.2137 -0.2586
21587SOL     OW67653   9.159   2.149   7.413 -0.7796  0.0804 -0.2737
21587SOL    HW167654   9.161   2.244   7.402 -0.2941 -0.0643 -1.5641
21587SOL    HW267655   9.222   2.115   7.349 -0.7500 -1.1007  0.3432
21588SOL     OW67656   5.639   7.670   8.291 -0.0677  0.2721  0.1872
21588SOL    HW167657   5.715   7.612   8.294 -0.0063  0.3153 -0.4429
21588SOL    HW267658   5.676   7.757   8.275 -0.1188  0.5800  1.6087
21589SOL     OW67659   1.882   5.621   0.538  0.3200  0.3143 -0.3254
21589SOL    HW167660   1.947   5.586   0.599 -0.8439  0.2135  0.8887
21589SOL    HW267661   1.826   5.546   0.516 -1.1648  0.9992  0.9674
21590SOL     OW67662   1.396   2.193   0.693 -0.2391 -0.2231 -0.3577
21590SOL    HW167663   1.463   2.126   0.677 -0.0994 -0.4161  0.9624
21590SOL    HW267664   1.373   2.225   0.605  2.8825  1.1625 -0.8009
21591SOL     OW67665   0.398   6.445   5.250 -0.3708 -0.4865 -0.0409
21591SOL    HW167666   0.348   6.438   5.332 -0.7566 -0.0964 -0.2346
21591SOL    HW267667   0.475   6.389   5.264 -0.8995 -1.1602  0.2317
21592SOL     OW67668   1.493   2.552   5.276 -0.7092  0.2943 -0.0468
21592SOL    HW167669   1.406   2.581   5.249 -0.9283 -0.3137 -0.0166
21592SOL    HW267670   1.547   2.565   5.198 -1.0326 -0.1519 -0.3581
21593SOL     OW67671  10.648   7.186   6.295 -0.5399  0.5136 -0.2436
21593SOL    HW167672  10.578   7.137   6.336 -0.5714  0.2335 -0.6240
21593SOL    HW267673  10.686   7.125   6.231 -0.0105  0.6909 -0.1003
21594SOL     OW67674   5.796   4.365   7.097  0.1226  0.3213 -0.2389
21594SOL    HW167675   5.792   4.460   7.092  0.3577  0.3407 -0.0385
21594SOL    HW267676   5.705   4.338   7.110  0.0696  0.5234 -0.1887
21595SOL     OW67677   2.022   1.335   7.595 -0.6988 -0.3182  0.2578
21595SOL    HW167678   2.030   1.390   7.673 -0.7020  0.8046 -0.5105
21595SOL    HW267679   1.933   1.350   7.564 -0.3552  0.1132 -0.5711
21596SOL     OW67680   1.709   7.375   7.204 -0.3852 -0.5313 -0.5756
21596SOL    HW167681   1.778   7.367   7.270  1.1983  0.9771 -1.9453
21596SOL    HW267682   1.666   7.458   7.223 -0.9507 -0.8236 -0.5423
21597SOL     OW67683   3.029   1.402   9.541  0.2601  0.4022 -0.4233
21597SOL    HW167684   2.957   1.451   9.582  1.4734  1.6002  0.3405
21597SOL    HW267685   3.000   1.389   9.451 -1.1733  0.3240  0.0179
21598SOL     OW67686   6.419   8.821   8.125 -0.1454 -0.1622  0.8486
21598SOL    HW167687   6.355   8.750   8.115 -0.7816  0.1915  2.1960
21598SOL    HW267688   6.366   8.900   8.133  0.5110  0.2993  0.7008
21599SOL     OW67689   1.131   5.296   6.151 -0.0627 -0.2647  0.1464
21599SOL    HW167690   1.096   5.370   6.101 -1.9370 -1.5772 -0.5783
21599SOL    HW267691   1.074   5.289   6.227 -0.2644 -1.2925 -0.0821
21600SOL     OW67692   6.865   8.061   3.726 -0.1734  0.1600  0.0966
21600SOL    HW167693   6.892   8.119   3.798 -0.1351 -0.4433  0.5770
21600SOL    HW267694   6.813   7.993   3.768  2.2749 -1.9095  0.0555
21601SOL     OW67695   1.411   2.210   7.034  0.1885 -0.7842 -0.5122
21601SOL    HW167696   1.347   2.273   7.001 -0.4040  0.1477  2.1592
21601SOL    HW267697   1.361   2.154   7.093  1.2885 -1.9659 -0.6530
21602SOL     OW67698   5.352   7.229   0.432  0.5349 -0.6264  0.5634
21602SOL    HW167699   5.383   7.256   0.518  0.4438 -0.6790  0.6130
21602SOL    HW267700   5.267   7.188   0.449  0.7488 -1.0960  0.5114
21603SOL     OW67701   5.496   1.658   7.500 -0.3577 -0.1374 -0.1231
21603SOL    HW167702   5.518   1.702   7.418 -0.6025 -0.2696 -0.2613
21603SOL    HW267703   5.512   1.565   7.482  0.0553 -0.1206  0.1339
21604SOL     OW67704   9.149   9.410   2.639 -0.4107 -0.2330  0.0656
21604SOL    HW167705   9.234   9.425   2.679  0.5312 -1.4154 -1.4058
21604SOL    HW267706   9.155   9.323   2.599 -2.8034 -0.9749  1.1369
21605SOL     OW67707   7.141   1.834   0.782 -0.2202  0.5025 -0.4811
21605SOL    HW167708   7.160   1.746   0.747  0.7970  0.9808 -1.1888
21605SOL    HW267709   7.057   1.824   0.826  0.6229 -1.2385  0.9012
21606SOL     OW67710   2.570   7.239   7.120  0.2567  0.3061 -0.7865
21606SOL    HW167711   2.527   7.161   7.157  0.5971  0.5530  0.1619
21606SOL    HW267712   2.599   7.288   7.196  1.7539  0.4187 -1.3957
21607SOL     OW67713   2.286   5.212   1.204  0.1962 -0.0066  0.2951
21607SOL    HW167714   2.361   5.230   1.146 -0.0291  0.0996  0.0346
21607SOL    HW267715   2.246   5.297   1.217 -0.7805 -0.2621 -0.8091
21608SOL     OW67716   7.163   4.875   9.026  0.2652 -0.0255 -0.1750
21608SOL    HW167717   7.136   4.966   9.034 -2.5161 -0.7971  0.1567
21608SOL    HW267718   7.213   4.872   8.945  0.6170  1.8287 -0.0624
21609SOL     OW67719   9.201   3.675   2.852 -0.1940  0.0009 -0.3539
21609SOL    HW167720   9.144   3.748   2.829  0.0872 -0.0582 -1.2814
21609SOL    HW267721   9.152   3.597   2.826 -0.7645 -0.2053  1.2028
21610SOL     OW67722   4.497   2.671   7.263 -0.0420 -0.3811  0.5703
21610SOL    HW167723   4.531   2.611   7.329 -0.8946 -2.5865 -0.9053
21610SOL    HW267724   4.528   2.635   7.180  0.1880  1.7774 -0.3448
21611SOL     OW67725   8.369   8.150   4.887  0.1810 -0.3051  0.3304
21611SOL    HW167726   8.438   8.209   4.857 -0.2263  0.4287  0.7896
21611SOL    HW267727   8.413   8.090   4.947  0.5418 -0.2479  0.1224
21612SOL     OW67728   5.183  10.157   1.381  0.0069  0.4547 -0.1584
21612SOL    HW167729   5.138  10.075   1.363  0.5877 -0.1752  1.1087
21612SOL    HW267730   5.230  10.177   1.300 -1.6701  0.5911 -1.1478
21613SOL     OW67731   5.967   3.268   0.412  0.2178  0.3709 -0.7064
21613SOL    HW167732   5.909   3.277   0.487  0.3049  0.2183 -0.6217
21613SOL    HW267733   5.997   3.357   0.395 -1.1783  0.7055 -1.6605
21614SOL     OW67734   1.310   8.434   9.074  0.6852 -0.5210 -0.3222
21614SOL    HW167735   1.355   8.492   9.136 -0.7645 -1.4265  1.7058
21614SOL    HW267736   1.218   8.441   9.098  0.1387 -1.3548 -2.0424
21615SOL     OW67737   0.447   7.757  10.555  0.3551 -0.1576 -0.3402
21615SOL    HW167738   0.495   7.826  10.508  0.4641 -0.3558 -0.5242
21615SOL    HW267739   0.448   7.785  10.647 -0.0571  0.3479 -0.4856
21616SOL     OW67740   9.679   3.819   9.131 -0.0169 -0.2126 -0.1108
21616SOL    HW167741   9.602   3.777   9.092 -0.8140 -0.6355  1.8374
21616SOL    HW267742   9.653   3.839   9.221  0.5216  3.8897 -0.6613
21617SOL     OW67743   7.643   8.782   6.008 -0.6861  0.3076 -0.5304
21617SOL    HW167744   7.617   8.694   6.034 -0.8921  0.3800 -0.4870
21617SOL    HW267745   7.640   8.781   5.912 -3.8299  1.1702 -0.5488
21618SOL     OW67746   6.313   6.185  10.413  0.0546  0.1679 -0.5375
21618SOL    HW167747   6.236   6.196  10.468  0.9158 -0.1536  0.7981
21618SOL    HW267748   6.378   6.244  10.452  1.2228 -1.3310 -0.1143
21619SOL     OW67749   0.031   1.452   7.446  0.0706 -0.0955  0.5047
21619SOL    HW167750  -0.039   1.389   7.425  0.4288 -0.2005 -0.4089
21619SOL    HW267751  -0.009   1.538   7.433 -0.0724 -0.1466  0.6041
21620SOL     OW67752   2.728  10.532   0.175 -0.1960 -0.0336  0.2927
21620SOL    HW167753   2.653  10.530   0.235  0.2001  0.2819  0.8073
21620SOL    HW267754   2.794  10.477   0.218 -0.7077 -1.7156 -0.9626
21621SOL     OW67755  10.189   0.792   5.579 -0.2184  0.4203 -0.0861
21621SOL    HW167756  10.168   0.702   5.555 -1.0694  0.6162 -0.1071
21621SOL    HW267757  10.262   0.785   5.640 -1.5366 -0.4235  1.4690
21622SOL     OW67758   7.144   3.146   3.347 -0.3969 -0.1042  0.8017
21622SOL    HW167759   7.102   3.209   3.406  1.3854  0.3915  1.6341
21622SOL    HW267760   7.191   3.201   3.284 -0.9007 -0.6300 -0.0338
21623SOL     OW67761   1.052   7.367   7.533 -0.6762 -0.0566 -0.9595
21623SOL    HW167762   1.003   7.287   7.516  0.0689 -0.4254 -1.4125
21623SOL    HW267763   0.986   7.436   7.533 -1.5057 -0.8060  0.6794
21624SOL     OW67764  10.245   3.518   8.545 -0.2630  0.0467  0.9692
21624SOL    HW167765  10.264   3.541   8.454  1.7755  0.2032  1.3879
21624SOL    HW267766  10.283   3.590   8.596 -0.7643 -0.3843  1.9769
21625SOL     OW67767   8.233   3.690   6.190  0.5483 -0.2868 -0.2998
21625SOL    HW167768   8.251   3.605   6.151  1.4012 -0.2119 -0.0781
21625SOL    HW267769   8.228   3.751   6.116  1.7033 -0.2245 -0.3463
21626SOL     OW67770   3.003   9.794   9.600  0.0013  0.0165 -0.2236
21626SOL    HW167771   3.010   9.856   9.672 -0.0279 -0.0797 -0.1388
21626SOL    HW267772   3.071   9.729   9.616 -2.0462 -1.8707  1.5216
21627SOL     OW67773   1.414   0.928   1.519  0.1074  0.5570  0.2538
21627SOL    HW167774   1.348   0.907   1.453  0.4727 -1.1130  0.3684
21627SOL    HW267775   1.375   0.998   1.571 -1.4396 -0.1688  0.1082
21628SOL     OW67776   8.635   4.949  10.054 -0.4272 -0.2909 -0.2726
21628SOL    HW167777   8.648   5.008  10.129  0.9152 -1.1406  0.2017
21628SOL    HW267778   8.565   4.890  10.081 -0.6334  0.0408 -0.0820
21629SOL     OW67779   3.638   8.903   4.997 -0.4098 -0.2716  0.0590
21629SOL    HW167780   3.649   8.832   5.061 -0.0560 -0.5968 -0.3565
21629SOL    HW267781   3.543   8.916   4.992 -0.6078 -1.8814 -1.0968
21630SOL     OW67782   2.921   5.667   0.533  0.8035  0.4145 -0.0443
21630SOL    HW167783   2.917   5.684   0.439  0.7373 -1.2517 -0.3817
21630SOL    HW267784   3.009   5.631   0.547  0.0676 -1.4880  0.0805
21631SOL     OW67785   4.661   9.637   2.240  0.2369  0.0776  0.4150
21631SOL    HW167786   4.628   9.662   2.153 -2.3875 -1.8340  0.7082
21631SOL    HW267787   4.687   9.719   2.281 -0.5328  1.2961 -1.3931
21632SOL     OW67788   0.366   6.526   5.877 -0.2801  0.3748 -0.3820
21632SOL    HW167789   0.313   6.568   5.809  1.5802  0.2238 -2.0164
21632SOL    HW267790   0.370   6.591   5.948  0.3758  1.9413 -1.7709
21633SOL     OW67791   5.646  10.305   3.838 -1.1218  0.3213 -0.7212
21633SOL    HW167792   5.599  10.315   3.921 -0.3279 -0.6011 -0.1289
21633SOL    HW267793   5.651  10.210   3.825 -1.4111  0.4539 -1.9419
21634SOL     OW67794   9.119   1.357   2.738 -0.8083 -0.0047  0.2186
21634SOL    HW167795   9.195   1.299   2.749 -0.4174  0.1576 -1.4106
21634SOL    HW267796   9.070   1.347   2.819  0.7649 -0.4003  1.1671
21635SOL     OW67797   1.307   3.758   2.333  0.3918  0.3599 -0.1738
21635SOL    HW167798   1.315   3.843   2.289  2.7366 -0.2344 -1.0409
21635SOL    HW267799   1.258   3.704   2.271 -1.3021  1.0873  0.4729
21636SOL     OW67800   6.759  10.037   2.661  0.1212  0.0713  0.0188
21636SOL    HW167801   6.810  10.117   2.653 -0.1636  0.3513  0.8511
21636SOL    HW267802   6.677  10.065   2.702 -0.0798 -0.6021  0.0899
21637SOL     OW67803   7.936   6.814   9.297  0.0440  0.0350 -0.0094
21637SOL    HW167804   8.018   6.844   9.260  0.2016  0.6820  0.8399
21637SOL    HW267805   7.874   6.885   9.281 -0.5993 -0.8034 -1.4233
21638SOL     OW67806   2.093   0.316   5.121  0.3183  0.1073  0.6690
21638SOL    HW167807   2.184   0.345   5.113  0.3035 -0.3020 -1.3669
21638SOL    HW267808   2.098   0.220   5.123 -0.1865 -0.1837 -3.5314
21639SOL     OW67809   3.804  10.204   5.069 -0.3873 -0.5566  0.0287
21639SOL    HW167810   3.745  10.166   5.003 -0.8773  0.2226 -0.0012
21639SOL    HW267811   3.821  10.132   5.130  0.5941 -1.4797 -1.2762
21640SOL     OW67812   0.107   6.601   8.952 -0.3584  0.1811  0.5585
21640SOL    HW167813   0.082   6.510   8.938  1.7889 -0.8803  2.9025
21640SOL    HW267814   0.031   6.651   8.922 -2.0279 -2.4056  0.1256
21641SOL     OW67815  10.588   5.661   5.784  0.4555  0.1518 -0.8456
21641SOL    HW167816  10.520   5.595   5.798 -1.2484  1.1777 -3.4923
21641SOL    HW267817  10.616   5.649   5.694  1.7190  1.6198 -0.6979
21642SOL     OW67818   6.882   7.272   1.982  0.4006  0.0855  0.0949
21642SOL    HW167819   6.809   7.328   2.010  0.8534 -0.6625  3.2013
21642SOL    HW267820   6.960   7.321   2.007  0.8980 -0.2190 -0.8424
21643SOL     OW67821   5.280  10.756   9.182  0.2082 -0.2992  0.1500
21643SOL    HW167822   5.222  10.729   9.254 -0.4199  2.4270  0.8100
21643SOL    HW267823   5.244  10.713   9.105 -0.5921 -1.3924  1.0887
21644SOL     OW67824   6.157   2.009   4.569  0.5393 -0.1008 -0.3572
21644SOL    HW167825   6.150   2.001   4.474  0.1006 -0.6873 -0.2797
21644SOL    HW267826   6.234   2.065   4.583  1.6941 -1.4722 -1.0273
21645SOL     OW67827   1.727   3.068   7.079  0.3865  0.6033 -0.2878
21645SOL    HW167828   1.646   3.115   7.058 -0.9920 -1.5565 -0.1270
21645SOL    HW267829   1.724   2.990   7.023  0.1075 -1.7502  2.7061
21646SOL     OW67830   6.984   4.434   6.855  0.0294 -0.0109  0.2117
21646SOL    HW167831   7.051   4.425   6.788  1.5327 -1.3066  1.7823
21646SOL    HW267832   6.941   4.349   6.858  0.5703 -0.2673  1.4337
21647SOL     OW67833   2.885   7.269   5.541  0.4882 -0.3849 -1.0214
21647SOL    HW167834   2.956   7.205   5.547  0.8866  0.0589 -0.9356
21647SOL    HW267835   2.877   7.287   5.447 -1.1540 -2.2304 -1.3192
21648SOL     OW67836   8.494   3.747   5.998  0.4300  0.6252  1.1478
21648SOL    HW167837   8.490   3.731   6.092  0.0279  1.6235  1.3089
21648SOL    HW267838   8.403   3.764   5.973  0.2906 -1.1058  0.2847
21649SOL     OW67839   8.629   8.003   7.728 -0.0974 -0.0644 -0.2351
21649SOL    HW167840   8.651   7.911   7.721  1.0935  0.2067 -0.2823
21649SOL    HW267841   8.534   8.005   7.740  0.0750 -1.3969  1.8236
21650SOL     OW67842   7.600   0.992   2.843  0.1460  0.0783 -0.1233
21650SOL    HW167843   7.666   1.030   2.900  0.7594  1.1518 -1.4921
21650SOL    HW267844   7.565   1.066   2.793 -2.2910 -0.4054  0.7165
21651SOL     OW67845   3.388   7.423   6.489  0.2839  0.3648 -0.6984
21651SOL    HW167846   3.354   7.468   6.566 -0.5057 -0.0930 -0.7727
21651SOL    HW267847   3.347   7.336   6.491  0.5231  0.2241 -1.4410
21652SOL     OW67848   5.464   2.289   9.942 -0.3702 -0.3467  0.0160
21652SOL    HW167849   5.456   2.347  10.018  1.8235 -0.3521  0.3132
21652SOL    HW267850   5.453   2.347   9.867  0.2319  0.1903  0.3296
21653SOL     OW67851  10.262   8.203   0.770 -0.4264  0.7364 -0.7162
21653SOL    HW167852  10.241   8.138   0.837  0.0840  1.3764  0.0854
21653SOL    HW267853  10.243   8.159   0.687 -0.9300 -0.1205 -0.1636
21654SOL     OW67854   1.112   7.983   2.495 -0.1107 -0.3450 -0.0745
21654SOL    HW167855   1.079   8.017   2.578  2.6465  0.3828  0.8446
21654SOL    HW267856   1.156   7.901   2.519 -0.2687 -0.7166 -1.0131
21655SOL     OW67857   7.316   0.937   8.061 -0.9274  0.6174 -0.0676
21655SOL    HW167858   7.411   0.939   8.061 -0.9333  0.9953  0.1495
21655SOL    HW267859   7.293   0.862   8.116 -0.7424 -1.5842 -2.7454
21656SOL     OW67860   3.354   1.056   5.933 -0.6866 -0.1030 -0.4115
21656SOL    HW167861   3.392   1.049   5.846 -1.8407  0.3531 -0.9692
21656SOL    HW267862   3.298   1.134   5.929 -2.6158 -1.4200  0.0041
21657SOL     OW67863  10.257   0.877   9.005 -0.3792 -0.0819 -0.0309
21657SOL    HW167864  10.338   0.923   8.981 -0.7942  0.7855  0.2105
21657SOL    HW267865  10.187   0.936   8.976 -0.9143 -0.4185  0.5768
21658SOL     OW67866   8.031   2.841   6.597  0.1847 -0.0133  0.0352
21658SOL    HW167867   7.981   2.806   6.671 -1.4379  1.3858 -0.3282
21658SOL    HW267868   7.964   2.876   6.539  1.6107  1.9679 -0.4867
21659SOL     OW67869   1.041   8.059   8.364  0.6555 -0.1199 -0.2203
21659SOL    HW167870   1.051   8.044   8.458  2.4447  2.4854  0.1182
21659SOL    HW267871   0.956   8.021   8.343  0.3974 -1.2027  2.3340
21660SOL     OW67872   8.184   9.483   8.841  0.6208 -0.3398 -0.0437
21660SOL    HW167873   8.092   9.479   8.868  1.0430 -0.5236  1.4444
21660SOL    HW267874   8.182   9.531   8.759 -0.7194  0.4038  0.3874
21661SOL     OW67875   2.877   6.530  10.145 -0.1699 -0.3431  0.1482
21661SOL    HW167876   2.944   6.569  10.201 -0.7964 -0.7315  1.1890
21661SOL    HW267877   2.816   6.602  10.127 -0.0353 -0.2496  0.0604
21662SOL     OW67878   0.371   8.704   4.091 -0.1951  0.6843 -0.1450
21662SOL    HW167879   0.426   8.696   4.169 -0.6335 -0.3734  0.0675
21662SOL    HW267880   0.332   8.617   4.079  0.1690  0.7052 -1.7699
21663SOL     OW67881   5.102   1.027   7.767 -0.0198  0.5287  0.3715
21663SOL    HW167882   5.073   1.018   7.676  2.3820  0.4776 -0.4674
21663SOL    HW267883   5.144   0.943   7.787  1.4486  1.3130  0.7241
21664SOL     OW67884   3.553   5.104   5.988 -0.1464  0.0950  0.2940
21664SOL    HW167885   3.474   5.051   5.985 -0.7932  1.0279  0.3609
21664SOL    HW267886   3.563   5.128   6.081  1.2809 -1.5456  0.6113
21665SOL     OW67887   5.526   2.044   3.874  0.4325  0.1506  0.0304
21665SOL    HW167888   5.488   2.110   3.932  2.3033  2.6903 -1.4276
21665SOL    HW267889   5.620   2.057   3.882  0.8336 -1.5629 -1.2535
21666SOL     OW67890   6.085   9.165   3.405  0.2264 -0.6366 -0.0621
21666SOL    HW167891   6.067   9.255   3.377 -4.5079 -0.9810  1.0655
21666SOL    HW267892   6.049   9.111   3.335  0.8187 -1.6703  0.4086
21667SOL     OW67893   1.270   8.048   4.101  0.3553 -0.0836 -0.8852
21667SOL    HW167894   1.184   8.077   4.071  0.6853 -0.4923 -2.2607
21667SOL    HW267895   1.283   8.095   4.183 -1.7507 -1.0270  0.0713
21668SOL     OW67896   3.766   6.907   3.591  0.1675  0.0516  0.1110
21668SOL    HW167897   3.815   6.882   3.670 -0.4877 -1.6686  0.0199
21668SOL    HW267898   3.777   7.002   3.585 -0.0865  0.3003  2.4954
21669SOL     OW67899  10.198   0.589  10.664 -0.1867 -0.5922 -0.3933
21669SOL    HW167900  10.142   0.656  10.626  0.0100 -0.2120 -0.0112
21669SOL    HW267901  10.188   0.513  10.606  0.0050 -0.0613 -1.1226
21670SOL     OW67902   4.056   4.178   1.950 -0.4378 -0.0770 -0.3615
21670SOL    HW167903   4.070   4.222   2.034 -0.8291  2.6978 -1.6433
21670SOL    HW267904   4.140   4.135   1.931 -0.2875 -0.5789  1.3239
21671SOL     OW67905   4.199   9.375   8.678  0.4356  0.0565 -0.2077
21671SOL    HW167906   4.251   9.393   8.757  1.4410 -0.3882 -0.7483
21671SOL    HW267907   4.152   9.295   8.699  0.0312  0.4029  0.2484
21672SOL     OW67908   1.316   6.864   5.865 -0.0349  0.2441  0.2386
21672SOL    HW167909   1.258   6.803   5.821  0.3642 -0.3689  0.5383
21672SOL    HW267910   1.308   6.945   5.816 -1.8511  0.4666  0.8343
21673SOL     OW67911   5.445  10.510  10.066 -0.0504  0.5105 -0.3905
21673SOL    HW167912   5.452  10.435  10.008  1.3473  0.5262 -0.2751
21673SOL    HW267913   5.501  10.488  10.141 -0.3734  1.2670  0.0873
21674SOL     OW67914   3.992   5.054   5.779 -0.5786  0.5061 -0.3706
21674SOL    HW167915   3.977   4.984   5.842  0.8724  0.6424  0.1706
21674SOL    HW267916   3.916   5.111   5.787 -0.9899 -0.1368  0.3643
21675SOL     OW67917   5.797   3.298   0.634  0.4804  0.0103 -0.2356
21675SOL    HW167918   5.851   3.239   0.687  1.1645  1.3559  0.5995
21675SOL    HW267919   5.707   3.277   0.659  0.2843 -3.6811 -3.0818
21676SOL     OW67920   4.638   9.208   8.582 -0.7052  0.3689 -0.3714
21676SOL    HW167921   4.546   9.182   8.571 -0.9412  0.7059  0.6481
21676SOL    HW267922   4.681   9.130   8.618 -0.3844 -0.0763 -1.6840
21677SOL     OW67923   5.712   8.544   9.788 -0.7577  0.0144  0.2662
21677SOL    HW167924   5.803   8.521   9.808 -0.9125  0.4498  1.5932
21677SOL    HW267925   5.714   8.639   9.775 -0.5588 -0.3055 -2.6300
21678SOL     OW67926   4.014   4.839   4.167 -0.5176  0.4040  0.6663
21678SOL    HW167927   3.990   4.853   4.076 -0.8902  0.9963  0.8505
21678SOL    HW267928   4.034   4.745   4.173  0.0231  0.4602 -0.1360
21679SOL     OW67929   9.096   7.448   5.893  0.0112 -0.5906 -0.0782
21679SOL    HW167930   9.126   7.519   5.949  0.5378 -0.3533 -0.6432
21679SOL    HW267931   9.174   7.424   5.842 -0.6566 -0.2201 -1.3122
21680SOL     OW67932   9.465   0.682   3.740  0.2263  0.2163  0.1165
21680SOL    HW167933   9.406   0.651   3.671 -0.1417  0.1078  0.4697
21680SOL    HW267934   9.413   0.673   3.820  0.2743  1.3336  0.2785
21681SOL     OW67935   8.887   5.932   8.749 -0.3259  0.7799  0.2246
21681SOL    HW167936   8.911   5.968   8.664  1.9843 -0.7737  0.1245
21681SOL    HW267937   8.937   5.984   8.812 -1.3561  1.3560  0.5907
21682SOL     OW67938   3.047   6.222   1.402  0.3122  0.1028 -0.2061
21682SOL    HW167939   3.125   6.235   1.457  0.8586 -1.5075 -0.5561
21682SOL    HW267940   3.071   6.262   1.318 -0.4883  2.4832  0.6085
21683SOL     OW67941   9.450   7.762   4.835  0.1116 -0.0630  0.1131
21683SOL    HW167942   9.451   7.673   4.798  0.6803 -0.1332  0.2894
21683SOL    HW267943   9.491   7.816   4.767  2.1497 -0.3636  1.0414
21684SOL     OW67944  10.378   7.891   7.581  0.4048  0.2789  0.0093
21684SOL    HW167945  10.323   7.956   7.625 -0.7275 -0.1618 -0.6788
21684SOL    HW267946  10.371   7.813   7.636  1.9918  0.8109  0.9846
21685SOL     OW67947  10.184   6.354   0.139 -0.1895 -0.4495  0.4027
21685SOL    HW167948  10.237   6.429   0.167  2.3594 -2.3535  1.0146
21685SOL    HW267949  10.207   6.343   0.047 -1.1502 -0.0806  0.1011
21686SOL     OW67950   7.651   8.314   1.779 -0.0378  0.1972  0.4719
21686SOL    HW167951   7.719   8.273   1.832 -0.2662 -0.3304  0.3743
21686SOL    HW267952   7.695   8.341   1.699  0.2280  0.6429  0.7639
21687SOL     OW67953   8.832   3.062   1.544 -0.1636  0.4213  0.3315
21687SOL    HW167954   8.763   3.108   1.497 -1.3029 -0.4397  1.1123
21687SOL    HW267955   8.788   3.021   1.618  1.7007  2.7175  2.9357
21688SOL     OW67956   3.004   4.992   9.572  0.0657 -0.6301 -0.1668
21688SOL    HW167957   3.071   4.925   9.562  0.0900 -0.5746 -0.3911
21688SOL    HW267958   2.939   4.971   9.505 -1.4816 -2.2479  1.7166
21689SOL     OW67959   9.480   8.959   1.362  0.0214 -0.0184  0.3438
21689SOL    HW167960   9.526   8.936   1.281 -0.2217 -0.3192  0.2876
21689SOL    HW267961   9.404   9.009   1.334  1.5204  2.5284  0.5762
21690SOL     OW67962   5.614   1.836   1.992  0.1265 -0.3849 -0.1956
21690SOL    HW167963   5.548   1.837   2.061  0.7979 -1.1420  0.4948
21690SOL    HW267964   5.575   1.883   1.919 -0.6957  0.2397  0.6275
21691SOL     OW67965   7.490   3.165   1.671 -0.1483  0.0012  0.3318
21691SOL    HW167966   7.506   3.100   1.739  1.4897  0.6422  0.6061
21691SOL    HW267967   7.397   3.187   1.679 -0.6375 -1.9586  0.5073
21692SOL     OW67968   8.669   4.548   0.386 -0.3655  0.0742  0.5561
21692SOL    HW167969   8.760   4.523   0.399  0.8604  3.8807  0.5755
21692SOL    HW267970   8.661   4.564   0.292 -1.3532 -1.1631  0.3988
21693SOL     OW67971   1.615   3.967   8.566  0.0429  0.3473 -0.4557
21693SOL    HW167972   1.566   3.895   8.526 -1.4555  1.5343 -0.8421
21693SOL    HW267973   1.663   3.926   8.639  0.6059 -1.3346 -1.6976
21694SOL     OW67974   3.378   7.670   3.031  0.0176  0.0210 -0.3035
21694SOL    HW167975   3.412   7.618   2.958 -0.3793  1.8537 -1.8671
21694SOL    HW267976   3.442   7.740   3.043 -1.8277  2.0475 -1.6052
21695SOL     OW67977   4.239  10.763   1.483 -0.5579  0.4356  0.5351
21695SOL    HW167978   4.162  10.819   1.499  0.7864  1.9092  2.3247
21695SOL    HW267979   4.268  10.738   1.571  0.9557 -0.1620 -0.1070
21696SOL     OW67980   3.849   5.341   2.438 -0.1464 -0.6890  0.3521
21696SOL    HW167981   3.842   5.260   2.387  2.4246 -0.1929 -0.9624
21696SOL    HW267982   3.868   5.311   2.527  1.9481 -1.5973 -0.3417
21697SOL     OW67983   8.423   9.542   0.166  0.4112 -0.2652 -0.4735
21697SOL    HW167984   8.488   9.561   0.099 -1.1212 -0.1179 -1.9932
21697SOL    HW267985   8.362   9.482   0.124  0.2878 -1.4886  1.3530
21698SOL     OW67986   5.562   2.314   3.021 -0.3319 -0.2849 -0.1249
21698SOL    HW167987   5.496   2.254   3.055 -0.6062  1.1131  1.9949
21698SOL    HW267988   5.516   2.366   2.956 -0.7230 -0.7895 -0.2602
21699SOL     OW67989   8.693   2.048   4.186 -0.0777 -0.2402 -0.1731
21699SOL    HW167990   8.729   2.043   4.274 -1.8385 -0.3562  0.5692
21699SOL    HW267991   8.763   2.088   4.134  1.4246 -1.2271  0.9991
21700SOL     OW67992   4.570   2.763   5.840  0.1941  0.2316  0.3083
21700SOL    HW167993   4.599   2.844   5.800 -0.5694 -0.3099 -1.4388
21700SOL    HW267994   4.513   2.723   5.775 -1.0481 -0.7570  1.9261
21701SOL     OW67995   1.370   6.868   7.782  0.1197  0.5313 -0.1329
21701SOL    HW167996   1.439   6.916   7.827  1.6114  0.0540 -1.8231
21701SOL    HW267997   1.402   6.778   7.779 -0.2031  0.4423 -1.5967
21702SOL     OW67998   2.355   1.287   8.268  0.5502 -0.0534  0.0122
21702SOL    HW167999   2.265   1.286   8.301  1.2695  1.7384  2.1952
21702SOL    HW268000   2.362   1.205   8.218 -1.7524 -1.1113  1.2494
21703SOL     OW68001   8.208   8.524   9.457 -0.2373  0.1769  0.5084
21703SOL    HW168002   8.136   8.577   9.491  0.5255  1.8851 -0.3976
21703SOL    HW268003   8.215   8.451   9.518 -3.6864 -0.9361 -0.1646
21704SOL     OW68004   9.272   3.257   4.292  0.1239  0.0724  0.2056
21704SOL    HW168005   9.245   3.279   4.203  0.5605  0.3747  0.1417
21704SOL    HW268006   9.259   3.337   4.342 -0.7377 -0.2803  0.5714
21705SOL     OW68007   2.776   7.497   0.014 -0.8410 -0.6635  0.1352
21705SOL    HW168008   2.819   7.440  -0.050 -0.4757 -1.8425  1.3821
21705SOL    HW268009   2.801   7.586  -0.012  2.0457 -1.2684  0.5396
21706SOL     OW68010  10.091   0.766   9.370  0.1948  0.0995  0.0551
21706SOL    HW168011  10.080   0.682   9.415  0.3514  0.5180  0.9054
21706SOL    HW268012  10.183   0.766   9.342 -0.1815 -0.6230 -1.2585
21707SOL     OW68013   4.917   5.523   1.703 -0.0028  0.5585  0.0515
21707SOL    HW168014   4.918   5.594   1.767  0.3029  1.3549 -0.8258
21707SOL    HW268015   4.858   5.458   1.741 -1.1270  1.7342  0.3905
21708SOL     OW68016   9.454   6.156   6.215  0.5079  0.6834  0.3965
21708SOL    HW168017   9.510   6.163   6.292  2.7632  1.0616 -1.1659
21708SOL    HW268018   9.514   6.163   6.141 -1.8052  3.0443 -1.4682
21709SOL     OW68019   1.277   4.881   0.240  0.4085 -0.3292 -0.6668
21709SOL    HW168020   1.314   4.955   0.289 -0.3652 -0.5719  0.3105
21709SOL    HW268021   1.323   4.804   0.274  0.4014 -0.4213 -0.8621
21710SOL     OW68022   8.405   9.470   6.209  0.0971  0.0873 -0.2350
21710SOL    HW168023   8.404   9.458   6.113  3.3983 -1.6164 -0.2172
21710SOL    HW268024   8.386   9.562   6.222  1.6304  0.8664 -2.7461
21711SOL     OW68025   3.609   8.058   2.315 -0.3497  0.1607 -0.0765
21711SOL    HW168026   3.579   7.967   2.314  1.3038 -0.4475  1.2560
21711SOL    HW268027   3.553   8.101   2.379 -2.0137  0.4702 -1.6459
21712SOL     OW68028   8.822   3.697   3.288 -1.0197  0.4082 -0.1263
21712SOL    HW168029   8.888   3.760   3.319 -1.7058  0.5695  1.0538
21712SOL    HW268030   8.750   3.752   3.256 -1.2968  0.2235  0.1845
21713SOL     OW68031   8.676   7.976   3.276  0.1974 -0.6534 -0.3093
21713SOL    HW168032   8.764   8.011   3.291 -0.4129  0.6122  0.4806
21713SOL    HW268033   8.635   8.039   3.218  0.1715 -1.8468 -1.6344
21714SOL     OW68034   7.155   9.852  10.246 -0.2130  0.0408 -0.0481
21714SOL    HW168035   7.077   9.883  10.292 -0.1702  0.4659 -0.2602
21714SOL    HW268036   7.135   9.865  10.153  0.6882  1.5405 -0.0456
21715SOL     OW68037   1.725   4.563   6.531 -0.2580 -0.4525  0.1007
21715SOL    HW168038   1.663   4.636   6.519 -1.5685 -1.4111  0.8076
21715SOL    HW268039   1.685   4.509   6.598  0.9216 -1.6094 -0.0981
21716SOL     OW68040   3.400  10.724   3.302 -0.7950 -0.2158  0.2749
21716SOL    HW168041   3.312  10.695   3.322 -1.1684 -0.0987 -1.1271
21716SOL    HW268042   3.391  10.818   3.282 -0.6188 -0.5085 -1.3086
21717SOL     OW68043   0.473   5.724   6.242 -0.3753  0.3263  0.0701
21717SOL    HW168044   0.517   5.702   6.323 -0.8962  0.7633  0.4805
21717SOL    HW268045   0.529   5.791   6.202  0.5720 -0.8391 -0.5898
21718SOL     OW68046   9.652   1.789   7.243  0.3109  0.3212 -0.0023
21718SOL    HW168047   9.630   1.879   7.268 -2.2581 -0.1538 -0.1898
21718SOL    HW268048   9.702   1.797   7.163  0.1163  1.5978 -0.0160
21719SOL     OW68049   3.509  10.251   9.756 -0.2234 -0.4911 -0.2991
21719SOL    HW168050   3.545  10.249   9.667 -1.0871  0.1745 -0.6729
21719SOL    HW268051   3.465  10.336   9.762  0.2041 -0.3360  0.9209
21720SOL     OW68052   4.625   1.961   7.412 -0.0426  0.6443  0.2345
21720SOL    HW168053   4.581   2.017   7.348  0.4145 -1.5328 -2.1505
21720SOL    HW268054   4.718   1.970   7.393  0.1825  0.7033  1.2908
21721SOL     OW68055   7.472   7.442   6.253  0.1617 -0.3998 -0.1220
21721SOL    HW168056   7.460   7.487   6.337 -0.7667 -0.9997  0.0811
21721SOL    HW268057   7.485   7.350   6.276 -0.0681 -0.5646 -0.6274
21722SOL     OW68058   0.067   3.601   5.873 -0.7235 -0.1442  0.2297
21722SOL    HW168059   0.006   3.596   5.800 -0.4524  0.6475 -0.0541
21722SOL    HW268060   0.099   3.511   5.883 -0.3191 -0.1525 -1.0063
21723SOL     OW68061   4.380   0.372   7.841 -0.5360 -0.1686  0.5324
21723SOL    HW168062   4.471   0.393   7.860 -0.6289  0.3545  0.4017
21723SOL    HW268063   4.353   0.436   7.775 -0.6170 -1.1173 -0.4033
21724SOL     OW68064   1.297   8.732   2.062 -0.5627  0.6242  0.9451
21724SOL    HW168065   1.219   8.780   2.091  0.7558  1.8222  2.7005
21724SOL    HW268066   1.323   8.681   2.139 -0.6364 -1.2221 -0.1926
21725SOL     OW68067   3.366   7.059   8.440 -0.4021 -0.4392 -0.3424
21725SOL    HW168068   3.433   7.033   8.376  0.9859  1.2363  0.3451
21725SOL    HW268069   3.288   7.010   8.414  1.0040 -2.2907 -1.3332
21726SOL     OW68070   7.257   2.575   2.267 -0.0181 -0.0994  0.3473
21726SOL    HW168071   7.352   2.576   2.273  0.0280 -1.9673  0.8236
21726SOL    HW268072   7.227   2.625   2.343  0.6093 -0.6015  0.9407
21727SOL     OW68073   7.085   3.857   8.050  0.1152  0.6534 -0.0626
21727SOL    HW168074   7.097   3.912   8.128 -0.4812  0.7355 -0.0229
21727SOL    HW268075   7.005   3.809   8.068 -0.8844  1.7921 -1.2789
21728SOL     OW68076   2.104   1.199   4.911 -0.0840 -0.5716  0.2005
21728SOL    HW168077   2.149   1.200   4.827  0.3165 -2.5303  0.3437
21728SOL    HW268078   2.084   1.107   4.926 -0.5558 -0.2058  2.0440
21729SOL     OW68079   0.587   1.255   1.343 -0.2379  0.4611  0.4185
21729SOL    HW168080   0.621   1.227   1.428  2.0964  1.3163 -0.1626
21729SOL    HW268081   0.516   1.194   1.325  0.8700 -1.3633  1.8347
21730SOL     OW68082   5.069   7.840   1.462  0.2964 -0.3401  0.0049
21730SOL    HW168083   5.159   7.823   1.434  0.3742 -1.5779  0.9719
21730SOL    HW268084   5.063   7.803   1.550 -0.8169  0.8100  0.4456
21731SOL     OW68085   0.084   8.240   5.860 -0.1573  0.2144  0.7190
21731SOL    HW168086   0.102   8.184   5.784 -1.2448  1.2479 -0.3423
21731SOL    HW268087   0.144   8.208   5.927  0.3484 -1.1991 -0.3357
21732SOL     OW68088   2.225   8.146  10.675 -0.5429  0.9604  0.0335
21732SOL    HW168089   2.318   8.137  10.654 -0.3181  0.3248  1.2115
21732SOL    HW268090   2.187   8.190  10.599  0.5618  0.4680 -0.8256
21733SOL     OW68091   3.868   4.436   9.304  0.0217 -0.0005 -0.7433
21733SOL    HW168092   3.916   4.453   9.385 -0.9368 -0.2988 -0.1000
21733SOL    HW268093   3.905   4.498   9.241 -0.2262  1.2845  0.3211
21734SOL     OW68094   2.205   4.963   5.449 -0.4882 -0.4831 -0.8779
21734SOL    HW168095   2.229   4.897   5.384  2.4978  0.7264 -1.1581
21734SOL    HW268096   2.177   5.039   5.398 -2.4320 -0.9305 -0.5763
21735SOL     OW68097   8.428   0.074   0.706 -0.7574 -0.3615  0.4912
21735SOL    HW168098   8.522   0.058   0.712 -1.2182 -3.1947  1.8549
21735SOL    HW268099   8.388   0.003   0.758 -3.6645  0.4818 -0.4011
21736SOL     OW68100   2.768   9.783   1.428  0.0092 -0.4189 -0.2110
21736SOL    HW168101   2.680   9.767   1.463  0.1868  0.3610  0.6388
21736SOL    HW268102   2.783   9.876   1.443  0.6196 -0.3483 -1.2071
21737SOL     OW68103   6.916   9.873   1.703 -0.5566  0.5156  0.4946
21737SOL    HW168104   6.890   9.818   1.776 -1.2044  0.3682  0.1605
21737SOL    HW268105   6.841   9.872   1.644 -0.5114  1.6237  0.3971
21738SOL     OW68106   2.522  10.759  10.588 -0.5414  0.1996 -0.4493
21738SOL    HW168107   2.587  10.690  10.597  0.2763  0.7843 -1.6267
21738SOL    HW268108   2.447  10.728  10.638 -0.3177 -1.7060 -1.2102
21739SOL     OW68109   5.754   7.950   9.886  0.0673  0.3002  0.1490
21739SOL    HW168110   5.838   7.966   9.844 -0.5217 -0.6241 -1.4447
21739SOL    HW268111   5.774   7.893   9.960  0.6164 -1.6949 -1.4661
21740SOL     OW68112  10.025   4.718   5.841  0.1294  0.4802 -0.1035
21740SOL    HW168113  10.084   4.651   5.874  0.0118 -0.6126 -1.9659
21740SOL    HW268114  10.081   4.794   5.825  1.1175 -0.5437 -1.8710
21741SOL     OW68115  10.259   2.795   2.805 -0.0068  0.0708 -0.2204
21741SOL    HW168116  10.167   2.768   2.802  0.3407 -1.2473  0.2794
21741SOL    HW268117  10.271   2.828   2.895  0.4934 -1.7065  0.4073
21742SOL     OW68118   4.003   4.379   5.531  0.0689  0.3628  0.0362
21742SOL    HW168119   4.055   4.449   5.571  2.1773 -1.3640  0.4903
21742SOL    HW268120   4.046   4.361   5.448  0.5658 -1.4455  0.6380
21743SOL     OW68121   4.451   6.725   4.826 -0.1966  0.3827 -0.2846
21743SOL    HW168122   4.417   6.795   4.881 -1.3045  0.4076 -0.9546
21743SOL    HW268123   4.389   6.720   4.753 -0.3285 -1.4606 -0.1145
21744SOL     OW68124   5.934   1.814   1.336 -0.0499  0.1563 -0.1375
21744SOL    HW168125   5.948   1.831   1.429 -2.9747  0.9387  0.2684
21744SOL    HW268126   5.906   1.898   1.300 -0.8866 -0.5802 -1.2890
21745SOL     OW68127   8.106   4.743   4.297 -0.2731 -0.1424 -0.1442
21745SOL    HW168128   8.089   4.837   4.297 -1.0329 -0.2625 -0.8650
21745SOL    HW268129   8.076   4.714   4.383 -0.9950  0.1225 -0.2972
21746SOL     OW68130   9.202   0.211   4.455  0.5928  0.0514  0.0359
21746SOL    HW168131   9.109   0.194   4.444  0.2937  1.9292 -0.6534
21746SOL    HW268132   9.218   0.293   4.409  2.6270 -0.2781  0.0206
21747SOL     OW68133   1.590   2.585   3.034 -0.2534  0.2327  0.1963
21747SOL    HW168134   1.501   2.618   3.025 -0.8044 -1.3252 -0.3853
21747SOL    HW268135   1.625   2.583   2.945 -0.7588 -2.0403 -0.0078
21748SOL     OW68136   0.501   2.619   8.095 -0.8240 -0.2421  0.2144
21748SOL    HW168137   0.556   2.683   8.141 -1.3238 -0.8633  1.7646
21748SOL    HW268138   0.526   2.535   8.132 -0.6284 -0.8994 -1.3341
21749SOL     OW68139   1.975   2.886   6.168  0.3774 -0.0314  0.6128
21749SOL    HW168140   2.029   2.955   6.130  0.3099  0.0118  0.5936
21749SOL    HW268141   1.958   2.826   6.095  0.0855  0.1534  0.5232
21750SOL     OW68142   0.077   2.787   5.158  0.2936  0.2624 -0.0280
21750SOL    HW168143   0.096   2.698   5.129  2.2829  0.1527  1.3753
21750SOL    HW268144   0.116   2.843   5.091 -0.6412  0.0979 -0.7250
21751SOL     OW68145   4.648   2.549   4.413  0.4787  0.3524 -0.9132
21751SOL    HW168146   4.594   2.513   4.484 -0.4506  1.4873 -1.0171
21751SOL    HW268147   4.625   2.496   4.337  3.1866 -2.4422  0.0155
21752SOL     OW68148   2.665   4.917   1.619  0.1816  0.4296  0.1053
21752SOL    HW168149   2.713   4.871   1.550 -1.3800  0.1323 -0.8209
21752SOL    HW268150   2.573   4.900   1.600 -0.3666  2.1429  1.0186
21753SOL     OW68151   4.389   9.520   9.750  0.1352 -0.2712 -0.2242
21753SOL    HW168152   4.297   9.541   9.762 -0.5778 -1.0650 -3.4403
21753SOL    HW268153   4.398   9.431   9.784 -0.1745 -0.0451  0.4645
21754SOL     OW68154   9.571   6.231   5.214  0.3204  0.0513  0.1169
21754SOL    HW168155   9.485   6.262   5.187 -0.3030 -1.8018 -0.1523
21754SOL    HW268156   9.565   6.135   5.210  1.1877 -0.2934  3.8010
21755SOL     OW68157   0.902   2.045   0.141 -0.1379  0.7111 -0.3122
21755SOL    HW168158   0.834   1.992   0.182  0.2363 -0.2372 -0.8772
21755SOL    HW268159   0.855   2.102   0.079 -0.4294  0.1301 -0.6287
21756SOL     OW68160   6.252   2.534   8.816  0.7332  0.9353 -0.6460
21756SOL    HW168161   6.228   2.498   8.730  0.5319  0.6959 -0.4905
21756SOL    HW268162   6.320   2.599   8.796 -0.3589  1.9613 -1.1466
21757SOL     OW68163   7.364   6.062   8.933  0.0242 -0.1638  0.0742
21757SOL    HW168164   7.441   6.114   8.957  0.5808 -1.4441  1.2546
21757SOL    HW268165   7.355   6.073   8.839  0.8906  1.0111  0.1085
21758SOL     OW68166   4.755   1.590   3.658  0.3664 -0.3854 -0.1913
21758SOL    HW168167   4.755   1.669   3.713 -2.0512  1.0031 -1.9457
21758SOL    HW268168   4.818   1.609   3.589 -0.1446  0.0208 -0.5594
21759SOL     OW68169   2.347   4.964  10.374 -0.0802  0.2319  0.1640
21759SOL    HW168170   2.432   4.921  10.362  0.5543  1.7546 -1.1900
21759SOL    HW268171   2.360   5.021  10.450 -0.2092 -0.2578  0.5587
21760SOL     OW68172   1.149   6.879   8.148 -0.0119  0.9179  0.0285
21760SOL    HW168173   1.102   6.932   8.212  0.0883 -0.1499  1.0406
21760SOL    HW268174   1.232   6.859   8.191  0.2114  0.5079 -0.5907
21761SOL     OW68175   1.706   5.952   5.685  0.0420 -0.0329  0.2241
21761SOL    HW168176   1.690   5.914   5.772 -0.1929 -0.6207 -0.0706
21761SOL    HW268177   1.643   6.023   5.679 -1.5578 -1.4216 -0.3509
21762SOL     OW68178   7.633   1.093   5.391  0.2166 -0.0453  0.8265
21762SOL    HW168179   7.593   1.164   5.340  0.9533 -0.3367 -0.1857
21762SOL    HW268180   7.582   1.089   5.472 -0.1275  1.3301  0.6930
21763SOL     OW68181   6.907   8.963   1.203  0.2250 -0.2736  0.0542
21763SOL    HW168182   6.843   8.964   1.132 -0.4584  0.5973  0.6606
21763SOL    HW268183   6.855   8.956   1.283  1.0117 -1.8470  0.4632
21764SOL     OW68184   5.374   6.424  10.713 -0.5078  0.5781  0.1225
21764SOL    HW168185   5.437   6.364  10.674 -0.8069 -0.3946  1.1014
21764SOL    HW268186   5.403   6.511  10.683 -0.9085 -0.1097 -2.4880
21765SOL     OW68187  10.521   1.076  10.421  0.7950  0.0745 -0.1566
21765SOL    HW168188  10.601   1.089  10.370  0.4312  2.3636 -0.2415
21765SOL    HW268189  10.452   1.067  10.356  0.7681 -0.3140 -0.0748
21766SOL     OW68190   9.634   0.253   1.700 -0.0103 -0.5330 -0.3159
21766SOL    HW168191   9.707   0.197   1.728  0.5760  0.3171 -0.1157
21766SOL    HW268192   9.598   0.209   1.624 -0.5570 -2.0165  0.7475
21767SOL     OW68193   0.426   4.542   7.559  0.0909  0.1973 -0.4602
21767SOL    HW168194   0.373   4.462   7.555 -0.8209  0.6501  1.2068
21767SOL    HW268195   0.379   4.604   7.503  0.7813 -0.3984 -1.7305
21768SOL     OW68196   8.106  10.055   9.929  0.0309  0.5391 -0.1008
21768SOL    HW168197   8.061  10.120   9.876 -0.7606  0.5081  0.5155
21768SOL    HW268198   8.199  10.065   9.907 -0.1486  1.4719 -0.4429
21769SOL     OW68199   5.219   8.639   4.014 -0.4088  0.3822  0.4402
21769SOL    HW168200   5.219   8.557   3.963 -0.7842  0.2975  0.5729
21769SOL    HW268201   5.308   8.672   4.005  0.3652 -1.1079  2.0853
21770SOL     OW68202   4.509   6.912   1.787  0.1233 -0.0773 -0.0275
21770SOL    HW168203   4.492   6.934   1.878 -1.0915  0.5059 -0.3795
21770SOL    HW268204   4.583   6.968   1.762  0.4485 -0.2245  0.5801
21771SOL     OW68205  10.083   4.668   2.698 -0.3013 -0.0040 -0.3148
21771SOL    HW168206  10.101   4.723   2.621  2.0062 -1.2486 -0.7634
21771SOL    HW268207  10.019   4.604   2.667 -0.8650  0.7121 -0.6281
21772SOL     OW68208   2.975   4.672   4.309 -0.0249 -0.1360  0.0359
21772SOL    HW168209   2.890   4.651   4.272  0.2203 -2.6095  0.6804
21772SOL    HW268210   2.976   4.768   4.317 -2.1257  0.0492 -1.3445
21773SOL     OW68211   3.168   7.859   5.041 -0.2791 -0.4959  0.4206
21773SOL    HW168212   3.086   7.863   5.089 -0.4043 -0.9282  0.2539
21773SOL    HW268213   3.144   7.878   4.950  0.0199  0.7387  0.5803
21774SOL     OW68214   1.520   5.255   7.700 -0.9353 -0.3633  0.3876
21774SOL    HW168215   1.479   5.305   7.771  0.0427  0.2586  0.5269
21774SOL    HW268216   1.522   5.165   7.734  0.9445  0.1629  1.8600
21775SOL     OW68217   2.814   5.437   7.422  0.0745 -0.1363  0.4943
21775SOL    HW168218   2.721   5.458   7.418  0.3410  1.1637  0.5479
21775SOL    HW268219   2.833   5.427   7.515  0.1409  0.4129  0.5451
21776SOL     OW68220   7.153   4.834   7.562 -0.8344  0.3646  0.2013
21776SOL    HW168221   7.167   4.742   7.585 -0.0511 -0.1146 -1.9403
21776SOL    HW268222   7.059   4.847   7.573 -1.4136 -1.4678 -1.8093
21777SOL     OW68223   1.070   1.918   4.944 -0.0636 -0.7292  0.4508
21777SOL    HW168224   1.047   1.862   5.018 -0.8367 -1.4060 -0.2775
21777SOL    HW268225   1.155   1.955   4.967 -0.1492 -1.1821  1.5274
21778SOL     OW68226   5.042   9.231   8.114  0.0559 -0.2467 -0.1969
21778SOL    HW168227   4.959   9.207   8.154  0.1669 -0.1914  0.0718
21778SOL    HW268228   5.020   9.255   8.024 -0.3273  0.4896  0.0830
21779SOL     OW68229   7.185   5.023   4.985 -0.2434  0.0536  0.0176
21779SOL    HW168230   7.163   4.931   4.972 -0.7659  0.0481  0.8859
21779SOL    HW268231   7.280   5.026   4.974 -0.1205 -0.7291  0.7369
21780SOL     OW68232   6.390   5.822   1.210  0.0689 -0.2774 -0.1677
21780SOL    HW168233   6.419   5.855   1.125 -1.1562 -0.9261 -0.8645
21780SOL    HW268234   6.471   5.797   1.256  0.7196 -0.2315 -1.2633
21781SOL     OW68235   4.599   0.114  10.100 -0.2423  0.5710  0.0005
21781SOL    HW168236   4.603   0.038  10.159 -0.3288  0.4140 -0.1974
21781SOL    HW268237   4.599   0.189  10.159 -2.6802  0.3940  0.3299
21782SOL     OW68238   3.926  10.294   3.494  0.6751 -0.1385 -0.3150
21782SOL    HW168239   3.994  10.344   3.539 -0.3025 -0.8251  2.0412
21782SOL    HW268240   3.970  10.214   3.465  0.9785 -0.4454  0.9317
21783SOL     OW68241  10.038   7.033   1.409  0.3065  0.4169 -0.0851
21783SOL    HW168242   9.953   7.077   1.411 -1.5577 -2.8746  0.0231
21783SOL    HW268243  10.070   7.049   1.320 -0.9891  0.7943 -0.5167
21784SOL     OW68244   6.235   4.083   1.422  0.2708  0.3239  1.0474
21784SOL    HW168245   6.286   4.066   1.344 -0.1190  1.0737  0.6170
21784SOL    HW268246   6.290   4.142   1.474 -0.7714  2.4750 -0.1621
21785SOL     OW68247   3.815   5.524   4.105 -0.5671  0.1547  0.0109
21785SOL    HW168248   3.864   5.448   4.136  2.3092  0.9749 -2.0989
21785SOL    HW268249   3.761   5.491   4.034 -0.8508 -0.2572  0.4165
21786SOL     OW68250   7.355   9.688   2.651 -0.1281  0.0073  0.3702
21786SOL    HW168251   7.335   9.704   2.743  2.3267 -0.1659  0.9952
21786SOL    HW268252   7.400   9.604   2.650 -1.1514 -0.5684 -1.1729
21787SOL     OW68253   6.201  10.001   8.070 -0.3022 -0.1324  0.2873
21787SOL    HW168254   6.158  10.087   8.071 -3.5673 -1.5113  3.6224
21787SOL    HW268255   6.138   9.943   8.029  0.9343 -1.3349  0.0046
21788SOL     OW68256   3.961  10.337   2.003 -0.0927 -0.4872 -0.4878
21788SOL    HW168257   4.005  10.327   2.087  0.1782  0.5793 -0.4990
21788SOL    HW268258   4.013  10.400   1.955 -0.5605 -0.6647 -1.2488
21789SOL     OW68259   4.303   4.036   1.873  0.5405 -0.6443 -0.1604
21789SOL    HW168260   4.364   3.983   1.821  1.7687  0.1857  0.3743
21789SOL    HW268261   4.275   3.977   1.943  1.8215 -0.6629  0.3714
21790SOL     OW68262   9.604   8.166   4.663  0.0251  0.2340 -0.4259
21790SOL    HW168263   9.583   8.224   4.590 -1.6912  0.6210  0.3272
21790SOL    HW268264   9.522   8.120   4.682  0.4495  0.0500  1.1635
21791SOL     OW68265   5.575   2.962  10.071 -0.2286  0.2131  0.1445
21791SOL    HW168266   5.497   2.913  10.047 -0.0126  0.6024 -1.4465
21791SOL    HW268267   5.637   2.945  10.000  0.6649  0.9605  0.7189
21792SOL     OW68268   2.793  10.524   3.999 -0.3860 -0.0194  0.3862
21792SOL    HW168269   2.850  10.591   4.037 -0.7021  0.3034  0.2940
21792SOL    HW268270   2.763  10.472   4.074  0.1787 -0.3111  0.4166
21793SOL     OW68271   5.062   4.935   4.998 -0.5086  0.8633 -0.3423
21793SOL    HW168272   4.980   4.925   5.046 -0.1478  3.2130  0.8908
21793SOL    HW268273   5.048   5.010   4.941  0.3451  0.4598 -1.1045
21794SOL     OW68274   8.902   1.071  10.094 -0.3770 -0.2940  0.1388
21794SOL    HW168275   8.910   1.065  10.189 -1.1971 -1.3416  0.1575
21794SOL    HW268276   8.973   1.018  10.059 -0.0290  0.1537  0.1590
21795SOL     OW68277   1.319   0.541   0.059 -0.0218 -0.3246  0.3374
21795SOL    HW168278   1.411   0.536   0.085 -0.3410 -2.3777  1.2740
21795SOL    HW268279   1.320   0.592  -0.022  1.6758  1.4009  1.3773
21796SOL     OW68280   9.798   3.511   3.126 -0.0747 -0.8248  0.2667
21796SOL    HW168281   9.768   3.443   3.066 -1.5993  0.2443 -0.2519
21796SOL    HW268282   9.719   3.540   3.172  0.7175 -0.1582  1.2717
21797SOL     OW68283   6.970   7.108   8.473  0.7053 -0.8101 -0.1792
21797SOL    HW168284   7.009   7.170   8.413  0.4980  0.0115  0.5134
21797SOL    HW268285   7.016   7.026   8.456  2.6547  0.0732  0.5237
21798SOL     OW68286   5.606   2.653   4.641 -0.3116 -0.4269  0.3875
21798SOL    HW168287   5.631   2.704   4.718  1.8356 -0.2615 -0.3736
21798SOL    HW268288   5.664   2.577   4.642 -0.6596 -0.7302 -0.7542
21799SOL     OW68289   6.517   5.744   8.533 -0.1286 -0.2554 -0.1255
21799SOL    HW168290   6.607   5.764   8.558 -0.3773  0.3225  0.3385
21799SOL    HW268291   6.525   5.690   8.454  0.6099  0.2334 -0.3971
21800SOL     OW68292   5.843   1.887   4.253  0.1665  0.7101 -0.2437
21800SOL    HW168293   5.858   1.911   4.162 -1.7537 -0.3992 -0.9357
21800SOL    HW268294   5.767   1.828   4.249  0.5575 -0.0245  1.9920
21801SOL     OW68295   0.959  10.410   5.059  0.5730  0.3323 -0.3635
21801SOL    HW168296   0.942  10.349   4.987 -0.1136  1.3482 -1.0898
21801SOL    HW268297   0.882  10.466   5.061  0.4802  0.1782  1.3371
21802SOL     OW68298   5.177   2.949   1.731 -0.5190 -0.4585 -0.5809
21802SOL    HW168299   5.108   2.902   1.686 -3.0428  0.3314  2.1193
21802SOL    HW268300   5.243   2.882   1.750 -1.3325 -1.6387 -1.7456
21803SOL     OW68301   9.633   8.858   8.316 -0.3786 -0.3015  0.0988
21803SOL    HW168302   9.651   8.952   8.305  2.5066 -0.8458 -0.6457
21803SOL    HW268303   9.587   8.833   8.235  1.1488  0.0268 -0.9215
21804SOL     OW68304   6.699   2.772   1.508  0.4111  0.4354 -0.5167
21804SOL    HW168305   6.702   2.805   1.598 -0.1266 -0.6313 -0.0880
21804SOL    HW268306   6.790   2.770   1.480  0.4896  2.0205 -0.4826
21805SOL     OW68307   4.532   9.999   5.539 -0.5729  0.0717  0.0471
21805SOL    HW168308   4.568  10.068   5.595 -0.4563  0.1096 -0.0754
21805SOL    HW268309   4.602   9.935   5.531 -0.6631 -0.0376  0.1189
21806SOL     OW68310   4.837   0.156   9.374 -0.7191 -0.2648  0.4069
21806SOL    HW168311   4.819   0.152   9.280  2.3718  0.2109 -0.3110
21806SOL    HW268312   4.859   0.067   9.398 -0.2257 -0.1521  0.3765
21807SOL     OW68313  10.118   8.804   2.298  0.1442 -0.5857 -0.7870
21807SOL    HW168314  10.132   8.727   2.353 -0.0761  0.1567  0.3456
21807SOL    HW268315  10.088   8.769   2.214  0.4938 -1.7490 -0.4397
21808SOL     OW68316   8.714   1.024   0.899  0.5835 -0.0303 -0.1878
21808SOL    HW168317   8.766   1.031   0.979  1.7865 -1.5477 -0.7928
21808SOL    HW268318   8.687   0.932   0.896 -1.3308  0.4761 -0.4259
21809SOL     OW68319   1.172   2.319   0.852  0.1105  0.2630  0.1192
21809SOL    HW168320   1.203   2.245   0.905 -0.8498 -1.2541 -1.3134
21809SOL    HW268321   1.244   2.336   0.791 -0.5652 -1.1547 -1.1344
21810SOL     OW68322   5.587   2.783   5.751 -0.6349 -0.0310  0.0406
21810SOL    HW168323   5.566   2.858   5.695 -0.4191  1.2054  1.5560
21810SOL    HW268324   5.677   2.799   5.780  0.0149 -1.7271 -0.8821
21811SOL     OW68325   4.672   1.936   4.973  0.2376 -0.0183 -0.1083
21811SOL    HW168326   4.746   1.933   4.912 -1.3638  0.6276 -2.1933
21811SOL    HW268327   4.635   1.847   4.970 -0.8037  0.4200 -1.4212
21812SOL     OW68328   4.603   4.687   6.327 -0.2208  0.0989  0.0603
21812SOL    HW168329   4.695   4.713   6.341 -0.2127  0.3150 -0.3766
21812SOL    HW268330   4.587   4.706   6.235 -1.2682  1.8292  0.5454
21813SOL     OW68331   2.174   3.190   9.312  0.3422  0.1738  0.2022
21813SOL    HW168332   2.203   3.183   9.403  1.1826  0.4184 -0.0334
21813SOL    HW268333   2.198   3.279   9.285  0.6973 -0.1088 -0.4511
21814SOL     OW68334   2.123   8.371   6.539  0.9414 -0.2115  0.2481
21814SOL    HW168335   2.152   8.431   6.608  0.7331 -0.0045  0.1565
21814SOL    HW268336   2.049   8.323   6.578  0.4984  0.2634 -0.0049
21815SOL     OW68337   6.967   4.420   4.479  0.0465 -0.6465 -0.6147
21815SOL    HW168338   6.875   4.403   4.464 -0.1208 -0.4424  0.1104
21815SOL    HW268339   7.013   4.360   4.421 -0.5411 -0.6321 -1.1028
21816SOL     OW68340  10.591   1.370   2.900  0.5724  0.4045 -0.3757
21816SOL    HW168341  10.553   1.283   2.888  0.1431  0.5034  0.2239
21816SOL    HW268342  10.650   1.381   2.825  0.4837 -0.3214 -0.5588
21817SOL     OW68343   2.435   0.083   2.342 -0.0740 -0.3401 -0.1413
21817SOL    HW168344   2.461   0.006   2.291 -2.8299 -0.8560 -0.8943
21817SOL    HW268345   2.424   0.050   2.431  0.8520 -0.2990  0.0049
21818SOL     OW68346   8.875   3.147   4.125 -0.0961  0.1556  0.4007
21818SOL    HW168347   8.812   3.192   4.181  1.4133  1.8630  0.8447
21818SOL    HW268348   8.939   3.215   4.103  0.5209 -1.0160 -1.6407
21819SOL     OW68349   1.273   3.271   9.327  0.3309  0.1082  0.0850
21819SOL    HW168350   1.340   3.243   9.390 -0.8070  0.3295  1.4487
21819SOL    HW268351   1.323   3.311   9.255  1.7579 -1.7431 -0.0133
21820SOL     OW68352   4.259   6.778   9.037 -0.3187 -0.2133  0.4260
21820SOL    HW168353   4.257   6.734   9.122 -1.6815  0.3876  0.7205
21820SOL    HW268354   4.169   6.773   9.005 -0.0212  0.4187 -0.5472
21821SOL     OW68355   6.466   3.682   8.178  0.3878  0.1984 -0.3777
21821SOL    HW168356   6.515   3.671   8.259 -2.1334 -0.9670  1.0935
21821SOL    HW268357   6.391   3.736   8.202 -0.5889 -0.4276 -1.8735
21822SOL     OW68358   3.856   5.210   1.952 -0.1639  0.2894 -0.4179
21822SOL    HW168359   3.903   5.187   1.872 -0.1567  0.3175 -0.4216
21822SOL    HW268360   3.925   5.224   2.017  0.1888  4.6364 -1.4166
21823SOL     OW68361   0.619   0.877   2.881  0.0576  0.4765  0.0142
21823SOL    HW168362   0.703   0.900   2.921 -0.1539  0.2703  0.5753
21823SOL    HW268363   0.593   0.956   2.833  0.6485  0.4874 -0.3040
21824SOL     OW68364   8.134   0.223   2.145  0.1787 -0.1776  0.0050
21824SOL    HW168365   8.117   0.175   2.226  0.1329  0.9844  0.7035
21824SOL    HW268366   8.047   0.244   2.110  0.1986 -0.2192 -0.0685
21825SOL     OW68367   1.866   2.107   5.319  0.7678  0.0924  0.1155
21825SOL    HW168368   1.950   2.071   5.290  0.4255 -1.5961  1.0818
21825SOL    HW268369   1.888   2.159   5.397  1.1187  1.0740 -0.6221
21826SOL     OW68370   3.702   5.764   0.885 -0.2894 -0.8664  0.2721
21826SOL    HW168371   3.641   5.835   0.906 -0.8777 -1.4423  0.5505
21826SOL    HW268372   3.745   5.744   0.968  2.0313  1.0890 -0.3282
21827SOL     OW68373   4.893   4.585   0.224  0.1931 -0.2343  0.3889
21827SOL    HW168374   4.842   4.504   0.228  0.6021 -0.4971  0.2739
21827SOL    HW268375   4.957   4.570   0.155  1.1003 -0.2976  1.2226
21828SOL     OW68376   6.291   5.018   2.838  0.0627 -0.2253  0.3972
21828SOL    HW168377   6.266   5.089   2.896 -1.3003 -0.3785  0.0498
21828SOL    HW268378   6.233   5.027   2.762  1.6769 -0.1244 -0.8866
21829SOL     OW68379   3.337   3.706   1.086 -0.3203  0.1207 -0.1322
21829SOL    HW168380   3.413   3.736   1.038 -1.2268  1.4245 -0.7960
21829SOL    HW268381   3.373   3.662   1.163  1.1058  1.7840  0.2119
21830SOL     OW68382   5.779   6.391   9.844  0.1101 -0.1407  0.0694
21830SOL    HW168383   5.688   6.419   9.831  0.0813  0.7422  1.9085
21830SOL    HW268384   5.772   6.305   9.885  0.1653 -1.0841 -1.8038
21831SOL     OW68385   5.625   3.232   4.071 -0.5394 -0.4774  0.6701
21831SOL    HW168386   5.562   3.289   4.116 -0.1336  0.0879  0.5289
21831SOL    HW268387   5.619   3.258   3.979  0.1511 -0.1778  0.7055
21832SOL     OW68388   0.384   6.741   5.331  0.0131 -0.2478 -0.5212
21832SOL    HW168389   0.371   6.695   5.249 -1.2603  0.7970 -0.9439
21832SOL    HW268390   0.402   6.832   5.306 -0.7762  0.1662  0.3446
21833SOL     OW68391   5.278   9.921  10.079  0.1307  0.1651  0.1974
21833SOL    HW168392   5.253   9.849  10.021 -0.4751  0.3229  0.2473
21833SOL    HW268393   5.270   9.999  10.024 -1.3614  0.4191  0.7193
21834SOL     OW68394  10.164   5.380   5.349 -0.5761 -0.7063 -0.1924
21834SOL    HW168395  10.224   5.451   5.371  0.8776 -1.3238 -1.8273
21834SOL    HW268396  10.122   5.356   5.432  1.4538 -0.2202  1.0474
21835SOL     OW68397   3.265   2.053  10.601 -0.0163 -0.0437  0.0078
21835SOL    HW168398   3.359   2.047  10.588  0.2024 -0.9674  1.6601
21835SOL    HW268399   3.244   1.978  10.657 -2.0264 -0.8754 -1.7000
21836SOL     OW68400   4.205   0.897   9.293 -0.4352  0.3377  0.0147
21836SOL    HW168401   4.165   0.984   9.299 -2.7533 -0.6711  0.2552
21836SOL    HW268402   4.155   0.844   9.356  1.5186 -0.9735  0.5416
21837SOL     OW68403   8.547   6.122   7.255 -0.3449 -0.0684 -0.6607
21837SOL    HW168404   8.505   6.135   7.170 -1.7701  1.9882  0.2734
21837SOL    HW268405   8.520   6.198   7.307  0.5197 -1.2349  1.6298
21838SOL     OW68406   2.516   3.770   2.607 -0.3997 -0.3253  0.0475
21838SOL    HW168407   2.545   3.719   2.683 -0.6636  0.1032  0.4431
21838SOL    HW268408   2.514   3.708   2.535  0.8822 -0.5140  0.1524
21839SOL     OW68409   1.803   7.680   2.561 -0.0514 -0.3371 -0.3289
21839SOL    HW168410   1.856   7.759   2.568 -1.5179  0.6960 -0.2955
21839SOL    HW268411   1.799   7.645   2.650 -0.3733  0.2394 -0.1139
21840SOL     OW68412   0.702   8.289   6.369 -0.6306 -0.2894  0.4878
21840SOL    HW168413   0.737   8.200   6.365 -0.5361 -0.2126 -1.2373
21840SOL    HW268414   0.750   8.330   6.441  1.5135 -0.7791 -0.5556
21841SOL     OW68415   3.835   1.207   5.197  0.1263 -0.5457  0.5580
21841SOL    HW168416   3.837   1.130   5.253  0.5830 -0.0304  1.2771
21841SOL    HW268417   3.903   1.264   5.232 -1.4160  0.9877  1.2564
21842SOL     OW68418   0.887   4.216   9.625  0.4761  0.8585 -0.3728
21842SOL    HW168419   0.921   4.239   9.539 -0.8688  2.0016 -0.6411
21842SOL    HW268420   0.926   4.280   9.684  3.9070 -1.7606  0.5400
21843SOL     OW68421   1.291   9.497   3.491  0.2364 -0.0824 -0.1783
21843SOL    HW168422   1.267   9.570   3.547 -1.7940  0.3533 -1.5323
21843SOL    HW268423   1.349   9.443   3.546 -2.3751 -0.2114  2.7412
21844SOL     OW68424   9.424  10.204   9.138  0.5301  0.2380 -0.1323
21844SOL    HW168425   9.411  10.296   9.114  0.5111  0.1289 -0.5387
21844SOL    HW268426   9.468  10.165   9.063  0.2992 -0.1492 -0.0694
21845SOL     OW68427   3.095   3.992   5.392  0.1084 -0.0007  0.3557
21845SOL    HW168428   3.030   4.061   5.376 -1.8909 -1.5541  1.3901
21845SOL    HW268429   3.088   3.935   5.316  0.7611  0.1817  0.1560
21846SOL     OW68430   8.778   2.344   4.020  0.2297 -0.0269  0.2112
21846SOL    HW168431   8.714   2.338   4.092  0.0651 -1.0248 -0.0083
21846SOL    HW268432   8.854   2.388   4.060  1.2475 -2.9951  1.8306
21847SOL     OW68433   2.872   9.414   9.927 -0.7748  0.6106  0.2279
21847SOL    HW168434   2.916   9.342   9.972 -1.2032  1.4872  2.1391
21847SOL    HW268435   2.869   9.386   9.835  1.2764 -0.6785  0.4860
21848SOL     OW68436   1.487   4.847   2.746  0.5622 -0.4128  0.1476
21848SOL    HW168437   1.509   4.772   2.692  0.6992  0.6159 -1.2901
21848SOL    HW268438   1.433   4.812   2.817  1.8423 -2.0619  0.3474
21849SOL     OW68439  10.327   9.870   7.560  0.0365  0.5338  0.3759
21849SOL    HW168440  10.244   9.887   7.514 -0.4099  2.2862  1.7186
21849SOL    HW268441  10.310   9.793   7.614 -1.4850  2.0837  2.2549
21850SOL     OW68442   6.476   0.975   3.726 -0.3210 -0.5234  0.0825
21850SOL    HW168443   6.438   0.936   3.805  0.7624  1.0617  1.4691
21850SOL    HW268444   6.458   0.912   3.656 -0.1168 -2.6660  1.8619
21851SOL     OW68445  10.165   8.220   6.790 -0.4293  0.5140 -0.3914
21851SOL    HW168446  10.234   8.205   6.726 -0.7364 -0.8844 -0.4283
21851SOL    HW268447  10.209   8.218   6.875 -0.2105  1.1229 -0.4862
21852SOL     OW68448  10.300   1.223   7.020  0.5849  0.0700 -0.0494
21852SOL    HW168449  10.308   1.146   7.076  0.6368  0.8323  1.0297
21852SOL    HW268450  10.302   1.189   6.931 -0.4548 -1.2651  0.4205
21853SOL     OW68451   5.008   4.163  10.552 -0.3026  0.7827  0.2685
21853SOL    HW168452   4.975   4.099  10.489  0.0549 -0.3949  1.2284
21853SOL    HW268453   5.097   4.182  10.523 -0.5542  1.1816 -0.2593
21854SOL     OW68454   8.235   3.500   1.429  0.1250  0.0334  0.1387
21854SOL    HW168455   8.307   3.509   1.492  0.4551 -1.1764 -0.0373
21854SOL    HW268456   8.156   3.509   1.482  0.3825  1.4410  0.3284
21855SOL     OW68457   4.347   5.853   4.766 -0.5891 -0.2192 -0.0859
21855SOL    HW168458   4.357   5.758   4.760 -1.2879 -0.4236  1.5764
21855SOL    HW268459   4.437   5.886   4.763 -0.3680 -0.8531 -1.3486
21856SOL     OW68460   0.419   7.746   1.610  0.2000 -0.2706 -0.0114
21856SOL    HW168461   0.454   7.753   1.522 -0.9070 -0.8418 -0.5178
21856SOL    HW268462   0.495   7.757   1.667  0.9750 -0.1761 -1.0386
21857SOL     OW68463   7.313   3.917   4.183  0.0392 -0.4634  0.9703
21857SOL    HW168464   7.364   3.998   4.171  0.1797  0.0512  4.2118
21857SOL    HW268465   7.222   3.944   4.172  0.1688 -0.3094  0.1744
21858SOL     OW68466   3.059   8.459   0.829  0.5184  0.0069 -0.3762
21858SOL    HW168467   3.026   8.425   0.746  1.3679  1.7736 -1.4924
21858SOL    HW268468   3.141   8.412   0.843  0.6773  0.1364 -0.8502
21859SOL     OW68469   3.162   3.641   8.333  0.0028  0.5750 -0.4590
21859SOL    HW168470   3.113   3.565   8.303  0.3342 -0.0245  0.4700
21859SOL    HW268471   3.123   3.715   8.287 -1.6092  0.0940  0.0775
21860SOL     OW68472   8.919   4.382   6.305 -0.0359 -0.3422 -0.0260
21860SOL    HW168473   8.920   4.382   6.209 -2.4335  1.2211 -0.1257
21860SOL    HW268474   8.963   4.463   6.330  1.5572 -1.2628  0.2876
21861SOL     OW68475   6.879   8.941   7.723 -0.5433  0.1165 -0.5703
21861SOL    HW168476   6.903   8.858   7.683  0.2460 -1.0277  2.0817
21861SOL    HW268477   6.954   8.999   7.704  1.8177 -1.6294  2.4629
21862SOL     OW68478   2.822   7.737   9.112  0.2725 -0.1559  0.0604
21862SOL    HW168479   2.808   7.686   9.192  0.0578 -1.3699 -0.7261
21862SOL    HW268480   2.781   7.822   9.131  1.0779 -0.0722  1.5811
21863SOL     OW68481   9.349   5.030   5.818 -0.2601 -0.5284  0.1929
21863SOL    HW168482   9.254   5.023   5.815 -0.2890 -0.0534 -0.1578
21863SOL    HW268483   9.380   4.939   5.810 -0.6973 -0.8696  2.0580
21864SOL     OW68484   7.037   0.450   8.304  0.1977  0.0726  0.4341
21864SOL    HW168485   7.006   0.401   8.380  1.1364 -0.5361  0.4315
21864SOL    HW268486   7.107   0.506   8.338  0.4871 -0.0564  0.0572
21865SOL     OW68487  10.030   1.017   8.556  0.1568 -0.1757 -0.4405
21865SOL    HW168488   9.954   1.075   8.553 -0.2439 -0.6342  0.4872
21865SOL    HW268489  10.097   1.063   8.505 -0.3221  0.8476 -0.1684
21866SOL     OW68490   5.119   8.396   6.752  0.0423  0.1057 -0.9585
21866SOL    HW168491   5.187   8.459   6.732 -1.3656  1.1876 -2.6305
21866SOL    HW268492   5.142   8.361   6.838  0.4489  3.5002  0.4469
21867SOL     OW68493   7.136  10.710   7.772  0.1838  0.1591 -0.5214
21867SOL    HW168494   7.083  10.670   7.841 -1.5985 -0.1907 -1.9910
21867SOL    HW268495   7.222  10.722   7.811 -0.6709 -0.2793  1.6510
21868SOL     OW68496   3.174   4.940   1.254  0.2221  0.2966  0.0876
21868SOL    HW168497   3.182   4.899   1.168  0.1074  0.2393  0.1026
21868SOL    HW268498   3.187   5.033   1.239 -0.0083  0.3114 -0.0249
21869SOL     OW68499   2.306   5.495   9.003 -0.2700  0.3728 -0.5734
21869SOL    HW168500   2.367   5.452   8.943 -1.2783  0.4861 -1.7441
21869SOL    HW268501   2.360   5.553   9.056  0.8624 -0.9202 -0.2797
21870SOL     OW68502   6.877   2.180   1.677  0.1317 -0.5278  0.0293
21870SOL    HW168503   6.796   2.229   1.664 -0.0473 -0.6759  0.5700
21870SOL    HW268504   6.881   2.121   1.602  0.8154  0.9240 -1.1308
21871SOL     OW68505   4.890   8.851   1.502 -0.6605 -0.1570 -0.0100
21871SOL    HW168506   4.900   8.945   1.486  0.4348 -0.0157  1.3191
21871SOL    HW268507   4.809   8.828   1.456 -0.2927  1.1586 -1.4293
21872SOL     OW68508   6.325   2.260   8.178 -0.4581 -0.5780  0.0715
21872SOL    HW168509   6.330   2.351   8.207 -0.0239 -0.3864 -0.5723
21872SOL    HW268510   6.406   2.246   8.129 -0.0395 -1.6111  0.9982
21873SOL     OW68511   7.157   0.988   9.826 -0.3616  0.1694  0.2842
21873SOL    HW168512   7.149   0.910   9.882 -1.1112  0.8536  1.1535
21873SOL    HW268513   7.239   1.029   9.854  0.3000 -0.5432 -0.5211
21874SOL     OW68514   3.157   2.846   8.518 -0.1203 -0.2019 -0.1027
21874SOL    HW168515   3.080   2.844   8.461 -1.3169 -0.5007  1.4531
21874SOL    HW268516   3.203   2.765   8.500 -0.7984 -0.5630 -0.2330
21875SOL     OW68517   9.328   5.936   3.295  0.7151 -0.0363  0.3818
21875SOL    HW168518   9.266   5.872   3.261  0.3084  0.6582 -0.2271
21875SOL    HW268519   9.292   5.960   3.381 -0.2663  0.8587 -0.2478
21876SOL     OW68520   4.503   3.750   8.296  0.1337  0.5170 -0.3557
21876SOL    HW168521   4.409   3.737   8.303  0.1369  1.1971  1.4307
21876SOL    HW268522   4.517   3.779   8.206 -1.4746  1.3036 -0.3824
21877SOL     OW68523   8.858   4.943   7.039 -0.1088 -0.4067  0.1585
21877SOL    HW168524   8.916   4.949   6.963 -0.7991  1.5565 -0.2713
21877SOL    HW268525   8.770   4.943   7.001 -0.4490 -0.4044  0.9294
21878SOL     OW68526   1.478   6.046   6.169 -0.2453  0.1365  0.0260
21878SOL    HW168527   1.471   6.024   6.076 -0.4009 -0.8865  0.2641
21878SOL    HW268528   1.557   6.099   6.176  0.7900 -1.2849 -0.4424
21879SOL     OW68529   8.760   5.147   8.413 -0.2310 -0.5017 -0.0039
21879SOL    HW168530   8.675   5.104   8.404 -0.5001 -0.0857  0.5501
21879SOL    HW268531   8.763   5.209   8.341  0.4177 -1.8470 -1.1951
21880SOL     OW68532   5.747   2.223   0.653  0.4960  0.4038  0.2389
21880SOL    HW168533   5.684   2.151   0.661 -0.5551  1.2505 -0.1366
21880SOL    HW268534   5.746   2.246   0.560 -0.7678  2.2355  0.6415
21881SOL     OW68535   0.672  10.517   6.688  0.3484  0.1006  0.1765
21881SOL    HW168536   0.630  10.593   6.649 -3.3608 -1.2942  1.0509
21881SOL    HW268537   0.709  10.549   6.770  1.6997  1.5315 -0.9342
21882SOL     OW68538   0.653   1.278   7.870  0.0098  0.3708  0.2141
21882SOL    HW168539   0.692   1.330   7.800  1.3283  0.4207  0.9482
21882SOL    HW268540   0.597   1.340   7.917  2.1920  1.4168  1.5749
21883SOL     OW68541   6.915   5.387   7.118 -0.9447 -0.0518  0.0729
21883SOL    HW168542   6.944   5.382   7.027  0.0652 -0.3724  0.4020
21883SOL    HW268543   6.881   5.300   7.137  0.1143 -0.3981  0.4106
21884SOL     OW68544   3.647   1.946   5.478  0.2064 -0.5236 -0.1567
21884SOL    HW168545   3.628   2.019   5.420  0.8482  1.4642  1.9833
21884SOL    HW268546   3.564   1.926   5.522  0.4059  0.1146  0.5223
21885SOL     OW68547   5.494   5.204   6.928 -0.2757 -0.4000 -0.4539
21885SOL    HW168548   5.515   5.178   7.017 -1.8770  0.0652  0.0876
21885SOL    HW268549   5.524   5.295   6.921 -0.5611 -0.2906 -0.2441
21886SOL     OW68550   4.794  10.571   3.898 -0.3974 -0.1325  0.4282
21886SOL    HW168551   4.704  10.547   3.920 -0.1653 -1.3147  0.1766
21886SOL    HW268552   4.786  10.624   3.819 -1.0941  2.6257  2.2110
21887SOL     OW68553   7.120   8.100   3.038 -1.0708  0.6004 -0.1246
21887SOL    HW168554   7.163   8.121   3.121 -0.9623  1.3750 -0.3635
21887SOL    HW268555   7.192   8.079   2.979 -1.2313 -1.6175  0.3971
21888SOL     OW68556   7.122   8.970   6.402  1.3237  0.4268  0.4955
21888SOL    HW168557   7.164   8.884   6.404 -0.2783 -0.3813  0.5789
21888SOL    HW268558   7.077   8.977   6.487 -0.2345  0.4549 -0.2965
21889SOL     OW68559   3.944   9.050   1.631 -0.6440  0.0416 -0.2625
21889SOL    HW168560   3.944   9.017   1.540  1.4077  0.8730 -0.5971
21889SOL    HW268561   4.036   9.059   1.653 -1.1390  0.9329  1.5414
21890SOL     OW68562   1.015   0.228   9.762  0.4098  0.0752 -0.0294
21890SOL    HW168563   1.052   0.267   9.841 -1.0684 -0.9450  1.2134
21890SOL    HW268564   1.063   0.270   9.690  1.7239  1.0960  1.3792
21891SOL     OW68565   2.981   7.880   0.595  0.0583  0.7006  0.1684
21891SOL    HW168566   2.893   7.878   0.558  0.4307  1.8744 -0.8405
21891SOL    HW268567   2.987   7.964   0.640  1.0613  1.2184 -0.8642
21892SOL     OW68568   8.819   1.201   1.631 -0.0031 -0.4244  0.2154
21892SOL    HW168569   8.867   1.252   1.696 -0.6346  0.7091 -0.1859
21892SOL    HW268570   8.886   1.175   1.567  0.3894 -0.4191  0.6205
21893SOL     OW68571   6.494   1.719   1.714 -0.3995 -0.7709  0.3416
21893SOL    HW168572   6.556   1.678   1.653 -0.9811 -1.5170  0.2393
21893SOL    HW268573   6.550   1.770   1.773  0.3213 -1.3874  0.2184
21894SOL     OW68574   4.368   0.637   2.300  0.4696 -0.5304  0.0943
21894SOL    HW168575   4.396   0.576   2.369  1.3047  0.2832  0.5000
21894SOL    HW268576   4.348   0.718   2.347 -1.8475 -0.8146 -0.2878
21895SOL     OW68577   6.520   1.370   0.762 -0.2092  0.4823  0.1826
21895SOL    HW168578   6.600   1.379   0.710 -0.8578 -2.1880 -1.4788
21895SOL    HW268579   6.471   1.450   0.745  1.1332  1.1726 -0.5570
21896SOL     OW68580   3.738   9.663   7.608  0.2417  0.4258  0.0383
21896SOL    HW168581   3.742   9.747   7.563 -0.6517  0.4822  0.0354
21896SOL    HW268582   3.813   9.614   7.575  1.2564  1.5134  0.6503
21897SOL     OW68583   4.730   3.166   4.859  1.1101 -0.1548 -0.0263
21897SOL    HW168584   4.731   3.092   4.919  0.1846  1.0971  1.6442
21897SOL    HW268585   4.643   3.206   4.872  1.1924  0.6214 -1.6272
21898SOL     OW68586  10.087   5.809   5.417 -0.1383 -0.2372  0.3014
21898SOL    HW168587  10.170   5.822   5.372  0.2699  0.2961  1.2005
21898SOL    HW268588  10.069   5.892   5.461 -0.7095 -0.6308  0.8293
21899SOL     OW68589   1.289   9.285  10.268  0.5832 -0.0110 -0.1119
21899SOL    HW168590   1.307   9.370  10.309  1.4905  0.0611 -0.6205
21899SOL    HW268591   1.218   9.248  10.319  1.3495  0.2849  1.2295
21900SOL     OW68592  10.228   1.888   4.420 -0.2004 -0.5522  0.1098
21900SOL    HW168593  10.240   1.797   4.445 -1.9634 -0.7140  0.5331
21900SOL    HW268594  10.305   1.909   4.367  1.2674 -1.6389  1.7126
21901SOL     OW68595   4.216   0.841   2.535  0.5925  0.0029  0.1163
21901SOL    HW168596   4.248   0.838   2.625 -0.0129 -1.0929  0.3117
21901SOL    HW268597   4.136   0.789   2.536  0.7656 -0.3347 -1.1360
21902SOL     OW68598   4.654   3.919  10.485  0.5119  0.5005 -0.2513
21902SOL    HW168599   4.585   3.980  10.511 -0.3041 -0.2427 -0.6174
21902SOL    HW268600   4.668   3.864  10.561 -0.5228 -0.4409 -0.7125
21903SOL     OW68601   2.175   0.368   9.374 -0.1292 -0.1636 -0.7388
21903SOL    HW168602   2.195   0.299   9.437 -1.5671 -0.1977 -0.2810
21903SOL    HW268603   2.246   0.365   9.311  0.1723 -1.6179 -0.3557
21904SOL     OW68604   6.081   8.800   2.757 -0.0361 -0.0924 -0.2085
21904SOL    HW168605   6.001   8.752   2.738  0.8948 -1.7253 -0.1776
21904SOL    HW268606   6.113   8.763   2.839  0.5128  0.8570  0.0210
21905SOL     OW68607   1.641   6.357   7.373  0.3237 -0.5201 -0.8291
21905SOL    HW168608   1.701   6.369   7.300 -0.0053  0.2455 -0.9906
21905SOL    HW268609   1.611   6.267   7.365  0.1831 -0.4073 -1.7320
21906SOL     OW68610   4.800   2.039  10.247 -0.1198  0.4120  0.1044
21906SOL    HW168611   4.718   2.086  10.234 -1.7515 -1.7065  2.0592
21906SOL    HW268612   4.842   2.082  10.321  0.0474  0.8665 -0.2533
21907SOL     OW68613   6.643   8.599   7.671 -0.5889 -0.4059  0.0918
21907SOL    HW168614   6.602   8.680   7.642 -1.5620 -0.9057  0.0309
21907SOL    HW268615   6.601   8.578   7.754 -0.9231 -1.2499 -0.2727
21908SOL     OW68616   9.004   2.027   6.309  0.0273  0.1607 -0.4620
21908SOL    HW168617   9.095   2.016   6.282 -0.0724 -0.0658 -0.7075
21908SOL    HW268618   8.976   1.940   6.338 -0.1425  0.2042 -0.4900
21909SOL     OW68619   0.996   3.121   4.694  0.4386 -0.1318  0.6068
21909SOL    HW168620   1.087   3.138   4.668  0.6369 -1.3073  0.5152
21909SOL    HW268621   0.967   3.204   4.733  1.5689  0.2326  0.7084
21910SOL     OW68622   6.813   7.816   8.249 -0.6899 -0.1166 -0.1061
21910SOL    HW168623   6.743   7.881   8.236  1.1515  1.8330 -0.8625
21910SOL    HW268624   6.885   7.867   8.286  0.7316 -1.8163 -0.4458
21911SOL     OW68625   6.263   9.634   0.977  0.4135 -0.3380  0.2570
21911SOL    HW168626   6.339   9.685   0.949 -0.2240  0.3032 -0.3273
21911SOL    HW268627   6.256   9.564   0.912  1.7726 -1.7070  1.5011
21912SOL     OW68628   0.432   6.116   0.984 -0.7940 -0.2018 -0.4229
21912SOL    HW168629   0.507   6.176   0.980 -1.0502  0.0839 -1.0149
21912SOL    HW268630   0.360   6.169   1.017 -0.4442 -0.7957  1.4332
21913SOL     OW68631   4.245   8.651   5.703  0.2380  0.1430  0.2076
21913SOL    HW168632   4.171   8.712   5.698  0.4681  0.3654 -0.5979
21913SOL    HW268633   4.264   8.628   5.612  2.1432  1.3007  0.2365
21914SOL     OW68634   7.280   2.911   7.579 -0.1463  0.1482  0.1088
21914SOL    HW168635   7.206   2.949   7.625 -1.3770 -1.1825 -0.6934
21914SOL    HW268636   7.316   2.846   7.640 -1.3569 -1.1291 -0.4693
21915SOL     OW68637   0.900   2.661   7.310  0.1174  0.0400 -0.3903
21915SOL    HW168638   0.989   2.635   7.286 -0.2697 -2.4178  0.5742
21915SOL    HW268639   0.906   2.756   7.324  2.4046  0.0517 -1.0147
21916SOL     OW68640   5.151   0.487   3.196  0.1063 -0.7741  0.1158
21916SOL    HW168641   5.123   0.469   3.286 -0.7930 -2.6884 -0.5023
21916SOL    HW268642   5.145   0.582   3.188  1.4511 -0.3945  2.4473
21917SOL     OW68643   4.208   5.755   5.810  0.0892  0.8491  0.1158
21917SOL    HW168644   4.241   5.689   5.871 -0.7973  1.8165  1.7379
21917SOL    HW268645   4.220   5.717   5.723  2.2178 -0.2323  0.8197
21918SOL     OW68646   8.250   6.267   7.171 -0.1688  0.0140  0.2206
21918SOL    HW168647   8.190   6.195   7.151  0.5558 -0.5166 -0.0703
21918SOL    HW268648   8.240   6.281   7.265 -0.0658 -0.7012  0.3427
21919SOL     OW68649   5.201   7.464   5.717  0.2336  0.1527 -0.4693
21919SOL    HW168650   5.207   7.521   5.641  0.8347  0.8621  0.0838
21919SOL    HW268651   5.287   7.473   5.760 -0.2985  0.2350  0.6104
21920SOL     OW68652   8.499  10.678  10.454  0.0713 -0.4593 -0.2782
21920SOL    HW168653   8.419  10.637  10.420 -0.4744 -0.8436  1.3888
21920SOL    HW268654   8.519  10.628  10.533  0.5789  1.1772  0.6671
21921SOL     OW68655   2.584   9.481   9.935 -0.1415 -0.1677 -0.2757
21921SOL    HW168656   2.666   9.441   9.964 -1.1129 -1.0156  1.4427
21921SOL    HW268657   2.561   9.541  10.006 -0.5029  0.8388 -1.2248
21922SOL     OW68658   9.457   2.906   7.789 -0.0751 -0.0777 -0.1952
21922SOL    HW168659   9.518   2.835   7.770 -0.6342 -0.3179 -1.1330
21922SOL    HW268660   9.372   2.863   7.800 -0.0273  0.1950  1.6148
21923SOL     OW68661   9.492   7.152   3.713 -0.0208 -0.2371 -0.1728
21923SOL    HW168662   9.398   7.144   3.733 -0.0122  2.4268  1.3543
21923SOL    HW268663   9.494   7.185   3.623 -0.5826  0.3603  0.0296
21924SOL     OW68664   1.897   1.605   0.856 -0.2850 -0.1321 -0.1142
21924SOL    HW168665   1.942   1.649   0.928  1.6984  0.5818 -1.6799
21924SOL    HW268666   1.967   1.573   0.799 -1.7527 -1.1000 -1.4792
21925SOL     OW68667   6.171   6.450   7.035  0.0752 -0.2712  0.0347
21925SOL    HW168668   6.226   6.372   7.025 -0.0363 -0.3214 -0.1834
21925SOL    HW268669   6.125   6.436   7.118  2.4215  1.0131  1.6734
21926SOL     OW68670   5.410   3.170   4.415  0.0993  0.1936  0.4282
21926SOL    HW168671   5.476   3.122   4.465  0.9069  1.5809  0.7333
21926SOL    HW268672   5.343   3.193   4.480 -1.0571 -1.7645  0.0009
21927SOL     OW68673   8.778   2.909   8.372  0.0937 -0.5546  0.3028
21927SOL    HW168674   8.692   2.886   8.337 -0.2745 -0.3280  1.0425
21927SOL    HW268675   8.760   2.976   8.438  1.1161  1.9075 -1.7356
21928SOL     OW68676   7.244   7.107   7.444  0.1709  0.2842 -0.1042
21928SOL    HW168677   7.189   7.033   7.468 -2.6183  1.5394 -2.0207
21928SOL    HW268678   7.242   7.109   7.348  1.0245  2.1719 -0.1389
21929SOL     OW68679   6.487   1.116   4.977 -0.4280 -0.0130 -0.4058
21929SOL    HW168680   6.478   1.024   4.952 -0.6083 -0.6148  1.6828
21929SOL    HW268681   6.405   1.136   5.024 -0.2946  1.1448 -0.6460
21930SOL     OW68682   1.222   9.039   3.417 -0.8228 -0.4258 -0.5500
21930SOL    HW168683   1.166   9.019   3.341 -0.4593 -1.1813 -0.6316
21930SOL    HW268684   1.167   9.094   3.473 -1.2568 -0.2351 -1.1499
21931SOL     OW68685   6.619   6.289   2.538  0.1931  0.5079 -0.1090
21931SOL    HW168686   6.556   6.330   2.597 -0.0377  0.2438 -0.1701
21931SOL    HW268687   6.632   6.201   2.574 -0.8180 -0.0636 -1.0876
21932SOL     OW68688   1.031   3.128   8.304  0.0611 -0.1892 -0.1172
21932SOL    HW168689   1.106   3.080   8.340  0.6485  1.0884  0.4084
21932SOL    HW268690   1.032   3.212   8.350 -0.3815  0.7124 -1.6963
21933SOL     OW68691   2.076   6.056   8.931 -0.0242  0.2711 -0.1270
21933SOL    HW168692   2.041   6.028   8.846 -0.6964 -2.8400  1.0419
21933SOL    HW268693   2.171   6.042   8.923 -0.0486  0.3039 -0.4821
21934SOL     OW68694   9.126   7.578   6.313  0.7065  0.1811 -0.4604
21934SOL    HW168695   9.066   7.650   6.332  1.0376  0.4908 -0.5600
21934SOL    HW268696   9.103   7.510   6.376 -0.6407 -0.2388 -1.3630
21935SOL     OW68697   7.079   9.924   4.286 -0.1360 -0.0107  0.4528
21935SOL    HW168698   7.000   9.961   4.325 -1.0594 -0.5825 -0.8124
21935SOL    HW268699   7.083   9.962   4.198 -1.2208 -2.8839 -0.9930
21936SOL     OW68700   7.805   4.905   9.585 -0.2859 -0.3278  0.3852
21936SOL    HW168701   7.714   4.888   9.564 -0.6244  0.3613  1.2157
21936SOL    HW268702   7.837   4.957   9.511 -1.1420  1.1152  0.9823
21937SOL     OW68703   9.209   7.061   3.217  0.4119  0.3289 -0.1032
21937SOL    HW168704   9.212   7.076   3.311 -0.6336  0.6171 -0.0953
21937SOL    HW268705   9.217   7.148   3.178 -1.3341  0.5001 -0.1873
21938SOL     OW68706   1.237   8.634   7.414 -0.2117  0.3185  0.1391
21938SOL    HW168707   1.221   8.543   7.390 -0.3569  0.1840  0.7185
21938SOL    HW268708   1.254   8.631   7.508  0.4219  0.8134  0.0432
21939SOL     OW68709   1.448   6.883   2.884 -0.0545  0.5932 -0.2472
21939SOL    HW168710   1.477   6.925   2.965 -2.5797  0.1767  0.9401
21939SOL    HW268711   1.476   6.792   2.893  0.6202  0.7741 -0.3861
21940SOL     OW68712   5.201  10.633   8.495 -0.9623  0.3802 -0.2276
21940SOL    HW168713   5.291  10.627   8.528  0.7212  0.2055 -4.2916
21940SOL    HW268714   5.149  10.588   8.561  2.3199 -1.9441  1.0784
21941SOL     OW68715   8.314   0.494   4.446 -0.0507  0.6149  0.2192
21941SOL    HW168716   8.246   0.541   4.494 -0.6796  0.7199 -0.7379
21941SOL    HW268717   8.354   0.561   4.390 -1.3246 -0.0287 -1.5728
21942SOL     OW68718   9.660   5.487   1.190  0.6417  0.1556 -0.5133
21942SOL    HW168719   9.584   5.433   1.171  0.3101  0.7811 -0.9811
21942SOL    HW268720   9.624   5.573   1.212  1.0399 -0.3013  2.2042
21943SOL     OW68721   4.703  10.547   3.223  0.7311  0.4404 -0.0453
21943SOL    HW168722   4.610  10.548   3.205  0.8183  1.6877 -0.5266
21943SOL    HW268723   4.720  10.459   3.258 -0.4481 -0.0933 -0.7652
21944SOL     OW68724   5.641  10.729   5.688  0.1350  0.2159  0.4799
21944SOL    HW168725   5.670  10.740   5.779  1.8286  0.0196  0.0049
21944SOL    HW268726   5.707  10.671   5.649 -1.3505 -0.8864 -0.5188
21945SOL     OW68727   9.046   9.804  10.293 -0.0375 -0.2898 -0.1934
21945SOL    HW168728   9.021   9.748  10.220 -1.3675 -0.6995  0.5398
21945SOL    HW268729   8.965   9.815  10.343  0.6710  0.6206  0.7885
21946SOL     OW68730   5.622   1.157   7.310  0.8454 -0.1296 -0.4091
21946SOL    HW168731   5.709   1.180   7.277  0.2213  2.9011 -0.2845
21946SOL    HW268732   5.628   1.173   7.404  0.5858 -1.5715 -0.1339
21947SOL     OW68733   1.136   4.574   7.044  0.0108  0.2981 -0.4338
21947SOL    HW168734   1.107   4.487   7.071  1.0261  0.0948  0.0733
21947SOL    HW268735   1.232   4.569   7.047  0.1004  1.7637  0.7085
21948SOL     OW68736   8.742   3.237   3.495  0.1462 -0.2590 -0.1839
21948SOL    HW168737   8.768   3.191   3.575 -0.7994 -1.9464 -0.7985
21948SOL    HW268738   8.669   3.293   3.522 -0.1669 -0.8156  0.1417
21949SOL     OW68739   3.516   8.504  10.583  0.0680 -0.0943 -0.5265
21949SOL    HW168740   3.458   8.455  10.524  1.8375 -1.0216 -1.5762
21949SOL    HW268741   3.577   8.549  10.525 -0.6317  2.3146  0.4882
21950SOL     OW68742   9.964   5.706   3.763  0.0450 -0.6999 -0.5840
21950SOL    HW168743  10.052   5.737   3.744 -0.2517 -0.2003 -1.1973
21950SOL    HW268744   9.908   5.755   3.702 -0.6831 -0.8099 -0.0132
21951SOL     OW68745   0.618   2.526   9.440  0.2878  0.1368  0.3593
21951SOL    HW168746   0.628   2.431   9.431 -0.5440 -0.0726  1.4640
21951SOL    HW268747   0.685   2.563   9.381  1.9217 -1.1340  1.3280
21952SOL     OW68748   2.175   4.856   4.734  0.1807  0.0182 -0.0643
21952SOL    HW168749   2.169   4.828   4.643  0.1812 -0.5597  0.1090
21952SOL    HW268750   2.125   4.938   4.737 -2.6768 -1.5917  0.0732
21953SOL     OW68751   6.225   1.898   9.884  0.1164  0.1764 -0.3946
21953SOL    HW168752   6.184   1.972   9.929 -0.6166 -0.9181  0.8344
21953SOL    HW268753   6.172   1.822   9.911  1.0544 -0.8416 -1.3185
21954SOL     OW68754   5.667   8.154   9.736  0.1120 -0.0996 -0.1108
21954SOL    HW168755   5.693   8.076   9.785  1.4523 -0.0194 -0.6683
21954SOL    HW268756   5.740   8.215   9.746 -0.0141  0.2915 -1.3846
21955SOL     OW68757   6.250   2.791   5.525 -0.4998  0.3678  0.4859
21955SOL    HW168758   6.288   2.829   5.603  2.4704  0.1299 -0.7176
21955SOL    HW268759   6.298   2.709   5.512  2.0134  2.1730 -3.5645
21956SOL     OW68760  10.137   2.173   0.023  0.4692 -0.8452 -0.2263
21956SOL    HW168761  10.123   2.268   0.027 -1.1811 -1.1005  0.9704
21956SOL    HW268762  10.162   2.157  -0.068  1.4588  0.8057 -0.2870
21957SOL     OW68763   3.275   7.424   7.615  0.3791 -0.0034  0.3506
21957SOL    HW168764   3.203   7.444   7.675 -0.5164  2.1754 -1.3188
21957SOL    HW268765   3.234   7.377   7.543  0.4877  1.5006 -0.7485
21958SOL     OW68766   0.259   0.902   0.607  0.1317 -0.2884 -0.3897
21958SOL    HW168767   0.296   0.901   0.695 -0.1699 -0.9733 -0.2639
21958SOL    HW268768   0.321   0.954   0.555 -0.2665  1.0646  0.4541
21959SOL     OW68769   0.219   9.111   7.711 -0.1977 -0.3477 -0.5835
21959SOL    HW168770   0.223   9.036   7.651 -1.4815 -0.1380 -0.9646
21959SOL    HW268771   0.140   9.158   7.684  0.4108  0.9608 -0.1273
21960SOL     OW68772   9.652   9.052   2.541 -0.7624  0.2714  0.3933
21960SOL    HW168773   9.594   9.124   2.515 -0.2640  0.4381 -0.2859
21960SOL    HW268774   9.716   9.093   2.599 -0.9095  0.2223  0.5935
21961SOL     OW68775   4.681   2.316  10.004 -0.4067 -0.0301 -0.2183
21961SOL    HW168776   4.615   2.375   9.968  1.6911  2.2849 -0.5207
21961SOL    HW268777   4.731   2.287   9.928 -0.6500 -1.2546  0.0725
21962SOL     OW68778   8.174   6.938   3.774  0.2139 -0.0821 -0.0863
21962SOL    HW168779   8.218   6.878   3.834  0.1079  0.4031  0.4839
21962SOL    HW268780   8.195   7.025   3.808  1.3391  0.2684 -1.5680
21963SOL     OW68781   7.605   0.353   1.410  0.0831 -0.0204 -0.2828
21963SOL    HW168782   7.546   0.322   1.341 -0.2138  2.3445 -1.2126
21963SOL    HW268783   7.691   0.359   1.367  0.0552  0.7181 -0.2611
21964SOL     OW68784   0.432   9.029   1.366  0.0293  0.2296 -0.4777
21964SOL    HW168785   0.338   9.023   1.348 -0.4938 -0.5595  2.1294
21964SOL    HW268786   0.462   8.938   1.367  0.5359  0.3979 -0.0335
21965SOL     OW68787   0.763  10.677   6.953 -0.4475 -0.1818 -0.5145
21965SOL    HW168788   0.800  10.628   7.027  0.6706  1.5478  0.1210
21965SOL    HW268789   0.838  10.693   6.896 -0.8404  0.5362 -0.8402
21966SOL     OW68790   3.109   2.779   8.924 -0.2074  0.6712  0.3319
21966SOL    HW168791   3.199   2.793   8.955 -0.6527 -0.6559  2.4261
21966SOL    HW268792   3.104   2.685   8.905 -1.0202  0.8157 -0.2190
21967SOL     OW68793   0.183   9.235  10.109  0.0416 -0.1793 -0.3756
21967SOL    HW168794   0.245   9.240  10.182 -0.1204  0.8680 -0.2959
21967SOL    HW268795   0.184   9.142  10.084  0.2545 -0.5291  0.8190
21968SOL     OW68796   4.869   2.478   6.310  0.0641 -0.0217  0.7378
21968SOL    HW168797   4.907   2.448   6.227  1.5597  0.3404  1.2651
21968SOL    HW268798   4.870   2.573   6.304 -1.5067  0.0093  0.4670
21969SOL     OW68799   3.509   4.914   0.185 -0.2523  0.4812 -0.4524
21969SOL    HW168800   3.472   4.976   0.121 -0.3200 -0.1442 -1.0327
21969SOL    HW268801   3.583   4.874   0.140 -0.4437 -0.1368 -0.2325
21970SOL     OW68802   7.326   5.035   3.706 -0.0788 -0.0856  0.2220
21970SOL    HW168803   7.256   5.000   3.760  0.2378 -0.5278  0.3509
21970SOL    HW268804   7.309   5.129   3.703 -1.6432 -0.3682 -1.1282
21971SOL     OW68805   3.626  10.371   8.829 -0.1640 -0.3673 -0.2695
21971SOL    HW168806   3.627  10.303   8.897 -1.8577 -0.6827 -0.5204
21971SOL    HW268807   3.574  10.442   8.866 -2.9400 -1.3776 -1.9114
21972SOL     OW68808   9.787   8.225   5.068  0.3316 -0.4146 -0.2067
21972SOL    HW168809   9.867   8.174   5.075  1.2702  0.8011 -1.4271
21972SOL    HW268810   9.808   8.309   5.108 -0.6819 -0.4361  0.3991
21973SOL     OW68811   2.375   0.840   1.800  0.4698 -0.1369  0.1893
21973SOL    HW168812   2.391   0.926   1.838 -1.9305  0.7225 -0.5638
21973SOL    HW268813   2.302   0.805   1.850 -0.8084 -0.2360 -1.6501
21974SOL     OW68814   0.203   8.095  10.338 -0.3986  1.1704 -0.3281
21974SOL    HW168815   0.232   8.049  10.260 -0.7206  0.7429 -0.1972
21974SOL    HW268816   0.282   8.103  10.392 -0.2760  1.0491 -0.4892
21975SOL     OW68817   3.236   0.475   7.985  0.2725 -0.5034 -0.7626
21975SOL    HW168818   3.329   0.466   7.964  0.5211 -2.2998  0.8384
21975SOL    HW268819   3.223   0.418   8.061 -1.5559  1.8405  0.8176
21976SOL     OW68820   4.591   5.546   2.635  0.2948 -0.2894  0.0372
21976SOL    HW168821   4.572   5.638   2.653 -1.2874 -0.9301  2.0307
21976SOL    HW268822   4.543   5.527   2.555 -1.9148 -0.0988  1.2564
21977SOL     OW68823   4.646   1.121  10.674 -0.3389  0.4564  0.1169
21977SOL    HW168824   4.723   1.065  10.688 -0.3141  0.2790 -0.7065
21977SOL    HW268825   4.682   1.208  10.661 -0.4198  0.8953  2.3811
21978SOL     OW68826   1.185   2.909  10.457  0.4411 -0.0426 -0.1671
21978SOL    HW168827   1.184   2.834  10.517  0.0220  1.0998  1.3196
21978SOL    HW268828   1.258   2.891  10.398  1.0292 -1.1053  0.8310
21979SOL     OW68829   8.592   4.449   2.982 -0.4906 -0.1529 -0.2895
21979SOL    HW168830   8.622   4.403   2.903 -1.1245 -1.0225 -0.0435
21979SOL    HW268831   8.672   4.484   3.021  0.0902 -1.4401 -0.2661
21980SOL     OW68832   6.191   1.135   2.750  0.4115  0.2287 -0.4146
21980SOL    HW168833   6.119   1.114   2.809 -0.5231  0.5758 -1.4124
21980SOL    HW268834   6.191   1.064   2.686  0.1739  0.8698 -1.1282
21981SOL     OW68835   5.187   6.138   7.784 -0.0700  0.2849 -0.7438
21981SOL    HW168836   5.194   6.210   7.846  0.8834 -0.3202 -0.1231
21981SOL    HW268837   5.129   6.171   7.715 -1.5774  0.7842  0.6978
21982SOL     OW68838   7.904  10.797   3.704  0.1741 -0.0493 -0.0698
21982SOL    HW168839   7.909  10.820   3.611  0.4829  1.5985  0.3310
21982SOL    HW268840   7.826  10.842   3.736  1.8192  2.1281  1.1505
21983SOL     OW68841   7.080   9.169   2.902 -0.6836  0.2610 -0.0409
21983SOL    HW168842   7.072   9.209   2.815  1.6901 -0.1521 -0.5377
21983SOL    HW268843   7.033   9.087   2.895 -0.8272  0.3973 -0.8432
21984SOL     OW68844   2.149   5.334   4.304 -0.0478 -0.0776 -0.2400
21984SOL    HW168845   2.157   5.241   4.323 -0.3793  0.1309  0.9781
21984SOL    HW268846   2.116   5.373   4.385  2.9054  1.5372  0.3390
21985SOL     OW68847   9.037   7.029   5.949  0.8363 -0.3859 -0.0937
21985SOL    HW168848   9.094   7.045   6.025  1.3666  1.0241 -0.7398
21985SOL    HW268849   8.955   7.072   5.972  0.3369 -1.5907  0.4399
21986SOL     OW68850   3.657   9.212   1.920  0.3402  0.3410 -0.2326
21986SOL    HW168851   3.573   9.230   1.961 -1.4588 -0.4283 -3.2259
21986SOL    HW268852   3.719   9.268   1.966 -1.1916 -0.9086  3.8190
21987SOL     OW68853   6.744   0.470   3.033  0.1960 -0.1051 -0.0172
21987SOL    HW168854   6.734   0.399   2.970 -0.5147  1.4174 -1.7294
21987SOL    HW268855   6.818   0.444   3.088  0.7028 -1.6041 -1.3291
21988SOL     OW68856   2.671   4.959   0.110  0.0857 -0.2425 -0.4385
21988SOL    HW168857   2.711   4.898   0.048  0.9739 -0.0062 -0.1165
21988SOL    HW268858   2.741   5.021   0.131  0.2266 -1.1007  1.8488
21989SOL     OW68859   3.067   2.571   3.279 -0.3802  0.0550 -0.5715
21989SOL    HW168860   3.123   2.648   3.290 -1.4812  0.9906 -1.3085
21989SOL    HW268861   3.086   2.540   3.191 -0.0413 -0.4491 -0.3259
21990SOL     OW68862   6.381   3.801   6.277 -0.2284  0.0534 -0.6733
21990SOL    HW168863   6.313   3.865   6.295 -0.6196 -0.2709 -0.9659
21990SOL    HW268864   6.431   3.794   6.358  0.8282  1.9088 -1.1146
21991SOL     OW68865   6.570   0.669   6.552 -0.2186  0.2264  0.5394
21991SOL    HW168866   6.508   0.673   6.625  0.0400  1.4600  0.7210
21991SOL    HW268867   6.519   0.697   6.476 -0.2983 -0.3432  0.3817
21992SOL     OW68868   6.979   9.364   2.715  0.1731 -0.5057 -0.4457
21992SOL    HW168869   6.912   9.336   2.652 -0.2911 -1.4567  0.4323
21992SOL    HW268870   6.972   9.459   2.717 -0.3900 -0.5225 -1.1933
21993SOL     OW68871   9.659   9.042   7.932 -0.0294  0.0346  0.2682
21993SOL    HW168872   9.682   9.117   7.876  1.5799 -1.3768 -1.0598
21993SOL    HW268873   9.743   9.008   7.962 -0.6199 -1.9810 -0.1928
21994SOL     OW68874   3.438   4.402   5.961 -0.0238  0.7497  0.3877
21994SOL    HW168875   3.487   4.373   6.037  1.0221  0.3564 -0.4212
21994SOL    HW268876   3.377   4.330   5.943 -0.9611  1.2469  1.3995
21995SOL     OW68877   8.607   7.286   1.359  0.2466  0.3089  0.0583
21995SOL    HW168878   8.598   7.192   1.374  0.2165  0.4914  1.2562
21995SOL    HW268879   8.699   7.299   1.338  0.2239  0.0063 -0.2412
21996SOL     OW68880   0.551   4.263   0.739  0.7256  0.0344 -0.8167
21996SOL    HW168881   0.519   4.192   0.795  1.5935  1.3650  1.5292
21996SOL    HW268882   0.587   4.219   0.662 -1.5431 -1.8275 -0.9302
21997SOL     OW68883   3.935   0.197   1.020 -0.0610  0.0114 -0.2309
21997SOL    HW168884   3.962   0.136   0.952  3.1141 -0.4327  1.2527
21997SOL    HW268885   3.936   0.283   0.977  2.1007 -0.2258 -0.7709
21998SOL     OW68886   8.788   5.557   2.974 -0.0399  0.4441  0.4041
21998SOL    HW168887   8.741   5.473   2.975 -0.1456  0.4648 -0.7245
21998SOL    HW268888   8.726   5.618   2.933  1.4011  0.1486 -2.5404
21999SOL     OW68889   6.913   0.256   0.406  0.6672 -0.2572  0.3882
21999SOL    HW168890   6.940   0.247   0.497  0.0822  0.1438  0.6017
21999SOL    HW268891   6.867   0.340   0.402 -0.3662 -0.8216 -0.0104
22000SOL     OW68892   2.699   4.216   2.049  0.1564  0.1097 -0.6832
22000SOL    HW168893   2.673   4.240   2.138 -0.5805 -0.2229 -0.8033
22000SOL    HW268894   2.736   4.128   2.058  1.5764  0.7069 -0.4620
22001SOL     OW68895   7.827   3.309   3.112 -0.0203 -0.2562 -0.6251
22001SOL    HW168896   7.869   3.252   3.047 -0.8489  0.4186 -1.8028
22001SOL    HW268897   7.735   3.285   3.109  0.0705 -0.9049  1.0732
22002SOL     OW68898   9.517   7.563   1.525  0.4064 -0.4269  0.3002
22002SOL    HW168899   9.551   7.560   1.614  0.5207 -0.0007  0.2701
22002SOL    HW268900   9.433   7.609   1.533  1.3083  1.3584 -0.0903
22003SOL     OW68901   0.967  10.442   1.736  0.2470  0.6028  0.6307
22003SOL    HW168902   1.048  10.461   1.784  0.1528 -2.0004  1.9992
22003SOL    HW268903   0.925  10.372   1.786 -0.1335 -1.9930 -2.9226
22004SOL     OW68904   5.446   7.252   7.795  0.1936  0.2577 -0.7872
22004SOL    HW168905   5.535   7.216   7.788  0.2866 -0.0256  1.3043
22004SOL    HW268906   5.460   7.343   7.820 -0.0805 -0.1188  0.8293
22005SOL     OW68907   0.571   2.503   1.881  0.1384  0.4660  0.4176
22005SOL    HW168908   0.507   2.565   1.845  1.2302  0.5967 -1.4717
22005SOL    HW268909   0.540   2.417   1.852  0.1033  0.3971  0.6582
22006SOL     OW68910   5.662   0.890   8.192 -0.7912  0.6313  0.2247
22006SOL    HW168911   5.697   0.896   8.281 -1.1766  0.8766  0.3612
22006SOL    HW268912   5.732   0.849   8.141 -0.5667  0.5011  0.6382
22007SOL     OW68913   9.665   1.774   3.360  0.0735 -0.7662 -0.2897
22007SOL    HW168914   9.749   1.793   3.319  0.0128 -0.0072 -0.0806
22007SOL    HW268915   9.685   1.767   3.454 -0.1639 -0.1230 -0.1869
22008SOL     OW68916   0.939   2.743   4.122  0.4932 -0.4426  0.5956
22008SOL    HW168917   0.847   2.718   4.129 -0.1392  1.1455 -1.2219
22008SOL    HW268918   0.964   2.718   4.033  1.3500  0.5038  0.5466
22009SOL     OW68919   8.298   1.093   1.703  0.2422  0.0006  0.0953
22009SOL    HW168920   8.382   1.097   1.656 -0.3026  0.1959 -0.8818
22009SOL    HW268921   8.283   0.999   1.715  0.8484 -0.0269  0.7630
22010SOL     OW68922   8.847   2.553   4.447  0.2042 -0.1827 -0.1951
22010SOL    HW168923   8.848   2.461   4.420  0.5033 -0.4978  0.8246
22010SOL    HW268924   8.857   2.602   4.366 -2.7141 -0.9407 -1.1215
22011SOL     OW68925   3.608   4.211   9.993  0.2279 -0.0325  0.2425
22011SOL    HW168926   3.605   4.288   9.935 -0.3394 -0.2709 -0.0596
22011SOL    HW268927   3.516   4.198  10.019  0.2511 -0.8487 -0.0400
22012SOL     OW68928   8.142   0.635   4.591 -0.7258  0.4077 -0.2982
22012SOL    HW168929   8.149   0.704   4.657  3.6713  0.7836 -0.8978
22012SOL    HW268930   8.095   0.565   4.635 -1.8481  2.2596  1.6766
22013SOL     OW68931   1.591   9.229   6.248 -0.1438 -0.4072  0.1709
22013SOL    HW168932   1.591   9.189   6.161 -2.0357 -0.3888  0.1168
22013SOL    HW268933   1.600   9.155   6.309 -1.7587 -0.7761  0.0130
22014SOL     OW68934   5.770   0.429   6.513 -0.0220 -0.6408  0.0279
22014SOL    HW168935   5.749   0.482   6.590 -0.8178 -0.7709 -0.0855
22014SOL    HW268936   5.761   0.339   6.543 -0.7789 -0.6919 -0.3202
22015SOL     OW68937   7.695   5.366   8.640 -0.1948 -0.3505 -0.4951
22015SOL    HW168938   7.726   5.368   8.730  0.3795 -0.3243 -0.6900
22015SOL    HW268939   7.601   5.383   8.646 -0.5157 -2.1639  0.2599
22016SOL     OW68940   6.233   1.850   5.320 -0.4505  0.1499  0.2214
22016SOL    HW168941   6.260   1.868   5.410  1.0034  1.0336 -0.3643
22016SOL    HW268942   6.149   1.896   5.311 -0.7155 -0.1224  1.1667
22017SOL     OW68943   4.111   1.641   0.698  0.1664 -0.8492 -0.1670
22017SOL    HW168944   4.091   1.706   0.766 -2.1653 -0.8084 -0.8075
22017SOL    HW268945   4.167   1.688   0.637  0.2696 -0.1033  0.4728
22018SOL     OW68946   2.215   3.042  10.493  0.1782  0.0634 -0.6259
22018SOL    HW168947   2.280   2.976  10.515  0.1830  0.1015 -0.5248
22018SOL    HW268948   2.198   3.088  10.575 -0.6859 -0.5714 -0.4274
22019SOL     OW68949   8.256   5.634   0.455  0.1669 -0.3929 -0.1234
22019SOL    HW168950   8.267   5.672   0.367 -1.0408 -0.2154 -0.2215
22019SOL    HW268951   8.265   5.540   0.442  1.0932 -0.2945 -0.2412
22020SOL     OW68952  10.723   0.718   9.051 -0.4356  0.4809  0.0277
22020SOL    HW168953  10.636   0.692   9.021 -0.1550  0.9445 -1.2433
22020SOL    HW268954  10.708   0.751   9.140 -1.7803  1.6034 -0.5609
22021SOL     OW68955   4.830   9.697   1.125 -0.2711 -0.0718  0.0449
22021SOL    HW168956   4.874   9.624   1.081 -0.6294 -0.5715  0.4961
22021SOL    HW268957   4.755   9.656   1.168  0.1962  0.3559  1.3083
22022SOL     OW68958   1.599   9.370   7.217  0.3887 -0.2618  0.1100
22022SOL    HW168959   1.549   9.298   7.254  0.1265 -0.8402 -1.3143
22022SOL    HW268960   1.566   9.448   7.263 -0.8471 -0.7944  0.1649
22023SOL     OW68961   3.697   8.687   0.091 -0.1546  0.2414  0.3730
22023SOL    HW168962   3.738   8.643   0.016  0.2842 -1.4495  1.5464
22023SOL    HW268963   3.740   8.772   0.096 -0.6639  0.6774 -1.6717
22024SOL     OW68964   4.732   6.932   3.545 -0.2175  0.6719  0.3724
22024SOL    HW168965   4.711   7.023   3.524 -1.7819  0.2964  0.1796
22024SOL    HW268966   4.822   6.921   3.514 -0.0855  2.0835  0.1842
22025SOL     OW68967   9.662   7.489   2.458 -0.2574  0.8421 -0.7606
22025SOL    HW168968   9.738   7.434   2.441 -1.3800 -1.1233  0.1869
22025SOL    HW268969   9.617   7.496   2.374 -0.6423 -0.6230 -0.7092
22026SOL     OW68970   3.271  10.630   6.770  0.2610  0.3960  0.4807
22026SOL    HW168971   3.208  10.657   6.836  0.6299 -0.3281  1.1448
22026SOL    HW268972   3.298  10.542   6.797  3.5061  1.6442  1.7242
22027SOL     OW68973   7.675   0.817   5.481  0.0387  0.3682  0.0623
22027SOL    HW168974   7.592   0.819   5.528  1.1107  0.2051  2.1035
22027SOL    HW268975   7.696   0.908   5.463  0.3904  0.5716  1.4238
22028SOL     OW68976   6.527   5.041   4.021 -0.0537 -0.5050 -0.2507
22028SOL    HW168977   6.598   5.026   3.959  1.7970 -0.7596  1.7968
22028SOL    HW268978   6.565   5.021   4.106 -2.1218  0.8890  1.1033
22029SOL     OW68979   0.496   8.472   0.666  0.0254 -0.3797  0.1537
22029SOL    HW168980   0.567   8.525   0.630 -0.8978 -0.1721 -1.4441
22029SOL    HW268981   0.416   8.517   0.639 -0.7604 -2.0105 -0.3367
22030SOL     OW68982   8.587   8.978   2.670 -0.1093 -0.5035 -0.3177
22030SOL    HW168983   8.654   8.961   2.736 -2.1495 -0.9790  1.7728
22030SOL    HW268984   8.543   8.894   2.658 -0.7206 -0.0745 -1.2206
22031SOL     OW68985   0.932   7.904   6.558  0.2878  0.9884  0.1583
22031SOL    HW168986   1.006   7.883   6.500 -0.1800  0.0821 -0.1255
22031SOL    HW268987   0.973   7.921   6.643  0.7589 -0.8495  0.3547
22032SOL     OW68988   6.464   7.990   5.435 -0.2750  0.0201  0.7368
22032SOL    HW168989   6.488   8.079   5.462 -1.0431  1.0140 -1.5565
22032SOL    HW268990   6.395   7.964   5.495 -0.3879  1.1922  1.1338
22033SOL     OW68991   9.900   8.305   7.329  0.1996 -0.5776  0.4347
22033SOL    HW168992   9.941   8.298   7.243  0.5720  0.1284  0.5484
22033SOL    HW268993   9.806   8.298   7.311  0.3407 -2.4958  0.2065
22034SOL     OW68994   0.621   2.744   7.569  0.0062 -0.3201 -0.0016
22034SOL    HW168995   0.665   2.789   7.496 -1.1919 -0.5100 -0.8666
22034SOL    HW268996   0.659   2.656   7.568  0.5145 -0.1106  0.0818
22035SOL     OW68997   7.247   3.384   0.084  0.0483 -0.0292  0.1511
22035SOL    HW168998   7.205   3.403   0.001  2.9113  2.0917 -0.9861
22035SOL    HW268999   7.255   3.289   0.087 -0.0768 -0.1377 -2.0143
22036SOL     OW69000   8.066   0.296   7.089  0.4953 -0.3795 -0.5203
22036SOL    HW169001   8.048   0.274   7.181  0.6445  1.3219 -0.0467
22036SOL    HW269002   8.023   0.380   7.076  0.5006 -0.5902 -2.0199
22037SOL     OW69003   5.146   4.796  10.549 -0.5956  0.1980  0.5293
22037SOL    HW169004   5.109   4.784  10.462 -2.2145  0.6905  1.1087
22037SOL    HW269005   5.178   4.710  10.574  1.5871  0.3983 -1.2371
22038SOL     OW69006   7.633   1.709   2.100 -0.3344 -0.4562  0.0977
22038SOL    HW169007   7.718   1.665   2.090 -0.0805 -0.0744  0.5550
22038SOL    HW269008   7.655   1.801   2.115 -0.7988 -0.5027  1.1451
22039SOL     OW69009   6.165   2.163   9.271  0.1572 -0.4693 -0.4857
22039SOL    HW169010   6.092   2.221   9.292 -0.9293 -1.3352 -1.7379
22039SOL    HW269011   6.187   2.184   9.180  1.3377 -0.3922 -0.2085
22040SOL     OW69012   7.553   6.462   5.064  0.1705  0.0294 -0.1846
22040SOL    HW169013   7.646   6.477   5.075  0.5268 -1.8099 -0.3462
22040SOL    HW269014   7.521   6.539   5.016  1.0536  1.9611  2.1089
22041SOL     OW69015   5.627   1.808   8.792  0.0500 -0.3162  0.0468
22041SOL    HW169016   5.627   1.809   8.696  1.0144 -0.8688  0.0320
22041SOL    HW269017   5.641   1.900   8.816  0.7200 -0.2983 -0.3626
22042SOL     OW69018   8.795   5.503   4.123  0.2065 -0.4579  0.0976
22042SOL    HW169019   8.886   5.484   4.102 -0.1224  0.7562 -2.9289
22042SOL    HW269020   8.753   5.418   4.127  1.2958 -0.9895  0.7538
22043SOL     OW69021   8.399   4.219   0.725  0.5715 -0.3293 -1.2212
22043SOL    HW169022   8.378   4.275   0.800  0.4605 -0.6027 -1.0427
22043SOL    HW269023   8.483   4.251   0.693  0.2035  0.3450 -1.5173
22044SOL     OW69024   0.182   7.807   3.786  0.0689  0.2479  0.0205
22044SOL    HW169025   0.213   7.775   3.701  1.5192  0.3416  0.4854
22044SOL    HW269026   0.118   7.741   3.814  0.4445 -0.3973 -0.6108
22045SOL     OW69027   6.362   0.866   6.940 -0.2969  0.2203 -0.0242
22045SOL    HW169028   6.299   0.938   6.955 -1.4808 -1.0624  1.5634
22045SOL    HW269029   6.393   0.844   7.028 -1.2209 -2.2672 -0.2357
22046SOL     OW69030   4.779   3.498   8.355 -0.8034  0.0208 -0.3869
22046SOL    HW169031   4.755   3.525   8.266  0.8323 -0.7875 -1.1180
22046SOL    HW269032   4.874   3.503   8.356 -0.8025 -0.0077  1.3377
22047SOL     OW69033   3.063   3.940   9.079  0.6241  0.2215 -0.0066
22047SOL    HW169034   3.110   3.869   9.035 -1.4154 -0.9640 -0.3932
22047SOL    HW269035   3.051   4.006   9.011 -0.6271 -0.6702 -0.6832
22048SOL     OW69036   1.827   6.602   5.260  0.6071  0.4860 -0.5333
22048SOL    HW169037   1.877   6.669   5.213  1.3100 -0.4213 -1.1080
22048SOL    HW269038   1.745   6.594   5.211  1.0311  0.0730 -1.2032
22049SOL     OW69039   3.739   2.362   8.750 -0.8862  0.0611 -0.4305
22049SOL    HW169040   3.832   2.341   8.736 -0.3196  1.2847  1.2130
22049SOL    HW269041   3.708   2.392   8.664  1.3227  3.3757 -0.2518
22050SOL     OW69042   3.938   0.531  10.107 -0.0110  0.1430 -0.2231
22050SOL    HW169043   3.864   0.559  10.161  2.2866  1.3754  2.5758
22050SOL    HW269044   3.959   0.606  10.052 -0.9931 -0.3485 -1.3221
22051SOL     OW69045   8.861   5.598   6.052  0.7110 -0.3725 -0.6984
22051SOL    HW169046   8.768   5.612   6.068  0.8143 -0.7481  0.3197
22051SOL    HW269047   8.869   5.504   6.039  0.7821 -0.1958 -2.0247
22052SOL     OW69048   2.359   7.977   1.672  0.2652  0.6839 -0.1227
22052SOL    HW169049   2.313   7.895   1.655  1.0814  0.4122 -1.2283
22052SOL    HW269050   2.311   8.019   1.743 -1.1415  0.0245 -0.6647
22053SOL     OW69051   5.605   6.665   8.993 -0.1779  0.2438 -0.1947
22053SOL    HW169052   5.532   6.666   8.930 -0.2189 -1.2335 -0.2002
22053SOL    HW269053   5.599   6.750   9.037 -2.1639  0.0110  0.0971
22054SOL     OW69054   3.043   2.946   2.765  0.1156 -0.0829 -0.0558
22054SOL    HW169055   3.020   3.013   2.700  0.3671  1.6378  1.5416
22054SOL    HW269056   2.960   2.904   2.786 -0.5895  1.7255  0.9976
22055SOL     OW69057   2.167   1.345   4.556 -0.5787 -0.3639 -0.4874
22055SOL    HW169058   2.217   1.425   4.576 -0.8195 -0.3480  0.0802
22055SOL    HW269059   2.210   1.277   4.607 -0.0196 -0.7234 -1.4193
22056SOL     OW69060   8.706   1.874   2.899  0.0434 -0.3582 -0.2998
22056SOL    HW169061   8.655   1.801   2.865  0.8963 -0.4169 -1.5308
22056SOL    HW269062   8.797   1.846   2.891  0.4204  1.0613 -1.3993
22057SOL     OW69063   8.479   9.361  10.438 -0.4231  0.0915  0.1096
22057SOL    HW169064   8.432   9.375  10.356 -0.0982  1.4772  0.1300
22057SOL    HW269065   8.491   9.266  10.443 -0.4121 -0.0194 -1.4698
22058SOL     OW69066   4.936   7.254  10.365 -0.3530 -0.6299 -0.1874
22058SOL    HW169067   4.880   7.265  10.288 -0.7042 -0.2953  0.1167
22058SOL    HW269068   4.923   7.162  10.391  0.4009 -0.9924 -1.0131
22059SOL     OW69069  10.754   3.408   6.814  0.3452  0.3108 -0.0347
22059SOL    HW169070  10.691   3.348   6.853 -0.0598  0.5722 -0.2788
22059SOL    HW269071  10.815   3.428   6.884  0.1664  0.0426  0.1993
22060SOL     OW69072  10.487  10.745   4.140  0.2499 -0.7906 -0.1930
22060SOL    HW169073  10.395  10.766   4.149  0.5674  2.4416 -2.5567
22060SOL    HW269074  10.533  10.822   4.175  1.8343 -0.4966 -2.6462
22061SOL     OW69075   7.942   8.821   1.402 -0.1594  0.3631 -0.6671
22061SOL    HW169076   7.972   8.911   1.395 -0.7512  0.6657  0.4204
22061SOL    HW269077   7.897   8.804   1.320 -1.4687  1.6178 -0.2460
22062SOL     OW69078   3.797   6.626   6.385 -0.1032 -0.0318 -0.1925
22062SOL    HW169079   3.833   6.538   6.400  0.2735  0.0766 -0.4475
22062SOL    HW269080   3.766   6.654   6.471  1.2445  0.2338  0.2291
22063SOL     OW69081  10.623   5.424   9.440  0.1555  0.1728  0.5886
22063SOL    HW169082  10.719   5.422   9.432  0.0512 -1.9026 -1.2283
22063SOL    HW269083  10.592   5.437   9.350 -1.2540 -0.2980  0.9761
22064SOL     OW69084   3.073   2.994   2.099  0.4594  0.1679  0.2322
22064SOL    HW169085   3.119   2.910   2.090 -2.4724 -1.4543 -1.0296
22064SOL    HW269086   3.055   3.002   2.193 -0.3193 -1.3092  0.2385
22065SOL     OW69087   8.892   3.655   8.487  0.3883  0.0506 -0.1877
22065SOL    HW169088   8.942   3.691   8.413  0.0634  0.9593  0.0169
22065SOL    HW269089   8.872   3.565   8.461  0.1621  0.3973 -1.2645
22066SOL     OW69090   1.021  10.343   6.897  0.2239 -0.2969 -0.1110
22066SOL    HW169091   0.969  10.303   6.827 -0.6711 -0.5547  0.6877
22066SOL    HW269092   1.109  10.307   6.883  0.2902  0.3921 -1.6637
22067SOL     OW69093   4.348   1.815   9.899  0.5522  0.4306 -0.2449
22067SOL    HW169094   4.313   1.734   9.862  2.0628 -0.0934 -0.5818
22067SOL    HW269095   4.430   1.789   9.941  0.4253  1.5685  0.7668
22068SOL     OW69096  10.047   7.729   7.007  0.6967  0.3649 -0.1848
22068SOL    HW169097  10.136   7.698   7.025  0.4606 -0.8601 -0.9388
22068SOL    HW269098  10.059   7.799   6.942  1.1225  0.2551 -0.2316
22069SOL     OW69099   4.250   0.167   6.700 -0.0425  0.8786  0.0674
22069SOL    HW169100   4.157   0.165   6.721  0.2486  1.2421  1.4488
22069SOL    HW269101   4.253   0.155   6.605 -1.5230  1.4382 -0.0750
22070SOL     OW69102   8.889   9.533   7.208 -0.3837  0.1840  0.1114
22070SOL    HW169103   8.810   9.573   7.243  0.1292  0.1542  1.3755
22070SOL    HW269104   8.895   9.449   7.254  0.7592  0.5139  0.6177
22071SOL     OW69105   7.396   7.556   6.496 -0.5705  0.0269 -0.4384
22071SOL    HW169106   7.373   7.646   6.472 -0.5206 -0.0119 -0.6337
22071SOL    HW269107   7.486   7.562   6.528 -0.8032  0.1582  0.2066
22072SOL     OW69108   2.549   1.128   1.304  0.4747 -0.1160  0.3549
22072SOL    HW169109   2.477   1.081   1.348  0.0524  0.2552  0.0652
22072SOL    HW269110   2.614   1.060   1.285  0.4360 -0.3682  1.0938
22073SOL     OW69111   2.160   9.060   2.621  0.0759 -0.0994 -0.0110
22073SOL    HW169112   2.095   9.124   2.592  0.7349  1.4233  1.7514
22073SOL    HW269113   2.118   9.014   2.694  0.8330  0.6637  0.9208
22074SOL     OW69114   8.122   0.539   0.216 -0.2791 -0.0594  0.1865
22074SOL    HW169115   8.079   0.577   0.293  1.6842  2.0313  0.3546
22074SOL    HW269116   8.183   0.475   0.253  0.3285  0.6046  0.3423
22075SOL     OW69117   7.368   1.204   0.304 -0.1110  0.2541 -0.6328
22075SOL    HW169118   7.281   1.164   0.313  0.5850 -1.0421  1.0479
22075SOL    HW269119   7.355   1.295   0.329 -0.3954 -0.7524  3.6238
22076SOL     OW69120   8.952   5.547   2.404  0.4616  0.0179  0.2502
22076SOL    HW169121   9.020   5.616   2.406 -0.0511  0.5777 -0.9171
22076SOL    HW269122   8.968   5.500   2.323 -1.0021  0.6514 -0.4478
22077SOL     OW69123   1.014   6.224   2.540  0.2894 -0.6143  0.2870
22077SOL    HW169124   0.978   6.136   2.551  1.4343 -1.0066  1.0669
22077SOL    HW269125   0.972   6.277   2.608 -0.5104 -0.5053 -0.2761
22078SOL     OW69126   9.186  10.237  10.004  0.4400  0.1342 -0.4599
22078SOL    HW169127   9.214  10.228  10.095 -0.2269 -0.1655 -0.2785
22078SOL    HW269128   9.207  10.152   9.964  1.4964  0.5449 -0.8102
22079SOL     OW69129   9.889   3.294  10.547 -0.0803 -0.5476 -0.4008
22079SOL    HW169130   9.879   3.388  10.561 -0.1075 -0.4547 -1.0272
22079SOL    HW269131   9.801   3.263  10.528 -0.1224 -0.7566  0.1200
22080SOL     OW69132   6.841   4.317   8.565  0.0838  0.0217 -0.0796
22080SOL    HW169133   6.796   4.264   8.632 -1.6554 -1.4009 -2.2291
22080SOL    HW269134   6.829   4.407   8.594  1.6481 -0.6031  2.8326
22081SOL     OW69135   1.685   3.159   5.611  0.4798  0.3298  0.3455
22081SOL    HW169136   1.619   3.196   5.670 -0.7654 -0.7561 -0.3138
22081SOL    HW269137   1.737   3.235   5.584  3.0274  0.5948  4.9366
22082SOL     OW69138   6.309   1.579   3.879 -0.3398 -0.1366  0.4296
22082SOL    HW169139   6.294   1.652   3.939 -1.0162  1.1942 -1.2880
22082SOL    HW269140   6.380   1.608   3.823 -0.9219 -0.5794 -0.5716
22083SOL     OW69141   6.787   1.587   3.948 -0.1735 -0.2699 -0.5505
22083SOL    HW169142   6.758   1.677   3.962  0.2608 -0.3989  1.5019
22083SOL    HW269143   6.706   1.535   3.949 -0.4346  0.0838 -1.8621
22084SOL     OW69144   8.895   8.943   8.148 -0.3617 -0.0709  0.3563
22084SOL    HW169145   8.923   8.854   8.171 -1.8715 -0.2597  1.6326
22084SOL    HW269146   8.966   8.999   8.179 -0.1868 -0.7077  1.1520
22085SOL     OW69147   2.568   8.378   0.659  0.3215  0.1878  0.0838
22085SOL    HW169148   2.656   8.377   0.623 -0.8074  0.7313 -2.9296
22085SOL    HW269149   2.560   8.463   0.702  1.4999 -0.2357  1.2242
22086SOL     OW69150   8.675   3.872   8.261  0.2695 -0.1130  0.5176
22086SOL    HW169151   8.690   3.788   8.305  1.4424  0.1785  0.7221
22086SOL    HW269152   8.645   3.930   8.330  0.2399 -0.1523  0.5387
22087SOL     OW69153   4.260   9.740   4.798  0.3184  0.3796 -0.1791
22087SOL    HW169154   4.330   9.733   4.733 -0.0251  1.1224 -0.6380
22087SOL    HW269155   4.275   9.824   4.841  0.5468 -0.1057  0.7251
22088SOL     OW69156   5.603   9.220   6.243 -0.2530  0.1288  0.0828
22088SOL    HW169157   5.514   9.206   6.277  0.0927  0.2313  1.0624
22088SOL    HW269158   5.612   9.315   6.240 -0.1846  0.1174 -0.0526
22089SOL     OW69159   1.335   7.842   1.273 -0.1396 -0.6068 -0.0369
22089SOL    HW169160   1.351   7.926   1.316 -2.9117 -0.3897  0.7517
22089SOL    HW269161   1.328   7.778   1.344 -0.7020 -0.9963 -0.4251
22090SOL     OW69162   8.199   2.244   8.420  0.0465  0.2824 -0.5024
22090SOL    HW169163   8.165   2.309   8.359 -0.5757  1.7510  1.2964
22090SOL    HW269164   8.121   2.210   8.464  0.4895 -0.6335 -0.3970
22091SOL     OW69165   9.308   8.025   4.089  0.7475 -0.6695 -0.1104
22091SOL    HW169166   9.397   8.012   4.122  0.8098  0.6058  0.3044
22091SOL    HW269167   9.317   8.097   4.026  0.0846 -0.8217 -0.3840
22092SOL     OW69168   0.292   0.073   1.670  0.4785  0.2584 -0.4137
22092SOL    HW169169   0.355   0.072   1.743  0.4650 -1.8294 -0.3770
22092SOL    HW269170   0.313   0.154   1.622  3.0139 -0.1998 -0.2381
22093SOL     OW69171   3.662   5.131  10.739  0.3807  0.3043 -0.1142
22093SOL    HW169172   3.633   5.214  10.702  1.1649  0.2576 -0.8654
22093SOL    HW269173   3.719   5.094  10.672 -0.3424 -1.0753 -0.0048
22094SOL     OW69174   8.895   3.982   9.116  0.2104 -0.3535 -0.6164
22094SOL    HW169175   8.814   3.969   9.067 -0.4422  2.6327 -0.5268
22094SOL    HW269176   8.881   3.936   9.198 -2.1107  1.3598  0.0492
22095SOL     OW69177   9.431   4.058  10.346 -0.0906 -0.3968  0.9354
22095SOL    HW169178   9.503   3.999  10.321  2.0298  2.7989 -1.1931
22095SOL    HW269179   9.463   4.104  10.423  0.1519  0.9053  0.0950
22096SOL     OW69180   4.409   8.270   2.835  0.0935 -0.1395  0.5331
22096SOL    HW169181   4.374   8.201   2.891 -2.5889 -0.0201 -0.8563
22096SOL    HW269182   4.496   8.238   2.809 -0.4047 -2.2183  1.2465
22097SOL     OW69183   4.969   0.105   5.908  0.2445 -0.7615 -0.0305
22097SOL    HW169184   5.039   0.040   5.899 -1.0987 -2.1753 -0.7270
22097SOL    HW269185   4.891   0.054   5.931 -0.9447  0.5513 -0.9392
22098SOL     OW69186   8.361   3.676   3.159  0.2894  0.2686  0.2548
22098SOL    HW169187   8.397   3.747   3.105  0.5886  0.6920  0.9948
22098SOL    HW269188   8.323   3.615   3.096  2.4764 -0.3129 -0.6231
22099SOL     OW69189   2.445   5.377   7.607  0.1447 -0.4292 -0.7299
22099SOL    HW169190   2.535   5.369   7.638  0.3071  0.1754 -1.0450
22099SOL    HW269191   2.408   5.289   7.618 -0.5714  0.1955  3.4951
22100SOL     OW69192   8.627   0.648   5.641 -0.1633  0.1730  0.3793
22100SOL    HW169193   8.656   0.719   5.585  2.1825  0.8802  2.3284
22100SOL    HW269194   8.672   0.570   5.608 -1.7508 -0.2422 -0.9653
22101SOL     OW69195   9.476   0.256   9.093  0.0029 -0.1908  0.1815
22101SOL    HW169196   9.489   0.294   9.180 -0.0079  0.0728  0.0682
22101SOL    HW269197   9.518   0.317   9.033 -1.3761  0.4769 -0.1511
22102SOL     OW69198   1.109   6.184   9.788  0.0339 -0.9618 -0.2930
22102SOL    HW169199   1.137   6.212   9.700  1.6004 -0.5003  0.3160
22102SOL    HW269200   1.130   6.091   9.791 -0.8248 -1.1738 -0.6977
22103SOL     OW69201   3.007   2.310   4.392  0.0107 -0.2321 -0.4005
22103SOL    HW169202   2.932   2.310   4.451  0.6322 -0.0265  0.4075
22103SOL    HW269203   3.034   2.402   4.386  1.4724 -0.5296  0.9983
22104SOL     OW69204   7.364   5.300   5.249  0.3561  0.0517  0.3488
22104SOL    HW169205   7.357   5.335   5.160  1.6458 -0.2507  0.1116
22104SOL    HW269206   7.457   5.282   5.261  0.2223  0.2099  1.8210
22105SOL     OW69207   4.532   1.130   0.733 -0.0578  0.0584  0.3532
22105SOL    HW169208   4.449   1.082   0.729 -0.7379  1.0875  1.4260
22105SOL    HW269209   4.519   1.195   0.802  0.4626  2.4773 -1.6822
22106SOL     OW69210   3.906   8.433   2.703  0.2916  0.0644  0.5359
22106SOL    HW169211   3.837   8.376   2.668  0.9658 -1.1105  1.0434
22106SOL    HW269212   3.859   8.502   2.748 -0.5657  0.2628 -0.6054
22107SOL     OW69213   0.506   9.316   2.357  0.0775 -0.0194  0.1535
22107SOL    HW169214   0.523   9.221   2.354 -0.8360 -0.2128  0.5811
22107SOL    HW269215   0.528   9.341   2.447  2.1693  0.5805 -0.4618
22108SOL     OW69216   2.725   5.152   5.956  0.0838 -0.2452  0.5273
22108SOL    HW169217   2.662   5.209   5.999 -0.5400 -0.9954  0.6205
22108SOL    HW269218   2.741   5.193   5.871 -2.6364 -1.4441 -0.6578
22109SOL     OW69219  10.621   7.613   7.414  0.2660 -0.0290  0.6615
22109SOL    HW169220  10.589   7.560   7.487  1.1457  0.1479  1.1922
22109SOL    HW269221  10.634   7.550   7.343 -3.4370  0.1706 -0.4264
22110SOL     OW69222   7.398   1.746   8.715  0.4007 -0.2111  0.3065
22110SOL    HW169223   7.465   1.813   8.705  1.1419 -1.1211 -1.2595
22110SOL    HW269224   7.316   1.791   8.697  0.7446  0.5504  0.5934
22111SOL     OW69225   4.789   0.383   4.819 -0.2618  0.3527 -0.1076
22111SOL    HW169226   4.874   0.395   4.777  1.0691 -2.0495  1.6245
22111SOL    HW269227   4.735   0.338   4.754  0.4402  0.1716 -0.5739
22112SOL     OW69228   2.870   7.700   1.216  0.1340 -0.4128 -0.1535
22112SOL    HW169229   2.951   7.650   1.207  1.5453  1.4481  1.4659
22112SOL    HW269230   2.825   7.660   1.291  0.2677 -0.5351 -0.1394
22113SOL     OW69231   8.845   5.939   1.825  0.3276 -0.1011  0.1497
22113SOL    HW169232   8.809   6.018   1.785 -0.2076 -0.6217 -0.4252
22113SOL    HW269233   8.818   5.944   1.917  1.3193  0.9616  0.4079
22114SOL     OW69234   3.707   9.491   2.835 -0.0678 -0.0309  0.1152
22114SOL    HW169235   3.650   9.567   2.829  1.2200  0.8664 -2.2596
22114SOL    HW269236   3.760   9.494   2.754 -1.4790 -4.6873 -1.3268
22115SOL     OW69237   1.516   3.778   6.717  0.0519  0.1005  0.0829
22115SOL    HW169238   1.480   3.790   6.628  1.4415 -0.9964 -0.6692
22115SOL    HW269239   1.594   3.724   6.704 -0.4363 -1.1828  2.1322
22116SOL     OW69240   8.401   5.176   6.770  0.7383 -0.5675 -0.0377
22116SOL    HW169241   8.371   5.264   6.791 -2.9460 -1.5352 -0.5750
22116SOL    HW269242   8.423   5.180   6.677 -1.7225 -0.6434 -0.6907
22117SOL     OW69243   9.187   3.034   3.603  0.4059  0.3909  0.4813
22117SOL    HW169244   9.265   3.007   3.652  0.9774 -0.8110 -1.0060
22117SOL    HW269245   9.142   2.953   3.583 -0.1738  0.9136 -0.3867
22118SOL     OW69246   3.545   9.991   2.407  0.0015 -0.0721  0.2409
22118SOL    HW169247   3.457  10.012   2.374 -0.4657 -0.0189  1.4654
22118SOL    HW269248   3.603  10.047   2.356 -0.8399  1.1591  0.5815
22119SOL     OW69249   5.106   6.619   9.642 -0.2038  0.2373 -0.0448
22119SOL    HW169250   5.122   6.692   9.703  0.5280 -1.1149  1.4523
22119SOL    HW269251   5.186   6.613   9.590 -1.0590  1.7843 -1.6580
22120SOL     OW69252   8.515   4.635   8.713  0.0868 -0.2522  0.1010
22120SOL    HW169253   8.499   4.712   8.767 -0.2388 -0.0959 -0.2108
22120SOL    HW269254   8.436   4.626   8.660 -0.0651 -1.0753  0.4598
22121SOL     OW69255   3.327   8.586  10.333 -0.5095 -0.2278 -0.1706
22121SOL    HW169256   3.382   8.660  10.359 -1.2095  0.6541 -1.1134
22121SOL    HW269257   3.268   8.623  10.267  0.1974 -2.0105 -1.8826
22122SOL     OW69258   0.031   2.184  10.774  0.1921  0.7775 -0.0508
22122SOL    HW169259  -0.001   2.132  10.848 -1.0829  0.4981 -0.7766
22122SOL    HW269260  -0.008   2.143  10.697  1.9293  0.7362 -0.9522
22123SOL     OW69261  10.439   2.935   4.460  0.0033  0.0985  0.3301
22123SOL    HW169262  10.359   2.883   4.463 -0.5182  0.8813  0.3452
22123SOL    HW269263  10.424   3.006   4.522  0.5149  0.5247 -0.0215
22124SOL     OW69264   1.950   8.325   5.913  0.0910 -0.1442 -0.2790
22124SOL    HW169265   1.922   8.353   5.826  1.6392  0.6289 -0.5557
22124SOL    HW269266   2.041   8.354   5.920 -0.2924  0.7217  1.9795
22125SOL     OW69267   8.724   8.070   7.989  0.1136 -0.2706 -0.7503
22125SOL    HW169268   8.705   8.111   8.073  0.4958  1.0886 -1.3090
22125SOL    HW269269   8.680   7.985   7.994  0.4576 -0.3962  0.9676
22126SOL     OW69270   8.860   8.301  10.369  0.4943 -0.0759 -0.5756
22126SOL    HW169271   8.937   8.317  10.424  0.4592  1.9426 -1.0227
22126SOL    HW269272   8.785   8.318  10.427  0.3806 -0.9645 -0.4425
22127SOL     OW69273   1.792   4.385   3.143 -0.4114 -0.0645 -0.2658
22127SOL    HW169274   1.783   4.346   3.230  0.5720 -0.3175 -0.2651
22127SOL    HW269275   1.815   4.312   3.086  1.1790  0.4310 -0.3162
22128SOL     OW69276   3.793   7.275   8.165 -0.0225 -0.6352 -0.0803
22128SOL    HW169277   3.776   7.260   8.072 -1.6574 -1.3453  0.3077
22128SOL    HW269278   3.888   7.269   8.173  0.2708  0.6296 -1.8897
22129SOL     OW69279   5.777   1.028   9.958 -0.1795  0.3565 -0.5915
22129SOL    HW169280   5.726   0.951   9.981 -0.9101  0.9274 -0.2451
22129SOL    HW269281   5.810   1.061  10.042 -0.7034  0.9792 -0.6250
22130SOL     OW69282   4.183   3.097   4.403  0.1207  0.6129  0.4122
22130SOL    HW169283   4.196   3.003   4.400 -1.8939  0.3133 -1.2677
22130SOL    HW269284   4.166   3.122   4.312 -3.0379  1.9528  1.2475
22131SOL     OW69285   1.945   5.946   4.169 -0.2226  0.6080 -0.8279
22131SOL    HW169286   1.916   5.885   4.101  2.4371 -0.7828 -0.8356
22131SOL    HW269287   1.870   5.953   4.228 -0.8004 -2.3762 -1.0576
22132SOL     OW69288   7.731   5.218   9.041  0.4839  0.3161  0.8190
22132SOL    HW169289   7.690   5.183   9.121 -0.4013  1.8160  1.0557
22132SOL    HW269290   7.689   5.168   8.970 -0.1990  0.3436  1.1852
22133SOL     OW69291   1.056   5.385   0.530 -1.0539 -0.6055 -0.2601
22133SOL    HW169292   1.032   5.303   0.488  0.2051 -2.2865  2.1203
22133SOL    HW269293   1.075   5.362   0.620 -1.6105  2.4891  0.7862
22134SOL     OW69294   4.438   3.978   6.566 -0.3051  0.0391  0.6282
22134SOL    HW169295   4.485   4.035   6.627 -0.0630 -0.0311  0.5123
22134SOL    HW269296   4.500   3.907   6.548 -0.0551  0.4813 -0.3238
22135SOL     OW69297   1.160   3.999   9.191 -0.0630 -0.5114 -0.1251
22135SOL    HW169298   1.115   4.072   9.233  0.9394  0.5856 -0.8859
22135SOL    HW269299   1.097   3.927   9.194 -0.3680 -0.2370  2.3979
22136SOL     OW69300   1.314   6.875   1.806 -0.2504 -0.1666 -0.0037
22136SOL    HW169301   1.274   6.869   1.893  1.3169  1.7603  0.9179
22136SOL    HW269302   1.268   6.947   1.763 -0.0583 -0.1912 -0.2513
22137SOL     OW69303   0.379   8.741   0.890 -0.6478 -0.2081  0.0696
22137SOL    HW169304   0.315   8.764   0.957 -0.5075  1.0079 -0.1835
22137SOL    HW269305   0.327   8.698   0.822 -1.0543 -0.0262  0.2562
22138SOL     OW69306   1.921   5.317   8.076 -0.0981  0.4141 -0.9081
22138SOL    HW169307   1.862   5.391   8.092  0.5441  0.6349  0.6180
22138SOL    HW269308   1.890   5.279   7.994 -2.4581  0.4204 -0.0891
22139SOL     OW69309   0.359   2.683   6.110  1.2086  0.2423  0.4787
22139SOL    HW169310   0.378   2.766   6.154 -1.6605  1.5816 -0.5401
22139SOL    HW269311   0.323   2.627   6.178  0.9163  0.7276  0.7277
22140SOL     OW69312   6.879   0.992   1.274 -0.1592  0.0517 -0.2612
22140SOL    HW169313   6.927   1.072   1.294 -1.7170  1.0629 -0.3408
22140SOL    HW269314   6.911   0.927   1.338 -0.1903  1.2820  1.0556
22141SOL     OW69315   1.854   7.812   7.814 -0.6117 -0.0782  0.2688
22141SOL    HW169316   1.879   7.872   7.885  1.1150 -2.1038  1.4905
22141SOL    HW269317   1.811   7.868   7.749 -1.1488  2.0727  2.3328
22142SOL     OW69318   0.732  10.680   2.220 -0.0076 -0.4419  0.2245
22142SOL    HW169319   0.734  10.621   2.295  0.0474  0.8404  1.2621
22142SOL    HW269320   0.800  10.745   2.239 -0.2344  0.1005 -0.7634
22143SOL     OW69321   9.597   9.551   4.944  0.1732  0.2639 -0.4966
22143SOL    HW169322   9.644   9.485   4.893  0.4354 -0.7864  1.0455
22143SOL    HW269323   9.518   9.507   4.973 -2.1823  2.1288 -3.4278
22144SOL     OW69324  10.698   6.938   8.617 -0.6976 -0.0396  0.4776
22144SOL    HW169325  10.672   7.022   8.578  2.3478  0.3048 -1.0882
22144SOL    HW269326  10.735   6.962   8.703 -0.7802  0.0813  0.4799
22145SOL     OW69327   5.262   9.925   7.936  0.0944  0.1942 -0.1015
22145SOL    HW169328   5.216   9.860   7.883  1.3186 -0.9263  0.1649
22145SOL    HW269329   5.249   9.896   8.026  1.9277 -0.6049 -0.0505
22146SOL     OW69330   0.394   5.166   6.824  0.6797  0.2818 -0.3254
22146SOL    HW169331   0.446   5.179   6.744  2.1713 -0.2032  0.5389
22146SOL    HW269332   0.382   5.072   6.829 -0.0207  0.3682 -0.3418
22147SOL     OW69333   0.091   4.455   9.677 -0.2529  0.0064 -0.3982
22147SOL    HW169334   0.173   4.500   9.700  0.5799 -1.6922  0.0943
22147SOL    HW269335   0.023   4.521   9.692  0.8811  1.0072  0.6223
22148SOL     OW69336   1.372   1.948   1.741  0.1583  0.0905  0.3740
22148SOL    HW169337   1.459   1.983   1.755 -0.0173 -0.4547  3.4957
22148SOL    HW269338   1.385   1.853   1.736 -0.3530 -0.2527  3.4230
22149SOL     OW69339   1.953   5.025   4.198  0.1155  0.0327  0.4678
22149SOL    HW169340   1.971   5.044   4.106  2.2584  1.3520  1.0660
22149SOL    HW269341   1.898   5.098   4.227  1.2559  0.8347  0.7060
22150SOL     OW69342   1.095  10.223  10.504 -0.1983  0.2374  0.1144
22150SOL    HW169343   1.072  10.269  10.423 -0.3832  1.2240  0.7055
22150SOL    HW269344   1.070  10.132  10.487 -0.7914  0.5345 -0.7241
22151SOL     OW69345   1.841   6.536   4.357 -0.1342 -0.0792 -0.8394
22151SOL    HW169346   1.882   6.588   4.426 -1.3807  1.2296 -1.0494
22151SOL    HW269347   1.903   6.465   4.341  0.4889 -0.0365  1.1490
22152SOL     OW69348   1.766   4.483   4.563 -0.1440 -0.0568 -0.3430
22152SOL    HW169349   1.730   4.405   4.604  0.4919 -0.2195 -0.0931
22152SOL    HW269350   1.778   4.545   4.634  0.1777 -0.0416 -0.4107
22153SOL     OW69351   4.729   5.444   6.772  0.3476 -0.3051 -0.2075
22153SOL    HW169352   4.820   5.472   6.767 -0.2869  1.8829 -0.5757
22153SOL    HW269353   4.709   5.411   6.684  1.0569 -1.8882  0.1834
22154SOL     OW69354   3.323   6.154  10.594 -0.4267  0.3797 -0.1701
22154SOL    HW169355   3.344   6.102  10.671 -4.0785 -0.5017  0.3894
22154SOL    HW269356   3.331   6.093  10.521 -0.7266  0.1533 -0.0159
22155SOL     OW69357   7.335   2.493   5.022  0.3525 -0.0712 -0.3591
22155SOL    HW169358   7.380   2.528   4.945 -0.8224  1.3837 -0.4159
22155SOL    HW269359   7.326   2.567   5.081 -0.6839 -0.6577  0.2617
22156SOL     OW69360  10.237   8.939   4.954  0.3660 -0.2384 -0.4086
22156SOL    HW169361  10.315   8.955   4.900  0.5623 -0.8798 -0.3287
22156SOL    HW269362  10.165   8.934   4.891  0.6559 -1.3933 -0.6673
22157SOL     OW69363   8.313   1.097   5.471  0.3008 -0.4626  0.0501
22157SOL    HW169364   8.218   1.092   5.475  0.3707 -1.4242  1.0298
22157SOL    HW269365   8.343   1.023   5.525  1.5936  1.3211  1.9458
22158SOL     OW69366   6.589   9.308   6.167 -0.2355 -0.2360 -0.3862
22158SOL    HW169367   6.533   9.378   6.200  0.8071  1.6816 -2.4113
22158SOL    HW269368   6.605   9.331   6.075  0.3995 -3.0059 -1.0723
22159SOL     OW69369   2.349   3.879   7.715  0.3708 -0.3507  0.2602
22159SOL    HW169370   2.351   3.857   7.808  0.3833 -1.7380 -0.0589
22159SOL    HW269371   2.331   3.797   7.670  1.6286  0.0450 -1.0559
22160SOL     OW69372   1.574   9.313  10.016  0.2238 -0.0675 -0.3780
22160SOL    HW169373   1.641   9.365   9.973 -0.6502  1.1169 -0.3670
22160SOL    HW269374   1.501   9.311   9.954 -0.3446  0.0639  0.2773
22161SOL     OW69375   1.402  10.063   5.638 -0.0878 -0.3901  0.3894
22161SOL    HW169376   1.462  10.128   5.603 -0.9099  0.0538 -0.2242
22161SOL    HW269377   1.322  10.111   5.658  0.1717 -0.7129  2.4686
22162SOL     OW69378   8.876   2.855   0.197  0.6129  0.6147  0.3563
22162SOL    HW169379   8.903   2.858   0.106  0.1398 -0.3328  0.1723
22162SOL    HW269380   8.882   2.763   0.222  0.0717  0.7562  1.0730
22163SOL     OW69381  10.454   0.853   5.157  0.3905 -0.1248  0.2274
22163SOL    HW169382  10.487   0.893   5.077  0.2747 -1.2841 -0.4288
22163SOL    HW269383  10.359   0.853   5.147  0.4152 -1.7096 -0.4122
22164SOL     OW69384   4.066   7.749   5.798 -0.0289 -0.1475  0.0557
22164SOL    HW169385   4.159   7.734   5.814 -0.1994 -0.2129  1.0384
22164SOL    HW269386   4.027   7.756   5.885 -0.6533  1.7941 -0.3339
22165SOL     OW69387   4.279   4.263   1.169  0.8492  0.1585 -0.4895
22165SOL    HW169388   4.336   4.330   1.208  1.4488 -0.0921 -0.9192
22165SOL    HW269389   4.314   4.180   1.202  0.6413  0.0142 -0.6374
22166SOL     OW69390   9.510   3.702  10.488  0.0975  0.4917  0.0904
22166SOL    HW169391   9.452   3.767  10.528  0.3166  0.1671  0.9478
22166SOL    HW269392   9.484   3.619  10.527  0.5623  0.2190 -0.1717
22167SOL     OW69393   0.295  10.004   3.862  0.3041 -0.3730 -0.0253
22167SOL    HW169394   0.213  10.050   3.844  0.4358  1.3435  3.1108
22167SOL    HW269395   0.268   9.915   3.887 -0.7704  0.4444  1.9347
22168SOL     OW69396   7.863   4.250   4.429 -0.8925  0.2075  0.4757
22168SOL    HW169397   7.892   4.205   4.350 -0.7519  1.4524 -0.1984
22168SOL    HW269398   7.768   4.253   4.421 -0.7439  2.9593 -1.1696
22169SOL     OW69399   6.777   8.408   9.145 -0.3947 -0.0390 -0.3287
22169SOL    HW169400   6.723   8.335   9.114  0.5784 -1.8116  1.8641
22169SOL    HW269401   6.727   8.447   9.216  0.9425 -1.5470  1.5657
22170SOL     OW69402   1.695   4.376   5.466  0.2814 -0.3700  0.8053
22170SOL    HW169403   1.737   4.415   5.389  1.8565 -3.0490  0.1645
22170SOL    HW269404   1.602   4.396   5.455  0.7899  1.7043 -0.2673
22171SOL     OW69405   4.064  10.431   8.919  0.2883 -0.0620 -0.0802
22171SOL    HW169406   4.011  10.495   8.872  1.6765  0.5836 -0.8293
22171SOL    HW269407   4.128  10.483   8.966  1.0892 -0.8671 -0.2537
22172SOL     OW69408   7.123   4.113  10.253 -1.0601 -0.4999  0.0088
22172SOL    HW169409   7.040   4.065  10.254 -1.7159  0.5032 -1.8819
22172SOL    HW269410   7.119   4.170  10.330 -1.5740 -1.2947  0.5903
22173SOL     OW69411   1.166   5.681   2.199  0.1240 -0.0400 -0.2200
22173SOL    HW169412   1.192   5.721   2.116 -3.0766 -0.6441 -1.6655
22173SOL    HW269413   1.104   5.744   2.237  0.6977 -0.2955  1.2011
22174SOL     OW69414  10.362   5.879   9.858  0.2958 -0.2638 -0.3737
22174SOL    HW169415  10.439   5.925   9.825 -1.5437  2.3637 -1.3253
22174SOL    HW269416  10.307   5.864   9.781 -0.9423 -0.4815  0.5115
22175SOL     OW69417   8.951  10.150   3.797 -0.0784  0.6301  0.3053
22175SOL    HW169418   8.932  10.091   3.724 -1.3067  1.3688  0.0061
22175SOL    HW269419   9.012  10.214   3.760  0.6799  0.0050  0.4327
22176SOL     OW69420   7.871   4.863   4.850  0.2549  0.3162 -0.2402
22176SOL    HW169421   7.858   4.774   4.882  0.4804  1.0610  2.0937
22176SOL    HW269422   7.799   4.878   4.789 -1.6443 -0.4408  1.7011
22177SOL     OW69423   8.803   2.376   6.673 -0.6945 -0.0002 -0.4469
22177SOL    HW169424   8.727   2.393   6.618  0.1580 -0.3345 -1.7651
22177SOL    HW269425   8.847   2.302   6.631  0.5697  0.4404  0.0627
22178SOL     OW69426   8.454   5.579   9.120 -0.7128 -0.1810 -0.0240
22178SOL    HW169427   8.447   5.603   9.212 -0.1844 -0.6187  0.1389
22178SOL    HW269428   8.491   5.490   9.121  1.4225  0.6315 -0.6824
22179SOL     OW69429   8.826   2.107   5.811  0.1105 -0.2893  0.6045
22179SOL    HW169430   8.833   2.139   5.901 -2.6805 -0.5545  0.9919
22179SOL    HW269431   8.739   2.068   5.806  0.3527 -0.6553 -2.1292
22180SOL     OW69432   1.600   3.790   6.128 -0.2285  0.3156  0.5504
22180SOL    HW169433   1.577   3.882   6.116  0.0175  0.2958 -0.0949
22180SOL    HW269434   1.532   3.742   6.079  0.4898  0.2131 -0.3690
22181SOL     OW69435   2.124   1.279   7.274  0.1040  0.0903  0.1322
22181SOL    HW169436   2.192   1.213   7.290 -0.1081 -0.5979 -1.5644
22181SOL    HW269437   2.153   1.355   7.324  1.8680 -0.3686 -0.1113
22182SOL     OW69438   7.888   3.725   5.142 -0.0702 -0.9967  0.2015
22182SOL    HW169439   7.828   3.741   5.214 -1.0647 -0.4835 -0.7262
22182SOL    HW269440   7.889   3.629   5.132  0.0725 -1.0678  0.8840
22183SOL     OW69441   7.488   7.951   2.694  0.4722 -0.0539  0.4694
22183SOL    HW169442   7.549   7.886   2.731  2.9259  0.8187 -1.6777
22183SOL    HW269443   7.497   7.940   2.599 -0.7250  1.9561  0.0705
22184SOL     OW69444   0.241   3.584   8.516 -0.0131  0.0092  0.0271
22184SOL    HW169445   0.266   3.660   8.462  0.1032 -0.6106 -0.8169
22184SOL    HW269446   0.287   3.511   8.476 -1.1655 -0.7359  0.0258
22185SOL     OW69447   4.532   9.083   3.414  0.8239 -0.1507 -0.5759
22185SOL    HW169448   4.483   9.085   3.496 -0.8299 -0.3336 -1.5033
22185SOL    HW269449   4.531   9.174   3.383  0.7529 -0.2181 -0.7753
22186SOL     OW69450   7.753   2.691   9.344  0.4396 -0.3220  0.1017
22186SOL    HW169451   7.692   2.633   9.389  0.8487 -0.3972  0.5688
22186SOL    HW269452   7.700   2.766   9.317 -0.7522 -2.0454 -2.9010
22187SOL     OW69453   7.517   4.107   8.957  0.1308 -0.1695  0.0484
22187SOL    HW169454   7.583   4.071   8.898  0.1637  0.0075 -0.0222
22187SOL    HW269455   7.434   4.086   8.915  0.0575 -1.8655  0.9394
22188SOL     OW69456   6.773   8.944  10.051  0.3187  0.0150  0.7806
22188SOL    HW169457   6.747   8.855  10.026 -1.3419  0.6283  0.2187
22188SOL    HW269458   6.691   8.994  10.052  1.4350  2.0055 -0.7969
22189SOL     OW69459   3.773   0.429   0.414  0.2283 -0.0963  0.1525
22189SOL    HW169460   3.809   0.473   0.492  1.8341  1.2618 -1.2756
22189SOL    HW269461   3.743   0.500   0.358 -4.7375 -1.1112  1.0837
22190SOL     OW69462   5.651  10.697   9.866  0.1193  0.3935 -0.3323
22190SOL    HW169463   5.694  10.679   9.949 -0.7580  0.5299  0.1701
22190SOL    HW269464   5.560  10.669   9.880 -0.3554  1.6424 -0.8019
22191SOL     OW69465   1.952   8.662   9.548 -0.4768 -0.3190 -0.1876
22191SOL    HW169466   1.862   8.630   9.554 -0.2067 -1.0446  0.1548
22191SOL    HW269467   1.946   8.755   9.570 -1.3430 -0.0061 -1.6179
22192SOL     OW69468   2.384   7.805   3.790  0.5667 -0.3979 -0.1222
22192SOL    HW169469   2.381   7.900   3.799 -1.2146 -0.2559 -1.5699
22192SOL    HW269470   2.416   7.790   3.701  0.1427 -1.1254 -0.1609
22193SOL     OW69471   7.271   5.295   3.744 -0.3407 -0.7103  0.2465
22193SOL    HW169472   7.254   5.337   3.659  1.0758  0.4905  0.5037
22193SOL    HW269473   7.222   5.348   3.807  1.0001  0.3054  0.5011
22194SOL     OW69474   9.806   1.656   5.157  0.3233 -0.2086  0.4956
22194SOL    HW169475   9.770   1.613   5.235 -0.3333 -1.6361 -0.5354
22194SOL    HW269476   9.734   1.712   5.126  1.0452  1.4214  1.6210
22195SOL     OW69477   6.725   7.310   0.015  0.2166  0.1588 -1.0040
22195SOL    HW169478   6.644   7.360   0.023  0.1006 -0.2920  2.4026
22195SOL    HW269479   6.706   7.225   0.055  2.1640 -0.2187 -0.7364
22196SOL     OW69480   4.882   0.547  10.299  0.4528  0.3182  0.0371
22196SOL    HW169481   4.942   0.509  10.235 -0.2247 -1.2435  0.2911
22196SOL    HW269482   4.924   0.530  10.384 -0.7678 -1.7125  0.2949
22197SOL     OW69483   9.251   5.036   0.360  0.0032  0.2867  0.0972
22197SOL    HW169484   9.326   4.991   0.399 -1.0170 -2.9231 -1.2891
22197SOL    HW269485   9.237   4.990   0.277 -3.9192  0.2302  0.6293
22198SOL     OW69486   8.635  10.491   2.374 -0.5316 -0.1703 -0.4238
22198SOL    HW169487   8.592  10.576   2.368 -0.0487  0.1805  0.7598
22198SOL    HW269488   8.580  10.440   2.433 -1.0973 -0.8825 -1.5195
22199SOL     OW69489   2.966   8.394   7.728  0.3193  0.1695 -0.1492
22199SOL    HW169490   3.000   8.352   7.807 -0.5875 -1.3991 -0.5391
22199SOL    HW269491   2.911   8.327   7.687 -2.1638  2.1183 -0.2406
22200SOL     OW69492   7.639   5.032   9.220  0.2406  0.2022 -0.0124
22200SOL    HW169493   7.645   5.094   9.293 -0.6351  0.9635 -0.5770
22200SOL    HW269494   7.546   5.013   9.212  0.1928  1.0473 -1.6930
22201SOL     OW69495   7.750   6.512   0.317 -0.2053 -0.3407  0.2683
22201SOL    HW169496   7.789   6.546   0.397 -0.0710  1.5799 -0.5757
22201SOL    HW269497   7.664   6.479   0.345  0.0163 -0.1077  1.2627
22202SOL     OW69498   2.880   4.552   9.765  0.1712 -0.5092 -0.0602
22202SOL    HW169499   2.945   4.595   9.820 -0.1233 -0.1877  0.0424
22202SOL    HW269500   2.812   4.619   9.752 -1.4944 -1.6657  2.0746
22203SOL     OW69501   8.894   7.341   3.204 -0.2421  0.2474 -0.1818
22203SOL    HW169502   8.951   7.353   3.280 -1.1114 -0.4883  0.6124
22203SOL    HW269503   8.894   7.247   3.188 -0.4171  0.3504 -0.8192
22204SOL     OW69504   5.849   5.513   2.500  0.0550  0.0061  0.0780
22204SOL    HW169505   5.908   5.449   2.460 -0.9973 -0.1332 -1.3225
22204SOL    HW269506   5.903   5.559   2.564  1.5403 -0.4751 -0.7905
22205SOL     OW69507   4.093   0.259   9.511  0.5955  0.1942 -0.3222
22205SOL    HW169508   4.054   0.340   9.478 -0.3760 -0.2705 -0.3606
22205SOL    HW269509   4.157   0.288   9.576  0.7961  1.0144 -0.8610
22206SOL     OW69510   9.441  10.329   9.902  0.2473 -0.2478 -0.0178
22206SOL    HW169511   9.349  10.320   9.926  0.1215  1.4997  0.3328
22206SOL    HW269512   9.452  10.273   9.826 -0.6054 -2.0142  1.0942
22207SOL     OW69513   2.401   3.129   6.929 -0.0173 -0.2948 -0.5502
22207SOL    HW169514   2.359   3.204   6.887 -0.1726 -0.1201 -0.0906
22207SOL    HW269515   2.438   3.078   6.857  0.1500  0.2578 -0.8568
22208SOL     OW69516   3.290   7.701   8.439 -0.0438  0.3421 -0.3876
22208SOL    HW169517   3.295   7.605   8.444 -1.0920  0.2943 -0.1847
22208SOL    HW269518   3.201   7.719   8.409 -0.6303  1.3008  1.7310
22209SOL     OW69519   0.189   4.844   2.556  0.2208  0.4702  0.2226
22209SOL    HW169520   0.179   4.937   2.576 -2.0413  0.2977  0.0478
22209SOL    HW269521   0.101   4.813   2.538  0.8837 -1.8142  0.6065
22210SOL     OW69522   6.307   1.134   4.156  0.0913  0.6515  0.1211
22210SOL    HW169523   6.277   1.208   4.102 -0.5504  0.6388  0.4490
22210SOL    HW269524   6.356   1.079   4.095 -1.5616  0.0607 -0.7575
22211SOL     OW69525   1.389   3.386   3.367  0.1502 -0.2299 -0.3009
22211SOL    HW169526   1.452   3.451   3.334 -0.6822  1.6886  1.6184
22211SOL    HW269527   1.306   3.433   3.369 -0.4199 -1.2401  1.5017
22212SOL     OW69528   5.272   2.145  10.342  0.2325  0.3342 -0.1334
22212SOL    HW169529   5.317   2.214  10.391 -1.4760  1.4166 -0.0279
22212SOL    HW269530   5.255   2.077  10.407 -0.1767  0.8559  0.3120
22213SOL     OW69531   5.785   5.998   7.485 -0.0986 -0.0453  0.4639
22213SOL    HW169532   5.741   5.950   7.415  1.6133  1.3372 -1.6826
22213SOL    HW269533   5.873   5.958   7.490 -0.0714  0.1142  1.6017
22214SOL     OW69534   3.709   2.513   2.016 -0.2746  0.5617 -0.4510
22214SOL    HW169535   3.737   2.472   1.934  0.0376  1.5587 -0.8487
22214SOL    HW269536   3.619   2.482   2.028  0.5365 -1.7340  0.2338
22215SOL     OW69537   2.320   2.546   3.149 -0.2193 -0.2198  0.2447
22215SOL    HW169538   2.246   2.536   3.208 -0.5373 -0.2365 -0.1572
22215SOL    HW269539   2.297   2.621   3.094  0.2394  0.0305  0.3859
22216SOL     OW69540   4.034   5.474   0.934  0.3386  0.3268  0.1421
22216SOL    HW169541   4.003   5.544   0.876 -0.6973 -1.4831 -1.6000
22216SOL    HW269542   4.126   5.462   0.908  0.0688 -0.0189 -0.6894
22217SOL     OW69543   4.147   8.400   7.649  0.2289  0.3509 -0.0079
22217SOL    HW169544   4.162   8.324   7.593 -1.5244  0.4958 -0.7442
22217SOL    HW269545   4.094   8.367   7.721  0.2866  0.6749  0.1860
22218SOL     OW69546   5.236   2.150   8.928  1.0348 -0.1561 -0.4074
22218SOL    HW169547   5.322   2.126   8.962  1.4333  0.6769 -0.7997
22218SOL    HW269548   5.233   2.114   8.840  0.6696 -0.8413 -0.1264
22219SOL     OW69549   2.682   7.420   7.276 -0.2379 -0.7976  0.1274
22219SOL    HW169550   2.772   7.395   7.255 -0.2120 -0.5479 -0.0495
22219SOL    HW269551   2.689   7.507   7.315 -0.6673  0.4743 -2.4627
22220SOL     OW69552   3.279   1.401   3.332  0.0608 -0.4291  0.5997
22220SOL    HW169553   3.330   1.348   3.394  2.3076 -0.1934 -0.9621
22220SOL    HW269554   3.207   1.343   3.306  0.8732 -1.6959  1.0472
22221SOL     OW69555   8.969  10.779  10.097  0.6073 -0.5935  0.0981
22221SOL    HW169556   8.989  10.720  10.024  0.9383  0.2983 -0.5567
22221SOL    HW269557   9.010  10.862  10.072  0.7078 -0.2640  1.2956
22222SOL     OW69558   2.549   6.639   7.806 -0.2714  0.2684 -0.6822
22222SOL    HW169559   2.627   6.614   7.755  0.1161 -0.5607  0.2796
22222SOL    HW269560   2.580   6.709   7.864 -0.2137 -0.1220 -0.2373
22223SOL     OW69561   0.747   6.705   4.194  0.0267 -0.1665 -0.2188
22223SOL    HW169562   0.842   6.694   4.199  0.1159  0.1161 -1.1125
22223SOL    HW269563   0.717   6.630   4.142 -0.2978 -0.5159  0.4656
22224SOL     OW69564   6.914   6.121   3.296 -0.2572 -0.2042 -0.0311
22224SOL    HW169565   6.872   6.054   3.349  0.2796 -0.5919 -0.0932
22224SOL    HW269566   6.913   6.086   3.207 -1.8189  0.7542 -0.4338
22225SOL     OW69567   6.843   2.822   3.000  0.1432  0.0219 -0.5702
22225SOL    HW169568   6.897   2.893   3.034 -1.4373  0.5134  1.0793
22225SOL    HW269569   6.813   2.853   2.914  1.2926  0.3403 -0.8737
22226SOL     OW69570   1.519   5.861  10.058  0.1226 -0.2754 -0.5259
22226SOL    HW169571   1.519   5.897   9.970 -2.9683 -1.1960 -1.0177
22226SOL    HW269572   1.500   5.935  10.115  0.9244  0.1007 -0.7331
22227SOL     OW69573  10.562  10.503   2.065 -0.2233  0.6953 -0.6830
22227SOL    HW169574  10.608  10.421   2.084 -0.2750  0.9481  0.6076
22227SOL    HW269575  10.471  10.485   2.087  0.0914  1.7151  1.7657
22228SOL     OW69576   7.959   5.173   5.542 -0.0446  0.2278 -0.3838
22228SOL    HW169577   7.970   5.187   5.635 -1.6592  1.4546 -0.3339
22228SOL    HW269578   7.970   5.079   5.530  1.3984  0.2102  0.8192
22229SOL     OW69579   8.061   4.995   8.987 -0.2811  0.2813 -0.7122
22229SOL    HW169580   8.063   4.966   8.896 -1.3645 -2.3855  0.0204
22229SOL    HW269581   7.975   4.968   9.020  1.1564 -1.7508  1.8756
22230SOL     OW69582   1.716   7.035   1.440  0.0475  0.0061  0.3127
22230SOL    HW169583   1.655   7.095   1.483 -0.3237  1.1217 -1.6187
22230SOL    HW269584   1.671   7.011   1.359  1.2887 -0.8605 -0.1373
22231SOL     OW69585  10.109   4.683   1.778  0.3398 -0.4595 -0.1562
22231SOL    HW169586  10.099   4.626   1.853 -0.6863  0.9406  0.8326
22231SOL    HW269587  10.038   4.748   1.787  1.5513  1.0811 -1.0955
22232SOL     OW69588   8.987   8.057   6.265 -0.4336  0.5885 -0.1589
22232SOL    HW169589   8.950   7.970   6.283 -1.4985  1.3421  1.6248
22232SOL    HW269590   9.015   8.053   6.174 -0.5265 -1.5980 -0.1437
22233SOL     OW69591   4.651   3.869   4.793 -0.6853  0.2023 -0.6238
22233SOL    HW169592   4.578   3.914   4.750  0.0498 -0.7041 -3.0009
22233SOL    HW269593   4.708   3.842   4.721  1.8859  0.6264  1.1291
22234SOL     OW69594   3.162   6.093   8.122  0.0335  0.2900 -0.2617
22234SOL    HW169595   3.248   6.073   8.159  0.0160 -1.0619 -0.8762
22234SOL    HW269596   3.114   6.011   8.128 -1.3513  1.1124  0.3695
22235SOL     OW69597   2.573  10.410   1.945 -0.0369 -0.1382 -0.7824
22235SOL    HW169598   2.659  10.387   1.979  0.7593  0.3715 -2.3671
22235SOL    HW269599   2.578  10.503   1.925 -1.2979  0.1333  0.0099
22236SOL     OW69600   7.768   9.577   6.157 -0.5420 -0.5472  0.1202
22236SOL    HW169601   7.758   9.672   6.151 -0.1548 -0.5170 -0.1445
22236SOL    HW269602   7.862   9.564   6.170 -0.3274 -0.9430 -1.5350
22237SOL     OW69603   0.293   8.866   4.961  0.3776 -0.6995  0.1329
22237SOL    HW169604   0.336   8.862   4.876 -0.4565  1.2952 -0.4230
22237SOL    HW269605   0.202   8.842   4.943  0.2256 -0.3967  0.4941
22238SOL     OW69606   4.314   8.040   3.578  0.6500  0.0552  0.4970
22238SOL    HW169607   4.268   8.122   3.599 -0.6560 -0.2594 -0.9941
22238SOL    HW269608   4.283   8.017   3.491  0.3306 -2.4878  1.2127
22239SOL     OW69609   6.730   7.909   3.142  0.4710 -0.4984  0.0696
22239SOL    HW169610   6.688   7.917   3.228  0.3783 -2.1981  0.2091
22239SOL    HW269611   6.767   7.996   3.126  2.0208 -0.5770  2.6232
22240SOL     OW69612   3.177   4.436   3.299  0.0639 -0.7509 -0.3998
22240SOL    HW169613   3.141   4.379   3.231  0.8886  0.0217 -1.5176
22240SOL    HW269614   3.271   4.417   3.300  0.1517 -0.3264  0.1209
22241SOL     OW69615   7.535   3.280   6.519 -0.4270  0.1810 -0.3484
22241SOL    HW169616   7.552   3.189   6.542 -0.4393  0.0676 -0.7793
22241SOL    HW269617   7.605   3.302   6.457  0.4537  0.9147  0.8431
22242SOL     OW69618   4.785   9.333   8.409  0.0765  0.1241  0.1109
22242SOL    HW169619   4.786   9.429   8.412  1.2446  0.1022  1.6484
22242SOL    HW269620   4.760   9.306   8.498 -1.0880 -1.0070 -0.5348
22243SOL     OW69621   1.310  10.625   6.578  0.8747 -0.0258  0.0954
22243SOL    HW169622   1.348  10.538   6.594  2.2153  0.6944  1.0127
22243SOL    HW269623   1.356  10.659   6.502  1.4075  0.4611  0.6256
22244SOL     OW69624   3.089   4.209   4.093 -0.0241  0.2200 -0.6838
22244SOL    HW169625   3.004   4.201   4.051  0.6643  1.2353 -2.3671
22244SOL    HW269626   3.118   4.119   4.106 -1.3457 -0.1428 -0.0277
22245SOL     OW69627   8.732   6.981   7.542 -0.1149 -0.0405 -0.4386
22245SOL    HW169628   8.677   6.936   7.606  1.6118  0.6084  1.6268
22245SOL    HW269629   8.678   6.987   7.463 -1.2664 -3.6438 -0.1139
22246SOL     OW69630   3.277   3.852   5.750  0.0962 -0.4444 -0.2833
22246SOL    HW169631   3.280   3.867   5.845 -0.6792 -0.6533 -0.2124
22246SOL    HW269632   3.190   3.885   5.724 -0.3740 -1.8865 -0.6328
22247SOL     OW69633   9.348   1.756   2.204  0.6722  0.0076 -0.7078
22247SOL    HW169634   9.309   1.773   2.118 -0.1585  0.5585 -0.2385
22247SOL    HW269635   9.298   1.810   2.265  1.4858 -0.0891  0.0831
22248SOL     OW69636   3.392   3.610   4.058 -0.4400 -0.0362 -0.5171
22248SOL    HW169637   3.453   3.544   4.091 -0.8105  0.3609  1.0402
22248SOL    HW269638   3.323   3.559   4.015  1.2110 -0.4751 -2.8824
22249SOL     OW69639   9.052   4.233   4.480  0.0851 -0.1420 -0.4494
22249SOL    HW169640   8.999   4.305   4.444  0.1406 -0.4880 -1.2406
22249SOL    HW269641   8.988   4.165   4.501  0.0522  0.0611  0.1401
22250SOL     OW69642   0.370   8.915   2.208 -0.4386 -0.1296 -0.2219
22250SOL    HW169643   0.278   8.894   2.223 -0.0371 -2.0646 -0.2776
22250SOL    HW269644   0.380   8.915   2.113  0.0031 -1.9286 -0.2143
22251SOL     OW69645   3.701   2.443  10.707 -0.0336  0.1407  0.2478
22251SOL    HW169646   3.711   2.353  10.739 -0.4551 -0.6187 -1.6405
22251SOL    HW269647   3.766   2.451  10.637 -0.4842  1.0865 -0.0772
22252SOL     OW69648   4.698   2.339   1.261  0.0167  0.0766 -0.0848
22252SOL    HW169649   4.778   2.381   1.291 -0.4589  0.4387  0.6956
22252SOL    HW269650   4.718   2.245   1.259  0.6418  0.2143 -0.4874
22253SOL     OW69651   0.001   7.113   7.609  0.2584 -0.5833 -0.4168
22253SOL    HW169652   0.017   7.084   7.520  1.4904  0.0819 -0.4276
22253SOL    HW269653   0.083   7.096   7.655 -0.1536 -0.3344  0.4282
22254SOL     OW69654   8.178   8.873   2.013  0.4687 -0.4719 -0.4275
22254SOL    HW169655   8.155   8.952   2.062 -1.3759  0.0359 -2.0002
22254SOL    HW269656   8.137   8.801   2.061  0.3957 -0.2303 -0.1250
22255SOL     OW69657   5.637   2.713   2.673  0.6233  0.5753 -0.0031
22255SOL    HW169658   5.725   2.685   2.647  0.9223  1.0324  0.4933
22255SOL    HW269659   5.652   2.788   2.732 -0.1620  2.5535 -2.1784
22256SOL     OW69660   6.175   2.315   7.585  0.0035  0.2082 -0.0854
22256SOL    HW169661   6.204   2.313   7.676 -0.5796 -0.2153  0.0988
22256SOL    HW269662   6.110   2.245   7.579 -2.4984  2.3513  0.0776
22257SOL     OW69663   4.115   8.087   6.535 -0.0314 -0.0667  0.2083
22257SOL    HW169664   4.034   8.044   6.507  0.0856  0.1177 -0.4435
22257SOL    HW269665   4.141   8.040   6.614 -0.2009 -0.8314 -0.1768
22258SOL     OW69666   7.806   1.533  10.637  0.0222  0.3988 -0.0200
22258SOL    HW169667   7.899   1.557  10.638  1.4128 -3.7909 -2.8696
22258SOL    HW269668   7.770   1.584  10.564  0.6286  0.4572 -0.2880
22259SOL     OW69669   8.454   0.724   0.268  0.3885 -0.1672  0.0547
22259SOL    HW169670   8.516   0.772   0.214 -0.1065  1.5218  0.9193
22259SOL    HW269671   8.376   0.715   0.213 -0.1274  1.5739  0.4275
22260SOL     OW69672   8.288   6.472   2.656  0.2228 -0.0389 -0.4439
22260SOL    HW169673   8.210   6.442   2.608  0.9064 -0.4217 -1.3488
22260SOL    HW269674   8.338   6.522   2.591 -1.1867  3.8206  1.1137
22261SOL     OW69675   3.471   8.331   5.515  0.0276  0.4311  0.5811
22261SOL    HW169676   3.446   8.408   5.566  0.4811  0.7576  0.3191
22261SOL    HW269677   3.567   8.335   5.513  0.0238  0.2334 -0.0066
22262SOL     OW69678   1.237   6.216   5.665 -0.1579  0.5550  0.3406
22262SOL    HW169679   1.160   6.255   5.707 -0.0448 -0.1316  1.2236
22262SOL    HW269680   1.234   6.248   5.575 -2.2939 -0.5578 -0.0606
22263SOL     OW69681   4.709   8.186   9.532 -0.0113  0.2609  0.1364
22263SOL    HW169682   4.639   8.202   9.596  0.0980 -0.8135  0.5422
22263SOL    HW269683   4.790   8.200   9.581  0.0779  1.5111 -0.3338
22264SOL     OW69684   0.651   5.787   3.298  0.1778 -0.1772  0.3421
22264SOL    HW169685   0.612   5.809   3.383 -0.3489  1.9758 -0.3779
22264SOL    HW269686   0.648   5.870   3.249  0.7232 -1.2953 -1.6776
22265SOL     OW69687   6.892   6.992   0.783 -0.6282 -0.4214 -0.0812
22265SOL    HW169688   6.909   7.015   0.874  0.2480  5.1181 -1.2946
22265SOL    HW269689   6.978   6.970   0.747  0.0681  2.6785 -0.5782
22266SOL     OW69690   1.030   9.166   8.295  0.2555 -0.4321  0.2058
22266SOL    HW169691   1.054   9.144   8.205 -0.0099 -0.3930  0.1257
22266SOL    HW269692   1.002   9.258   8.291  0.3551 -0.3951  0.3490
22267SOL     OW69693   0.699   8.343   7.973 -0.2094  0.1443 -0.2281
22267SOL    HW169694   0.620   8.388   8.004  0.4431 -0.1697  2.0573
22267SOL    HW269695   0.769   8.377   8.029  1.1979 -0.0014 -1.8355
22268SOL     OW69696   0.577   2.999   3.472 -0.3068  0.2003  0.3009
22268SOL    HW169697   0.609   3.061   3.405  0.5572  1.7231  2.0313
22268SOL    HW269698   0.657   2.964   3.511 -0.7596  0.5932  1.6256
22269SOL     OW69699   0.618   0.198   8.358  0.1050 -0.2347 -0.0872
22269SOL    HW169700   0.643   0.261   8.290  1.6949 -0.2647  0.4414
22269SOL    HW269701   0.659   0.116   8.330 -0.3702 -0.5801  0.2214
22270SOL     OW69702   3.876   0.397  10.432 -0.4377 -0.9251 -0.0319
22270SOL    HW169703   3.943   0.430  10.373 -0.3415  0.4827  0.8347
22270SOL    HW269704   3.905   0.308  10.454  0.4206 -0.8239 -0.7073
22271SOL     OW69705   0.054   5.471   4.061  0.2582  0.2478  0.2148
22271SOL    HW169706   0.058   5.389   4.111 -0.1143  0.6744  0.9544
22271SOL    HW269707   0.117   5.529   4.104  2.6196 -0.5215 -1.9857
22272SOL     OW69708   5.903   2.770   9.970 -0.0867  0.3480  0.7191
22272SOL    HW169709   5.988   2.751   9.932 -0.6038  0.1167 -0.3560
22272SOL    HW269710   5.912   2.749  10.063  0.9084 -0.0238  0.5423
22273SOL     OW69711   0.155   6.342   8.249 -0.3717  0.1014 -0.0893
22273SOL    HW169712   0.226   6.406   8.237  0.6022 -0.7428  0.9200
22273SOL    HW269713   0.187   6.285   8.318  0.1739 -3.3589 -2.9058
22274SOL     OW69714   2.620   2.892   0.462  0.3334 -0.2239 -0.4836
22274SOL    HW169715   2.541   2.945   0.469 -0.6447 -1.5905 -0.6065
22274SOL    HW269716   2.650   2.903   0.372 -1.1859 -1.6003 -1.2205
22275SOL     OW69717   5.575   4.553   9.560  0.1412 -0.6626 -0.0355
22275SOL    HW169718   5.521   4.585   9.632  2.4076  0.0581  1.4348
22275SOL    HW269719   5.593   4.632   9.507  0.5858 -0.6968  0.0627
22276SOL     OW69720   5.247   9.870   7.551 -1.0414 -0.2134  0.6947
22276SOL    HW169721   5.294   9.789   7.533  1.0793  1.2349 -0.6408
22276SOL    HW269722   5.307   9.923   7.604 -2.0805  0.8006  0.9171
22277SOL     OW69723   6.697   6.288   2.955 -0.0745  0.1180 -0.0013
22277SOL    HW169724   6.620   6.303   3.011 -1.0991 -1.6658 -0.8251
22277SOL    HW269725   6.723   6.375   2.926 -1.7421  0.7880  0.4014
22278SOL     OW69726   9.433   4.346   6.558 -0.0583  0.0652  1.0127
22278SOL    HW169727   9.496   4.387   6.618  0.2795 -1.2079  1.5487
22278SOL    HW269728   9.486   4.288   6.503 -0.5902 -0.0018  0.5578
22279SOL     OW69729   5.369   0.587   2.739  0.5673  0.4055 -0.4080
22279SOL    HW169730   5.426   0.652   2.697  0.8589  0.5165  0.1506
22279SOL    HW269731   5.361   0.618   2.829 -1.9157  1.4626 -0.8956
22280SOL     OW69732   4.634   8.430   9.965 -0.2467 -1.5760 -0.3377
22280SOL    HW169733   4.700   8.376  10.009  0.2017 -1.3160 -0.6853
22280SOL    HW269734   4.679   8.464   9.888  0.3042  1.2649  1.0727
22281SOL     OW69735   5.769   4.168   2.278  0.4879 -0.4024  0.2439
22281SOL    HW169736   5.855   4.128   2.289  1.0616  0.7716  0.2047
22281SOL    HW269737   5.766   4.194   2.186  0.3592  0.1305  0.3936
22282SOL     OW69738   0.777   5.172   1.135 -0.2614  0.6071 -0.5882
22282SOL    HW169739   0.718   5.101   1.157  0.5488  0.2695  0.5924
22282SOL    HW269740   0.832   5.183   1.213  1.3974  0.7364 -1.7310
22283SOL     OW69741   0.203   5.737   6.388  0.3189  0.5807  0.0698
22283SOL    HW169742   0.261   5.684   6.334 -0.0356  0.4941 -0.2300
22283SOL    HW269743   0.240   5.826   6.384  1.1901  0.2759  0.9631
22284SOL     OW69744   0.126   9.437   0.172  0.1856  0.1821  0.5572
22284SOL    HW169745   0.109   9.377   0.245 -1.6139  0.2205  0.2122
22284SOL    HW269746   0.221   9.439   0.165  0.3492 -1.0542  1.8822
22285SOL     OW69747   4.490   6.799   0.252 -0.1068 -0.2135  0.0960
22285SOL    HW169748   4.488   6.711   0.212  0.2757 -0.6254  0.9604
22285SOL    HW269749   4.410   6.803   0.305 -0.9788  0.6022 -1.2358
22286SOL     OW69750   7.044   5.651   9.143  0.5512  0.5167 -0.6452
22286SOL    HW169751   7.136   5.639   9.118  0.6131 -0.8466  0.1564
22286SOL    HW269752   7.046   5.722   9.208  1.0543  0.4535 -0.5879
22287SOL     OW69753   2.166   8.457   6.045  0.0434 -0.2879  0.3447
22287SOL    HW169754   2.103   8.447   6.116 -0.0542  2.1659  0.6963
22287SOL    HW269755   2.131   8.527   5.991  1.6683  0.0336 -0.3629
22288SOL     OW69756  10.572   4.524   8.862 -0.0165 -0.2893 -0.6745
22288SOL    HW169757  10.572   4.515   8.767  2.5539  0.9038 -0.8662
22288SOL    HW269758  10.508   4.593   8.880 -2.9365 -2.6554 -1.1372
22289SOL     OW69759   9.755   1.901   1.690 -0.1378  0.0379 -0.3665
22289SOL    HW169760   9.702   1.832   1.650  0.8719 -0.3008 -1.1779
22289SOL    HW269761   9.781   1.957   1.617  3.5013 -1.7678 -0.6905
22290SOL     OW69762  10.570   1.657   3.344  0.1895  0.0286  0.2610
22290SOL    HW169763  10.516   1.733   3.366  0.2831 -0.3746  2.0601
22290SOL    HW269764  10.604   1.676   3.256 -0.2184  1.8058  0.4505
22291SOL     OW69765   2.175   9.020   9.391 -0.2535 -0.7449  0.1218
22291SOL    HW169766   2.206   9.109   9.406 -0.9735 -0.1804 -1.5529
22291SOL    HW269767   2.135   8.994   9.474  1.9341 -0.3908  1.3616
22292SOL     OW69768   3.038   2.388   9.376  0.3449 -0.1035  0.1947
22292SOL    HW169769   3.053   2.374   9.469 -2.0175  0.3603  0.7266
22292SOL    HW269770   2.994   2.474   9.371  0.9686  0.1690 -1.4072
22293SOL     OW69771   0.094   3.833   8.577 -0.0968  0.2686 -0.1369
22293SOL    HW169772   0.147   3.906   8.611 -0.5840  0.4677  0.2109
22293SOL    HW269773   0.141   3.755   8.603 -0.5410  0.4103  1.1701
22294SOL     OW69774   4.600   3.035   1.575 -0.3976 -0.0244 -0.4015
22294SOL    HW169775   4.544   3.050   1.651 -0.2692 -0.1745 -0.2774
22294SOL    HW269776   4.676   3.092   1.591 -0.0177 -0.6148 -0.0445
22295SOL     OW69777   0.343   1.738   3.899 -0.2621  0.5375  0.1205
22295SOL    HW169778   0.328   1.720   3.806 -2.2517 -2.1657  0.8314
22295SOL    HW269779   0.324   1.831   3.909 -3.4380  0.2395 -1.6724
22296SOL     OW69780   0.739   9.649   8.808 -0.5422  0.6607  0.0129
22296SOL    HW169781   0.788   9.710   8.753 -1.9630  0.9826 -0.9424
22296SOL    HW269782   0.730   9.570   8.754 -0.8418  0.5061  0.2889
22297SOL     OW69783   0.568   4.349   7.088 -0.2769  0.0936  0.5245
22297SOL    HW169784   0.574   4.278   7.024  0.3050 -2.0771  2.8241
22297SOL    HW269785   0.511   4.314   7.157 -0.2002  1.9889  1.6250
22298SOL     OW69786   6.321   8.524  10.271  0.8682 -0.0331 -0.0960
22298SOL    HW169787   6.396   8.568  10.232 -0.5105  0.0936 -2.8673
22298SOL    HW269788   6.297   8.456  10.207  1.1818 -3.0203  2.7067
22299SOL     OW69789   3.605   0.182   1.823  0.1714 -0.0388  0.2568
22299SOL    HW169790   3.614   0.091   1.854 -0.8243 -0.5865 -0.9564
22299SOL    HW269791   3.638   0.235   1.895  0.1047 -1.3423  1.2922
22300SOL     OW69792   0.420   9.562  10.177 -0.1121  0.6672  0.1104
22300SOL    HW169793   0.440   9.475  10.212 -1.6352  0.4089  0.3798
22300SOL    HW269794   0.505   9.607  10.176  0.9682 -1.2749 -1.3801
22301SOL     OW69795  10.766   7.955   0.685  0.1589 -0.0159 -0.8247
22301SOL    HW169796  10.799   7.877   0.729  0.4133  0.4999 -0.0784
22301SOL    HW269797  10.844   8.011   0.673 -0.1064  0.3490 -0.8715
22302SOL     OW69798  10.165   4.064   8.618 -0.1541 -0.2417 -0.3349
22302SOL    HW169799  10.105   4.134   8.591  0.4643  1.8554  3.0963
22302SOL    HW269800  10.136   4.041   8.706  2.7837 -0.6325  0.6191
22303SOL     OW69801   4.354   8.079   3.010 -0.1222 -0.0750  0.3293
22303SOL    HW169802   4.414   8.043   3.074 -2.2328  0.1596  2.5815
22303SOL    HW269803   4.287   8.011   2.998  0.0653 -0.0074 -1.4695
22304SOL     OW69804   2.779   1.796   3.672  0.3293 -0.0601 -0.4692
22304SOL    HW169805   2.781   1.705   3.701 -2.5951 -0.5758 -1.5887
22304SOL    HW269806   2.805   1.847   3.749  1.0607 -1.7705  0.4534
22305SOL     OW69807   3.111   5.344   5.239  0.0800  0.2538  0.0907
22305SOL    HW169808   3.093   5.291   5.316  0.8107 -0.1393  0.0001
22305SOL    HW269809   3.185   5.399   5.264  1.7069 -1.3227 -0.9413
22306SOL     OW69810   6.147   6.261   6.596  0.1448  0.2170 -0.1188
22306SOL    HW169811   6.219   6.324   6.600  0.2260  0.0996  0.3562
22306SOL    HW269812   6.189   6.178   6.573  0.0897  0.2550 -0.3585
22307SOL     OW69813   0.881   1.090   3.353  0.3461 -0.5952 -0.1697
22307SOL    HW169814   0.953   1.028   3.359 -0.4807 -1.6496 -0.8264
22307SOL    HW269815   0.839   1.087   3.439  0.7609 -0.3770  0.0411
22308SOL     OW69816   1.661   8.271   0.793  0.0306  0.6802 -0.2759
22308SOL    HW169817   1.684   8.286   0.701 -1.7850  2.0689 -0.5723
22308SOL    HW269818   1.742   8.286   0.841  0.5567  2.0003 -1.4966
22309SOL     OW69819  10.309   8.001   4.390 -0.0058 -0.2531 -0.2428
22309SOL    HW169820  10.335   7.951   4.313  1.9776  1.0752 -0.5169
22309SOL    HW269821  10.254   7.941   4.441  0.9463 -2.1241 -1.3119
22310SOL     OW69822   2.081   9.328   2.831 -0.1469  0.4265  0.6201
22310SOL    HW169823   2.043   9.244   2.803 -0.8480  0.5710  1.1308
22310SOL    HW269824   2.173   9.307   2.849 -0.2077 -0.1381  0.3174
22311SOL     OW69825   8.667   0.991   1.762 -0.0347  0.5567 -0.4964
22311SOL    HW169826   8.664   1.052   1.688 -1.5884  0.4301 -0.5689
22311SOL    HW269827   8.707   1.042   1.833  0.3206  1.0750 -1.0504
22312SOL     OW69828   1.894   1.113   1.803 -0.4919  0.1112  0.4787
22312SOL    HW169829   1.825   1.122   1.738  0.0437 -0.1096 -0.1308
22312SOL    HW269830   1.950   1.189   1.789 -0.9799  0.6668  1.4385
22313SOL     OW69831   2.214   9.685   4.532  0.0821  0.1532 -0.3170
22313SOL    HW169832   2.232   9.678   4.439 -2.2489  0.7858 -0.8738
22313SOL    HW269833   2.175   9.772   4.543  0.1887  0.0412  1.2373
22314SOL     OW69834   1.660   1.375   8.037  0.0361 -0.6142 -0.2561
22314SOL    HW169835   1.714   1.311   7.991 -0.4609 -1.9981  1.0079
22314SOL    HW269836   1.575   1.333   8.046  0.0898 -0.3683  1.7846
22315SOL     OW69837   3.629   3.587  10.057  0.1694 -0.6135  0.1304
22315SOL    HW169838   3.656   3.559  10.144  1.0923 -3.2390 -0.9119
22315SOL    HW269839   3.705   3.570  10.001  0.3553  2.9471 -0.9394
22316SOL     OW69840   1.631   3.789   9.187  0.1322  0.4539  0.0335
22316SOL    HW169841   1.698   3.853   9.162  0.1360 -0.2482 -1.9297
22316SOL    HW269842   1.560   3.843   9.223  1.6889  1.2003  2.2181
22317SOL     OW69843   3.572   3.055   3.761 -0.4474 -0.4461 -0.0658
22317SOL    HW169844   3.589   2.961   3.767 -1.9070 -0.8624 -1.7083
22317SOL    HW269845   3.557   3.082   3.851 -0.3633 -1.8538  0.3943
22318SOL     OW69846   9.688   4.959  10.096 -0.0459 -0.5121  0.5067
22318SOL    HW169847   9.771   4.954  10.142  0.7126 -0.8782 -0.8549
22318SOL    HW269848   9.711   4.979  10.005 -1.5191  0.6197  0.3451
22319SOL     OW69849   7.885  10.010   0.270  0.3933 -0.3178 -0.5232
22319SOL    HW169850   7.927  10.035   0.352 -2.1096  0.9101  0.4923
22319SOL    HW269851   7.802   9.969   0.297  0.0367 -0.9242 -2.4141
22320SOL     OW69852   0.479   8.325   5.876  0.1649 -0.3423 -0.3706
22320SOL    HW169853   0.415   8.260   5.906  1.0086 -0.7593  0.5608
22320SOL    HW269854   0.560   8.302   5.921  0.8541  0.4876 -1.1448
22321SOL     OW69855   1.133   8.279   4.895  0.6642 -0.2241 -0.3027
22321SOL    HW169856   1.132   8.187   4.923  1.2251 -0.0009  0.5134
22321SOL    HW269857   1.182   8.278   4.812  0.5574 -0.6790 -0.3638
22322SOL     OW69858   7.480   2.224   6.709 -0.3144 -0.1061  0.2491
22322SOL    HW169859   7.549   2.285   6.682 -1.5637  1.5160  0.4999
22322SOL    HW269860   7.497   2.208   6.802 -1.2534  1.7865  0.8112
22323SOL     OW69861   8.320   8.078   9.484  0.7228  0.3500 -0.8630
22323SOL    HW169862   8.415   8.081   9.495  0.7585  2.4006 -1.3052
22323SOL    HW269863   8.307   8.074   9.390  0.3172 -3.1296 -0.7887
22324SOL     OW69864   9.147   1.178   7.658  0.4404  0.2134 -0.1830
22324SOL    HW169865   9.189   1.254   7.700  0.5594  0.5303 -0.8655
22324SOL    HW269866   9.154   1.108   7.723 -1.3180  1.2602  1.2173
22325SOL     OW69867   7.919   4.086   5.477 -0.3347 -0.4109  0.4256
22325SOL    HW169868   7.898   4.117   5.565 -1.1273  0.3151 -0.0031
22325SOL    HW269869   7.887   4.155   5.419  0.9972 -0.4538 -0.3975
22326SOL     OW69870   0.210   4.240   5.030 -0.5539 -0.5898  0.6130
22326SOL    HW169871   0.299   4.212   5.009 -0.0211  1.5240 -0.1992
22326SOL    HW269872   0.155   4.197   4.965  0.2627  0.4457 -0.8005
22327SOL     OW69873   3.102   9.361   4.105 -0.8120  0.1471 -0.5768
22327SOL    HW169874   3.059   9.278   4.126  1.3342 -0.3926  2.3077
22327SOL    HW269875   3.030   9.420   4.082 -2.5505 -2.0039 -1.0398
22328SOL     OW69876   5.555   3.402   8.377 -0.2639  0.1483  0.1239
22328SOL    HW169877   5.479   3.348   8.355 -0.3980  1.6166 -4.0009
22328SOL    HW269878   5.624   3.369   8.319  0.6501  2.1444  0.0165
22329SOL     OW69879   0.724   8.231   4.918  0.0156 -0.1350  0.0848
22329SOL    HW169880   0.743   8.247   4.826 -1.5620  0.8408 -0.0988
22329SOL    HW269881   0.647   8.285   4.937  1.1912  0.8754  2.3715
22330SOL     OW69882   1.473   9.833   2.207 -0.0149  0.1390 -0.0541
22330SOL    HW169883   1.482   9.742   2.178  0.0311  0.0011  0.3909
22330SOL    HW269884   1.388   9.861   2.172  0.7443  0.4982 -1.7161
22331SOL     OW69885   1.353   2.220   3.461  0.4148 -0.4957 -0.2214
22331SOL    HW169886   1.290   2.154   3.434  0.6230 -0.2556 -1.3640
22331SOL    HW269887   1.342   2.291   3.398  0.3663  0.4644  0.8225
22332SOL     OW69888   0.558   9.542   2.677 -0.7810  0.1267  0.5451
22332SOL    HW169889   0.581   9.459   2.635  1.7505  0.4795  1.0324
22332SOL    HW269890   0.463   9.539   2.686 -0.9873 -1.7643 -1.3716
22333SOL     OW69891   4.121   3.141   0.964  0.9909  0.3707  0.4224
22333SOL    HW169892   4.053   3.185   1.015 -1.5331 -0.2073 -2.1827
22333SOL    HW269893   4.178   3.212   0.935  0.1090  1.2321  0.7166
22334SOL     OW69894   2.217   3.273   5.156 -0.8026  0.3653 -0.1300
22334SOL    HW169895   2.246   3.182   5.145 -1.9391 -0.2133  1.2175
22334SOL    HW269896   2.286   3.314   5.208 -0.4939  0.1448 -0.3621
22335SOL     OW69897   2.934   2.089   8.722 -0.3133  0.2266  0.6506
22335SOL    HW169898   2.905   2.076   8.812 -0.1392 -0.0013  0.6756
22335SOL    HW269899   2.871   2.150   8.685  0.7831  1.9444  1.5196
22336SOL     OW69900   4.677   3.686   2.624  0.1097  0.0640 -0.2834
22336SOL    HW169901   4.657   3.625   2.553 -2.1535 -0.8922  1.0772
22336SOL    HW269902   4.600   3.742   2.631  0.5096  0.4997  1.0457
22337SOL     OW69903   5.259   4.341   2.122 -0.2934  0.3588 -0.0565
22337SOL    HW169904   5.331   4.386   2.079 -0.3373 -1.3561 -2.0887
22337SOL    HW269905   5.242   4.264   2.067 -1.0393 -1.4687  2.5077
22338SOL     OW69906  10.578   6.162   7.634  0.6385  0.4732 -0.2954
22338SOL    HW169907  10.567   6.204   7.548  1.8580 -0.6122 -1.0220
22338SOL    HW269908  10.538   6.076   7.622  1.6789 -0.0482 -0.0978
22339SOL     OW69909   1.557   4.769   6.484 -0.6705 -0.2876 -0.4122
22339SOL    HW169910   1.589   4.833   6.420 -0.1820 -1.5250 -1.4514
22339SOL    HW269911   1.472   4.741   6.451 -0.0083 -1.6264 -1.0767
22340SOL     OW69912   6.337   0.009   7.456 -0.1343  0.5027  0.3238
22340SOL    HW169913   6.427  -0.020   7.467  0.1791  1.5472  0.5940
22340SOL    HW269914   6.341   0.078   7.390 -0.4863  1.6928  1.5051
22341SOL     OW69915   5.496  10.034   2.286  0.2493  0.3201  0.1972
22341SOL    HW169916   5.528  10.053   2.198  0.8380  1.6969  0.6821
22341SOL    HW269917   5.505   9.939   2.295  2.0022  0.3811 -0.5368
22342SOL     OW69918   3.426   8.153   1.601 -0.4893  0.0153 -0.3674
22342SOL    HW169919   3.437   8.240   1.562  3.0331 -0.6911 -1.2870
22342SOL    HW269920   3.431   8.169   1.695  1.2494  0.7579 -0.5458
22343SOL     OW69921   3.593   8.530   7.000  0.0938  0.0584 -0.2410
22343SOL    HW169922   3.561   8.441   7.009 -0.8145  0.2711 -1.2078
22343SOL    HW269923   3.667   8.523   6.939 -0.7579  0.1162 -1.3043
22344SOL     OW69924   1.563   4.266   9.388  0.1350 -0.2427  0.0643
22344SOL    HW169925   1.537   4.220   9.309 -0.7926 -0.2786  0.3697
22344SOL    HW269926   1.596   4.197   9.446 -1.5266 -0.6194  0.6346
22345SOL     OW69927   7.910   3.960   2.520 -0.0795 -0.2499  0.1115
22345SOL    HW169928   7.925   3.893   2.587 -0.7612  0.6532  1.2180
22345SOL    HW269929   7.815   3.976   2.524 -0.1835 -0.3962 -1.3078
22346SOL     OW69930   5.729  10.152   4.818 -0.4932 -0.3588 -0.2800
22346SOL    HW169931   5.687  10.105   4.745 -0.5743  0.5122 -0.8055
22346SOL    HW269932   5.794  10.208   4.776 -0.0520 -0.3623  0.3836
22347SOL     OW69933   8.188   7.554   7.400  0.1919 -0.1423 -0.3123
22347SOL    HW169934   8.129   7.554   7.325 -0.3033  2.4996  0.0101
22347SOL    HW269935   8.136   7.587   7.473  1.7042  1.1325  0.2535
22348SOL     OW69936   6.344   0.428   2.091 -0.2617 -0.0980 -0.0727
22348SOL    HW169937   6.278   0.363   2.115 -0.5439  0.6982  1.4555
22348SOL    HW269938   6.298   0.490   2.035  0.3625 -1.9032 -2.7663
22349SOL     OW69939   0.794   8.914   7.891 -0.1603  0.6331  0.3757
22349SOL    HW169940   0.721   8.961   7.929 -1.1659  0.1895 -0.9205
22349SOL    HW269941   0.799   8.832   7.941 -2.2019 -0.4667 -1.0477
22350SOL     OW69942   8.588   6.101   4.750 -0.1465 -0.0313 -0.7433
22350SOL    HW169943   8.660   6.111   4.688  0.3035 -1.3175 -0.4644
22350SOL    HW269944   8.544   6.020   4.723 -1.3288  0.5855 -0.7345
22351SOL     OW69945   1.144   2.888   4.510  0.7663  0.3034  0.0516
22351SOL    HW169946   1.100   2.969   4.487 -0.9752 -1.0318 -1.5598
22351SOL    HW269947   1.216   2.916   4.568 -0.3544  2.8490  0.3473
22352SOL     OW69948   9.334   4.343   9.866 -0.5624  0.2887  0.3167
22352SOL    HW169949   9.404   4.409   9.864 -0.5015  0.2919  1.7397
22352SOL    HW269950   9.347   4.297   9.949 -1.2993 -0.7738 -0.1348
22353SOL     OW69951   5.966   7.173   6.370  0.2120  0.0197 -0.0269
22353SOL    HW169952   5.934   7.127   6.448  0.6090 -1.7856 -0.8921
22353SOL    HW269953   5.889   7.218   6.336 -0.1343  0.2244  0.9858
22354SOL     OW69954   9.955   2.569   3.978 -0.0958  0.1157  0.3152
22354SOL    HW169955  10.008   2.507   3.928 -0.4741  1.2114 -1.5172
22354SOL    HW269956   9.871   2.524   3.990 -0.3344  0.2150 -0.9068
22355SOL     OW69957   0.169  10.080   1.804  0.4876  0.2509 -0.1535
22355SOL    HW169958   0.214  10.103   1.722 -0.8265 -1.7969 -1.5598
22355SOL    HW269959   0.107  10.152   1.817  1.0790  0.8699 -0.6401
22356SOL     OW69960   8.373   4.338   5.373 -0.2781 -0.3811 -0.0596
22356SOL    HW169961   8.393   4.254   5.413  3.3576  1.1464  1.7847
22356SOL    HW269962   8.327   4.387   5.441 -3.2502 -1.0620 -1.4494
22357SOL     OW69963   7.770   3.775   0.414  0.3577 -0.6506 -0.1448
22357SOL    HW169964   7.793   3.866   0.396 -0.1423  0.2154  2.9906
22357SOL    HW269965   7.688   3.761   0.366  0.1207  0.7533 -0.1876
22358SOL     OW69966   0.965   9.331   5.223 -0.0548  0.6646 -0.3447
22358SOL    HW169967   0.979   9.287   5.139 -1.1260 -0.2474 -0.0529
22358SOL    HW269968   1.052   9.331   5.264 -0.0979 -1.6157 -0.1423
22359SOL     OW69969  10.297   4.210   6.375  0.0953  0.6578  0.3899
22359SOL    HW169970  10.385   4.241   6.393  0.4737  0.5018 -1.0873
22359SOL    HW269971  10.240   4.273   6.420  0.9102  1.9877 -0.3740
22360SOL     OW69972   1.365   6.138   9.645  0.3367 -0.1896  0.0114
22360SOL    HW169973   1.331   6.202   9.581 -0.9982 -0.5149  0.3600
22360SOL    HW269974   1.341   6.053   9.608  1.8171 -0.4927 -0.2881
22361SOL     OW69975   3.381   0.128  10.553  0.3153 -0.2190 -0.3585
22361SOL    HW169976   3.419   0.102  10.469 -0.5373  1.4647 -1.3245
22361SOL    HW269977   3.290   0.148  10.532 -0.9325 -3.1011  1.6738
22362SOL     OW69978   9.923   3.387   6.903  0.6126  0.1238  0.5837
22362SOL    HW169979   9.918   3.427   6.989  2.6740 -1.6171  1.6012
22362SOL    HW269980   9.937   3.460   6.843 -0.7292  1.3421  1.6936
22363SOL     OW69981   4.256   6.022  10.389 -0.0378  0.3497  0.1943
22363SOL    HW169982   4.311   6.079  10.335  0.1814 -1.1722 -1.2909
22363SOL    HW269983   4.284   5.933  10.366 -1.0004 -0.3940  1.7334
22364SOL     OW69984   7.315  10.012   6.531 -0.3252  0.3152 -0.4571
22364SOL    HW169985   7.386   9.954   6.506  1.9220  2.5453  0.3856
22364SOL    HW269986   7.295  10.061   6.451 -1.0505 -0.4011 -0.7276
22365SOL     OW69987   2.640   1.850   3.029 -0.4878 -0.4152  0.2618
22365SOL    HW169988   2.589   1.858   2.948 -0.5373 -1.7060  0.1531
22365SOL    HW269989   2.601   1.916   3.087 -1.2156 -0.2629 -0.3723
22366SOL     OW69990   8.100  10.440   5.571  0.1784  0.2496 -0.0114
22366SOL    HW169991   8.092  10.482   5.486 -3.2725  0.9087  0.4849
22366SOL    HW269992   8.066  10.351   5.558 -1.7242  0.7931  0.8727
22367SOL     OW69993  10.441   7.340   9.776 -0.4324 -0.1566  0.0875
22367SOL    HW169994  10.533   7.354   9.797 -0.6611  0.2135  0.8824
22367SOL    HW269995  10.414   7.266   9.830 -0.3615 -0.8939 -0.8633
22368SOL     OW69996   3.276   9.184   4.353 -0.0776 -0.2672  0.2901
22368SOL    HW169997   3.339   9.240   4.397  0.4772 -1.8781  1.6428
22368SOL    HW269998   3.252   9.233   4.274 -0.8327  2.5611  2.1310
22369SOL     OW69999   1.630   0.249  10.154 -0.0383 -0.2262  0.0106
22369SOL    HW170000   1.557   0.202  10.113 -0.9210  0.6261  0.5609
22369SOL    HW270001   1.699   0.183  10.161  0.0165 -0.5106 -2.4374
22370SOL     OW70002   3.102   1.073   3.998 -0.4426  0.2107  0.0368
22370SOL    HW170003   3.190   1.079   3.961 -0.6803 -1.8465 -1.0410
22370SOL    HW270004   3.069   1.162   3.997  1.2650  0.8772 -0.4535
22371SOL     OW70005   8.448   1.074   3.847  0.0958  0.2236  0.2185
22371SOL    HW170006   8.515   1.128   3.889  0.1331  1.4715 -1.3808
22371SOL    HW270007   8.398   1.037   3.920  2.0684 -0.1993  1.4277
22372SOL     OW70008   9.410   1.321   6.233  0.2214 -0.2841  0.5688
22372SOL    HW170009   9.336   1.292   6.286  0.0086 -1.0112 -0.1107
22372SOL    HW270010   9.486   1.276   6.272 -0.1212 -1.8979 -0.5469
22373SOL     OW70011   2.373   1.999   3.462  0.7321  0.0879  0.2136
22373SOL    HW170012   2.436   2.041   3.403 -0.9841  0.3936 -1.5132
22373SOL    HW270013   2.337   2.071   3.514  0.8975  0.1040  0.3060
22374SOL     OW70014   0.681   4.210   9.970  0.5636  0.6492 -0.1830
22374SOL    HW170015   0.641   4.242   9.890 -0.4705  0.4851  0.2416
22374SOL    HW270016   0.643   4.122   9.982  0.9403  0.5478  0.3130
22375SOL     OW70017   9.630   8.183   9.066  0.0103  0.2752 -0.1486
22375SOL    HW170018   9.679   8.196   8.985 -2.0685  0.7715 -1.4196
22375SOL    HW270019   9.602   8.091   9.063  0.6606  0.0496  0.4626
22376SOL     OW70020   6.092   9.959   6.923  0.0911 -0.3376  0.1989
22376SOL    HW170021   6.064   9.990   7.009  0.5091 -1.8029  0.9034
22376SOL    HW270022   6.164  10.017   6.899 -0.2334  0.2834  0.6788
22377SOL     OW70023   8.821   9.767   4.484  0.2668  0.1108 -0.3182
22377SOL    HW170024   8.738   9.814   4.484 -0.2191 -0.6945  1.4377
22377SOL    HW270025   8.882   9.826   4.527 -0.0763 -0.3641  0.8643
22378SOL     OW70026   6.801   5.730   2.669 -0.1467 -0.1235 -0.1300
22378SOL    HW170027   6.711   5.759   2.684  0.4539  2.1759 -0.5598
22378SOL    HW270028   6.796   5.635   2.667 -2.2874 -0.1194  1.5805
22379SOL     OW70029   9.280   7.546   9.627 -0.0325  0.3597  0.2266
22379SOL    HW170030   9.209   7.523   9.567 -0.3308 -0.5260  0.9015
22379SOL    HW270031   9.355   7.562   9.570  0.0173 -1.6575 -0.3536
22380SOL     OW70032   5.450   3.205   2.895  0.2469 -0.2307  0.2487
22380SOL    HW170033   5.408   3.137   2.948  2.2351 -0.1930  2.0064
22380SOL    HW270034   5.538   3.173   2.880 -0.2184 -0.2957 -3.3090
22381SOL     OW70035   8.818   3.383   7.123 -0.3659 -0.1088 -0.1852
22381SOL    HW170036   8.825   3.320   7.051  0.8382  1.0388 -1.1188
22381SOL    HW270037   8.801   3.467   7.079 -0.8045  0.4201  0.9573
22382SOL     OW70038   8.612   4.877   0.110  0.0199  0.0379  0.1613
22382SOL    HW170039   8.592   4.963   0.149  1.5794 -0.4060  2.1083
22382SOL    HW270040   8.679   4.896   0.044  2.1219  0.1441  2.2063
22383SOL     OW70041   3.919   7.666   8.489  0.2370 -0.4721 -0.5493
22383SOL    HW170042   3.830   7.672   8.525  0.0162 -1.4744 -0.9059
22383SOL    HW270043   3.953   7.755   8.496 -1.4146  0.3441 -2.0168
22384SOL     OW70044   6.974   0.485   3.290  0.0472 -0.2912 -0.3446
22384SOL    HW170045   7.042   0.477   3.357 -0.4561  0.9228  0.3374
22384SOL    HW270046   6.950   0.577   3.292 -1.1212 -0.5700 -1.0760
22385SOL     OW70047   9.518   4.755  10.090  0.2081 -0.4141  0.1561
22385SOL    HW170048   9.546   4.703  10.015 -0.3369  0.5631 -0.7501
22385SOL    HW270049   9.561   4.840  10.077  0.9061 -0.5393  1.4855
22386SOL     OW70050   4.270   0.994   2.928 -0.6110 -0.0538 -0.1275
22386SOL    HW170051   4.352   1.028   2.893  0.7531 -0.6529  2.2750
22386SOL    HW270052   4.256   0.912   2.881 -0.8041  0.8756 -1.7695
22387SOL     OW70053   4.951   4.672   5.348  0.0063  0.2036  0.1611
22387SOL    HW170054   4.965   4.717   5.431  0.4758  0.4779 -0.0586
22387SOL    HW270055   4.856   4.672   5.336 -0.5429 -3.7140  2.8125
22388SOL     OW70056   1.939   3.065   1.393  0.5235  0.0892  0.0468
22388SOL    HW170057   2.034   3.055   1.387  0.7350  0.2118  2.3356
22388SOL    HW270058   1.906   2.977   1.411  0.3770  0.2889  0.7865
22389SOL     OW70059   6.372   6.398   0.992  0.2810 -0.0333 -0.3339
22389SOL    HW170060   6.456   6.433   0.962  0.4728 -0.3833 -0.2033
22389SOL    HW270061   6.382   6.303   0.988 -1.1358 -0.1622 -3.2740
22390SOL     OW70062   0.431   7.550   2.379 -0.7195  0.0695  0.1574
22390SOL    HW170063   0.477   7.624   2.340 -2.4684  0.5815 -1.0458
22390SOL    HW270064   0.380   7.512   2.308 -1.7533 -0.7915  1.2936
22391SOL     OW70065   4.326   6.146   6.971  0.2418  0.1307  0.0509
22391SOL    HW170066   4.358   6.125   7.059  0.3562 -0.6676 -0.1738
22391SOL    HW270067   4.275   6.226   6.982 -1.3035 -0.9442  1.1823
22392SOL     OW70068   3.943   4.852   0.682  0.8006 -0.6688  0.1736
22392SOL    HW170069   3.969   4.783   0.743 -0.0861  0.0064  1.3590
22392SOL    HW270070   4.025   4.895   0.658  1.1077 -0.4874  1.4782
22393SOL     OW70071   4.476   8.444   6.324 -0.7234  0.0694 -0.6783
22393SOL    HW170072   4.467   8.523   6.377 -1.3446 -1.4728  1.6282
22393SOL    HW270073   4.393   8.398   6.334  0.3411 -1.8700 -0.2663
22394SOL     OW70074   2.302   8.769   4.147  0.5099  0.1975  0.1538
22394SOL    HW170075   2.359   8.694   4.164  1.6097  0.7721 -0.7586
22394SOL    HW270076   2.327   8.834   4.213 -0.3165 -0.1581  0.8311
22395SOL     OW70077   6.815  10.670   7.724 -0.6231 -0.1754 -0.3697
22395SOL    HW170078   6.827  10.711   7.638 -0.6226  1.5270  0.3908
22395SOL    HW270079   6.904  10.664   7.760 -0.5066 -1.7957 -0.8393
22396SOL     OW70080   0.917   5.996   8.751 -0.2244 -0.2171 -0.2734
22396SOL    HW170081   0.936   6.075   8.800 -0.8273  0.5546 -1.2367
22396SOL    HW270082   1.000   5.949   8.747 -0.0703 -0.0849  1.0751
22397SOL     OW70083   5.614   3.490   9.055  0.9734 -0.0778  0.0923
22397SOL    HW170084   5.692   3.534   9.020  0.1997  1.3234  0.0586
22397SOL    HW270085   5.560   3.561   9.090 -0.0868 -1.0702  0.5263
22398SOL     OW70086   3.924   0.093   4.688  0.2386 -0.0610 -0.0649
22398SOL    HW170087   3.887   0.132   4.609  1.5901  0.4879 -0.4564
22398SOL    HW270088   3.936   0.166   4.748  1.0260 -0.1593 -0.0921
22399SOL     OW70089   1.663   7.957   9.056  0.1715 -0.1353  0.1434
22399SOL    HW170090   1.748   7.956   9.101  0.7599 -2.3598 -0.8256
22399SOL    HW270091   1.600   7.933   9.123  0.3729  0.9494  0.7397
22400SOL     OW70092   3.566   2.106   1.968  0.1126  0.0926  0.1859
22400SOL    HW170093   3.534   2.176   1.912  1.1366  1.3625  1.1103
22400SOL    HW270094   3.492   2.046   1.977 -0.2478  0.1230 -2.0333
22401SOL     OW70095   0.402   0.940  10.173  0.6066  0.3564 -0.1045
22401SOL    HW170096   0.408   0.844  10.176  1.2688  0.2599 -2.6892
22401SOL    HW270097   0.451   0.969  10.251  1.0031 -1.3788  0.3422
22402SOL     OW70098   5.013   9.443   1.045 -0.2222  0.4371  0.0767
22402SOL    HW170099   5.059   9.381   1.102 -0.7497  1.7140  1.9928
22402SOL    HW270100   4.920   9.424   1.058 -0.3615  1.0589 -0.0009
22403SOL     OW70101   7.952   1.323  10.399 -0.5916 -0.0096 -0.1753
22403SOL    HW170102   7.912   1.251  10.448 -0.0228 -0.5331 -0.4658
22403SOL    HW270103   7.890   1.341  10.328 -0.1025 -1.1551 -0.9201
22404SOL     OW70104   0.978   6.462   7.535 -0.7753 -0.0809  0.1618
22404SOL    HW170105   0.891   6.462   7.496 -0.3695 -0.8982 -0.7894
22404SOL    HW270106   0.970   6.520   7.611 -2.5558 -1.3733  1.0371
22405SOL     OW70107   8.408   4.043   5.360  0.1428 -0.4534 -0.3102
22405SOL    HW170108   8.341   4.031   5.427  1.2437 -1.2404  0.6723
22405SOL    HW270109   8.400   3.965   5.304  0.6637 -0.8694  0.1904
22406SOL     OW70110   8.541   6.015   0.362  0.5297  0.2672  0.2323
22406SOL    HW170111   8.601   6.026   0.287  1.7696 -0.6202  1.0500
22406SOL    HW270112   8.561   5.928   0.395 -2.9411 -1.1633 -0.9057
22407SOL     OW70113   8.302   4.891   8.263 -0.2429  0.0142  0.3694
22407SOL    HW170114   8.278   4.880   8.171  0.0626 -2.0729  0.4952
22407SOL    HW270115   8.219   4.904   8.308 -0.4505  0.4351 -0.1226
22408SOL     OW70116  10.254   9.275   2.618  0.0086  0.2525 -0.3358
22408SOL    HW170117  10.247   9.208   2.686 -0.0974 -0.9788 -1.5390
22408SOL    HW270118  10.344   9.270   2.588 -0.1233  0.3366 -0.7539
22409SOL     OW70119   6.369   8.418   8.174 -0.9095  0.3614  0.1212
22409SOL    HW170120   6.353   8.343   8.232 -1.1251 -0.1819 -0.6168
22409SOL    HW270121   6.353   8.383   8.086  1.6558  0.5053 -0.4943
22410SOL     OW70122   6.644  10.576   0.025 -0.1915  0.4901 -0.1274
22410SOL    HW170123   6.602  10.662   0.023 -0.9765  0.1076 -0.5486
22410SOL    HW270124   6.645  10.553   0.117 -1.0013  0.4715 -0.1140
22411SOL     OW70125   9.984   7.430   4.767 -0.5219  0.2865 -0.3133
22411SOL    HW170126   9.982   7.513   4.814  0.2419  0.3072 -0.2945
22411SOL    HW270127  10.076   7.403   4.770 -0.7926 -0.6792 -0.1035
22412SOL     OW70128   9.208   7.647   8.391 -0.3374 -0.3219  0.2565
22412SOL    HW170129   9.234   7.721   8.336 -0.2899  0.6672  1.5588
22412SOL    HW270130   9.132   7.609   8.347  0.8160 -0.7508 -1.4731
22413SOL     OW70131   4.492   2.033   8.215  0.0503 -0.3642  0.5823
22413SOL    HW170132   4.456   1.960   8.264  0.2369 -0.8455  0.0246
22413SOL    HW270133   4.536   1.992   8.140 -0.3917  0.3559 -0.0860
22414SOL     OW70134   2.186   2.830  10.296 -0.0839  1.0570 -0.0676
22414SOL    HW170135   2.275   2.798  10.280 -0.7374 -1.1585  0.4054
22414SOL    HW270136   2.196   2.895  10.366  0.8103 -2.3218  3.2606
22415SOL     OW70137   7.451   6.973   5.842 -0.3341  0.3901  0.5086
22415SOL    HW170138   7.377   7.002   5.896  0.6937 -0.2528  2.3803
22415SOL    HW270139   7.509   7.049   5.838  0.4695 -0.0986  1.9877
22416SOL     OW70140   3.238  10.370   8.868 -0.1919  0.1081 -0.0907
22416SOL    HW170141   3.204  10.353   8.956 -1.5478  0.3916 -0.5361
22416SOL    HW270142   3.312  10.428   8.881  1.2832 -1.8911  1.0561
22417SOL     OW70143   1.357   7.405   4.183  0.2708  0.2186 -0.4808
22417SOL    HW170144   1.370   7.363   4.268 -2.0955  1.9535  0.8670
22417SOL    HW270145   1.317   7.338   4.129 -1.6746  0.0686  1.0176
22418SOL     OW70146   8.012   9.915   4.047 -0.0345 -0.2869 -0.1949
22418SOL    HW170147   8.035   9.879   4.133  1.1389 -2.1189 -1.2187
22418SOL    HW270148   8.067   9.993   4.039 -0.4738  0.1605  0.8746
22419SOL     OW70149   6.459   5.165   5.632  0.4889 -0.1174 -0.0327
22419SOL    HW170150   6.543   5.211   5.631  0.2565  0.3276 -1.4811
22419SOL    HW270151   6.429   5.173   5.723  2.1225 -0.5270  0.5778
22420SOL     OW70152   7.063  10.268   3.182  1.1029 -0.2688 -0.3790
22420SOL    HW170153   7.057  10.240   3.091  1.2444 -1.7541  0.0525
22420SOL    HW270154   7.154  10.296   3.193  1.1250 -0.2382 -0.6496
22421SOL     OW70155   4.847   2.816   0.127  0.3382 -0.3177  0.1073
22421SOL    HW170156   4.771   2.767   0.157  0.9425 -1.8574 -0.7493
22421SOL    HW270157   4.812   2.900   0.098 -0.6872 -0.0631  1.9381
22422SOL     OW70158  10.370   2.964   9.891  1.2776  0.1915 -0.0935
22422SOL    HW170159  10.405   3.007   9.969 -0.3302 -0.8643  1.2955
22422SOL    HW270160  10.423   2.885   9.881  0.2356 -0.7305  1.2225
22423SOL     OW70161   6.800   6.762   3.576  0.2755 -0.0340  0.0674
22423SOL    HW170162   6.719   6.711   3.567  1.0822 -1.2044 -0.9216
22423SOL    HW270163   6.807   6.809   3.493  0.7174 -0.1236  0.0508
22424SOL     OW70164   1.012   0.651   6.742  0.0405  0.4275 -0.3556
22424SOL    HW170165   1.104   0.630   6.761 -0.0003 -0.3983 -1.0208
22424SOL    HW270166   0.963   0.578   6.779 -0.2345  0.1632 -1.2205
22425SOL     OW70167   4.310   9.472   5.188 -0.0247  0.3533  0.2932
22425SOL    HW170168   4.321   9.501   5.278 -2.5538  0.4265  0.6611
22425SOL    HW270169   4.242   9.529   5.153  1.2823  0.6841 -1.8859
22426SOL     OW70170   8.860   0.404  10.281 -0.6911  0.3569  0.2369
22426SOL    HW170171   8.936   0.349  10.300  0.0065  0.9771 -0.7069
22426SOL    HW270172   8.807   0.352  10.221  0.2878  0.9446 -1.1704
22427SOL     OW70173  10.516   4.849   4.039 -0.5338 -0.1500 -0.2068
22427SOL    HW170174  10.497   4.800   3.959 -0.7494 -2.9870  1.4203
22427SOL    HW270175  10.587   4.799   4.080 -0.2364  1.3890  1.2646
22428SOL     OW70176   7.257   3.538   8.984  0.4744  0.1107  0.4512
22428SOL    HW170177   7.350   3.552   9.001  0.4414 -0.5121  1.2228
22428SOL    HW270178   7.214   3.561   9.066  0.0581 -0.6630  0.4605
22429SOL     OW70179   8.201   8.271   2.676  0.0160 -0.3708  0.7823
22429SOL    HW170180   8.121   8.279   2.624  0.1088 -0.8437  0.5618
22429SOL    HW270181   8.236   8.185   2.652  0.9776  0.1373  0.3247
22430SOL     OW70182   2.420   7.116  10.156 -0.4860  0.2636  0.4526
22430SOL    HW170183   2.503   7.157  10.130  0.1432 -0.9106  0.5430
22430SOL    HW270184   2.365   7.123  10.078  0.9527 -2.1380 -0.8981
22431SOL     OW70185   7.086   3.767   2.255 -0.0861 -0.5606  0.0611
22431SOL    HW170186   7.092   3.743   2.163  0.6810  1.3192 -0.4058
22431SOL    HW270187   6.997   3.799   2.266 -0.0127 -0.2841 -0.1539
22432SOL     OW70188   7.396   4.987   8.297 -0.3763  0.1282  0.0695
22432SOL    HW170189   7.363   4.909   8.252 -1.1100 -0.5659  1.6991
22432SOL    HW270190   7.417   5.049   8.228 -1.9120 -0.6960 -1.1828
22433SOL     OW70191   9.315   0.203   8.764 -0.2964 -0.2251  0.0944
22433SOL    HW170192   9.406   0.225   8.784 -0.0994  1.3313 -2.1975
22433SOL    HW270193   9.320   0.159   8.679 -1.7796  0.9807 -0.6429
22434SOL     OW70194  10.057   4.372   4.208  0.4947 -0.3853 -0.9018
22434SOL    HW170195  10.079   4.379   4.116  1.3908  0.6691 -0.6198
22434SOL    HW270196  10.141   4.374   4.254  0.5524 -5.1704 -0.2058
22435SOL     OW70197   2.452   3.864   9.576  0.0058  0.5807  0.8278
22435SOL    HW170198   2.422   3.889   9.663  0.1301  1.1974  0.6977
22435SOL    HW270199   2.546   3.879   9.577  0.0819  0.1381  0.7329
22436SOL     OW70200  10.530   2.277   8.872 -0.1067 -0.7264  0.0493
22436SOL    HW170201  10.529   2.339   8.945  3.8252  1.0425 -1.1352
22436SOL    HW270202  10.476   2.317   8.804 -0.4746 -0.3706  0.5509
22437SOL     OW70203   1.338   3.335   8.345 -0.3607 -0.0877  0.8012
22437SOL    HW170204   1.369   3.408   8.291 -0.8880 -0.5525 -0.1613
22437SOL    HW270205   1.418   3.288   8.369 -0.1973 -0.7467 -0.8851
22438SOL     OW70206   3.078   7.316  10.317 -0.5104 -0.2162  0.5234
22438SOL    HW170207   3.080   7.329  10.222  0.1929 -1.5266  0.3324
22438SOL    HW270208   3.159   7.358  10.348  0.2538 -1.4450  0.2757
22439SOL     OW70209   2.077   6.088   7.985  0.2239 -0.4125  0.2327
22439SOL    HW170210   2.007   6.147   7.957 -1.3307 -0.9073  2.7291
22439SOL    HW270211   2.147   6.101   7.920 -2.1096  0.1439 -2.3877
22440SOL     OW70212   9.593   0.668   4.684 -0.2995  0.0729  0.5486
22440SOL    HW170213   9.576   0.762   4.692  0.3128  0.2839 -0.4023
22440SOL    HW270214   9.580   0.633   4.772 -0.5476  1.0467  0.9086
22441SOL     OW70215   2.620   7.682   4.323  0.4675  0.4703  0.2954
22441SOL    HW170216   2.574   7.676   4.239 -1.2149  0.8301  1.1648
22441SOL    HW270217   2.709   7.651   4.303 -0.2225 -0.5962 -1.3533
22442SOL     OW70218   9.268   0.447   4.254  0.3242  0.0268 -0.5075
22442SOL    HW170219   9.241   0.533   4.288 -0.3170 -1.2203  2.4073
22442SOL    HW270220   9.330   0.468   4.184 -0.9167  2.8579 -0.8990
22443SOL     OW70221   5.563   0.186   4.568  0.1560 -0.4204  0.5349
22443SOL    HW170222   5.563   0.091   4.571 -0.5483 -0.4251  0.7267
22443SOL    HW270223   5.633   0.212   4.627  0.6681 -0.8211  0.1121
22444SOL     OW70224   7.903   1.589   3.040 -0.5148 -0.2567  0.4232
22444SOL    HW170225   7.809   1.606   3.026 -0.4897 -0.0289  0.5219
22444SOL    HW270226   7.919   1.617   3.130 -0.3505 -0.2902  0.4045
22445SOL     OW70227   7.721   2.593   4.760  0.4095  0.1117 -0.2340
22445SOL    HW170228   7.709   2.688   4.761  1.2756  0.2763 -1.8698
22445SOL    HW270229   7.797   2.578   4.816 -1.6032 -0.0023  2.6488
22446SOL     OW70230   8.036   6.380  10.640 -0.1511 -0.2743 -0.1452
22446SOL    HW170231   8.020   6.470  10.670  0.6020  0.1393 -0.9348
22446SOL    HW270232   7.950   6.338  10.644 -0.5625  0.5520 -0.0014
22447SOL     OW70233   4.857   6.542   9.770 -0.0602  0.2014 -0.0743
22447SOL    HW170234   4.927   6.594   9.731 -0.5249  1.4360  0.6785
22447SOL    HW270235   4.776   6.584   9.740 -0.4858 -0.9790 -0.6216
22448SOL     OW70236   8.384   6.507   2.191  0.2852 -0.5703  0.2090
22448SOL    HW170237   8.459   6.466   2.149 -0.2332 -1.6437  0.2982
22448SOL    HW270238   8.417   6.537   2.276  1.2090  1.1703 -0.7136
22449SOL     OW70239   4.162   8.047   5.897 -0.6604 -0.2755  0.3550
22449SOL    HW170240   4.082   8.003   5.928 -1.1042  0.3400  0.1075
22449SOL    HW270241   4.233   7.987   5.921 -1.0211 -0.0863  2.0632
22450SOL     OW70242   7.160   5.510  10.738  0.3681 -0.3276  0.1101
22450SOL    HW170243   7.153   5.479  10.648 -1.2375  2.2021 -0.7748
22450SOL    HW270244   7.197   5.598  10.730 -0.8081  0.3766  1.7799
22451SOL     OW70245   8.987   1.354   5.427 -0.2164 -0.0780  0.3337
22451SOL    HW170246   9.020   1.348   5.337 -1.5647 -0.0029 -0.1835
22451SOL    HW270247   8.902   1.311   5.424 -0.0647 -0.5105  1.6972
22452SOL     OW70248   6.597   5.917   3.266 -0.2828  0.9294 -0.2880
22452SOL    HW170249   6.537   5.970   3.214 -0.5992 -0.8750 -1.8952
22452SOL    HW270250   6.676   5.912   3.212 -0.6148 -0.9896 -0.6796
22453SOL     OW70251   0.946   4.081   0.428 -0.1882  0.2071  0.1580
22453SOL    HW170252   0.936   4.088   0.523  1.4968 -0.4723  0.4247
22453SOL    HW270253   1.037   4.104   0.412 -0.2442 -0.4352 -1.2061
22454SOL     OW70254   5.319   9.415   7.793 -0.1071  0.5533  0.1940
22454SOL    HW170255   5.389   9.480   7.787  0.7836 -0.3814  0.2001
22454SOL    HW270256   5.320   9.387   7.884  1.1732 -1.2147 -0.3068
22455SOL     OW70257   4.031   3.760   4.577 -0.0310 -0.9948  0.2725
22455SOL    HW170258   3.942   3.731   4.558 -0.0997 -1.1667  0.8490
22455SOL    HW270259   4.057   3.810   4.500 -1.4772  1.0610  1.0379
22456SOL     OW70260   3.909   3.609   2.847  0.0963 -0.5627 -0.4239
22456SOL    HW170261   3.950   3.649   2.771 -0.0600 -1.3855 -0.9616
22456SOL    HW270262   3.815   3.608   2.825  0.1752 -2.0029 -0.8356
22457SOL     OW70263   1.646   2.699   6.431  0.1149 -0.3455  0.0337
22457SOL    HW170264   1.710   2.768   6.445 -1.0513  1.8903 -3.9543
22457SOL    HW270265   1.689   2.637   6.372 -0.4975 -0.2770 -0.5001
22458SOL     OW70266   1.805   2.197   3.774 -0.0845  0.1858 -0.3493
22458SOL    HW170267   1.798   2.209   3.680  0.2374  0.9480 -0.2839
22458SOL    HW270268   1.718   2.222   3.808 -0.3250 -0.4661 -0.4722
22459SOL     OW70269   9.590   9.983   9.000 -0.1957 -0.2794 -0.0404
22459SOL    HW170270   9.641  10.022   9.071  1.0634  0.6417 -1.3810
22459SOL    HW270271   9.636   9.901   8.981 -0.2139 -0.2699 -0.1237
22460SOL     OW70272   2.159   3.259   6.031 -0.4893 -0.9537 -0.7528
22460SOL    HW170273   2.204   3.341   6.012  0.0730  0.1545  4.1109
22460SOL    HW270274   2.066   3.282   6.032 -0.3673 -0.4795  0.1072
22461SOL     OW70275   5.649   5.255   7.620  0.5075 -0.3060 -0.2585
22461SOL    HW170276   5.677   5.333   7.572  1.5742 -0.4602  0.0743
22461SOL    HW270277   5.680   5.182   7.567 -2.9634 -0.6683 -2.0821
22462SOL     OW70278   2.782   1.010   1.170 -0.0740  0.5374  0.1277
22462SOL    HW170279   2.832   0.930   1.151  1.5936  1.3319  0.9121
22462SOL    HW270280   2.768   1.050   1.084 -0.5358 -0.3526 -0.2286
22463SOL     OW70281   0.679   7.261   8.481 -0.1225 -0.0533  0.2284
22463SOL    HW170282   0.682   7.201   8.556  3.2807  0.4448  0.6155
22463SOL    HW270283   0.677   7.348   8.520 -0.2440  0.1860 -0.3066
22464SOL     OW70284   5.699   7.488   0.397 -0.1384  0.5888  0.0607
22464SOL    HW170285   5.649   7.412   0.368  2.7517 -1.5624  0.2990
22464SOL    HW270286   5.778   7.488   0.343  1.3731  1.5605  2.0777
22465SOL     OW70287   5.375   1.203   0.229 -0.1801  0.0219  0.2106
22465SOL    HW170288   5.405   1.123   0.187 -0.4182 -0.6256  1.2522
22465SOL    HW270289   5.281   1.191   0.240 -0.0516 -0.0537  1.3801
22466SOL     OW70290   1.820   9.515   7.966 -0.1153 -0.1800  0.0058
22466SOL    HW170291   1.846   9.498   7.875  1.1939 -1.6489  0.5995
22466SOL    HW270292   1.901   9.538   8.010 -0.7975  0.8692  0.7599
22467SOL     OW70293   4.612   0.192   5.257 -0.1103 -0.7087 -0.4496
22467SOL    HW170294   4.535   0.166   5.206 -0.8385 -1.3774  0.9401
22467SOL    HW270295   4.582   0.266   5.311  0.5909 -0.1400 -0.8194
22468SOL     OW70296   7.774   6.121   8.521  0.0162  0.0122  0.1267
22468SOL    HW170297   7.791   6.085   8.435 -0.1857  0.6900 -0.2067
22468SOL    HW270298   7.680   6.105   8.535  0.1342 -0.4581  0.3968
22469SOL     OW70299   6.334   2.424   0.443  0.0377  0.0330 -0.2576
22469SOL    HW170300   6.415   2.446   0.489  0.9619 -0.9311 -1.3560
22469SOL    HW270301   6.273   2.493   0.467  0.5035 -0.3414  2.2734
22470SOL     OW70302  10.290   6.572   1.490 -0.2905 -0.1153  0.3177
22470SOL    HW170303  10.296   6.655   1.537  1.6146  0.1159 -0.2398
22470SOL    HW270304  10.353   6.514   1.535  1.1070 -0.0777 -1.4663
22471SOL     OW70305   9.149   6.061   1.496 -0.4394 -0.2224 -0.6182
22471SOL    HW170306   9.179   6.148   1.523 -0.0573 -0.7621  0.8187
22471SOL    HW270307   9.230   6.014   1.474 -0.5034 -0.6565  0.0435
22472SOL     OW70308   8.221   4.791   0.174  0.1351  0.0170  0.3126
22472SOL    HW170309   8.291   4.808   0.112  1.2638  0.7516  1.7232
22472SOL    HW270310   8.260   4.733   0.240 -0.5041  0.5831  1.2184
22473SOL     OW70311   6.354   1.512   6.070  0.3364 -0.2904  0.0317
22473SOL    HW170312   6.345   1.461   6.150  0.6490 -1.2061 -0.4994
22473SOL    HW270313   6.438   1.485   6.033  0.5069  0.6131 -0.2710
22474SOL     OW70314   5.443   8.540   9.818  0.3955  0.2919  0.6437
22474SOL    HW170315   5.538   8.548   9.829  0.7298 -1.2050 -0.7035
22474SOL    HW270316   5.424   8.449   9.840 -1.0724  1.0286  2.7690
22475SOL     OW70317   5.990   7.181  10.560 -0.4844 -0.3382 -0.1003
22475SOL    HW170318   5.925   7.116  10.585 -0.8111  0.6701  1.8243
22475SOL    HW270319   5.939   7.258  10.534 -0.0779 -0.0562 -0.0743
22476SOL     OW70320   8.600   7.415   4.481  0.0092 -0.4297  0.0749
22476SOL    HW170321   8.665   7.434   4.413  0.0992  0.6842  0.4547
22476SOL    HW270322   8.534   7.362   4.436  0.0037  0.3846 -0.9248
22477SOL     OW70323   4.333   0.642  10.256 -0.6470 -0.2992  0.0696
22477SOL    HW170324   4.292   0.618  10.173 -0.9185  0.3814 -0.0001
22477SOL    HW270325   4.427   0.633  10.240 -0.7199 -0.6708 -0.1522
22478SOL     OW70326   9.537   8.615   3.702 -0.0092 -0.0998  0.4488
22478SOL    HW170327   9.473   8.686   3.699 -0.7789 -0.7994 -0.7007
22478SOL    HW270328   9.505   8.552   3.638  0.1391 -1.9072  2.0469
22479SOL     OW70329   4.158   0.408   7.995  0.2505 -0.0485 -0.4140
22479SOL    HW170330   4.096   0.390   7.923 -0.5010 -1.8616  0.6086
22479SOL    HW270331   4.244   0.387   7.957 -0.3050 -3.1369 -0.2838
22480SOL     OW70332   8.641   3.233   5.208  0.1186 -0.2754 -0.0273
22480SOL    HW170333   8.671   3.143   5.194 -0.6401 -0.4994 -0.2222
22480SOL    HW270334   8.572   3.246   5.142  0.6665  0.6672 -0.4358
22481SOL     OW70335   0.968   9.400   9.125 -0.3000  0.1835  0.1092
22481SOL    HW170336   1.010   9.399   9.039  0.9885 -0.0016  0.7235
22481SOL    HW270337   0.930   9.488   9.132  0.8808  0.7229 -0.0531
22482SOL     OW70338   4.322   5.877   5.474  0.1669  0.0751 -0.5377
22482SOL    HW170339   4.338   5.934   5.399 -0.4029 -1.5830 -2.0067
22482SOL    HW270340   4.380   5.801   5.459 -0.1092 -0.3858  0.6002
22483SOL     OW70341   0.244   3.939   9.017  0.0524  0.0874  0.0741
22483SOL    HW170342   0.286   3.859   9.047  1.7313  0.5957 -0.7778
22483SOL    HW270343   0.221   3.922   8.926  3.0564  1.4250 -1.0814
22484SOL     OW70344   8.190   3.507   2.989 -0.5686 -0.3290 -0.6594
22484SOL    HW170345   8.120   3.532   3.050  1.0988  3.3789 -0.0052
22484SOL    HW270346   8.243   3.444   3.039 -2.0868 -1.3899 -0.3123
22485SOL     OW70347   3.821   2.127   3.897  0.1390 -0.0758  0.1122
22485SOL    HW170348   3.731   2.157   3.906  0.1970 -0.2884  1.5770
22485SOL    HW270349   3.812   2.038   3.862 -0.3611 -0.8882  2.1330
22486SOL     OW70350   5.114  10.454   2.583 -0.7050  0.0972 -0.5519
22486SOL    HW170351   5.121  10.360   2.602  3.1335  0.4120  0.3766
22486SOL    HW270352   5.080  10.492   2.663  2.4863 -0.0942  1.0543
22487SOL     OW70353   5.418  10.722   5.167 -0.0472  0.2341 -0.0788
22487SOL    HW170354   5.456  10.809   5.182  0.7347  0.2463 -1.8786
22487SOL    HW270355   5.468  10.686   5.094  0.9733 -2.5575  1.8036
22488SOL     OW70356   5.382   9.419   3.929 -0.7276 -0.5947  0.3354
22488SOL    HW170357   5.375   9.325   3.914 -0.4512 -0.8612  1.7537
22488SOL    HW270358   5.306   9.440   3.983 -0.1941 -0.2237  0.9565
22489SOL     OW70359  10.520   5.457   6.747 -0.6475 -0.4264  0.1432
22489SOL    HW170360  10.479   5.390   6.802 -1.8242 -0.2160 -0.4431
22489SOL    HW270361  10.446   5.507   6.712  0.2032  2.4748  2.1096
22490SOL     OW70362   5.177   3.421   2.208 -0.4449 -0.3607  0.2306
22490SOL    HW170363   5.208   3.399   2.295  1.4302  0.4356 -0.1904
22490SOL    HW270364   5.199   3.513   2.197  1.1622 -0.8993 -1.7670
22491SOL     OW70365   3.400   5.565   1.202 -0.0782 -0.7550  0.0885
22491SOL    HW170366   3.366   5.650   1.230  2.0995  0.2123 -0.0261
22491SOL    HW270367   3.376   5.506   1.273  0.7359  0.5530  1.5189
22492SOL     OW70368   9.785   0.254   5.302 -0.0833  0.3456  0.1652
22492SOL    HW170369   9.761   0.199   5.228  1.7192 -1.1627  0.6262
22492SOL    HW270370   9.869   0.291   5.278  0.5698 -0.2400  1.4692
22493SOL     OW70371   5.767   8.858   7.956 -0.1886 -0.5510 -0.7831
22493SOL    HW170372   5.676   8.881   7.976  0.2767  0.7770 -0.0076
22493SOL    HW270373   5.808   8.845   8.042 -0.0888 -3.1492 -1.1575
22494SOL     OW70374   1.363   8.819   1.557 -0.8283 -0.4470  0.2334
22494SOL    HW170375   1.349   8.912   1.542 -2.0047 -0.6289  0.1017
22494SOL    HW270376   1.375   8.811   1.652  1.7943  0.1069  0.0409
22495SOL     OW70377   4.682   9.095   7.665  0.3025  0.2265 -0.4013
22495SOL    HW170378   4.646   9.034   7.600 -1.1588  0.8433 -0.2209
22495SOL    HW270379   4.742   9.042   7.716  0.2250 -0.6862 -1.2120
22496SOL     OW70380   7.762   4.561   0.296  0.4528 -0.4175  0.3469
22496SOL    HW170381   7.750   4.538   0.388  1.2231 -1.4533  0.2058
22496SOL    HW270382   7.845   4.520   0.271  0.7821  0.7241 -0.5375
22497SOL     OW70383   2.099   9.191   4.237 -0.2246 -0.0976 -0.0050
22497SOL    HW170384   2.015   9.177   4.280 -0.3667 -2.2970 -0.8326
22497SOL    HW270385   2.095   9.136   4.158  1.3504  1.0456 -0.9582
22498SOL     OW70386   4.099   3.836   4.838  0.1810  0.2151  0.1580
22498SOL    HW170387   4.064   3.857   4.751  0.0996 -0.8278 -0.0726
22498SOL    HW270388   4.033   3.778   4.877  2.0078 -2.5800 -0.6530
22499SOL     OW70389   7.821   7.311   5.927  0.0934 -0.3743 -0.1604
22499SOL    HW170390   7.752   7.244   5.927  0.7786 -1.1021 -0.9655
22499SOL    HW270391   7.805   7.363   5.849 -0.1947  0.1647  0.2484
22500SOL     OW70392   7.322   4.522   7.305 -0.4877  0.1756  0.1459
22500SOL    HW170393   7.311   4.505   7.399 -0.0201 -0.5358  0.0762
22500SOL    HW270394   7.398   4.580   7.300  0.0867 -0.5670  0.1459
22501SOL     OW70395   5.078  10.461   5.230 -0.1711 -0.0783  0.4662
22501SOL    HW170396   5.076  10.502   5.317  0.7384 -0.1360  0.5219
22501SOL    HW270397   5.121  10.377   5.244  0.1249 -0.0210 -0.0672
22502SOL     OW70398   0.383   8.025   8.622  0.1033 -0.0296  0.2698
22502SOL    HW170399   0.474   8.050   8.605  0.1761  0.0668  0.8074
22502SOL    HW270400   0.359   8.071   8.702  0.1782 -1.5067  1.1890
22503SOL     OW70401  10.287   2.964   1.710 -0.0948  0.4993  0.0254
22503SOL    HW170402  10.208   2.919   1.681 -0.3992  1.2531 -0.3521
22503SOL    HW270403  10.341   2.896   1.749 -2.1420  0.3869  2.9588
22504SOL     OW70404  10.707   2.658   4.041 -0.6614  0.1368  0.5073
22504SOL    HW170405  10.701   2.744   4.000  4.0273 -0.1471 -1.3184
22504SOL    HW270406  10.729   2.677   4.133  0.3082  0.9511  0.1258
22505SOL     OW70407   6.338   9.930   7.325 -0.0429  0.7955  0.3485
22505SOL    HW170408   6.416   9.899   7.371 -0.8856 -0.2543  1.1327
22505SOL    HW270409   6.351   9.902   7.234  0.2307  0.0972  0.5973
22506SOL     OW70410   7.095   9.819   3.630 -0.1343  0.4637  0.0784
22506SOL    HW170411   7.162   9.804   3.696 -0.4042 -1.2236  0.0245
22506SOL    HW270412   7.018   9.848   3.679 -0.7878 -2.1656  0.7665
22507SOL     OW70413   4.776   4.723   5.802 -0.4263  0.1257 -1.0543
22507SOL    HW170414   4.859   4.689   5.837 -0.7753 -0.0649 -0.3920
22507SOL    HW270415   4.767   4.809   5.843 -1.3789 -0.5490  0.2431
22508SOL     OW70416   3.758   3.217   3.649 -0.1730 -0.8612  0.5995
22508SOL    HW170417   3.691   3.151   3.666 -1.5317 -0.4734 -2.5172
22508SOL    HW270418   3.816   3.176   3.584 -0.6218  0.6619 -0.8331
22509SOL     OW70419   1.923   4.666   8.973  0.0614  0.8013 -0.6793
22509SOL    HW170420   1.913   4.574   8.998 -0.0397  0.9066 -0.3336
22509SOL    HW270421   1.882   4.715   9.044  0.0159  1.1104 -0.9191
22510SOL     OW70422   1.285   7.871   4.825  0.0561 -0.0165  0.1374
22510SOL    HW170423   1.302   7.904   4.737  1.3181 -0.7201  0.0843
22510SOL    HW270424   1.225   7.934   4.864  0.6822  1.1377 -0.7025
22511SOL     OW70425   8.842   5.899   6.094 -0.2103  0.3035 -0.0932
22511SOL    HW170426   8.831   5.919   6.001 -0.3527 -0.3199 -0.2143
22511SOL    HW270427   8.849   5.804   6.098  0.7962  0.3875  0.4329
22512SOL     OW70428   3.737  10.384   1.135  0.1727 -0.3188 -0.3453
22512SOL    HW170429   3.659  10.374   1.081  0.3402 -1.0764 -0.4604
22512SOL    HW270430   3.799  10.320   1.100  0.1489 -1.0982  0.9799
22513SOL     OW70431   0.469   8.405   2.035  0.5548 -0.5193 -0.2171
22513SOL    HW170432   0.455   8.382   1.943 -1.4556 -1.8402  0.3634
22513SOL    HW270433   0.455   8.499   2.038 -1.0453 -0.6985 -1.0082
22514SOL     OW70434   3.805   1.693   0.583 -0.1360  0.5391 -0.4723
22514SOL    HW170435   3.857   1.707   0.663 -0.2273  0.2179 -0.3542
22514SOL    HW270436   3.745   1.768   0.580 -1.7598 -0.6231  1.0450
22515SOL     OW70437   5.544   6.407   6.587  0.1789 -0.0726 -0.1615
22515SOL    HW170438   5.564   6.313   6.589 -1.0698 -0.3452  0.5314
22515SOL    HW270439   5.489   6.421   6.664 -0.4255  1.0540 -0.7850
22516SOL     OW70440   2.266   8.345   1.070  0.1274  0.0492  0.2415
22516SOL    HW170441   2.219   8.294   1.135 -0.5831  0.1655 -0.1741
22516SOL    HW270442   2.202   8.407   1.036  0.5041  0.0426 -0.5184
22517SOL     OW70443   5.579   9.381   8.069  0.2587 -0.1903 -0.3310
22517SOL    HW170444   5.491   9.346   8.063 -0.7873  1.5689  2.5716
22517SOL    HW270445   5.567   9.476   8.072  2.3336  0.1298 -0.7631
22518SOL     OW70446   5.260   8.735   6.328 -0.2488  0.0731 -0.2785
22518SOL    HW170447   5.294   8.793   6.396 -0.9711  1.2573 -0.8955
22518SOL    HW270448   5.277   8.781   6.246  0.0632 -1.0579 -0.8742
22519SOL     OW70449   4.381   9.595   9.478 -0.9015 -0.4661 -0.5161
22519SOL    HW170450   4.472   9.607   9.506 -0.3407  0.2737 -2.4970
22519SOL    HW270451   4.329   9.630   9.550  0.4180  0.4955  0.0001
22520SOL     OW70452   8.236   8.134   2.388  0.1112  0.1992  0.1365
22520SOL    HW170453   8.324   8.112   2.359 -0.3919  0.5791 -1.8186
22520SOL    HW270454   8.212   8.211   2.337 -2.6089 -1.8644 -2.0167
22521SOL     OW70455   2.737   0.858   7.147 -0.5663 -0.3081 -0.3019
22521SOL    HW170456   2.700   0.809   7.073 -2.4668 -0.9601  1.0196
22521SOL    HW270457   2.729   0.799   7.222  1.9280  0.0799  0.3866
22522SOL     OW70458   9.250   7.668   0.255 -0.0736 -0.3152  0.1283
22522SOL    HW170459   9.344   7.676   0.240  0.3147 -1.0839  1.8871
22522SOL    HW270460   9.217   7.758   0.247  1.0115  0.1496  0.6661
22523SOL     OW70461   7.696  10.788   0.869 -0.2453  0.2194  0.1385
22523SOL    HW170462   7.612  10.833   0.874  0.9962  2.8328 -0.7527
22523SOL    HW270463   7.724  10.798   0.778  1.3917  0.1453  0.5970
22524SOL     OW70464   1.454   4.064  10.291  0.3150  0.0695  0.4103
22524SOL    HW170465   1.449   4.016  10.209 -1.7626 -0.2405  0.6534
22524SOL    HW270466   1.393   4.137  10.281  0.9605  0.7585  1.2398
22525SOL     OW70467   2.827   9.878   4.057  0.0071  0.2688  0.1504
22525SOL    HW170468   2.858   9.945   4.118 -0.5113  1.1466 -0.5382
22525SOL    HW270469   2.734   9.898   4.045 -0.1370 -0.5328 -0.1245
22526SOL     OW70470   0.370   6.339   4.283 -0.4162  0.1139  0.0529
22526SOL    HW170471   0.339   6.401   4.217 -1.9847 -0.7900 -0.1089
22526SOL    HW270472   0.295   6.282   4.299  0.5452 -0.8661  1.2273
22527SOL     OW70473   0.422  10.443   0.466  0.6937  0.7652  0.1062
22527SOL    HW170474   0.329  10.428   0.483  0.8458 -1.8936 -0.9183
22527SOL    HW270475   0.423  10.504   0.391 -0.2310  0.6430 -0.0203
22528SOL     OW70476   2.129   3.482   4.252 -0.2085  0.1233 -0.0265
22528SOL    HW170477   2.054   3.519   4.298 -0.0928 -0.2887  0.5036
22528SOL    HW270478   2.098   3.398   4.219 -0.1131  0.1477 -0.1776
22529SOL     OW70479  10.251   4.855   6.084 -0.1667 -0.1358  0.1556
22529SOL    HW170480  10.231   4.851   6.178 -0.0834 -1.5347  0.1391
22529SOL    HW270481  10.303   4.934   6.074 -1.7446  1.0690  0.9723
22530SOL     OW70482  10.254  10.302   8.974 -0.2766  0.5718  0.3907
22530SOL    HW170483  10.215  10.389   8.968  0.5063  0.9896  1.0329
22530SOL    HW270484  10.180  10.243   8.988 -1.0634  0.8230 -2.1427
22531SOL     OW70485   7.171   6.254   3.550 -0.2128  0.7980 -0.2133
22531SOL    HW170486   7.098   6.300   3.507 -0.4328 -1.9591 -3.1985
22531SOL    HW270487   7.128   6.194   3.611 -0.4062  0.2387 -0.8773
22532SOL     OW70488   2.068  10.479   5.953 -0.3805  0.2014  0.4330
22532SOL    HW170489   2.072  10.457   5.860 -0.4583 -0.4301  0.5707
22532SOL    HW270490   2.022  10.404   5.993  1.2767 -0.4202  1.2520
22533SOL     OW70491   7.610   0.895   3.417  0.0133  0.3235  0.0270
22533SOL    HW170492   7.530   0.850   3.444  0.7811 -1.8023 -1.0334
22533SOL    HW270493   7.676   0.867   3.480  0.5246 -0.2048 -0.7146
22534SOL     OW70494   2.303   1.912   1.178  0.3480  1.1944 -0.3207
22534SOL    HW170495   2.303   1.981   1.112  1.2496  2.7524  1.2250
22534SOL    HW270496   2.316   1.958   1.261 -0.4782 -0.7105  0.9327
22535SOL     OW70497   8.211   3.969   7.883 -0.0148  0.5596 -0.5494
22535SOL    HW170498   8.272   3.988   7.812 -0.9980 -0.6522 -1.7822
22535SOL    HW270499   8.267   3.956   7.960  1.4917 -1.8342 -1.9070
22536SOL     OW70500   9.035   5.378   5.506 -0.1472 -0.2598  0.3029
22536SOL    HW170501   8.973   5.432   5.556  0.1747 -0.1205  0.5521
22536SOL    HW270502   9.027   5.410   5.416 -2.8336 -2.3646 -0.3531
22537SOL     OW70503  10.580   7.184   6.754  0.4622  0.0544  0.2697
22537SOL    HW170504  10.627   7.228   6.825 -0.2689  0.0049  0.8030
22537SOL    HW270505  10.541   7.256   6.704 -1.6523  0.0902  1.7762
22538SOL     OW70506   2.990   2.756   6.557  0.3604  0.2240  0.1866
22538SOL    HW170507   2.902   2.761   6.521  0.3852  0.5882  0.1677
22538SOL    HW270508   3.003   2.842   6.599  0.7994  0.2633 -0.0296
22539SOL     OW70509   6.270   3.637   3.993 -0.0709  0.4715  0.1520
22539SOL    HW170510   6.293   3.688   3.916  0.3735 -0.0866 -0.0857
22539SOL    HW270511   6.245   3.552   3.959 -1.8166  0.8235  0.4562
22540SOL     OW70512   2.812   8.333   4.425 -0.5249  0.2431 -0.5070
22540SOL    HW170513   2.861   8.297   4.499  1.0512  2.3927 -0.4115
22540SOL    HW270514   2.819   8.266   4.357  2.5506  0.3623 -0.4596
22541SOL     OW70515   3.966   7.462   7.571  0.5706 -0.2741  0.3662
22541SOL    HW170516   3.967   7.367   7.573  2.7414 -0.4884 -2.9969
22541SOL    HW270517   4.058   7.487   7.571  0.2335  1.5022 -2.6885
22542SOL     OW70518  10.770   2.725   2.963 -0.0867  0.0565  0.4680
22542SOL    HW170519  10.732   2.689   3.043  1.5938  1.6912  2.0559
22542SOL    HW270520  10.842   2.780   2.992 -0.8085  2.5439 -2.0069
22543SOL     OW70521   4.151   1.083   8.130 -0.0067 -0.0921 -0.2502
22543SOL    HW170522   4.140   1.113   8.040  1.5036 -0.1417 -0.4773
22543SOL    HW270523   4.242   1.054   8.135 -0.0841 -0.1690  1.2728
22544SOL     OW70524   6.490   5.140   3.489 -0.0852 -0.1299 -0.1294
22544SOL    HW170525   6.474   5.061   3.541 -2.8886  2.1845  2.9698
22544SOL    HW270526   6.436   5.128   3.411 -3.6467  0.1041  2.0605
22545SOL     OW70527   4.529   7.317   6.497 -0.3366 -0.0855 -0.1811
22545SOL    HW170528   4.482   7.258   6.439  1.1045 -2.9043  1.3129
22545SOL    HW270529   4.476   7.321   6.576  1.1714 -2.3313  1.0542
22546SOL     OW70530  10.244   0.074   3.289 -0.1778 -0.3472  0.1623
22546SOL    HW170531  10.218   0.008   3.353 -1.6979  0.4286  0.3705
22546SOL    HW270532  10.172   0.077   3.226  0.7925 -0.3020 -0.9777
22547SOL     OW70533   1.048   1.759   0.885  0.0372 -0.4404  0.3404
22547SOL    HW170534   1.128   1.748   0.936 -1.0801 -0.6823  2.0897
22547SOL    HW270535   1.076   1.809   0.808  1.6110  0.6504  1.5661
22548SOL     OW70536  10.604   2.979   4.997  0.1258 -0.2404  0.0678
22548SOL    HW170537  10.648   3.013   5.075 -0.0948 -0.1590  0.1549
22548SOL    HW270538  10.648   3.022   4.924 -3.2276  4.0461  0.2120
22549SOL     OW70539   8.535   7.668   8.400 -0.1156  0.1283  0.6398
22549SOL    HW170540   8.528   7.605   8.472  0.8963  0.6587  1.2175
22549SOL    HW270541   8.628   7.687   8.393 -0.3527  1.1721  0.1307
22550SOL     OW70542   8.976   8.406   2.323  0.2911 -0.8252 -0.0526
22550SOL    HW170543   8.955   8.439   2.236  0.5257  0.5859  0.3993
22550SOL    HW270544   8.903   8.436   2.378  1.9616  1.6984  0.9742
22551SOL     OW70545   3.151   5.793   8.076  0.3592  0.1545  0.0425
22551SOL    HW170546   3.089   5.787   8.003  0.8287 -0.4767 -0.3195
22551SOL    HW270547   3.230   5.750   8.043  0.6216 -0.0160  0.8852
22552SOL     OW70548   0.624   7.935   2.044  0.2746  0.3070  0.1290
22552SOL    HW170549   0.609   7.877   2.118 -1.2790  1.0595  0.4413
22552SOL    HW270550   0.695   7.992   2.072  0.2737  0.0318  0.6955
22553SOL     OW70551   0.086   2.270   3.789 -0.3011 -0.5049 -0.4944
22553SOL    HW170552   0.053   2.360   3.798 -0.7752 -0.5842 -1.3176
22553SOL    HW270553   0.108   2.244   3.878 -0.5405  0.2887 -0.1893
22554SOL     OW70554   2.878   2.606   7.596  0.1028  0.8749 -0.0963
22554SOL    HW170555   2.947   2.668   7.621  0.5668  0.2147  0.2757
22554SOL    HW270556   2.915   2.520   7.613 -0.8532  0.5068  0.2071
22555SOL     OW70557   2.745   5.942   9.503  0.3285 -0.1851  0.7861
22555SOL    HW170558   2.786   5.914   9.584  0.2305  3.8622  2.4664
22555SOL    HW270559   2.807   6.003   9.464 -0.9044  0.2080 -0.6541
22556SOL     OW70560   0.014   6.030   1.971  0.3739 -0.1683 -0.4261
22556SOL    HW170561   0.093   6.049   1.920  1.1508 -2.3521 -0.1287
22556SOL    HW270562   0.047   5.993   2.053 -0.8996  1.8941  1.1316
22557SOL     OW70563   6.290   4.717   1.320  0.2740 -0.4132 -1.0014
22557SOL    HW170564   6.296   4.747   1.229 -0.8654  1.4392 -0.5149
22557SOL    HW270565   6.255   4.628   1.313  1.9721 -1.0451 -2.4128
22558SOL     OW70566   8.073   4.329   1.283  0.0300 -0.3400  0.5900
22558SOL    HW170567   8.094   4.347   1.375  0.3216 -1.5768  0.7805
22558SOL    HW270568   7.997   4.270   1.287  0.3713 -0.8216  0.0574
22559SOL     OW70569   6.890   0.504   1.087 -0.1373 -0.0642  0.2333
22559SOL    HW170570   6.855   0.544   1.007  2.3769 -1.2705 -1.5958
22559SOL    HW270571   6.837   0.542   1.158 -2.9455  0.5302 -2.0004
22560SOL     OW70572   6.535   3.339   9.126 -0.0509  0.1674 -0.2598
22560SOL    HW170573   6.446   3.369   9.106  0.0671  0.7834  0.1190
22560SOL    HW270574   6.590   3.416   9.111  0.2347  0.2016  0.8980
22561SOL     OW70575  10.175   6.982   6.183  0.2390 -0.4564 -0.0890
22561SOL    HW170576  10.253   7.014   6.228  0.8846 -0.4533 -1.1813
22561SOL    HW270577  10.194   6.994   6.090  0.2487 -3.3728 -0.5637
22562SOL     OW70578   1.114   7.931   6.758  0.6660  0.0221 -0.3684
22562SOL    HW170579   1.146   7.916   6.847  2.2684 -1.7928 -1.2009
22562SOL    HW270580   1.191   7.957   6.708  0.8351 -3.4986 -2.2137
22563SOL     OW70581   1.950   4.589   8.660 -0.2384 -0.1316 -0.4330
22563SOL    HW170582   1.953   4.523   8.591 -1.1585  0.0119 -0.6124
22563SOL    HW270583   1.865   4.577   8.702  0.5042 -0.5750  1.0518
22564SOL     OW70584   0.191   6.495   0.986  0.2885 -0.1436 -0.1532
22564SOL    HW170585   0.150   6.449   0.913  0.9372  0.4846 -0.9235
22564SOL    HW270586   0.131   6.568   1.005  1.6520  1.6077 -2.1907
22565SOL     OW70587   2.678   0.509   6.695 -0.0974  0.2551 -0.5019
22565SOL    HW170588   2.699   0.475   6.782  0.0951 -0.9817 -1.0011
22565SOL    HW270589   2.594   0.553   6.705 -0.6778 -0.9387  0.0683
22566SOL     OW70590   4.997   0.516   7.110  0.6715 -0.0763  0.1123
22566SOL    HW170591   4.965   0.535   7.198 -0.8458  1.7997 -0.7808
22566SOL    HW270592   4.995   0.420   7.104  0.2479 -0.2098  1.9085
22567SOL     OW70593   9.547   4.212   0.355 -0.0267  0.1104  0.0290
22567SOL    HW170594   9.481   4.145   0.374 -0.5008  0.5355 -0.0738
22567SOL    HW270595   9.613   4.201   0.423  0.1209 -0.7497 -0.2565
22568SOL     OW70596   3.651   1.443   3.654  0.0318  0.6216 -0.1943
22568SOL    HW170597   3.619   1.514   3.710  0.1395  0.5282 -0.0114
22568SOL    HW270598   3.573   1.394   3.630 -0.0799  0.9858 -0.5777
22569SOL     OW70599   4.424   4.892  10.691  0.3788 -0.7121  0.4596
22569SOL    HW170600   4.501   4.894  10.634 -0.4475 -0.7761 -0.6897
22569SOL    HW270601   4.362   4.951  10.650 -0.8066 -1.9238  0.4488
22570SOL     OW70602   7.424  10.259   3.832 -0.6325  0.2257 -0.7919
22570SOL    HW170603   7.426  10.354   3.820  0.4016  0.9384  3.5862
22570SOL    HW270604   7.515  10.232   3.829 -0.6891 -0.1698  0.5525
22571SOL     OW70605   4.458   3.227   1.965  0.6954 -0.2375 -0.5440
22571SOL    HW170606   4.419   3.163   1.905 -0.1856 -0.5350  0.3160
22571SOL    HW270607   4.525   3.177   2.013  2.3801  0.3287 -2.1806
22572SOL     OW70608   2.696   4.364   0.554  0.1084 -0.7046 -0.1102
22572SOL    HW170609   2.659   4.451   0.568 -1.4904 -1.4223  0.3363
22572SOL    HW270610   2.775   4.362   0.608 -0.0990  0.3002  0.2416
22573SOL     OW70611   8.241   0.272   8.439 -0.1677 -0.3643 -0.3100
22573SOL    HW170612   8.319   0.217   8.432  0.1156 -0.0225  0.1231
22573SOL    HW270613   8.272   0.352   8.481 -0.1830  0.9173 -2.5486
22574SOL     OW70614   4.992   8.537   9.904  0.3631 -0.5520  0.2710
22574SOL    HW170615   4.908   8.530   9.858  0.6946 -2.4457 -0.1247
22574SOL    HW270616   5.058   8.535   9.835  0.7560  0.4163  0.6124
22575SOL     OW70617   4.410   9.261   4.152 -0.2849 -0.0045 -0.2378
22575SOL    HW170618   4.490   9.248   4.202 -0.1353 -0.7641 -0.6645
22575SOL    HW270619   4.423   9.211   4.072 -0.0635  2.0763 -1.5828
22576SOL     OW70620   8.301   4.099   3.953 -0.4389 -0.1515 -0.3534
22576SOL    HW170621   8.259   4.159   4.014  1.1561  0.9342 -0.2602
22576SOL    HW270622   8.371   4.058   4.005 -0.6090 -1.0368 -0.8058
22577SOL     OW70623   3.708   8.818   0.548  0.0555 -0.3207 -0.1307
22577SOL    HW170624   3.723   8.844   0.639  0.8978 -0.4624 -0.2155
22577SOL    HW270625   3.750   8.886   0.496 -1.3983  0.3622 -0.4578
22578SOL     OW70626   1.168  10.280   2.698  0.2833  0.4608 -0.3095
22578SOL    HW170627   1.228  10.291   2.625 -0.6520  1.2357 -0.9878
22578SOL    HW270628   1.182  10.357   2.753 -0.0918  0.6592 -0.4847
22579SOL     OW70629   6.761   5.966   7.104 -0.4539  0.2393 -0.4046
22579SOL    HW170630   6.669   5.974   7.126 -0.3593 -0.2511  0.2086
22579SOL    HW270631   6.787   6.053   7.074 -0.6777  0.8631  1.1306
22580SOL     OW70632   6.917   1.900   7.921  0.5923 -0.3410 -0.0654
22580SOL    HW170633   6.876   1.822   7.959 -2.6939  1.1053 -0.3453
22580SOL    HW270634   6.923   1.961   7.995 -0.9355  0.6150 -0.6840
22581SOL     OW70635   6.655   9.275   2.372  0.6795  0.3302  0.0934
22581SOL    HW170636   6.571   9.314   2.348  0.6164  0.5028  0.5909
22581SOL    HW270637   6.712   9.350   2.391  0.3346  0.1812  1.8162
22582SOL     OW70638   9.668   6.233   8.599  0.5012 -0.3627  0.3691
22582SOL    HW170639   9.673   6.199   8.688 -1.2133 -1.7731 -0.0076
22582SOL    HW270640   9.755   6.269   8.582  1.2386 -1.1789  2.1743
22583SOL     OW70641   4.125   9.612   8.558 -0.6210  0.3600 -0.4246
22583SOL    HW170642   4.071   9.560   8.498  0.6973  1.1227 -2.3711
22583SOL    HW270643   4.191   9.653   8.502 -0.3086  2.4391  1.3337
22584SOL     OW70644   8.411   0.744  10.423 -0.5519 -0.2959 -0.3231
22584SOL    HW170645   8.404   0.723  10.330  0.1186 -1.5171 -0.1246
22584SOL    HW270646   8.458   0.827  10.426 -1.8034  0.4579 -1.1101
22585SOL     OW70647   5.415  10.444   6.114 -0.1170  0.2871  0.0343
22585SOL    HW170648   5.414  10.425   6.020  1.6771  0.8557 -0.1462
22585SOL    HW270649   5.414  10.358   6.156 -0.1412  0.0052 -0.5330
22586SOL     OW70650   6.894   3.207   7.247 -0.1664  0.1174  0.0044
22586SOL    HW170651   6.849   3.147   7.187 -0.4704  0.9237 -0.5956
22586SOL    HW270652   6.965   3.245   7.194  0.0891  0.2061  0.4080
22587SOL     OW70653  10.243  10.656   2.196  0.0634  0.3910 -0.2269
22587SOL    HW170654  10.170  10.699   2.151  2.3244  2.7061 -1.9446
22587SOL    HW270655  10.275  10.591   2.134 -0.7855 -1.0298  0.7520
22588SOL     OW70656  10.414   0.053   2.926  0.1192  0.6985  0.4948
22588SOL    HW170657  10.332   0.088   2.891 -0.2750  0.8861  1.5677
22588SOL    HW270658  10.387  -0.017   2.985  0.7795  0.2862  0.3157
22589SOL     OW70659   9.313   7.406   7.440 -0.1067  0.6749  0.1319
22589SOL    HW170660   9.244   7.438   7.382  0.0413  0.2283 -0.2957
22589SOL    HW270661   9.311   7.465   7.515 -2.1344 -0.3785  0.9643
22590SOL     OW70662   8.739   4.607   7.692  0.0454 -0.7967  0.3331
22590SOL    HW170663   8.827   4.628   7.661 -0.0342 -0.2689  0.4472
22590SOL    HW270664   8.692   4.579   7.614  0.7276 -2.5477  0.5124
22591SOL     OW70665   6.630   9.802   5.989 -0.3849  0.1498  0.2269
22591SOL    HW170666   6.657   9.753   6.067  0.9481  0.4886  0.0149
22591SOL    HW270667   6.540   9.828   6.006  0.3546  1.5471  2.3658
22592SOL     OW70668   9.656   5.553   6.680  0.3419  0.3228  0.5039
22592SOL    HW170669   9.574   5.554   6.729 -0.8482  2.0679 -1.3525
22592SOL    HW270670   9.724   5.569   6.745 -0.7921 -0.8744  2.0431
22593SOL     OW70671   1.951   4.262   6.265  0.0917  0.1676 -0.4247
22593SOL    HW170672   1.871   4.309   6.286 -0.5670 -1.4129  0.8789
22593SOL    HW270673   1.925   4.200   6.197  0.7316  1.0116 -1.4716
22594SOL     OW70674   0.667   3.219   7.975  0.0124  0.3817 -0.4892
22594SOL    HW170675   0.682   3.158   8.047  1.6528  4.4215  3.0332
22594SOL    HW270676   0.572   3.217   7.962 -0.4809  0.0915  2.4787
22595SOL     OW70677   8.536   7.573   3.697  0.3305 -0.4989  0.6033
22595SOL    HW170678   8.597   7.513   3.739  2.4807  0.7609 -0.5705
22595SOL    HW270679   8.567   7.581   3.607 -0.5859  1.4434  0.4016
22596SOL     OW70680   2.456   4.751   0.693 -0.3634 -0.6101 -0.5169
22596SOL    HW170681   2.366   4.719   0.701 -0.6424  0.1502 -0.5990
22596SOL    HW270682   2.475   4.747   0.599  0.1526 -1.9982 -0.3790
22597SOL     OW70683   0.951   7.317   2.837 -0.6554  0.0363  0.0439
22597SOL    HW170684   1.008   7.380   2.794  0.3061 -1.1231 -0.4388
22597SOL    HW270685   1.011   7.255   2.878 -1.5339 -1.8987 -1.4732
22598SOL     OW70686   8.586   1.942   4.536  0.3302 -0.4631 -0.3210
22598SOL    HW170687   8.494   1.924   4.520 -0.5817  0.5043  3.0950
22598SOL    HW270688   8.591   2.037   4.546  1.9478 -0.3802 -1.5110
22599SOL     OW70689   1.842   8.309  10.236 -0.2579  0.0343  0.3426
22599SOL    HW170690   1.832   8.399  10.206  1.4185 -0.1263 -0.8529
22599SOL    HW270691   1.820   8.312  10.329 -0.9736  1.5101  0.1553
22600SOL     OW70692   7.906   2.996   2.315  0.5910 -0.0603  0.3272
22600SOL    HW170693   7.971   2.936   2.353 -0.1993 -1.7294 -0.8332
22600SOL    HW270694   7.825   2.945   2.313 -0.1614  1.1212 -0.5635
22601SOL     OW70695   9.997   3.738   2.556 -0.0061 -0.3361  0.1969
22601SOL    HW170696   9.936   3.665   2.572 -0.3399 -0.3502 -1.0398
22601SOL    HW270697  10.022   3.768   2.644 -0.6029 -1.3219  0.7260
22602SOL     OW70698   7.982   9.061   8.976 -0.4522  0.1474  0.2093
22602SOL    HW170699   7.905   9.093   9.022 -1.6309  0.5623 -1.9034
22602SOL    HW270700   8.010   8.984   9.026 -2.9360 -0.6979  0.4236
22603SOL     OW70701   7.877   6.863   7.755  0.0147  0.0080  0.3769
22603SOL    HW170702   7.835   6.935   7.708  0.9288  1.5098  1.7490
22603SOL    HW270703   7.835   6.863   7.841  1.7813  0.6847  1.3144
22604SOL     OW70704   3.393   0.582   6.983  0.5519 -0.0238  0.5609
22604SOL    HW170705   3.312   0.576   6.932  0.2409 -1.2124  1.1611
22604SOL    HW270706   3.381   0.521   7.055  1.4414  0.7956  1.4415
22605SOL     OW70707  10.455   5.450   4.853 -0.7514 -0.2319  0.0808
22605SOL    HW170708  10.496   5.532   4.825 -0.0576 -0.3627  0.6707
22605SOL    HW270709  10.383   5.436   4.791  0.5103 -0.3490 -1.4077
22606SOL     OW70710   2.899   7.742   6.395 -0.2244 -0.7966  0.1368
22606SOL    HW170711   2.963   7.685   6.351  1.7061 -0.8704  2.7907
22606SOL    HW270712   2.875   7.694   6.475 -0.6226  0.9317  1.1017
22607SOL     OW70713   1.026   8.501   9.108 -0.5508 -0.2050  0.5732
22607SOL    HW170714   0.962   8.435   9.134 -0.9803  0.0811  0.2648
22607SOL    HW270715   1.020   8.504   9.013  0.6106 -0.8501  0.4654
22608SOL     OW70716   2.818   0.658   8.415 -0.2611  0.0665 -0.3610
22608SOL    HW170717   2.771   0.675   8.334 -0.8464  1.7485  0.2810
22608SOL    HW270718   2.770   0.706   8.482  0.8025 -0.4152  0.8067
22609SOL     OW70719   5.259   0.277   9.262 -0.1333  0.3043 -0.2099
22609SOL    HW170720   5.226   0.189   9.247  0.6591 -0.4188  1.8730
22609SOL    HW270721   5.188   0.321   9.310  0.6002 -0.2003  1.3900
22610SOL     OW70722  10.716   2.033   7.871 -0.3833  0.2762 -0.4976
22610SOL    HW170723  10.778   2.054   7.801 -0.5974  1.4238 -0.3577
22610SOL    HW270724  10.712   1.937   7.871 -0.6661  0.2496 -2.3092
22611SOL     OW70725   2.999   7.699   4.745  0.2970  0.1610 -0.3413
22611SOL    HW170726   2.927   7.716   4.685 -1.3245  1.0690  1.7440
22611SOL    HW270727   3.025   7.785   4.778 -0.0677 -0.4011  1.5539
22612SOL     OW70728   1.281   1.857   0.456 -0.2924  0.1052 -0.0674
22612SOL    HW170729   1.252   1.873   0.545  2.0125  1.7366  0.4821
22612SOL    HW270730   1.218   1.904   0.401 -0.2713  1.2978  0.8883
22613SOL     OW70731   1.789   1.755   9.692  0.0697  0.4130  0.0247
22613SOL    HW170732   1.749   1.718   9.771 -0.3731  0.7462 -0.0426
22613SOL    HW270733   1.789   1.850   9.707  2.2736  0.3652  0.7194
22614SOL     OW70734   7.060  10.792   8.218 -0.2720  0.1942  0.2573
22614SOL    HW170735   7.113  10.830   8.148 -1.4081 -1.1270 -1.3877
22614SOL    HW270736   6.972  10.827   8.203 -0.2548  1.0243  1.9240
22615SOL     OW70737   2.929   0.161   6.719  0.5926  0.3163  0.2190
22615SOL    HW170738   2.899   0.173   6.809  0.7713  2.0005  0.0851
22615SOL    HW270739   3.024   0.157   6.725  0.6235  0.8088  0.0695
22616SOL     OW70740   4.658   3.128   6.447 -0.6300  0.1300 -0.5556
22616SOL    HW170741   4.608   3.073   6.508  0.8057 -0.1227  0.4266
22616SOL    HW270742   4.707   3.188   6.503  2.2791 -1.4123 -1.2736
22617SOL     OW70743   9.677   8.050   4.183 -0.0725  0.0820 -0.3644
22617SOL    HW170744   9.722   8.061   4.099  0.4469 -0.5953 -0.1833
22617SOL    HW270745   9.656   8.139   4.210  0.6059  0.3709 -0.7568
22618SOL     OW70746   1.413   3.398   7.564 -0.1639  0.0855 -0.0584
22618SOL    HW170747   1.489   3.454   7.546  1.0080 -1.0974  0.9551
22618SOL    HW270748   1.362   3.448   7.628 -0.9119  1.4196 -1.6404
22619SOL     OW70749   3.500   4.020   1.209  0.5536 -0.5891 -0.0911
22619SOL    HW170750   3.590   4.001   1.232  0.7732 -1.2919 -1.4274
22619SOL    HW270751   3.506   4.067   1.126 -0.2886 -0.1724  0.0684
22620SOL     OW70752   8.486   7.912   8.862 -0.5174  0.6408  0.2728
22620SOL    HW170753   8.551   7.973   8.896  2.0701 -1.1853 -1.0308
22620SOL    HW270754   8.443   7.960   8.791  0.8840  1.2580 -0.1954
22621SOL     OW70755  10.106   9.792   6.274 -0.7538 -0.2045  0.2832
22621SOL    HW170756  10.057   9.724   6.229 -1.3289 -0.3145  1.0520
22621SOL    HW270757  10.067   9.875   6.245  1.6992  0.0386 -2.7866
22622SOL     OW70758   7.995   5.462   8.265  0.1306  0.3695  0.1402
22622SOL    HW170759   7.944   5.451   8.345 -1.3619 -0.7445 -0.8892
22622SOL    HW270760   7.945   5.414   8.199  0.1151  3.0646 -1.9712
22623SOL     OW70761   0.407   5.398   1.188 -0.0634 -0.4056 -0.0288
22623SOL    HW170762   0.493   5.417   1.152 -1.1915  1.0557 -2.1715
22623SOL    HW270763   0.346   5.445   1.131 -2.1871  0.0448  2.4119
22624SOL     OW70764   2.836   3.570  10.105  0.1993  0.3429  0.5002
22624SOL    HW170765   2.781   3.637  10.146 -2.0251 -1.0715  0.0427
22624SOL    HW270766   2.865   3.609  10.023  0.1608  1.2419  0.9034
22625SOL     OW70767   4.994   5.810   1.485  0.5431  0.1189 -0.4976
22625SOL    HW170768   5.054   5.876   1.520  0.7527  0.4159 -1.3911
22625SOL    HW270769   5.052   5.743   1.449  0.3374 -0.8352  0.8615
22626SOL     OW70770   1.763   1.028   8.402  0.1465 -0.1921  0.1813
22626SOL    HW170771   1.673   1.000   8.422  0.8322 -1.6512  1.4131
22626SOL    HW270772   1.768   1.117   8.437  0.1723 -1.3381  3.3825
22627SOL     OW70773   3.995   4.650   9.185 -0.1337  0.1100 -0.2179
22627SOL    HW170774   3.973   4.689   9.101  0.1280 -1.0858 -0.8597
22627SOL    HW270775   4.072   4.698   9.214 -0.3764  0.7025 -0.5269
22628SOL     OW70776   7.305   0.250   4.945  0.8761  0.0097 -0.8318
22628SOL    HW170777   7.369   0.180   4.962  1.3818  0.1551 -2.0673
22628SOL    HW270778   7.358   0.325   4.920  0.3630  0.9947  0.8374
22629SOL     OW70779   5.866   6.124   0.870 -0.1320 -0.1051 -0.6059
22629SOL    HW170780   5.870   6.216   0.844 -1.3817 -0.1829 -1.1781
22629SOL    HW270781   5.866   6.075   0.788 -0.8749 -0.5280 -0.3739
22630SOL     OW70782   7.852   6.553   5.325 -0.1454  0.5832 -0.2056
22630SOL    HW170783   7.871   6.612   5.252  1.4236 -2.9114 -2.9405
22630SOL    HW270784   7.772   6.508   5.298  1.0547 -1.5403 -0.4655
22631SOL     OW70785   4.200   4.921   3.786 -0.4337  0.1710 -0.2244
22631SOL    HW170786   4.227   5.012   3.785  0.3990 -0.0663 -1.0209
22631SOL    HW270787   4.138   4.913   3.714 -0.5476  0.1261 -0.1210
22632SOL     OW70788   1.969  10.408   6.775  0.3904 -0.1401  0.3294
22632SOL    HW170789   1.942  10.434   6.687 -0.8007 -1.1040  0.3811
22632SOL    HW270790   1.923  10.469   6.833  2.1390  1.3019  0.2891
22633SOL     OW70791   1.130   4.353   8.007 -0.0513 -0.1473 -0.1673
22633SOL    HW170792   1.205   4.351   7.949  0.1846 -0.3692  0.1438
22633SOL    HW270793   1.123   4.445   8.034  1.0246 -0.3686  0.9794
22634SOL     OW70794   0.754   6.504   7.000  0.6844 -0.0591 -0.2837
22634SOL    HW170795   0.741   6.486   6.906 -1.2192 -1.5177  0.2014
22634SOL    HW270796   0.666   6.521   7.034  1.3345  0.3338  1.2853
22635SOL     OW70797   4.603   0.127   1.815  0.2415 -0.3439 -0.6808
22635SOL    HW170798   4.644   0.213   1.805  1.0200 -0.8897 -2.7207
22635SOL    HW270799   4.519   0.135   1.768 -1.4427  0.3231  2.2159
22636SOL     OW70800   9.140   0.236   2.706  0.1479  0.0862  0.3823
22636SOL    HW170801   9.099   0.321   2.690  1.8618  1.1688  1.4513
22636SOL    HW270802   9.232   0.256   2.722  0.7712 -2.0781 -0.1808
22637SOL     OW70803   2.896   0.413   0.380  0.2548 -0.0014 -0.4775
22637SOL    HW170804   2.884   0.318   0.380  0.2991 -0.0852  2.6753
22637SOL    HW270805   2.807   0.448   0.381  0.1345 -0.1816  2.6619
22638SOL     OW70806   0.131   1.749   4.287 -0.1725  0.3252 -0.2147
22638SOL    HW170807   0.125   1.671   4.231 -0.7211  0.9355 -1.0223
22638SOL    HW270808   0.197   1.804   4.245 -0.3756  0.6586 -0.0992
22639SOL     OW70809   9.221   0.755   5.572 -0.5596 -0.0489  0.1449
22639SOL    HW170810   9.193   0.829   5.518 -0.8239 -0.9050 -0.9128
22639SOL    HW270811   9.141   0.703   5.585 -0.0490 -1.0215 -0.5240
22640SOL     OW70812   8.754   3.356   0.633 -0.0148 -0.5826 -0.5648
22640SOL    HW170813   8.684   3.422   0.641 -0.5821 -1.1966 -0.3369
22640SOL    HW270814   8.834   3.407   0.625 -0.5447  0.1471 -1.3827
22641SOL     OW70815   2.155   4.101   1.456  0.2679  0.1876 -0.6131
22641SOL    HW170816   2.145   4.196   1.453  0.5861  0.2055 -1.8730
22641SOL    HW270817   2.079   4.068   1.407 -0.0336 -0.2391  0.1200
22642SOL     OW70818   6.384   2.360   6.398 -0.2444  0.2475  0.0264
22642SOL    HW170819   6.341   2.441   6.425 -0.5373 -0.6279  2.4174
22642SOL    HW270820   6.344   2.338   6.314 -1.6444  1.4988  0.3344
22643SOL     OW70821   4.966   5.056  10.490 -0.4178 -0.2647  0.3875
22643SOL    HW170822   5.039   5.010  10.530  0.3922  1.2542  0.7114
22643SOL    HW270823   5.006   5.125  10.437 -1.5958  0.3234  0.2169
22644SOL     OW70824   4.518   2.956   9.275 -0.1217  0.0453  0.6160
22644SOL    HW170825   4.576   2.900   9.327  1.4218  0.7476 -0.2734
22644SOL    HW270826   4.532   3.044   9.311 -0.1639  0.3179 -0.0300
22645SOL     OW70827   6.950   4.525   4.959 -0.3124 -0.4346  0.1595
22645SOL    HW170828   6.861   4.528   4.994 -0.2087  1.2842  0.3573
22645SOL    HW270829   6.947   4.457   4.892 -1.5578 -0.9579  0.7163
22646SOL     OW70830   7.954   5.117   1.877  0.0846 -0.0656  0.6162
22646SOL    HW170831   7.950   5.099   1.783 -0.6880  2.2346  0.1589
22646SOL    HW270832   8.046   5.134   1.894  0.2124 -0.3878  0.2727
22647SOL     OW70833   8.098   6.936   3.511 -0.0074 -0.3801 -0.0075
22647SOL    HW170834   8.131   6.902   3.594  0.2720 -1.2398 -0.4460
22647SOL    HW270835   8.106   6.861   3.451 -0.4733  0.1409 -0.7283
22648SOL     OW70836   3.660   4.303   8.061 -0.2303  0.0226 -0.0017
22648SOL    HW170837   3.754   4.296   8.077 -0.2183 -0.2313 -0.1772
22648SOL    HW270838   3.644   4.396   8.046  0.2881 -0.1394 -1.8054
22649SOL     OW70839   2.437   7.723   2.961 -0.4756  0.0287 -0.9015
22649SOL    HW170840   2.475   7.732   3.048 -1.0731 -0.1414 -0.6184
22649SOL    HW270841   2.347   7.693   2.977 -0.7506  0.4750 -1.5515
22650SOL     OW70842   9.797   6.177   7.771 -0.1460  0.5495 -0.9148
22650SOL    HW170843   9.774   6.118   7.699 -0.6551  0.5302 -0.7395
22650SOL    HW270844   9.713   6.198   7.813  0.1485  0.5569 -0.3204
22651SOL     OW70845   6.456   8.882   8.861  0.2204  0.0129 -0.1499
22651SOL    HW170846   6.528   8.824   8.886 -0.1148 -0.6635 -0.7385
22651SOL    HW270847   6.396   8.880   8.936  0.3261 -0.2109 -0.0700
22652SOL     OW70848   1.326   1.637   4.959 -0.2917 -0.7840  0.2933
22652SOL    HW170849   1.376   1.556   4.971 -0.0457 -0.4523  1.6966
22652SOL    HW270850   1.393   1.706   4.954 -0.4923 -0.6592 -1.0461
22653SOL     OW70851   2.633   8.124   2.654  0.3251  0.4586 -0.3422
22653SOL    HW170852   2.601   8.078   2.577 -3.1126  1.2875  0.3969
22653SOL    HW270853   2.570   8.102   2.723  0.9250  2.8874  1.1167
22654SOL     OW70854   0.193   6.346   9.560 -0.7475 -0.2969  0.6163
22654SOL    HW170855   0.253   6.361   9.487 -3.0384  0.3207 -1.2864
22654SOL    HW270856   0.107   6.369   9.524 -2.0123 -0.2184  3.4737
22655SOL     OW70857   6.557   3.306   1.945 -0.1317  0.1285  0.1612
22655SOL    HW170858   6.626   3.362   1.908  0.0839 -0.4216 -0.2803
22655SOL    HW270859   6.489   3.367   1.972  0.5306  0.6892  0.6178
22656SOL     OW70860   4.972   2.096   3.286 -0.3438 -0.5118 -0.2297
22656SOL    HW170861   5.003   2.010   3.312 -2.5939 -0.9935  1.1244
22656SOL    HW270862   4.877   2.086   3.278 -0.5177  1.5062 -1.4343
22657SOL     OW70863   8.410   3.638   2.582  0.4002 -0.1358 -0.0367
22657SOL    HW170864   8.461   3.609   2.658 -0.3597  1.3390  1.0854
22657SOL    HW270865   8.377   3.725   2.607 -1.5919 -0.4921 -1.2295
22658SOL     OW70866   6.216   1.330   9.285  0.1668  0.1278 -0.3376
22658SOL    HW170867   6.133   1.314   9.240 -0.0889  0.7463 -0.0850
22658SOL    HW270868   6.206   1.416   9.324  0.7118 -0.0458  0.1880
22659SOL     OW70869   5.292   8.583   8.227  0.4140 -0.0102  0.6399
22659SOL    HW170870   5.301   8.551   8.138 -1.0117  1.2565 -0.0209
22659SOL    HW270871   5.246   8.513   8.274  0.2671 -0.2681  0.1139
22660SOL     OW70872   6.645   4.648   3.623  0.0602  0.1371  0.1091
22660SOL    HW170873   6.711   4.714   3.647 -0.4619  1.4999 -1.9615
22660SOL    HW270874   6.602   4.626   3.706 -0.2122  2.9303  0.8120
22661SOL     OW70875   2.659   5.071   9.827  0.3056 -0.0814 -0.5367
22661SOL    HW170876   2.660   5.128   9.904  0.1485 -1.1275  0.2737
22661SOL    HW270877   2.579   5.096   9.780  0.0690  0.1546 -0.0255
22662SOL     OW70878   1.785   7.080   7.726 -0.3302  0.5533 -0.5678
22662SOL    HW170879   1.753   7.155   7.775 -1.7120  0.9889 -2.0403
22662SOL    HW270880   1.722   7.010   7.743  1.7130 -0.8519  1.9645
22663SOL     OW70881   4.093   9.008   2.954 -0.7919  0.7279 -0.1336
22663SOL    HW170882   4.014   9.059   2.943 -0.6274  0.8205 -0.9281
22663SOL    HW270883   4.081   8.932   2.897  0.2056  1.3597 -1.2066
22664SOL     OW70884   8.373   4.877   6.683  0.5912  0.0566  0.0381
22664SOL    HW170885   8.457   4.848   6.651  1.2401  0.6650  1.1072
22664SOL    HW270886   8.366   4.968   6.653  0.1066 -0.1319 -0.4314
22665SOL     OW70887   3.062   5.396   9.697  0.3107  0.1741  0.0111
22665SOL    HW170888   2.985   5.376   9.750  1.0711 -0.6754  0.8339
22665SOL    HW270889   3.045   5.352   9.613  0.5832 -1.3729  0.7364
22666SOL     OW70890   9.888   7.137   4.156  0.3748  0.6304 -0.1473
22666SOL    HW170891   9.854   7.144   4.066  0.0578  1.7508  0.0410
22666SOL    HW270892   9.964   7.079   4.148 -1.0626 -1.2627 -0.7185
22667SOL     OW70893   8.800   0.987   7.721 -0.1046 -0.2689  0.2053
22667SOL    HW170894   8.796   1.066   7.668 -0.5607 -0.0722  0.5322
22667SOL    HW270895   8.884   0.993   7.767 -0.8881  0.8988  1.5659
22668SOL     OW70896   1.630   4.898   8.114 -0.1285 -0.3438 -0.2004
22668SOL    HW170897   1.690   4.840   8.161  1.9643  1.1724 -0.8316
22668SOL    HW270898   1.592   4.842   8.046  2.2031 -0.9518 -1.1145
22669SOL     OW70899   6.004   2.933   4.419 -0.2910 -0.0166  0.2229
22669SOL    HW170900   5.951   3.007   4.450  0.7278  0.1991  1.5215
22669SOL    HW270901   5.940   2.863   4.403 -0.8591 -0.3977  3.5743
22670SOL     OW70902   7.867   0.520   7.405 -0.3655  0.3517 -0.2125
22670SOL    HW170903   7.819   0.576   7.466 -1.8116 -1.3608  0.2872
22670SOL    HW270904   7.874   0.572   7.324  0.2648  2.0603  0.8882
22671SOL     OW70905   4.321   5.829   5.077  0.4293 -0.1017 -0.1301
22671SOL    HW170906   4.364   5.747   5.052 -0.2518 -0.8344  1.0550
22671SOL    HW270907   4.299   5.870   4.993 -0.2705 -1.6772 -0.7534
22672SOL     OW70908   7.686   5.966   6.877  0.0365 -0.4508  0.0269
22672SOL    HW170909   7.664   5.880   6.913 -0.9842 -0.3270 -0.2499
22672SOL    HW270910   7.739   5.947   6.800  2.0103 -0.7268  1.3711
22673SOL     OW70911   2.183   2.888   7.807 -0.4105  0.1371 -0.0943
22673SOL    HW170912   2.193   2.974   7.847 -0.0171  0.4116 -0.7642
22673SOL    HW270913   2.247   2.887   7.736 -0.9462 -0.4068 -0.5863
22674SOL     OW70914   3.998   8.670   2.561 -0.0933 -0.3135 -0.0528
22674SOL    HW170915   3.963   8.742   2.509 -2.5359  0.3902  2.3158
22674SOL    HW270916   3.942   8.596   2.539  0.3822 -0.6447 -0.1522
22675SOL     OW70917   6.393   9.761  10.193 -0.1050 -0.2514 -0.2624
22675SOL    HW170918   6.345   9.678  10.186  0.3713 -0.5120 -0.5036
22675SOL    HW270919   6.396   9.779  10.287  0.6957 -1.0612 -0.1110
22676SOL     OW70920   2.776   5.145   0.454  0.4424  0.6775 -0.3122
22676SOL    HW170921   2.710   5.198   0.498 -0.7228 -0.3094 -0.8182
22676SOL    HW270922   2.785   5.185   0.367 -0.1552  0.2717 -0.5606
22677SOL     OW70923   0.094   8.037  10.791  0.1467  0.2092 -0.1711
22677SOL    HW170924   0.026   8.016  10.728  2.5047 -0.0243 -2.8640
22677SOL    HW270925   0.139   7.954  10.806 -0.5209  0.1948  2.1653
22678SOL     OW70926   2.881   0.223   3.667 -0.2414 -0.2847  0.2455
22678SOL    HW170927   2.792   0.192   3.646 -0.2506 -0.6556  0.8279
22678SOL    HW270928   2.881   0.232   3.762  0.1098  0.4572  0.1769
22679SOL     OW70929   1.501   9.430   9.766  0.0754 -0.1497 -0.1294
22679SOL    HW170930   1.562   9.444   9.694  0.6511 -1.1973  0.1256
22679SOL    HW270931   1.427   9.384   9.726 -0.6294  1.2245 -0.4616
22680SOL     OW70932   2.641   3.313   8.177 -0.2695  0.0034  0.1244
22680SOL    HW170933   2.644   3.295   8.272 -0.0265  0.5276  0.2185
22680SOL    HW270934   2.733   3.307   8.150 -0.4276 -0.9386 -0.2337
22681SOL     OW70935   9.867   9.841   3.579 -0.8853 -0.5020 -0.7516
22681SOL    HW170936   9.903   9.768   3.529 -0.2322 -0.9431  0.3414
22681SOL    HW270937   9.928   9.913   3.561  1.3374 -1.5306  1.9626
22682SOL     OW70938   0.751   2.958   3.661 -0.2285 -0.0205  0.3472
22682SOL    HW170939   0.689   3.007   3.715 -0.0112  1.0413 -0.3513
22682SOL    HW270940   0.773   2.882   3.715 -2.0576 -0.3946  0.6469
22683SOL     OW70941   6.979   3.910   5.192  0.6201  0.1797  0.0956
22683SOL    HW170942   6.973   3.873   5.104 -1.8957 -1.6877  0.9283
22683SOL    HW270943   6.898   3.960   5.203 -0.6341 -2.0587  2.2346
22684SOL     OW70944   1.079  10.650   2.074 -0.3643 -0.3220 -0.3669
22684SOL    HW170945   1.051  10.592   2.145 -1.6089 -0.5260 -1.0123
22684SOL    HW270946   1.141  10.710   2.116 -1.6906  0.0960  1.0889
22685SOL     OW70947  10.510   2.851   8.471  0.0991  0.0201 -0.8276
22685SOL    HW170948  10.584   2.791   8.482  0.3635  0.1326 -1.8950
22685SOL    HW270949  10.527   2.896   8.389 -0.4898  1.0191 -0.4265
22686SOL     OW70950   0.531   8.105   0.648  0.0918 -0.1220  0.0073
22686SOL    HW170951   0.576   8.132   0.568 -0.1092  2.2345  0.5963
22686SOL    HW270952   0.581   8.148   0.718  1.0939 -3.1841  1.3489
22687SOL     OW70953   5.997   1.466   8.840 -0.0626  0.4880 -0.3912
22687SOL    HW170954   5.961   1.508   8.918 -0.2651 -0.1825 -0.1128
22687SOL    HW270955   5.926   1.469   8.776 -0.0966  0.5196 -0.3514
22688SOL     OW70956   9.119   7.189   5.669 -0.1108  0.2889  0.0276
22688SOL    HW170957   9.121   7.109   5.615 -1.9949  0.1937  0.0121
22688SOL    HW270958   9.137   7.158   5.758 -0.1382 -0.0595 -0.0855
22689SOL     OW70959   9.389   1.056  10.210 -0.3412  0.0987  0.8263
22689SOL    HW170960   9.380   1.151  10.202  0.7792  0.1634  0.0422
22689SOL    HW270961   9.392   1.025  10.120  0.4664 -0.5474  1.0652
22690SOL     OW70962  10.731   6.566   8.306  0.2546 -0.1920 -0.7763
22690SOL    HW170963  10.657   6.575   8.245  0.4366 -1.5391 -1.2324
22690SOL    HW270964  10.797   6.517   8.256  0.7978 -0.4532  0.1756
22691SOL     OW70965   2.618   8.022   1.723  0.4967  0.0380 -0.0680
22691SOL    HW170966   2.531   7.983   1.713  0.4628  0.3340 -1.0318
22691SOL    HW270967   2.662   8.004   1.640  1.2718  0.1015  0.3215
22692SOL     OW70968   6.616   9.443   4.462  0.0233  0.1569  0.0016
22692SOL    HW170969   6.657   9.412   4.543 -0.0882  0.4911  0.1879
22692SOL    HW270970   6.670   9.406   4.392 -0.2057 -0.5993  0.2130
22693SOL     OW70971   7.986   7.411   2.552  0.0662 -0.4456  0.1133
22693SOL    HW170972   8.071   7.434   2.589  0.6073 -1.1041 -0.6923
22693SOL    HW270973   7.947   7.495   2.526  1.1902 -0.2455 -1.0422
22694SOL     OW70974   0.027  10.408   9.650 -0.3511  0.3661 -0.1749
22694SOL    HW170975   0.056  10.332   9.701  1.0508  0.8921 -0.1338
22694SOL    HW270976  -0.067  10.396   9.639 -0.4077 -0.5934  1.1455
22695SOL     OW70977   4.971   0.164  10.413  0.1160 -0.1415  0.1762
22695SOL    HW170978   5.051   0.207  10.381 -0.7849  1.5860  0.1466
22695SOL    HW270979   4.998   0.073  10.428  1.5877 -0.0734 -1.6608
22696SOL     OW70980   5.996   8.770   4.217  0.2216  0.5726  0.3094
22696SOL    HW170981   6.017   8.814   4.299 -1.7037  1.1309  0.5680
22696SOL    HW270982   5.916   8.721   4.236  0.5402 -0.4531 -0.8542
22697SOL     OW70983  10.237   9.202   4.133  0.7572  0.6576  0.2226
22697SOL    HW170984  10.324   9.235   4.115  0.4780  1.1819 -0.1706
22697SOL    HW270985  10.231   9.203   4.229  0.7382  1.7982  0.2230
22698SOL     OW70986   5.466   4.420   6.902  0.0807  0.0841 -0.1753
22698SOL    HW170987   5.466   4.430   6.997 -0.5143  1.8587 -0.3297
22698SOL    HW270988   5.522   4.490   6.869  2.0272 -1.7666 -1.0933
22699SOL     OW70989   1.583   3.714   2.316 -0.0018  0.4214 -0.4229
22699SOL    HW170990   1.550   3.742   2.231  2.3692  2.0881 -0.8887
22699SOL    HW270991   1.507   3.720   2.375 -1.3155  0.7083 -2.0762
22700SOL     OW70992   4.302   1.912   4.842  0.3422 -0.1360 -0.2039
22700SOL    HW170993   4.231   1.871   4.793 -3.0782  2.8673  1.7678
22700SOL    HW270994   4.361   1.946   4.774 -1.1834 -0.9285 -2.0289
22701SOL     OW70995  10.775   2.834   8.562 -0.0239 -0.3807  0.4830
22701SOL    HW170996  10.821   2.839   8.478 -1.3746 -0.1124 -0.2717
22701SOL    HW270997  10.777   2.741   8.585 -0.4133 -0.5982 -0.3107
22702SOL     OW70998  10.077   8.532   3.887  0.5859 -0.0883 -0.1546
22702SOL    HW170999  10.015   8.511   3.818  0.2558  0.8905 -0.1657
22702SOL    HW271000  10.151   8.472   3.872  0.7499  0.4523 -1.6538
22703SOL     OW71001   8.322   7.132   3.497  0.0851  0.1168 -0.2908
22703SOL    HW171002   8.305   7.223   3.471 -1.9848 -0.3497 -0.7245
22703SOL    HW271003   8.236   7.091   3.500  1.0878 -2.3246 -1.8897
22704SOL     OW71004   2.400   8.632  10.457 -0.7379  0.1548  0.6435
22704SOL    HW171005   2.309   8.607  10.446 -0.4827 -0.3198 -0.4595
22704SOL    HW271006   2.396   8.719  10.498 -1.7838  1.5810 -2.1940
22705SOL     OW71007   0.968   6.273   0.303  0.2140 -0.3159 -0.1694
22705SOL    HW171008   0.993   6.256   0.393  0.9638 -1.3187 -0.5373
22705SOL    HW271009   0.876   6.296   0.307 -0.9792 -4.3459  0.5402
22706SOL     OW71010   0.554   6.154   3.392 -1.0676  0.4757  0.1119
22706SOL    HW171011   0.563   6.110   3.307  0.8129  0.5794  0.2047
22706SOL    HW271012   0.493   6.225   3.376 -0.4453  0.7332 -1.2747
22707SOL     OW71013   9.361   9.699   6.458  0.3614  0.1100  0.5648
22707SOL    HW171014   9.447   9.669   6.488  0.0317 -2.4757 -0.8190
22707SOL    HW271015   9.302   9.679   6.531  0.8514  2.1449  1.6344
22708SOL     OW71016   1.159   8.790   8.326 -0.0362  0.1121  0.7468
22708SOL    HW171017   1.202   8.801   8.410  1.4289 -1.2914  0.2168
22708SOL    HW271018   1.218   8.735   8.275 -0.3027  1.8325 -1.6225
22709SOL     OW71019   6.451   2.164   2.838  0.4888  0.4229  0.1340
22709SOL    HW171020   6.521   2.116   2.794  1.0500  1.1120  0.2587
22709SOL    HW271021   6.373   2.110   2.825  1.4552 -1.5856  1.9980
22710SOL     OW71022   1.452   9.185   3.441  0.5365  0.0385 -0.6760
22710SOL    HW171023   1.424   9.095   3.461  1.1143 -0.3086 -1.3956
22710SOL    HW271024   1.397   9.211   3.367  0.2781  0.3283 -0.3829
22711SOL     OW71025  10.386   2.064  10.301 -0.0398 -0.7234 -0.2893
22711SOL    HW171026  10.458   2.023  10.348 -0.2658  1.3353  2.0618
22711SOL    HW271027  10.428   2.124  10.240  0.3319  0.8207  1.4040
22712SOL     OW71028   1.889   6.551  10.336  0.3956 -0.1428  0.5568
22712SOL    HW171029   1.884   6.559  10.431 -0.0931 -0.6871  0.5845
22712SOL    HW271030   1.819   6.489  10.313  0.7154 -0.2707 -0.1206
22713SOL     OW71031   6.614  10.769   5.893 -0.4612 -0.2923  0.2200
22713SOL    HW171032   6.586  10.815   5.972  3.0284  2.1139  0.2891
22713SOL    HW271033   6.636  10.838   5.831  0.7403 -1.9847 -1.3782
22714SOL     OW71034   5.020   8.020   4.218  0.6715 -0.0632 -0.7454
22714SOL    HW171035   4.958   8.023   4.291 -0.1097 -1.3753 -1.3190
22714SOL    HW271036   5.105   8.000   4.259  0.7189  1.5771  0.0253
22715SOL     OW71037   3.080   2.502  10.397  0.4807  0.5242 -0.0862
22715SOL    HW171038   3.112   2.415  10.420  2.3224  1.6079  1.8863
22715SOL    HW271039   3.159   2.555  10.390 -0.5935  3.0339  3.4484
22716SOL     OW71040   3.207  10.320   8.331  0.1910 -0.2188 -0.0354
22716SOL    HW171041   3.203  10.244   8.389 -0.9196  0.3926  0.7230
22716SOL    HW271042   3.124  10.365   8.344  1.7299  2.4741  1.4033
22717SOL     OW71043   5.951   1.941   4.761  0.3984  0.1356 -0.2338
22717SOL    HW171044   6.024   1.959   4.703  2.1604 -1.6565  1.2688
22717SOL    HW271045   5.936   1.847   4.752 -1.1897  0.3253  0.1198
22718SOL     OW71046   0.444   7.317   9.357  0.5034  0.1057 -0.3303
22718SOL    HW171047   0.525   7.309   9.406  0.2234  2.5509  0.6865
22718SOL    HW271048   0.386   7.251   9.394  1.2024  0.0673  0.7225
22719SOL     OW71049   2.121   7.134   0.908  0.5825  0.4301 -0.2033
22719SOL    HW171050   2.094   7.082   0.832  1.1346 -1.7972  1.0628
22719SOL    HW271051   2.201   7.093   0.938 -1.0476 -0.5883  3.2672
22720SOL     OW71052   1.592   7.299   8.057 -0.1418 -0.0804 -0.2637
22720SOL    HW171053   1.628   7.362   8.119  0.4912 -1.2235  0.5615
22720SOL    HW271054   1.608   7.337   7.971  1.5956  0.2111  0.1488
22721SOL     OW71055   7.167   1.828   7.637  0.0502 -0.3036 -0.2408
22721SOL    HW171056   7.138   1.741   7.666  0.3886  0.0103  1.1237
22721SOL    HW271057   7.117   1.844   7.557  0.2926 -1.9265 -0.7640
22722SOL     OW71058   3.526   6.115   9.953  0.4222  0.0281 -0.0906
22722SOL    HW171059   3.500   6.053   9.885  2.8193 -0.5873 -0.5430
22722SOL    HW271060   3.536   6.198   9.907 -2.1934  0.6946  0.4028
22723SOL     OW71061   5.906   9.879   8.788 -0.0191  0.1411  0.3012
22723SOL    HW171062   5.835   9.824   8.820 -1.8728  1.7574 -0.8443
22723SOL    HW271063   5.908   9.954   8.848  0.7398  0.1142  0.3267
22724SOL     OW71064   8.343   0.584   8.878 -0.0780 -0.4902 -0.0902
22724SOL    HW171065   8.308   0.621   8.959  0.9503 -0.1598  0.2179
22724SOL    HW271066   8.312   0.642   8.809 -0.4227 -0.4060  0.1332
22725SOL     OW71067   4.139   0.938   0.001 -0.4600 -0.3008  0.0235
22725SOL    HW171068   4.067   0.999   0.018  0.1044 -0.0518  1.7176
22725SOL    HW271069   4.097   0.852  -0.001 -1.1318  0.0331 -1.4895
22726SOL     OW71070   9.613   1.538   7.771  0.4536 -0.3628  0.3331
22726SOL    HW171071   9.700   1.575   7.759  0.5727 -0.0331  2.0358
22726SOL    HW271072   9.627   1.460   7.826 -0.3253 -0.2460  0.7084
22727SOL     OW71073   5.726   9.658   8.335  0.1554 -0.6562  0.2405
22727SOL    HW171074   5.765   9.574   8.311  2.4488  0.2892  0.4227
22727SOL    HW271075   5.705   9.650   8.428 -1.0388 -1.5060 -0.0833
22728SOL     OW71076   3.158   5.546   0.657 -0.1726  0.0760  0.3461
22728SOL    HW171077   3.129   5.500   0.736 -0.0273 -0.1667  0.2595
22728SOL    HW271078   3.242   5.505   0.635 -0.2227  0.1303  0.0546
22729SOL     OW71079   6.216   3.161   3.005 -0.6674 -0.0311  0.5180
22729SOL    HW171080   6.286   3.176   3.069 -0.8630 -0.9364  0.9723
22729SOL    HW271081   6.193   3.068   3.017 -1.7535  0.1829  0.1854
22730SOL     OW71082   4.312   9.198   2.029  0.2997 -0.1918  0.0949
22730SOL    HW171083   4.366   9.203   1.951 -0.3117 -0.9028 -0.3896
22730SOL    HW271084   4.224   9.177   1.996 -0.1740  0.4645  0.8949
22731SOL     OW71085   6.264   1.183   6.742  0.3569 -0.6686 -0.0606
22731SOL    HW171086   6.359   1.182   6.747  0.3180 -1.8496  1.8257
22731SOL    HW271087   6.243   1.161   6.652  1.8165  2.0510 -1.1766
22732SOL     OW71088   8.560   6.340   2.530 -0.0934  0.4277 -0.2797
22732SOL    HW171089   8.642   6.291   2.537  0.1704  0.8959 -0.0268
22732SOL    HW271090   8.587   6.430   2.514 -0.5826  0.4461 -1.0203
22733SOL     OW71091   1.725   8.588   5.023  0.6793 -0.5522  0.2737
22733SOL    HW171092   1.804   8.613   4.975 -0.4285  0.0434 -1.3118
22733SOL    HW271093   1.708   8.661   5.082  0.7964 -0.2707 -0.0394
22734SOL     OW71094   1.079   4.289   3.713  0.4044 -0.1526  0.1777
22734SOL    HW171095   1.101   4.197   3.698  0.0127 -0.9400  3.5275
22734SOL    HW271096   1.161   4.336   3.698  0.5052 -0.9310 -2.0277
22735SOL     OW71097   3.366   1.417   6.683  0.0006 -0.3301  0.3502
22735SOL    HW171098   3.309   1.471   6.628  1.2852  0.0141 -0.6987
22735SOL    HW271099   3.377   1.336   6.633  0.4802 -0.3556  0.4897
22736SOL     OW71100   8.982   6.826   5.230  0.0228  0.2381 -0.0331
22736SOL    HW171101   8.963   6.847   5.321  0.8592 -0.2092  0.2453
22736SOL    HW271102   8.904   6.779   5.199 -0.2130  0.2918  0.4817
22737SOL     OW71103   9.540   3.545   1.286 -0.1751 -0.3517 -0.2183
22737SOL    HW171104   9.623   3.526   1.328 -0.6618  0.4023  1.1319
22737SOL    HW271105   9.481   3.477   1.318 -0.0102 -1.1046 -1.4596
22738SOL     OW71106   1.667   6.382   0.910 -0.0296 -0.1268  0.0418
22738SOL    HW171107   1.702   6.401   0.823  1.4917 -0.3358  0.5788
22738SOL    HW271108   1.732   6.417   0.970  0.0344 -1.8976  1.0786
22739SOL     OW71109   7.237   1.505   7.386  0.5526  0.1991 -0.2955
22739SOL    HW171110   7.289   1.425   7.381 -0.5387 -0.4811 -1.0078
22739SOL    HW271111   7.207   1.509   7.477  0.9291  0.0136 -0.1608
22740SOL     OW71112   5.899   0.067   9.520  0.3549 -0.1056  0.0527
22740SOL    HW171113   5.813   0.055   9.560 -0.9951 -1.2325 -2.8937
22740SOL    HW271114   5.904   0.161   9.503 -0.1812  0.0102  0.5043
22741SOL     OW71115   5.191   8.577   5.507  0.3964  0.3562  0.4395
22741SOL    HW171116   5.211   8.562   5.415  0.4439 -1.5811  0.7247
22741SOL    HW271117   5.265   8.538   5.554 -0.5991 -0.5180  1.3267
22742SOL     OW71118  10.154   4.552   3.482 -0.4451 -0.5566 -0.1564
22742SOL    HW171119  10.227   4.582   3.428 -1.7583 -0.0025 -1.7275
22742SOL    HW271120  10.175   4.583   3.570  1.2167 -0.4693 -0.5458
22743SOL     OW71121  10.609   3.801   0.967  0.0290 -0.2976  0.1469
22743SOL    HW171122  10.640   3.800   1.058 -0.0292  1.5416  0.2284
22743SOL    HW271123  10.515   3.785   0.974 -0.1616  0.8952  0.5333
22744SOL     OW71124   5.649   9.983   5.143 -0.4214  0.0907  0.0713
22744SOL    HW171125   5.733   9.998   5.099 -0.0617  0.2036  0.7844
22744SOL    HW271126   5.616  10.071   5.160 -2.2332  0.1625 -3.0109
22745SOL     OW71127   2.654   8.006   1.442  0.5909 -0.2712  0.0205
22745SOL    HW171128   2.590   7.952   1.394  0.0212 -0.6371  1.1611
22745SOL    HW271129   2.739   7.981   1.405  0.1338 -0.2404 -1.0782
22746SOL     OW71130  10.332   1.021   9.254 -0.1291  0.0803 -0.8042
22746SOL    HW171131  10.355   0.936   9.292 -2.0881  0.3589  1.2199
22746SOL    HW271132  10.263   1.001   9.191  0.5271  0.0322 -1.5252
22747SOL     OW71133   9.151   8.024   9.927 -0.1845  0.5017 -0.1334
22747SOL    HW171134   9.194   7.972   9.995  1.4230  0.3937 -1.1825
22747SOL    HW271135   9.058   8.019   9.949  0.0164 -1.8765  0.4668
22748SOL     OW71136   2.240   6.740   8.481 -0.1815 -0.0788  0.6096
22748SOL    HW171137   2.152   6.702   8.475 -0.4504  0.3577  1.6372
22748SOL    HW271138   2.294   6.668   8.512 -0.8596  0.5301  3.4426
22749SOL     OW71139   6.027   0.954   7.759 -0.2515 -0.1597  0.1742
22749SOL    HW171140   5.938   0.921   7.743  0.2634 -0.9897 -1.2355
22749SOL    HW271141   6.029   1.039   7.715 -0.2450 -0.2982 -0.0940
22750SOL     OW71142   8.786  10.606   2.853 -0.7926 -0.2985 -0.1294
22750SOL    HW171143   8.833  10.689   2.854 -0.2093 -0.5928 -1.2545
22750SOL    HW271144   8.768  10.589   2.761 -0.5856 -1.5878  0.0437
22751SOL     OW71145   1.665   9.855   2.401 -0.5745  0.1712 -0.0036
22751SOL    HW171146   1.744   9.813   2.369 -0.3157  0.4380  0.2773
22751SOL    HW271147   1.611   9.868   2.324  1.6859  4.5497 -1.2098
22752SOL     OW71148   0.352   5.238   6.212  0.3329 -0.2388 -0.1543
22752SOL    HW171149   0.447   5.242   6.223  0.3997 -0.1455 -0.7309
22752SOL    HW271150   0.333   5.146   6.197  0.0505 -0.6346  2.2771
22753SOL     OW71151   2.502  10.153   2.627 -0.2975  0.4513  0.2571
22753SOL    HW171152   2.497  10.232   2.681 -3.6151  1.0460 -0.7025
22753SOL    HW271153   2.562  10.177   2.556  2.2596  0.4562  2.2821
22754SOL     OW71154   2.973   8.922   7.494 -0.1777 -0.0052  0.2051
22754SOL    HW171155   3.020   8.940   7.575 -0.3377  0.8446  0.1194
22754SOL    HW271156   2.886   8.893   7.523  0.2318 -1.1368  0.3522
22755SOL     OW71157   7.866  10.166   2.675 -0.1979  0.1437  0.1593
22755SOL    HW171158   7.925  10.222   2.726 -0.1623 -1.0854  1.5370
22755SOL    HW271159   7.807  10.228   2.632  1.0759  1.3285  0.0140
22756SOL     OW71160   2.330   6.874   6.588 -0.3622  0.7492 -0.4977
22756SOL    HW171161   2.361   6.899   6.675 -0.6657 -0.7696  0.0672
22756SOL    HW271162   2.377   6.793   6.568 -1.0726  0.5230 -1.2970
22757SOL     OW71163   4.939   1.077   8.548 -0.7251  0.0716 -0.0216
22757SOL    HW171164   4.925   1.050   8.639  0.1019  2.0615  0.7533
22757SOL    HW271165   4.852   1.073   8.509 -1.0958 -0.8262  0.8464
22758SOL     OW71166   4.719  10.654   5.070  0.6050 -0.1039  0.4443
22758SOL    HW171167   4.633  10.693   5.087  0.8576  0.7745 -0.2208
22758SOL    HW271168   4.716  10.627   4.979  1.2420  0.5240  0.2229
22759SOL     OW71169   2.741   8.103   6.388 -0.2145  0.2932  0.1253
22759SOL    HW171170   2.814   8.137   6.336  0.0312 -1.5273 -0.8109
22759SOL    HW271171   2.666   8.158   6.362  0.4441  1.0641 -0.1963
22760SOL     OW71172   9.310   5.615   1.131  0.1131  0.0286  0.1058
22760SOL    HW171173   9.333   5.630   1.039 -1.5002 -0.3189 -0.3817
22760SOL    HW271174   9.288   5.702   1.165 -0.2915  0.0199 -0.1320
22761SOL     OW71175   6.940   6.074   0.800 -0.2114 -0.1279 -0.4754
22761SOL    HW171176   6.974   6.088   0.888 -0.5923 -0.5001 -0.2633
22761SOL    HW271177   6.860   6.126   0.796  0.5563  1.0617 -1.1057
22762SOL     OW71178  10.356   6.229   5.861  0.6343  0.0244 -0.4977
22762SOL    HW171179  10.282   6.194   5.811  0.1566 -0.3015  0.4174
22762SOL    HW271180  10.329   6.220   5.953  1.4519  0.7056 -0.1823
22763SOL     OW71181   3.307   7.047   9.841 -0.4278  0.0330 -0.1539
22763SOL    HW171182   3.291   7.132   9.801  1.6822 -0.2438 -1.7478
22763SOL    HW271183   3.398   7.026   9.819 -0.9377 -2.7314 -0.0089
22764SOL     OW71184   3.876   4.327   6.482  0.0144 -0.3215  0.0847
22764SOL    HW171185   3.803   4.389   6.485  0.6655  0.4203  1.6335
22764SOL    HW271186   3.836   4.245   6.453 -1.6958 -0.2037  1.8831
22765SOL     OW71187   2.239   0.671   6.335  0.6927  0.4251 -0.2895
22765SOL    HW171188   2.241   0.736   6.405 -0.1900  0.3322 -0.1685
22765SOL    HW271189   2.285   0.595   6.371  2.0235  1.0739 -0.5491
22766SOL     OW71190  10.630   4.355   1.147 -0.0127 -0.3383  0.1580
22766SOL    HW171191  10.554   4.317   1.189 -0.8030  0.6265 -0.3443
22766SOL    HW271192  10.626   4.323   1.056 -0.0698  0.0724  0.0150
22767SOL     OW71193   7.403   6.149  10.513  0.2603 -0.1741 -0.1093
22767SOL    HW171194   7.423   6.224  10.568  0.1278  1.6966 -2.4680
22767SOL    HW271195   7.309   6.155  10.497  0.7967  1.3612 -3.2236
22768SOL     OW71196   9.528   8.932   9.874 -0.1434 -0.1103  0.0715
22768SOL    HW171197   9.591   8.966   9.938  0.6028  1.0910 -1.2272
22768SOL    HW271198   9.495   8.851   9.913  0.8682  0.1626  1.5979
22769SOL     OW71199   7.758   6.383   7.256  0.4626 -0.0528 -0.0701
22769SOL    HW171200   7.733   6.390   7.348 -0.2836  2.1782 -0.3878
22769SOL    HW271201   7.851   6.363   7.258  0.5889  0.5796  1.1785
22770SOL     OW71202   7.556   1.653   1.178  0.2276  0.4604 -0.4743
22770SOL    HW171203   7.480   1.626   1.126  1.1104 -0.4515 -1.3267
22770SOL    HW271204   7.544   1.608   1.262 -0.0686  0.1510 -0.6816
22771SOL     OW71205   3.442   4.224   7.445  0.2323 -0.2005 -0.2430
22771SOL    HW171206   3.521   4.177   7.472  0.9826  0.6601 -0.8947
22771SOL    HW271207   3.373   4.190   7.503  1.2385 -0.3693  0.8897
22772SOL     OW71208   5.096   2.847   6.714 -0.1277 -0.1693 -0.6557
22772SOL    HW171209   5.066   2.763   6.678 -0.9309 -0.2637  0.1839
22772SOL    HW271210   5.120   2.899   6.638 -1.5943 -0.4364 -1.3308
22773SOL     OW71211   1.994   6.762   1.493 -0.4501  0.1254 -0.1982
22773SOL    HW171212   2.020   6.774   1.401  0.1347 -0.7749 -0.1695
22773SOL    HW271213   2.076   6.739   1.538 -0.7997  0.1610  0.4695
22774SOL     OW71214   9.396   7.985   8.822  0.1535 -0.2101  0.1800
22774SOL    HW171215   9.405   7.960   8.730 -1.4728  1.0352 -0.3481
22774SOL    HW271216   9.366   8.075   8.820 -3.4073 -1.1678  1.8030
22775SOL     OW71217   5.143   7.369   6.399  0.1236  0.3752 -0.3011
22775SOL    HW171218   5.105   7.320   6.472  1.6737 -1.1491 -0.4474
22775SOL    HW271219   5.099   7.454   6.402 -0.0646  0.2801  2.2400
22776SOL     OW71220   5.807   8.437   7.164 -0.2964  0.4233 -0.8078
22776SOL    HW171221   5.820   8.428   7.258  0.0875  0.8181 -0.8191
22776SOL    HW271222   5.716   8.465   7.155 -0.3196  0.4324 -0.5529
22777SOL     OW71223   7.171   2.848   0.081 -0.0944  0.0849  0.1072
22777SOL    HW171224   7.223   2.801   0.015  0.1373  0.1947  0.2111
22777SOL    HW271225   7.085   2.858   0.040  0.0481  0.1529 -0.1820
22778SOL     OW71226   9.861   3.591   2.289  0.0586  0.3489 -0.0400
22778SOL    HW171227   9.895   3.536   2.219  0.0447 -0.7856  0.8165
22778SOL    HW271228   9.933   3.650   2.310  0.2014  0.4314 -0.7276
22779SOL     OW71229  10.505   4.979   6.309  0.4460  0.2485  0.2171
22779SOL    HW171230  10.495   4.964   6.403  0.6488  0.9623  0.3591
22779SOL    HW271231  10.514   4.892   6.272  0.7064 -0.0250  0.9023
22780SOL     OW71232   2.985   6.882   2.478  0.0298 -0.2000  0.0990
22780SOL    HW171233   3.058   6.936   2.448 -0.1973 -0.3152 -0.6632
22780SOL    HW271234   2.907   6.930   2.453 -0.1672 -0.1803  0.7285
22781SOL     OW71235   4.431   2.267   5.725 -0.3058  0.0763 -0.0821
22781SOL    HW171236   4.399   2.251   5.636  1.3707  0.7263 -0.8585
22781SOL    HW271237   4.372   2.332   5.761 -1.0048 -0.1840 -0.7309
22782SOL     OW71238   6.041   0.252   2.944  0.2631 -0.3224 -0.1037
22782SOL    HW171239   6.068   0.226   2.856  0.9283 -0.3098  0.0936
22782SOL    HW271240   6.040   0.171   2.995  0.4635 -0.2405  0.0308
22783SOL     OW71241  10.790   8.598   3.666 -0.2472 -0.1875  0.5252
22783SOL    HW171242  10.835   8.535   3.610 -0.1767  1.4554 -1.3657
22783SOL    HW271243  10.697   8.577   3.657 -0.4729  1.6249 -2.3690
22784SOL     OW71244   3.280   1.692   3.509 -0.1571  0.1940 -0.5397
22784SOL    HW171245   3.268   1.724   3.419  0.0340 -0.7855 -0.9296
22784SOL    HW271246   3.238   1.605   3.509 -0.3610  0.2836  0.3816
22785SOL     OW71247   5.787   9.704  10.505 -0.2266 -0.6894 -0.2455
22785SOL    HW171248   5.709   9.758  10.486 -0.4722 -1.6182 -2.1053
22785SOL    HW271249   5.856   9.742  10.451  0.6559  0.0712  1.3301
22786SOL     OW71250  10.265   1.172   2.985  0.4718  0.6768  0.2201
22786SOL    HW171251  10.244   1.160   3.078 -0.5460 -2.3878 -0.2887
22786SOL    HW271252  10.346   1.123   2.972 -1.1512 -1.9218 -1.0479
22787SOL     OW71253   3.892   2.263   0.520 -0.3820 -0.0842 -0.3737
22787SOL    HW171254   3.917   2.170   0.525  0.6244  0.1505 -0.7922
22787SOL    HW271255   3.857   2.283   0.607  0.2373 -0.6189  0.0085
22788SOL     OW71256  10.260   3.090   5.917 -0.2960  0.7224  0.1781
22788SOL    HW171257  10.311   3.159   5.959  1.1097 -0.3687  0.3532
22788SOL    HW271258  10.261   3.112   5.824 -1.5891  1.9826  0.4176
22789SOL     OW71259   7.788   1.498   5.427 -0.4313 -0.7068 -0.5359
22789SOL    HW171260   7.776   1.495   5.522  1.6540  0.0231 -0.2080
22789SOL    HW271261   7.819   1.411   5.404  1.5695 -0.1422 -0.1216
22790SOL     OW71262   0.333   9.843   1.814 -0.3939 -0.0798 -0.2326
22790SOL    HW171263   0.301   9.930   1.837  3.3815  2.0744 -2.1832
22790SOL    HW271264   0.380   9.813   1.891 -0.3577  0.3446 -0.0869
22791SOL     OW71265   3.664   8.317   7.893  0.5055  0.2458  0.4921
22791SOL    HW171266   3.594   8.324   7.959  0.3428  0.4606  0.2990
22791SOL    HW271267   3.617   8.312   7.810  0.6732 -1.2236  0.4660
22792SOL     OW71268   7.163   7.598   7.013 -0.0888 -0.3588 -0.9543
22792SOL    HW171269   7.082   7.607   7.065 -0.0613 -0.7310 -0.8479
22792SOL    HW271270   7.161   7.509   6.980  1.1880 -1.0205  0.5991
22793SOL     OW71271   8.525   7.915   0.713  0.3142 -0.2966  0.0466
22793SOL    HW171272   8.535   7.873   0.627 -0.3814 -0.0394 -0.1679
22793SOL    HW271273   8.555   8.004   0.699  0.4169 -0.3182  0.1302
22794SOL     OW71274   8.689   1.112   3.723 -0.0576 -0.4574 -0.2365
22794SOL    HW171275   8.698   1.150   3.811 -1.3408  1.0417 -0.7037
22794SOL    HW271276   8.602   1.071   3.724 -1.0290  1.4416 -1.4134
22795SOL     OW71277   0.391   3.472   2.798 -0.0323  0.3067  0.5038
22795SOL    HW171278   0.375   3.532   2.872 -1.0107  0.2934  0.3271
22795SOL    HW271279   0.377   3.526   2.720  2.5206  0.7201  0.2701
22796SOL     OW71280   0.429   9.960   6.571  0.1962  0.0305 -0.7847
22796SOL    HW171281   0.426  10.000   6.658 -0.9087 -0.7114 -0.4680
22796SOL    HW271282   0.514   9.987   6.536 -0.0901  1.8133 -0.2025
22797SOL     OW71283   0.843   6.625   8.461  0.5985  0.4490  0.2116
22797SOL    HW171284   0.811   6.542   8.496 -0.0102  0.8507  0.6262
22797SOL    HW271285   0.789   6.641   8.384 -0.0080  0.9784  0.7391
22798SOL     OW71286   6.245   5.233   5.471 -0.2524  0.0488  0.3245
22798SOL    HW171287   6.295   5.286   5.409 -0.0764 -1.0738 -0.5302
22798SOL    HW271288   6.301   5.226   5.548 -0.4012  1.3183  0.5745
22799SOL     OW71289   6.123   3.215   5.982  0.0647  0.2972 -0.0203
22799SOL    HW171290   6.126   3.132   6.029 -0.8952  0.3049  0.0777
22799SOL    HW271291   6.198   3.212   5.923 -0.3946 -0.9814 -0.5800
22800SOL     OW71292   3.277   1.221   2.087  0.2141 -0.1666  0.2607
22800SOL    HW171293   3.187   1.213   2.121  0.2819 -0.4238  0.3830
22800SOL    HW271294   3.270   1.195   1.995 -0.1023  1.2150 -0.1311
22801SOL     OW71295   2.195   2.298   1.164  0.4696 -0.3706 -0.1691
22801SOL    HW171296   2.154   2.221   1.125  0.4646  0.4325 -1.8197
22801SOL    HW271297   2.190   2.365   1.096  1.2361  0.8396  0.9247
22802SOL     OW71298   6.818  10.070   1.103 -0.0314 -0.0621 -0.0610
22802SOL    HW171299   6.826  10.088   1.196  0.2466  0.4051 -0.1688
22802SOL    HW271300   6.907  10.053   1.074 -0.1441 -0.4325 -0.2018
22803SOL     OW71301  10.316   7.681   7.083 -0.4021  0.3510 -0.2845
22803SOL    HW171302  10.391   7.624   7.067 -1.2230 -0.5325 -1.0985
22803SOL    HW271303  10.315   7.692   7.178  0.1061 -0.5561 -0.1554
22804SOL     OW71304  10.602  10.272   7.098 -0.3791  0.3402 -0.3861
22804SOL    HW171305  10.697  10.268   7.105 -0.4311  0.5288  0.5844
22804SOL    HW271306  10.586  10.315   7.014  0.3793 -0.0376 -0.7332
22805SOL     OW71307   5.700   5.515   7.500 -0.5251 -0.4057 -0.2428
22805SOL    HW171308   5.668   5.604   7.513  0.4697  0.5789 -3.6347
22805SOL    HW271309   5.790   5.517   7.533 -0.2534  0.0827 -1.0045
22806SOL     OW71310   5.413  10.610   5.813 -0.2769  0.6017  0.7322
22806SOL    HW171311   5.441  10.686   5.762  0.3247  0.4583  0.8448
22806SOL    HW271312   5.493  10.561   5.830 -0.9506 -1.6089 -1.7595
22807SOL     OW71313   0.515   5.537   3.291 -0.0290  0.1779  0.3580
22807SOL    HW171314   0.545   5.624   3.264 -0.0462  0.3765  0.9717
22807SOL    HW271315   0.510   5.487   3.209 -4.3175  1.9833 -0.7777
22808SOL     OW71316   6.921   6.955   9.430 -0.9578  0.4484 -0.2298
22808SOL    HW171317   6.867   6.965   9.508  0.0174  1.0377  0.3880
22808SOL    HW271318   7.006   6.990   9.455  0.5234 -2.6990 -0.3327
22809SOL     OW71319   1.623   2.492   3.688 -0.2301  0.0410  0.1191
22809SOL    HW171320   1.534   2.526   3.690  0.1069  0.9817 -0.2929
22809SOL    HW271321   1.613   2.400   3.664 -1.1878 -0.2628  1.5465
22810SOL     OW71322   4.070   2.046  10.511  0.2723 -0.5617 -0.1735
22810SOL    HW171323   3.978   2.027  10.490  0.5373 -1.0762 -0.8882
22810SOL    HW271324   4.120   1.994  10.449  1.0732 -1.2346  0.9976
22811SOL     OW71325   9.910   5.575   2.733  0.1830  0.0418 -0.0989
22811SOL    HW171326   9.935   5.575   2.826 -0.3866 -0.9783  0.0744
22811SOL    HW271327   9.927   5.664   2.704  1.9171 -0.0205  0.5616
22812SOL     OW71328   6.302   1.533   4.788 -0.2262 -0.0466  0.4094
22812SOL    HW171329   6.308   1.438   4.778 -0.8365 -0.1352  0.8310
22812SOL    HW271330   6.276   1.564   4.701 -1.5294 -0.4273  0.6352
22813SOL     OW71331   0.624   1.364   8.251 -0.0362 -0.2996 -0.3441
22813SOL    HW171332   0.574   1.289   8.218 -0.6730  0.0448 -0.1608
22813SOL    HW271333   0.617   1.358   8.346  1.9361 -1.3829 -0.2070
22814SOL     OW71334   8.595  10.384   2.910  0.4193 -0.3410 -0.4020
22814SOL    HW171335   8.614  10.313   2.849  2.1502 -0.4025  0.1743
22814SOL    HW271336   8.645  10.458   2.876 -0.0104  0.1272 -0.0258
22815SOL     OW71337   2.171   3.624   0.417  0.3941  0.1605 -0.1208
22815SOL    HW171338   2.223   3.687   0.366  3.2744 -1.3068  0.7431
22815SOL    HW271339   2.149   3.671   0.498 -1.0870  1.3136 -1.1296
22816SOL     OW71340   2.342   3.576   6.360  0.3017  0.2160  0.4879
22816SOL    HW171341   2.362   3.538   6.446 -0.5189  1.0771  1.0656
22816SOL    HW271342   2.251   3.553   6.345  0.5988 -0.4095 -0.4221
22817SOL     OW71343   4.494   0.615   2.723  0.3832  0.9957  0.1295
22817SOL    HW171344   4.546   0.682   2.679  1.3409  0.4526  0.3972
22817SOL    HW271345   4.550   0.537   2.724 -0.6024  0.2566  0.0514
22818SOL     OW71346   8.493   6.792   5.306 -0.1112  0.4778 -0.3736
22818SOL    HW171347   8.557   6.862   5.315  0.7548 -0.3695  0.3642
22818SOL    HW271348   8.412   6.836   5.281  0.2470  1.8037  0.6582
22819SOL     OW71349   8.028  10.631   6.223  0.0590  0.0132  0.0312
22819SOL    HW171350   8.011  10.543   6.192  0.7393 -0.0612 -0.1530
22819SOL    HW271351   8.043  10.683   6.144 -0.4941  0.3307  0.1297
22820SOL     OW71352  10.550   2.026   6.641  0.3107  0.1392 -0.2876
22820SOL    HW171353  10.527   2.115   6.612 -0.3190  0.1722  0.2859
22820SOL    HW271354  10.467   1.989   6.671  0.8218 -0.0972  0.8918
22821SOL     OW71355   1.778   4.372   3.619 -0.0859 -0.1273  0.0848
22821SOL    HW171356   1.809   4.332   3.538  0.6632 -2.6019  1.5113
22821SOL    HW271357   1.858   4.399   3.665 -0.3605 -0.8822  1.0282
22822SOL     OW71358   7.951   7.764   9.921  0.0030  0.3379 -0.3450
22822SOL    HW171359   7.970   7.757  10.014 -0.3847  0.8117 -0.2238
22822SOL    HW271360   7.984   7.850   9.896  1.8100 -0.5096 -1.0849
22823SOL     OW71361   8.404   7.819   0.240 -0.0230 -0.5451 -0.3199
22823SOL    HW171362   8.346   7.840   0.166  0.4435 -2.1470 -1.1923
22823SOL    HW271363   8.487   7.860   0.217 -0.0700 -0.4684 -0.3540
22824SOL     OW71364   1.694   8.634   7.552  0.5401 -0.0961  0.0780
22824SOL    HW171365   1.613   8.660   7.508  1.2688  1.1827 -0.5659
22824SOL    HW271366   1.664   8.591   7.633 -0.7893  2.2021  0.9119
22825SOL     OW71367   0.832   8.377   1.651  0.5007  0.2164  0.0100
22825SOL    HW171368   0.871   8.447   1.598 -0.5176 -0.1435 -1.2627
22825SOL    HW271369   0.863   8.296   1.611 -1.0143 -0.0728 -0.6698
22826SOL     OW71370   3.740   3.838   0.151  0.0909 -0.0164  0.4403
22826SOL    HW171371   3.663   3.873   0.196 -0.5666 -0.9414  0.0700
22826SOL    HW271372   3.731   3.743   0.158  0.5977 -0.1577 -0.5934
22827SOL     OW71373   9.815  10.665   0.247  0.4089 -0.8270  0.3023
22827SOL    HW171374   9.791  10.593   0.189  1.5312 -0.3831 -0.7660
22827SOL    HW271375   9.909  10.676   0.234  0.0784  1.6979 -0.6350
22828SOL     OW71376   9.429  10.628   4.736 -0.1594  0.0598 -0.0952
22828SOL    HW171377   9.367  10.602   4.805 -0.6002 -1.5025 -1.0389
22828SOL    HW271378   9.481  10.698   4.777 -1.9912  0.8907  1.0004
22829SOL     OW71379   3.741   3.019   7.085  0.1525 -0.8924 -0.2444
22829SOL    HW171380   3.716   2.947   7.027  0.7065 -0.2769 -1.2808
22829SOL    HW271381   3.833   3.036   7.063  0.9723 -1.8459  2.1102
22830SOL     OW71382   0.364  10.314  10.285  0.6738 -0.0632 -0.4055
22830SOL    HW171383   0.444  10.267  10.313  0.6406  0.7109  1.0910
22830SOL    HW271384   0.358  10.388  10.345 -1.6458 -0.5739  0.0744
22831SOL     OW71385   4.762   7.729   2.470  0.1396  0.3292  0.3800
22831SOL    HW171386   4.807   7.702   2.389  0.5414 -0.0979  0.7330
22831SOL    HW271387   4.678   7.684   2.466  0.1335  0.3550  0.1717
22832SOL     OW71388   7.667   9.813   5.220  0.0210 -0.3928  0.4286
22832SOL    HW171389   7.734   9.749   5.197  0.8156 -0.0653  1.7509
22832SOL    HW271390   7.638   9.787   5.308  0.2130  0.9297  0.9065
22833SOL     OW71391   9.664   8.151   3.637 -0.0189 -0.1750 -0.2590
22833SOL    HW171392   9.593   8.142   3.574 -1.0906 -1.1643  1.0360
22833SOL    HW271393   9.664   8.068   3.685  1.2375  0.2762  0.5775
22834SOL     OW71394   9.018   0.341   0.369 -0.8352 -0.4304 -0.1917
22834SOL    HW171395   9.060   0.255   0.379 -0.8261 -0.3240  0.7570
22834SOL    HW271396   8.927   0.326   0.396 -0.6446  0.0219  0.7395
22835SOL     OW71397   3.843   1.889   0.017  0.2165  0.2554  0.7231
22835SOL    HW171398   3.922   1.838   0.037  0.3546  0.0416 -0.2975
22835SOL    HW271399   3.774   1.823   0.007  0.3028  0.2786 -0.1653
22836SOL     OW71400   8.745   2.905   3.679  0.0579 -0.0702  0.3322
22836SOL    HW171401   8.781   2.991   3.699 -0.9059  0.1838  1.0483
22836SOL    HW271402   8.666   2.898   3.734 -0.6089 -0.8714 -0.6732
22837SOL     OW71403   0.628   1.663   8.228 -0.1103 -0.3718 -0.3396
22837SOL    HW171404   0.616   1.660   8.133 -1.1911  1.0709 -0.2790
22837SOL    HW271405   0.611   1.573   8.257 -0.5781 -0.6514 -1.4265
22838SOL     OW71406   3.530   8.866   9.909  0.2596 -0.1187 -0.0031
22838SOL    HW171407   3.550   8.798   9.845  2.4127  0.1625  0.3041
22838SOL    HW271408   3.603   8.864   9.970  0.1652  2.1739  0.2650
22839SOL     OW71409   4.511   0.794   0.131 -0.0521  0.1275 -0.1500
22839SOL    HW171410   4.454   0.728   0.092  0.4364 -0.7861  0.6336
22839SOL    HW271411   4.587   0.798   0.073  0.1700 -0.4223  0.0911
22840SOL     OW71412   7.359   6.042   1.110  0.5922 -0.9429  0.0007
22840SOL    HW171413   7.389   5.967   1.059  2.2750 -0.1738 -0.2192
22840SOL    HW271414   7.393   6.118   1.064 -0.8309 -0.0342  0.3825
22841SOL     OW71415   4.747   8.534   9.755 -0.0664 -0.5712 -0.0784
22841SOL    HW171416   4.726   8.627   9.745  0.7634 -0.2456  1.0436
22841SOL    HW271417   4.783   8.508   9.670 -1.5112 -0.2286 -0.8372
22842SOL     OW71418   3.509   0.998   4.941  0.0362  0.0436  0.5471
22842SOL    HW171419   3.498   1.024   5.032 -0.4271  1.5124  0.0925
22842SOL    HW271420   3.454   0.920   4.931 -1.2262  0.8312  1.1247
22843SOL     OW71421   6.658  10.367   2.489  0.2815  0.2382  0.0463
22843SOL    HW171422   6.732  10.379   2.549  0.5939 -1.7190  0.1081
22843SOL    HW271423   6.606  10.297   2.529 -0.3255 -0.0404 -1.1958
22844SOL     OW71424   4.468   7.228   0.986  0.9758 -0.0649 -0.0337
22844SOL    HW171425   4.437   7.302   1.040  0.4822 -1.3197  1.4693
22844SOL    HW271426   4.393   7.206   0.930  1.8317  1.9386 -2.1558
22845SOL     OW71427   0.568   1.246   5.813  0.0592 -0.3358  0.0730
22845SOL    HW171428   0.646   1.291   5.845 -0.9085  2.0887 -0.6920
22845SOL    HW271429   0.561   1.273   5.721 -1.3144 -1.0077 -0.0473
22846SOL     OW71430   8.025   1.985   6.835 -0.5534 -0.3728  0.5778
22846SOL    HW171431   7.945   1.973   6.886 -1.0903 -2.2946 -0.6096
22846SOL    HW271432   8.044   1.898   6.799  1.9405  0.0913  0.6049
22847SOL     OW71433   4.540   2.280   5.100 -0.0016  0.2500  0.6661
22847SOL    HW171434   4.553   2.229   5.020  0.1608  0.6807  0.4141
22847SOL    HW271435   4.446   2.275   5.117  0.1584 -1.0520  1.2695
22848SOL     OW71436   2.150   4.762   9.594  0.3806 -0.1368 -0.3178
22848SOL    HW171437   2.219   4.702   9.625  1.8422  2.1192  1.1136
22848SOL    HW271438   2.079   4.752   9.657  0.4276 -0.6682 -0.3472
22849SOL     OW71439   6.115   6.543  10.598  0.3255 -0.0771  0.1748
22849SOL    HW171440   6.200   6.563  10.560  0.3434  0.7354  0.6324
22849SOL    HW271441   6.071   6.627  10.607  0.1141 -0.2950  1.4432
22850SOL     OW71442   7.357  10.779  10.445 -0.1976 -0.4714  0.3720
22850SOL    HW171443   7.278  10.782  10.392 -0.7904  0.4248  1.2690
22850SOL    HW271444   7.428  10.801  10.384 -0.2567 -3.5660 -0.9993
22851SOL     OW71445   7.324   2.180   3.311 -0.1450 -0.5185  0.8858
22851SOL    HW171446   7.322   2.123   3.234 -0.4951 -1.6655  1.7185
22851SOL    HW271447   7.291   2.125   3.382 -2.7114  1.3642  1.3113
22852SOL     OW71448   5.122   7.269   8.670  0.2245  0.0769  0.9273
22852SOL    HW171449   5.146   7.359   8.690 -0.7748  0.2025  1.6311
22852SOL    HW271450   5.039   7.255   8.716  0.5951 -1.3447  1.2063
22853SOL     OW71451   7.488  10.520   3.804  0.0266 -0.0470 -0.2342
22853SOL    HW171452   7.530  10.588   3.856 -2.4071  0.0794  1.7389
22853SOL    HW271453   7.462  10.564   3.723  5.2861 -0.6134 -2.6557
22854SOL     OW71454   9.390  10.556   8.307  0.7558  0.1232 -0.1979
22854SOL    HW171455   9.361  10.631   8.255 -0.8823 -1.7199 -2.1514
22854SOL    HW271456   9.438  10.501   8.245 -0.0095 -1.4824  0.5665
22855SOL     OW71457   1.763   0.743   5.126  0.6912 -0.0672  0.1081
22855SOL    HW171458   1.823   0.672   5.103 -1.4846 -1.7164 -0.8195
22855SOL    HW271459   1.815   0.800   5.182  2.2922 -2.9383  1.8288
22856SOL     OW71460   5.549   1.825   9.102 -0.3816  0.2062  0.5595
22856SOL    HW171461   5.569   1.807   9.011 -0.0414 -0.5494  0.7821
22856SOL    HW271462   5.601   1.903   9.123  0.1458 -0.0859  0.3369
22857SOL     OW71463   9.278   6.921   3.994  0.1473  0.2003 -0.1514
22857SOL    HW171464   9.368   6.914   4.027  0.2631 -2.4537 -0.8298
22857SOL    HW271465   9.253   6.831   3.973 -2.3999  0.9754 -0.7647
22858SOL     OW71466   7.642   9.006   2.560  0.4412  0.0978  0.1712
22858SOL    HW171467   7.576   9.008   2.491  0.9168 -0.5891 -0.3152
22858SOL    HW271468   7.666   8.913   2.567  1.3639  0.3459  0.3304
22859SOL     OW71469   8.239   4.999   2.867 -0.4557 -0.4069 -0.0721
22859SOL    HW171470   8.178   4.935   2.905  0.5729 -0.9080  0.7671
22859SOL    HW271471   8.273   5.047   2.942  0.7856 -0.6827 -0.4362
22860SOL     OW71472   5.534   1.527   9.164  0.1205  0.1766 -0.1457
22860SOL    HW171473   5.524   1.619   9.139 -0.4442  0.2417  0.2913
22860SOL    HW271474   5.461   1.511   9.223  0.6014 -0.3757  0.3029
22861SOL     OW71475   7.080   9.257   8.917 -0.4271 -0.2035  0.1703
22861SOL    HW171476   7.147   9.325   8.911 -0.2505 -0.2797  1.0445
22861SOL    HW271477   7.049   9.244   8.828 -3.4306  3.9722  0.3389
22862SOL     OW71478   1.079   1.379   8.247  0.4956  0.3215  0.0622
22862SOL    HW171479   1.058   1.458   8.297  0.1069  1.0437 -1.2177
22862SOL    HW271480   1.017   1.378   8.174  0.1159 -1.4794  0.3494
22863SOL     OW71481   7.897   9.796   0.979  0.2775  0.6625  0.2621
22863SOL    HW171482   7.861   9.759   0.898 -0.5381  1.7390  0.1057
22863SOL    HW271483   7.839   9.765   1.048  0.5492  0.3304  0.3412
22864SOL     OW71484   0.515   9.381   5.618  0.1454  0.3519 -0.2315
22864SOL    HW171485   0.551   9.323   5.685  2.3812  1.6849 -0.1525
22864SOL    HW271486   0.592   9.410   5.569 -1.0190  2.2800 -1.0225
22865SOL     OW71487   7.851   7.691   2.542  0.0701 -0.2217  0.4999
22865SOL    HW171488   7.852   7.782   2.570  1.7392 -0.7260  2.3107
22865SOL    HW271489   7.759   7.669   2.530 -0.3963  1.4280  0.9195
22866SOL     OW71490   0.161   1.065   4.557 -0.1820  0.4895 -0.2841
22866SOL    HW171491   0.218   1.107   4.621 -0.9348  0.6458  0.2946
22866SOL    HW271492   0.219   1.044   4.484  0.0850  3.3352 -1.0087
22867SOL     OW71493   8.479   8.116   1.986 -0.4083 -0.2854 -0.1439
22867SOL    HW171494   8.385   8.133   1.994 -1.1824 -3.0390 -1.9671
22867SOL    HW271495   8.501   8.066   2.065 -0.5442 -0.0414  0.0533
22868SOL     OW71496   2.042   5.284  10.660  0.3448  0.1823  0.1171
22868SOL    HW171497   1.999   5.240  10.586  0.0937  0.9301 -0.1881
22868SOL    HW271498   1.970   5.307  10.719  0.5727 -0.6521  0.7275
22869SOL     OW71499   3.284   5.084   0.654  0.1130  0.2028 -0.5449
22869SOL    HW171500   3.281   5.146   0.727 -1.1307 -1.3842  0.8127
22869SOL    HW271501   3.198   5.090   0.613  0.7614  1.0026 -1.8907
22870SOL     OW71502   7.584   9.319  10.496 -0.2747  0.3127  0.3891
22870SOL    HW171503   7.564   9.395  10.550 -0.1734  0.9939 -0.5314
22870SOL    HW271504   7.573   9.348  10.406  0.5140 -0.5416 -0.0061
22871SOL     OW71505   5.636   5.800  10.189 -0.2849 -0.4735 -0.1050
22871SOL    HW171506   5.700   5.766  10.127 -0.0511  1.9320 -1.2981
22871SOL    HW271507   5.561   5.740  10.183  0.3930 -1.2114 -1.4803
22872SOL     OW71508   4.970   8.227   9.663  0.2925  0.2688  0.4926
22872SOL    HW171509   5.034   8.179   9.610  0.6254 -0.0779  1.2017
22872SOL    HW271510   5.018   8.304   9.695  0.2461  0.2078  0.7131
22873SOL     OW71511   1.472   6.605  10.687 -0.1121  0.4003 -0.0268
22873SOL    HW171512   1.530   6.532  10.667  1.0468  0.7425  1.8433
22873SOL    HW271513   1.408   6.569  10.748 -1.6121  0.1693 -1.6464
22874SOL     OW71514   6.693   7.866   3.844 -0.4007 -0.2583 -0.1727
22874SOL    HW171515   6.601   7.871   3.872 -0.3237 -0.2283  0.0763
22874SOL    HW271516   6.741   7.848   3.924  0.0702  2.0019  0.1182
22875SOL     OW71517   0.668   9.556   4.609 -0.2184  0.7200 -0.4118
22875SOL    HW171518   0.731   9.501   4.655 -1.6917 -0.0207  0.8123
22875SOL    HW271519   0.690   9.546   4.517  0.6996 -0.4645 -0.0869
22876SOL     OW71520   0.398   1.602   8.613  0.0296 -0.7587 -0.3480
22876SOL    HW171521   0.381   1.692   8.642  2.9252  0.7630 -2.7826
22876SOL    HW271522   0.444   1.562   8.687  0.9514  0.6424 -0.1166
22877SOL     OW71523   9.331   2.211   8.477 -0.2824 -0.0243 -0.3005
22877SOL    HW171524   9.296   2.244   8.560 -1.0119  0.5494 -0.8201
22877SOL    HW271525   9.254   2.182   8.428  0.2468 -1.4158 -0.3409
22878SOL     OW71526   4.578   3.569   8.540 -0.2609 -0.7189 -0.0417
22878SOL    HW171527   4.645   3.535   8.480  1.9833  1.6146  0.9476
22878SOL    HW271528   4.535   3.638   8.490 -0.7471 -1.0536 -0.0880
22879SOL     OW71529   0.985   6.727   6.484 -0.1821  0.2692 -0.1871
22879SOL    HW171530   1.037   6.740   6.563 -1.5830  0.2877  0.7748
22879SOL    HW271531   1.014   6.642   6.450 -0.4895 -0.3972  1.1341
22880SOL     OW71532   3.494   3.543   6.343  0.0635 -0.5221 -0.0399
22880SOL    HW171533   3.460   3.467   6.389  1.2315 -2.1325 -1.6995
22880SOL    HW271534   3.532   3.508   6.263  1.3437  1.7188 -0.5076
22881SOL     OW71535   1.891   5.635   4.873  0.3308 -0.2813  0.1654
22881SOL    HW171536   1.971   5.597   4.837 -0.5856 -0.3501 -1.9648
22881SOL    HW271537   1.921   5.699   4.938  2.0868 -0.4750 -0.4074
22882SOL     OW71538   8.136   6.271   2.273 -0.3777  0.8043  0.3156
22882SOL    HW171539   8.176   6.307   2.194 -0.7382  0.3599 -0.0806
22882SOL    HW271540   8.208   6.261   2.335  0.0282  0.5194 -0.2006
22883SOL     OW71541   4.063   2.866   9.304 -0.4319 -0.4064 -0.4134
22883SOL    HW171542   4.038   2.957   9.321 -1.4754 -0.6054 -0.8012
22883SOL    HW271543   3.986   2.815   9.329  0.3595 -1.2481  0.3673
22884SOL     OW71544   4.962   8.664   5.380 -0.1708 -0.3668  0.1377
22884SOL    HW171545   5.024   8.640   5.449 -0.0453  1.7524  0.8257
22884SOL    HW271546   4.908   8.733   5.419  0.4563  1.5104 -2.1251
22885SOL     OW71547   5.352  10.302   1.970  0.2293 -0.3916 -0.1673
22885SOL    HW171548   5.427  10.297   1.911 -0.0503  0.8864 -0.6536
22885SOL    HW271549   5.321  10.392   1.962  0.0397 -0.2399  1.7693
22886SOL     OW71550   3.645   1.189   4.781 -0.2484  0.1661  0.6387
22886SOL    HW171551   3.579   1.234   4.728  0.1560  0.0294  0.0226
22886SOL    HW271552   3.594   1.145   4.849 -0.5685  3.3306  2.6870
22887SOL     OW71553   9.272   4.457   2.439  0.3553  0.5375 -0.3726
22887SOL    HW171554   9.242   4.366   2.444  0.0826  0.6842  1.0868
22887SOL    HW271555   9.192   4.509   2.436  0.4311  0.8376  1.6473
22888SOL     OW71556   4.763   9.606   4.783  0.2447  0.1094  0.7625
22888SOL    HW171557   4.784   9.516   4.758 -0.5333  0.2523 -0.4994
22888SOL    HW271558   4.684   9.598   4.838 -1.0736  0.1184 -1.0274
22889SOL     OW71559   8.199  10.611   9.119  0.2676  0.6820  0.2056
22889SOL    HW171560   8.194  10.613   9.214 -0.3043  0.5464  0.1784
22889SOL    HW271561   8.118  10.650   9.089 -0.3455 -0.8442 -0.2204
22890SOL     OW71562   4.524   1.623   1.748  0.4604 -0.5350 -0.2150
22890SOL    HW171563   4.569   1.653   1.827  1.2724 -0.0813 -0.8376
22890SOL    HW271564   4.593   1.591   1.691 -0.0679 -0.4345 -0.9313
22891SOL     OW71565   6.276   5.352   5.156  0.5427 -0.0114  0.0186
22891SOL    HW171566   6.310   5.302   5.082  0.8898 -0.3563  0.4053
22891SOL    HW271567   6.344   5.346   5.223 -0.0374 -0.2497  0.6034
22892SOL     OW71568   1.424   2.812   7.409 -0.1245  0.7391  0.0126
22892SOL    HW171569   1.489   2.880   7.426 -0.5747  1.4798 -1.1212
22892SOL    HW271570   1.355   2.830   7.474  0.6670  0.0905  1.0630
22893SOL     OW71571   5.534   4.416   2.030  0.5991  0.1714  0.2075
22893SOL    HW171572   5.572   4.329   2.038  0.4656  0.1356  0.4575
22893SOL    HW271573   5.557   4.445   1.941  0.5119 -0.1780  0.0724
22894SOL     OW71574   0.484   1.765  10.770 -0.4314 -0.0617  0.0288
22894SOL    HW171575   0.540   1.778  10.847  2.5148 -1.3932 -1.7173
22894SOL    HW271576   0.486   1.849  10.725  1.7227 -0.5264 -0.8774
22895SOL     OW71577   2.545   1.466   4.045  0.7141  0.1094 -0.4843
22895SOL    HW171578   2.529   1.533   3.979  0.2035  0.7145  0.2287
22895SOL    HW271579   2.625   1.494   4.089 -0.4440  1.2881  1.0104
22896SOL     OW71580   0.939   0.733   2.163 -1.0505  0.4115  0.1474
22896SOL    HW171581   0.981   0.673   2.102 -0.5884 -0.5090  1.3296
22896SOL    HW271582   0.872   0.777   2.111 -1.8959 -1.6415 -0.6093
22897SOL     OW71583   4.181   5.249   3.433  0.7724 -0.0429 -0.7217
22897SOL    HW171584   4.150   5.257   3.343 -0.6688  3.3005 -0.1019
22897SOL    HW271585   4.108   5.281   3.486  2.5290  0.6668  1.4196
22898SOL     OW71586   2.304   4.967   1.037 -0.0900  0.5061 -0.4590
22898SOL    HW171587   2.342   5.014   1.111 -0.4988 -1.1263  0.8631
22898SOL    HW271588   2.211   4.960   1.059 -0.0221 -0.9624 -0.5535
22899SOL     OW71589  10.404   4.005   3.012  0.6843  0.0815 -0.6642
22899SOL    HW171590  10.375   4.090   3.044 -1.2121 -0.9704  0.6162
22899SOL    HW271591  10.456   3.969   3.084 -1.3478 -1.1770  0.2664
22900SOL     OW71592   6.214  10.751  10.580 -0.2067 -0.1040  0.0676
22900SOL    HW171593   6.120  10.763  10.593  0.0025  2.6889 -0.3219
22900SOL    HW271594   6.254  10.830  10.617  2.0643 -1.4782  0.7539
22901SOL     OW71595  10.382  10.538  10.539  0.4230 -0.2461  0.4042
22901SOL    HW171596  10.462  10.489  10.560  1.4741  1.8461  1.6329
22901SOL    HW271597  10.374  10.602  10.610 -1.9890  0.0599 -0.0602
22902SOL     OW71598   7.861   7.763   5.026 -0.1127  0.1279 -0.4962
22902SOL    HW171599   7.862   7.667   5.031 -1.3774  0.0142 -1.6506
22902SOL    HW271600   7.794   7.789   5.090 -0.5429  0.1626 -0.9581
22903SOL     OW71601   5.740   5.116   2.148 -0.0987  0.4220 -0.1837
22903SOL    HW171602   5.820   5.082   2.189  0.5401  0.5679 -1.2549
22903SOL    HW271603   5.675   5.047   2.160  0.4765 -0.1256 -0.1508
22904SOL     OW71604   6.831   4.523   2.179  0.5836  0.6806  0.2074
22904SOL    HW171605   6.838   4.427   2.184 -0.7344  0.3848 -2.0371
22904SOL    HW271606   6.883   4.555   2.252  2.0449 -1.7261  0.3285
22905SOL     OW71607   8.029   9.222   0.102 -0.0122 -0.2528  0.0101
22905SOL    HW171608   7.991   9.149   0.053 -0.4480  0.3520 -0.5753
22905SOL    HW271609   7.954   9.269   0.138  0.1526  0.8102 -0.9532
22906SOL     OW71610  10.389   9.912   2.087 -0.4861 -0.1923 -0.0750
22906SOL    HW171611  10.449   9.869   2.026  0.0274  0.0612  0.2392
22906SOL    HW271612  10.427   9.894   2.173 -0.9082 -0.0970  0.1312
22907SOL     OW71613   0.236   2.785  10.428 -0.4725  0.2801  0.0766
22907SOL    HW171614   0.159   2.794  10.484 -0.6107  2.6556 -0.3939
22907SOL    HW271615   0.308   2.818  10.482  0.4088 -2.5390  0.7542
22908SOL     OW71616   7.467   0.550   8.781 -0.3138  0.0665  0.1230
22908SOL    HW171617   7.518   0.602   8.843 -0.9663  0.0201  0.6962
22908SOL    HW271618   7.394   0.606   8.756 -0.2092 -0.0195 -0.4007
22909SOL     OW71619   1.053   5.826   6.111  0.3220 -0.6636 -0.0471
22909SOL    HW171620   1.029   5.914   6.081  0.8500 -0.2508  0.6932
22909SOL    HW271621   1.052   5.833   6.207 -2.4835 -2.2471  0.1461
22910SOL     OW71622   8.363  10.200   5.062  0.5119  0.8983  0.2955
22910SOL    HW171623   8.427  10.134   5.089 -1.6767 -1.8633 -0.8162
22910SOL    HW271624   8.337  10.174   4.974 -1.9874  1.9902  0.6190
22911SOL     OW71625   4.593   3.290   4.458 -0.0123  0.1598  0.2329
22911SOL    HW171626   4.620   3.322   4.544  1.8272 -2.2635  0.6582
22911SOL    HW271627   4.569   3.199   4.473 -0.9971  0.0768 -1.6067
22912SOL     OW71628   4.018   4.058   1.639 -0.6405 -0.2852  0.1033
22912SOL    HW171629   4.070   4.088   1.565 -1.5568  0.0577 -0.4151
22912SOL    HW271630   3.966   4.135   1.665 -1.5154 -0.8474  0.0620
22913SOL     OW71631   7.022   8.881   0.316 -0.2192  0.4031  0.3342
22913SOL    HW171632   7.065   8.822   0.254  1.1558 -0.3663  1.9267
22913SOL    HW271633   6.929   8.862   0.307 -0.2122  1.1008 -2.2128
22914SOL     OW71634   0.228   7.015   2.082 -0.0762 -0.1352 -0.0034
22914SOL    HW171635   0.217   7.027   2.177  0.2859 -1.2222  0.1880
22914SOL    HW271636   0.227   6.921   2.069 -2.0043  0.0164 -1.3426
22915SOL     OW71637   6.504   4.281   8.344 -0.1211  0.0042 -0.5401
22915SOL    HW171638   6.454   4.323   8.414 -0.4246 -2.0844  0.6007
22915SOL    HW271639   6.514   4.190   8.373  3.0704 -0.0618 -1.3987
22916SOL     OW71640   2.697   0.060   6.623 -0.3525 -0.1016 -0.5397
22916SOL    HW171641   2.781   0.097   6.650 -0.6186  0.1792 -0.0870
22916SOL    HW271642   2.715  -0.033   6.608  0.3383  0.1926 -1.7416
22917SOL     OW71643   8.686   7.232   5.720  0.0184  0.0696  0.5256
22917SOL    HW171644   8.619   7.275   5.667  0.9235  0.5596 -0.2535
22917SOL    HW271645   8.750   7.200   5.656  1.0284  0.4804  1.2989
22918SOL     OW71646   9.096   8.614   8.665 -0.0334  0.2501 -0.2135
22918SOL    HW171647   9.043   8.689   8.640 -0.7207  0.0180  0.5157
22918SOL    HW271648   9.179   8.652   8.694 -0.1462  0.6774 -0.4382
22919SOL     OW71649   7.188   2.862   1.734  0.1233  0.0581  0.2420
22919SOL    HW171650   7.098   2.864   1.767  0.2914 -0.3092  0.7378
22919SOL    HW271651   7.204   2.770   1.715  0.2577  0.1777 -0.2455
22920SOL     OW71652   7.379   0.769   6.539  0.0559  0.0086 -0.1012
22920SOL    HW171653   7.393   0.859   6.510  2.3438 -0.2388  0.0556
22920SOL    HW271654   7.467   0.735   6.556 -0.7817 -2.0849  0.3945
22921SOL     OW71655   7.686   3.423   3.330  0.6685 -0.0897 -0.6122
22921SOL    HW171656   7.700   3.362   3.402  0.5186 -1.9788 -2.1062
22921SOL    HW271657   7.745   3.393   3.260 -1.9054 -0.7581 -2.6519
22922SOL     OW71658   9.135  10.616   5.793 -0.1579 -0.0715 -0.1039
22922SOL    HW171659   9.064  10.554   5.812 -1.5497  1.4841  0.0251
22922SOL    HW271660   9.195  10.568   5.738 -1.0555 -1.6210  0.2117
22923SOL     OW71661   9.376   5.095   2.273 -0.0166  0.3355 -0.9749
22923SOL    HW171662   9.369   5.051   2.188 -1.5013 -0.5106 -0.4527
22923SOL    HW271663   9.296   5.148   2.279  0.3268  0.7941 -0.3260
22924SOL     OW71664   9.989   8.589   9.646  0.9545 -0.2035  0.3849
22924SOL    HW171665  10.038   8.594   9.727 -1.6674  0.5859  2.0398
22924SOL    HW271666   9.990   8.678   9.611  0.1535 -0.0415  0.7723
22925SOL     OW71667   1.728   9.077  10.490  0.0366 -0.2766 -0.2614
22925SOL    HW171668   1.718   9.002  10.432 -1.8740 -1.1378  1.1058
22925SOL    HW271669   1.649   9.129  10.477 -0.0105 -0.0300  0.9101
22926SOL     OW71670   2.625   2.413   8.089 -0.2914 -0.0273 -0.1979
22926SOL    HW171671   2.561   2.475   8.124  0.3567 -0.1661  1.3041
22926SOL    HW271672   2.700   2.467   8.063  0.6796 -0.1961  2.0332
22927SOL     OW71673  10.005   3.198   4.261 -0.4803 -0.1175 -0.5506
22927SOL    HW171674   9.965   3.281   4.239  2.0757  1.3440 -0.0612
22927SOL    HW271675  10.070   3.183   4.193 -0.3061 -1.2955 -0.1583
22928SOL     OW71676   1.739   3.221   7.539 -0.1776 -0.0061  0.1331
22928SOL    HW171677   1.803   3.207   7.609 -2.1877 -3.6287  1.4996
22928SOL    HW271678   1.676   3.283   7.576 -0.8548 -1.3674  1.3346
22929SOL     OW71679   2.243   2.675   1.702 -0.2818 -0.7646 -0.2941
22929SOL    HW171680   2.214   2.617   1.632  0.3655 -3.8362  1.7804
22929SOL    HW271681   2.330   2.642   1.726  1.0394  2.3960 -0.2740
22930SOL     OW71682   1.260   4.093   3.269 -0.5971  0.0493 -0.3733
22930SOL    HW171683   1.239   4.006   3.303  2.7293 -1.6921 -2.3110
22930SOL    HW271684   1.316   4.132   3.335  1.0365 -0.9263 -1.1273
22931SOL     OW71685   6.178   1.438   7.634  0.4252  0.5605 -0.0333
22931SOL    HW171686   6.248   1.387   7.592  0.7448 -0.2811  1.4378
22931SOL    HW271687   6.224   1.495   7.696 -0.1175  0.6664  0.2794
22932SOL     OW71688   9.720   3.307   4.114 -0.5543  0.3532 -0.4064
22932SOL    HW171689   9.799   3.351   4.083 -0.5679  0.4062 -0.3652
22932SOL    HW271690   9.724   3.314   4.209 -0.4906  0.1524 -0.3934
22933SOL     OW71691   9.539   0.417   4.096 -0.5503 -0.0474  0.0382
22933SOL    HW171692   9.479   0.401   4.023 -3.8980  1.2901  2.2325
22933SOL    HW271693   9.591   0.493   4.068 -0.4800 -0.6436 -1.5785
22934SOL     OW71694   2.508   0.894   2.209 -0.1755  0.3737  0.1237
22934SOL    HW171695   2.588   0.853   2.242 -0.1345  0.1234 -0.2865
22934SOL    HW271696   2.477   0.835   2.140 -0.0931  1.0453 -0.4977
22935SOL     OW71697   6.889   9.000   1.493  0.1767 -0.1326  0.6912
22935SOL    HW171698   6.984   9.002   1.488  0.1883 -0.7793  0.6773
22935SOL    HW271699   6.866   9.081   1.538  0.6577  0.7409 -0.5521
22936SOL     OW71700   8.857   0.932   2.345  0.1569  0.6292  0.3184
22936SOL    HW171701   8.783   0.873   2.360  1.2255 -0.3714  2.0595
22936SOL    HW271702   8.864   0.939   2.250 -1.3589 -0.2772  0.1072
22937SOL     OW71703   8.756   9.953   1.935 -0.1604 -0.4892 -0.0270
22937SOL    HW171704   8.737   9.910   1.851  0.6332 -2.5542  0.7937
22937SOL    HW271705   8.765  10.046   1.912 -3.3444 -0.4491 -1.6642
22938SOL     OW71706   4.812  10.113   5.855  0.1348  0.0358 -0.4368
22938SOL    HW171707   4.760  10.183   5.816 -0.3434 -0.9903 -1.7460
22938SOL    HW271708   4.875  10.089   5.787 -0.0646 -1.1449 -0.2393
22939SOL     OW71709   7.415   1.275  10.262 -0.2259  0.3986 -0.2977
22939SOL    HW171710   7.438   1.347  10.320  1.4626  0.4431 -0.9603
22939SOL    HW271711   7.470   1.202  10.291 -0.1460  0.1047 -1.1531
22940SOL     OW71712  10.080   5.048   2.706  0.1398 -0.0313  0.2933
22940SOL    HW171713  10.049   5.138   2.711 -0.3917 -0.1001 -1.2200
22940SOL    HW271714  10.038   5.012   2.628 -0.1394 -1.7883  1.1934
22941SOL     OW71715   7.444  10.338   0.381  0.3561 -0.1889 -0.5702
22941SOL    HW171716   7.522  10.331   0.434  0.7238 -0.2917 -1.1146
22941SOL    HW271717   7.410  10.248   0.375 -0.6987  0.0774  0.9715
22942SOL     OW71718  10.058   7.889   8.906  0.0804  0.0660 -0.2861
22942SOL    HW171719  10.111   7.840   8.970 -0.9355  1.2492  1.5696
22942SOL    HW271720   9.967   7.868   8.931 -0.3357  1.0548 -0.9530
22943SOL     OW71721   7.423   0.012   9.872  0.3284 -0.0393 -0.0099
22943SOL    HW171722   7.366  -0.015   9.944  0.7379 -1.4504 -0.1760
22943SOL    HW271723   7.368   0.069   9.819 -1.0441 -1.4877 -0.2541
22944SOL     OW71724   6.830   9.110   3.314  0.5687 -0.1874 -0.0865
22944SOL    HW171725   6.863   9.120   3.404  1.0540 -2.1745  0.0102
22944SOL    HW271726   6.766   9.180   3.304 -0.8593 -0.9806  2.4596
22945SOL     OW71727   8.032   6.097  10.216  0.0890  0.0081 -0.1524
22945SOL    HW171728   7.957   6.131  10.265 -0.1665 -1.0040  0.1822
22945SOL    HW271729   8.109   6.127  10.266 -0.1532 -0.5727  0.5836
22946SOL     OW71730  10.534   0.975   8.936  0.3173 -0.3326 -0.9149
22946SOL    HW171731  10.549   1.063   8.903  0.4746 -0.7020 -1.8660
22946SOL    HW271732  10.568   0.918   8.867  2.6622 -1.1533  0.7699
22947SOL     OW71733   5.605   4.021   0.036 -0.4135 -0.3001 -0.2000
22947SOL    HW171734   5.696   4.031   0.065  0.0731  1.1073 -2.0267
22947SOL    HW271735   5.553   4.048   0.112  0.6881 -0.3096  0.5970
22948SOL     OW71736   6.782   4.100   3.013  0.1758 -0.8256 -0.3635
22948SOL    HW171737   6.855   4.149   3.049 -0.6743 -0.1891  0.5638
22948SOL    HW271738   6.778   4.126   2.921  0.4757 -0.0670 -0.1686
22949SOL     OW71739   8.626   8.831   9.343  0.3482  0.0252  0.4635
22949SOL    HW171740   8.636   8.737   9.359 -0.7861 -0.3696 -0.8844
22949SOL    HW271741   8.677   8.847   9.263 -0.1808  0.3471  0.1779
22950SOL     OW71742   7.216   8.747   3.665  0.9587  0.0204  0.6331
22950SOL    HW171743   7.278   8.781   3.601  0.8758  0.8200  0.9646
22950SOL    HW271744   7.270   8.702   3.730  0.9338 -2.0981 -0.7530
22951SOL     OW71745   7.347   7.897  10.397  0.4513  0.6871 -0.2240
22951SOL    HW171746   7.371   7.844  10.321  3.3422  1.7539 -0.1718
22951SOL    HW271747   7.427   7.944  10.420 -1.1056  2.5839  1.7503
22952SOL     OW71748   8.060   7.808   3.526 -0.2037 -0.0641  0.2675
22952SOL    HW171749   7.988   7.782   3.469  0.5130 -0.3552 -0.5258
22952SOL    HW271750   8.061   7.743   3.595 -1.2038  0.3989  0.7402
22953SOL     OW71751   5.897   2.471   3.309 -0.2760  0.2652  0.3479
22953SOL    HW171752   5.986   2.441   3.324 -0.7204 -1.0365  0.4316
22953SOL    HW271753   5.881   2.454   3.216 -1.1656 -1.5745  0.7877
22954SOL     OW71754   7.512   7.551   6.877  0.4511  0.1820 -0.1362
22954SOL    HW171755   7.534   7.479   6.936 -1.2527  0.3096  0.7100
22954SOL    HW271756   7.498   7.508   6.792  1.0728 -0.2471 -0.0333
22955SOL     OW71757   0.892   8.355   6.536 -0.1249 -0.1315  0.1455
22955SOL    HW171758   0.950   8.324   6.466  1.2373  0.9452  0.7391
22955SOL    HW271759   0.938   8.333   6.617 -0.7724  0.3456  0.6552
22956SOL     OW71760   1.345   3.984   0.013 -0.0299  0.0736 -0.5626
22956SOL    HW171761   1.386   3.916   0.066  1.9030  0.4956 -1.3987
22956SOL    HW271762   1.251   3.970   0.022  0.2562 -3.6336 -1.8643
22957SOL     OW71763   2.485   2.772   1.048 -0.1558 -0.0341 -0.1730
22957SOL    HW171764   2.562   2.724   1.078  0.9804  1.4261 -0.6578
22957SOL    HW271765   2.434   2.788   1.128 -0.1187 -1.2463  0.1086
22958SOL     OW71766   5.342   9.004   5.006 -0.2499 -0.2621 -0.7771
22958SOL    HW171767   5.349   9.099   5.010  0.8592 -0.3200 -0.8725
22958SOL    HW271768   5.310   8.978   5.092  0.7761  0.1071 -0.2693
22959SOL     OW71769   5.452   1.724   4.091 -0.0270 -0.3591 -0.1708
22959SOL    HW171770   5.465   1.776   4.171  0.8308 -0.6074 -0.1367
22959SOL    HW271771   5.540   1.691   4.069 -0.2635 -0.3605 -1.1709
22960SOL     OW71772   1.360   4.264   1.493 -0.7798 -0.0579 -0.6762
22960SOL    HW171773   1.439   4.274   1.439 -0.2726  0.4076  0.1344
22960SOL    HW271774   1.303   4.208   1.441  1.5764 -3.7206  0.2958
22961SOL     OW71775   7.315   7.409   4.549  0.4436  0.3287  0.6002
22961SOL    HW171776   7.293   7.427   4.458  0.6289  0.2799  0.5457
22961SOL    HW271777   7.254   7.340   4.575 -1.0075  1.7481  1.1416
22962SOL     OW71778   1.504   4.461   6.674  0.3911  0.4501 -0.1548
22962SOL    HW171779   1.432   4.467   6.737  0.8293  1.2934  0.2881
22962SOL    HW271780   1.465   4.487   6.590  0.1740  0.9156  0.0871
22963SOL     OW71781   8.257   2.797   7.297  0.1090 -0.1375 -0.2374
22963SOL    HW171782   8.348   2.791   7.269  1.0551  1.9843  2.0607
22963SOL    HW271783   8.252   2.743   7.376 -1.3464 -2.3075 -1.7098
22964SOL     OW71784   2.817   1.545   9.619  0.4299  0.3863  0.2145
22964SOL    HW171785   2.817   1.599   9.540 -1.8628 -1.6903 -1.3638
22964SOL    HW271786   2.733   1.562   9.661  0.2516 -0.8548  0.4238
22965SOL     OW71787   6.168   2.918   0.113 -0.5022 -0.5335  0.1099
22965SOL    HW171788   6.188   2.986   0.176 -0.2287 -0.7430  0.2526
22965SOL    HW271789   6.200   2.837   0.154 -2.0065 -0.9437  0.5329
22966SOL     OW71790   5.420   6.031   0.200  0.0062  0.6780 -0.0575
22966SOL    HW171791   5.438   5.943   0.168 -1.8966  0.7252 -1.3847
22966SOL    HW271792   5.486   6.085   0.156  0.3948  0.0892 -0.2190
22967SOL     OW71793   5.844   5.974  10.278  0.1657 -0.3202 -0.3895
22967SOL    HW171794   5.830   5.985  10.184 -0.2426  0.3427 -0.2577
22967SOL    HW271795   5.939   5.964  10.287  0.1889 -0.5777 -0.8903
22968SOL     OW71796   1.622   6.895   6.881 -0.0074 -0.3162  0.0620
22968SOL    HW171797   1.655   6.937   6.801  2.1164  1.0976  1.5766
22968SOL    HW271798   1.700   6.858   6.922 -1.0057 -0.7363  1.6485
22969SOL     OW71799   7.483   7.635   2.628  0.0713 -0.2340 -0.2101
22969SOL    HW171800   7.565   7.649   2.676  0.1090 -0.4845 -0.2009
22969SOL    HW271801   7.461   7.543   2.645 -1.1396  0.2827  1.2724
22970SOL     OW71802   0.240   1.083   5.397  0.6722  0.2349 -0.4867
22970SOL    HW171803   0.183   1.101   5.322  0.0573 -0.8929 -0.3133
22970SOL    HW271804   0.311   1.147   5.389 -0.2663  1.2326 -1.0772
22971SOL     OW71805   5.873   6.586   7.112 -0.2011  0.1733  0.4426
22971SOL    HW171806   5.865   6.502   7.157 -1.2609 -0.1005 -0.2301
22971SOL    HW271807   5.783   6.617   7.102  0.1005  0.8257 -0.3583
22972SOL     OW71808   3.326  10.452   4.387  0.0821 -0.2846 -0.1571
22972SOL    HW171809   3.307  10.377   4.330 -1.4360  0.4496 -0.6916
22972SOL    HW271810   3.320  10.528   4.328  3.0999  0.2099  0.0367
22973SOL     OW71811   2.606   7.251   5.429 -0.2779  0.5554 -0.0262
22973SOL    HW171812   2.522   7.287   5.456 -0.5071  1.0975 -1.3949
22973SOL    HW271813   2.666   7.274   5.500 -1.0829  0.9483  0.5363
22974SOL     OW71814   6.931   1.199   8.257 -0.4513  0.6307 -0.0768
22974SOL    HW171815   6.886   1.133   8.203  0.3522  0.9617 -1.1887
22974SOL    HW271816   6.862   1.234   8.313 -1.2119 -0.0903 -0.5308
22975SOL     OW71817  10.416   8.522   5.272  0.5998  0.8442 -0.4407
22975SOL    HW171818  10.388   8.606   5.235  1.2387  0.8831 -0.8435
22975SOL    HW271819  10.496   8.543   5.321  0.3134  0.6108  0.1400
22976SOL     OW71820   1.986   4.668   6.212  0.1599 -0.1025  0.1578
22976SOL    HW171821   2.017   4.746   6.165 -0.0652 -0.8946 -1.3953
22976SOL    HW271822   2.062   4.611   6.216  0.0326 -0.2637  0.2496
22977SOL     OW71823   4.373   4.419   8.554 -0.3245  0.5839 -0.0604
22977SOL    HW171824   4.460   4.378   8.552 -0.7520 -0.3391 -0.8642
22977SOL    HW271825   4.383   4.496   8.610  0.8894  0.2152  0.2449
22978SOL     OW71826   3.567  10.009   6.332 -0.4607  0.5887  0.4892
22978SOL    HW171827   3.593  10.051   6.249 -2.6661  0.5068 -0.3023
22978SOL    HW271828   3.582   9.915   6.317 -1.5683  0.4967 -0.1273
22979SOL     OW71829   3.679   6.192   1.520 -0.1800  0.6835 -0.5083
22979SOL    HW171830   3.624   6.188   1.441 -0.9189  0.1767  0.0237
22979SOL    HW271831   3.753   6.135   1.499 -0.2304  0.7689 -0.9438
22980SOL     OW71832   9.253   1.383   3.560 -0.2491 -1.2332 -0.1879
22980SOL    HW171833   9.216   1.455   3.510  1.9715 -1.0030 -1.6757
22980SOL    HW271834   9.229   1.401   3.651 -3.4408 -1.0354 -0.9609
22981SOL     OW71835   3.332   9.866   7.890 -0.3969  0.1129 -0.2828
22981SOL    HW171836   3.256   9.917   7.919  0.0431  1.8831 -2.0024
22981SOL    HW271837   3.383   9.851   7.970 -1.6743  0.4133  0.6252
22982SOL     OW71838   7.228   8.939   5.450  0.1654 -0.1315  0.5675
22982SOL    HW171839   7.155   8.951   5.389 -0.2205 -1.7842  0.6642
22982SOL    HW271840   7.218   8.849   5.483  1.2747  0.1846  1.8702
22983SOL     OW71841   1.461   3.838   0.211 -0.1735 -0.5993 -0.0927
22983SOL    HW171842   1.495   3.751   0.231 -1.6669 -0.9365  1.1680
22983SOL    HW271843   1.389   3.850   0.272 -1.4424  0.6190 -1.7338
22984SOL     OW71844   8.993   5.670   9.622  0.3696 -0.1753  0.3935
22984SOL    HW171845   8.899   5.678   9.610  0.3973 -1.5907 -1.0904
22984SOL    HW271846   9.031   5.722   9.551  0.6793 -0.7328  0.1449
22985SOL     OW71847   0.780   1.709   8.966 -0.3576  0.1892 -0.8401
22985SOL    HW171848   0.841   1.782   8.976 -0.7508  0.6865 -1.8724
22985SOL    HW271849   0.705   1.747   8.919 -1.3041 -0.4892  0.0722
22986SOL     OW71850   4.344   8.225   4.243  0.5496 -0.2205  0.2413
22986SOL    HW171851   4.386   8.139   4.244  1.6493  0.2500 -1.2675
22986SOL    HW271852   4.281   8.220   4.172  1.1815  0.4402 -0.3879
22987SOL     OW71853   8.835   8.114   0.369  0.1723  0.3944 -0.4378
22987SOL    HW171854   8.863   8.029   0.333 -0.1827  0.8805 -1.9413
22987SOL    HW271855   8.902   8.176   0.338 -0.0970  0.8139 -0.1842
22988SOL     OW71856  10.347  10.413  10.265 -0.4450 -0.2676 -0.3414
22988SOL    HW171857  10.256  10.392  10.246  0.2108 -2.0276 -1.8606
22988SOL    HW271858  10.345  10.454  10.352 -2.8755  1.6789 -1.2029
22989SOL     OW71859  10.685   1.326   1.749 -0.1111 -0.0585  0.0565
22989SOL    HW171860  10.668   1.417   1.727  1.5629  0.0620 -0.8961
22989SOL    HW271861  10.617   1.303   1.812 -1.3351  1.4511 -0.6585
22990SOL     OW71862   9.468   6.531   5.538 -0.1481 -0.1002  0.4141
22990SOL    HW171863   9.498   6.459   5.481  1.3482 -0.0535  1.1068
22990SOL    HW271864   9.469   6.493   5.626  0.0719  0.5980  0.7138
22991SOL     OW71865  10.355   1.217  10.076  0.3963  0.1302  0.1620
22991SOL    HW171866  10.434   1.270  10.063 -0.2151  1.0274 -0.0532
22991SOL    HW271867  10.306   1.227   9.994 -0.4296  0.4751  0.6754
22992SOL     OW71868   8.510   6.560   4.447  0.5072 -0.1734 -0.4145
22992SOL    HW171869   8.501   6.654   4.461  2.2411 -0.2070  1.3262
22992SOL    HW271870   8.444   6.539   4.381  1.5501  2.6189 -2.5317
22993SOL     OW71871   1.809   5.544   6.411 -0.0778  0.2395 -0.3527
22993SOL    HW171872   1.889   5.504   6.375 -0.8864  0.7823 -3.0254
22993SOL    HW271873   1.765   5.473   6.457  1.9108 -0.0612  1.2395
22994SOL     OW71874   5.470   3.476   7.857 -0.0077 -0.5840  0.1785
22994SOL    HW171875   5.482   3.524   7.938 -2.1372  0.0508  0.1880
22994SOL    HW271876   5.427   3.538   7.798  2.0242 -0.8268 -1.6872
22995SOL     OW71877   7.998   2.310   9.114 -0.6144  0.4067  0.3722
22995SOL    HW171878   8.019   2.397   9.080  1.1624  0.4881  1.5266
22995SOL    HW271879   7.961   2.327   9.201  1.0282  0.0197  1.1920
22996SOL     OW71880   4.259  10.463  10.283 -0.0655  0.6498  0.4916
22996SOL    HW171881   4.212  10.539  10.320 -1.8448 -0.4489  0.6076
22996SOL    HW271882   4.300  10.497  10.204  0.0454  1.9791  1.0842
22997SOL     OW71883   8.847   0.389   2.947 -0.0872 -0.0271  0.3053
22997SOL    HW171884   8.864   0.295   2.936 -2.0872 -0.6590  1.7795
22997SOL    HW271885   8.820   0.419   2.860 -0.0311 -0.9739 -0.0519
22998SOL     OW71886   1.454   9.537   8.352  0.2027  0.4871 -0.1705
22998SOL    HW171887   1.525   9.574   8.299 -0.2595  1.4941 -0.1241
22998SOL    HW271888   1.388   9.510   8.289  1.3305 -2.1129 -0.3279
22999SOL     OW71889   2.466  10.597   9.127  0.2789 -0.7057 -0.1286
22999SOL    HW171890   2.383  10.550   9.118  0.7551 -1.5591 -0.0831
22999SOL    HW271891   2.506  10.562   9.206 -0.2164  1.1403  1.0040
23000SOL     OW71892   7.092   1.358   0.471  0.1237  0.2926  0.2725
23000SOL    HW171893   7.175   1.387   0.433  1.3619 -1.8707  1.1756
23000SOL    HW271894   7.051   1.439   0.502  2.4538  1.3177  0.9092
23001SOL     OW71895   0.675   0.913   1.765 -0.1118 -0.1677 -0.3588
23001SOL    HW171896   0.665   1.008   1.770 -0.2577 -0.2183  0.4044
23001SOL    HW271897   0.770   0.899   1.761 -0.1189  0.0739 -2.2586
23002SOL     OW71898   9.544   6.759   4.458  0.5232  0.5851  0.7978
23002SOL    HW171899   9.581   6.717   4.536  0.6551 -0.2049  0.3132
23002SOL    HW271900   9.529   6.687   4.396  0.1321  1.1660  0.2029
23003SOL     OW71901   4.976   5.738   6.554  0.8399 -0.5008  0.1199
23003SOL    HW171902   4.889   5.730   6.514  1.5813  1.6353 -2.1008
23003SOL    HW271903   4.957   5.752   6.647 -1.2304  0.2707 -0.3545
23004SOL     OW71904   6.949   5.049   2.398  0.0401 -0.3072 -0.4691
23004SOL    HW171905   6.998   4.967   2.411 -0.9535 -0.9000 -0.3104
23004SOL    HW271906   6.858   5.020   2.388 -0.1639  0.6904 -1.6935
23005SOL     OW71907   9.326   2.973   8.892 -0.1431 -0.1284  0.7235
23005SOL    HW171908   9.268   2.916   8.943  1.2426 -1.0730  1.3198
23005SOL    HW271909   9.376   3.021   8.958 -1.0522  1.5940  0.2262
23006SOL     OW71910   3.352  10.373   6.870 -0.8255  0.1939 -0.0145
23006SOL    HW171911   3.270  10.330   6.847 -0.7185 -0.7250  1.1720
23006SOL    HW271912   3.383  10.325   6.947  0.2266  1.2755  0.2730
23007SOL     OW71913   0.448   8.422   1.764  0.0695  0.2488  0.3498
23007SOL    HW171914   0.486   8.487   1.706  0.2484  1.0751  1.3702
23007SOL    HW271915   0.463   8.338   1.720  1.2084  0.7543 -0.2506
23008SOL     OW71916   0.485   1.430   6.216 -0.8567  0.0207  0.1107
23008SOL    HW171917   0.447   1.362   6.271 -2.3724 -0.3687 -1.3246
23008SOL    HW271918   0.447   1.512   6.248  0.2155  0.1165  1.2098
23009SOL     OW71919  10.686   2.276   0.442  0.5214 -0.1432  0.1805
23009SOL    HW171920  10.755   2.222   0.481 -0.0446 -0.1903  1.1730
23009SOL    HW271921  10.605   2.236   0.474  0.0421  0.0191 -0.8245
23010SOL     OW71922   6.613   6.208   1.642  0.1032  0.6394  0.3562
23010SOL    HW171923   6.554   6.265   1.593  1.1763  0.0707 -1.7273
23010SOL    HW271924   6.610   6.124   1.594 -0.2158 -0.5862  2.4006
23011SOL     OW71925   2.266   0.333   1.424 -0.3221  0.2088  0.2718
23011SOL    HW171926   2.345   0.329   1.369 -0.6007 -0.7947 -0.0830
23011SOL    HW271927   2.196   0.356   1.362 -0.0280  3.3003  0.9337
23012SOL     OW71928   6.846   4.943   5.296  0.3014 -0.7107 -0.4153
23012SOL    HW171929   6.901   5.015   5.266 -1.4610  0.8053 -0.1538
23012SOL    HW271930   6.906   4.884   5.341  1.4363  1.8780  1.6948
23013SOL     OW71931   0.969   9.361   6.944  0.3911  0.5720 -0.4224
23013SOL    HW171932   1.039   9.296   6.946  1.2015  1.4239 -0.3196
23013SOL    HW271933   1.003   9.434   6.995 -0.7455  0.8499 -0.0325
23014SOL     OW71934   8.327   8.283   1.141 -0.1878  0.2675  0.5213
23014SOL    HW171935   8.335   8.203   1.193 -0.3565 -0.2176 -0.1934
23014SOL    HW271936   8.236   8.311   1.153 -0.1876  0.2371  0.5973
23015SOL     OW71937   2.965   3.145   5.778 -0.0923 -0.2976  0.1432
23015SOL    HW171938   2.959   3.070   5.836  1.0392 -1.5335 -1.2625
23015SOL    HW271939   3.059   3.158   5.765 -0.3045  0.4718 -0.7529
23016SOL     OW71940   8.263   4.344   0.492 -0.0286  0.5139 -0.3646
23016SOL    HW171941   8.297   4.271   0.544 -0.3523  1.8631  1.8470
23016SOL    HW271942   8.169   4.329   0.489 -0.0058  0.4073 -0.6810
23017SOL     OW71943   1.147   9.796   8.554  0.3433  0.5177 -0.1208
23017SOL    HW171944   1.154   9.791   8.458  1.0463  1.2598 -0.1110
23017SOL    HW271945   1.175   9.710   8.584 -1.0852 -0.1693 -0.6254
23018SOL     OW71946   5.069  10.445  10.386  0.0450 -0.0081 -0.3828
23018SOL    HW171947   5.129  10.500  10.336  0.5193  0.0543  0.2439
23018SOL    HW271948   5.099  10.355  10.370 -0.2506 -0.0383 -0.7842
23019SOL     OW71949  10.194   6.000   1.100  0.1701 -0.6878  0.1960
23019SOL    HW171950  10.221   6.055   1.173 -0.5445  0.2692 -0.2473
23019SOL    HW271951  10.158   6.061   1.036 -0.2516 -1.6284 -0.4786
23020SOL     OW71952   7.917   5.472   6.961 -0.5126 -0.1365  0.2491
23020SOL    HW171953   7.911   5.422   7.043 -0.0232  0.5363  0.7078
23020SOL    HW271954   7.985   5.426   6.911  0.3680  0.3889  0.9207
23021SOL     OW71955   8.313   0.125   6.488  0.1676 -0.3661 -0.1545
23021SOL    HW171956   8.334   0.099   6.398 -0.9187 -0.9201 -0.2687
23021SOL    HW271957   8.224   0.161   6.482  0.8715  1.5918  0.3530
23022SOL     OW71958   2.849  10.339   7.686 -0.7832 -0.3571  0.1198
23022SOL    HW171959   2.902  10.400   7.635 -1.7671  0.3954 -0.0354
23022SOL    HW271960   2.869  10.360   7.777 -0.6131 -0.2614  0.0603
23023SOL     OW71961   4.407   5.550   8.712 -0.5888 -0.4429  0.3740
23023SOL    HW171962   4.407   5.488   8.639 -0.2120  0.4530 -0.4160
23023SOL    HW271963   4.357   5.625   8.679  1.2483  0.8023  0.2787
23024SOL     OW71964   8.130   4.355   4.835 -0.5476  0.5556 -0.1753
23024SOL    HW171965   8.085   4.286   4.884 -0.0067  0.3899  0.0943
23024SOL    HW271966   8.147   4.315   4.749 -0.9905  0.6483 -0.3049
23025SOL     OW71967   2.774   0.737   8.859 -0.2682  0.2655  0.0139
23025SOL    HW171968   2.788   0.643   8.869 -0.0861  0.3986  1.0874
23025SOL    HW271969   2.842   0.777   8.913  0.0070  1.0378 -0.8663
23026SOL     OW71970  10.515   3.495   9.323  0.0188  0.2048  0.7869
23026SOL    HW171971  10.483   3.409   9.350  1.0706 -0.9325 -1.2738
23026SOL    HW271972  10.570   3.524   9.396 -0.3610 -0.8728  1.5260
23027SOL     OW71973   6.246   8.353   9.014 -0.2833 -0.0024  0.0439
23027SOL    HW171974   6.179   8.305   8.965 -0.1941 -0.3529  0.2557
23027SOL    HW271975   6.277   8.420   8.954 -0.6683  0.0183 -0.1345
23028SOL     OW71976   1.357   5.836   8.045 -0.1463 -0.1767  0.2689
23028SOL    HW171977   1.340   5.851   8.138  0.6045 -0.5206  0.4672
23028SOL    HW271978   1.314   5.909   8.001 -0.3701  0.0803  0.8972
23029SOL     OW71979   4.276   7.388   4.639 -0.4311 -0.5843  0.2259
23029SOL    HW171980   4.300   7.307   4.685  1.2265 -1.3022 -1.7529
23029SOL    HW271981   4.294   7.369   4.547  0.0859  2.0651 -0.2947
23030SOL     OW71982   4.820   3.706   7.463  0.1810 -0.0802  0.5273
23030SOL    HW171983   4.729   3.686   7.486  0.1205  0.2483  0.5839
23030SOL    HW271984   4.818   3.798   7.437  0.5778  0.0573  0.9673
23031SOL     OW71985   5.038   8.761   8.896 -0.3604 -0.5415 -0.1032
23031SOL    HW171986   4.970   8.696   8.880 -1.4949  0.9602 -1.7305
23031SOL    HW271987   5.095   8.756   8.819  0.0772 -0.2265  0.1947
23032SOL     OW71988   0.078   6.920   3.235  0.3091 -0.4483  0.0802
23032SOL    HW171989   0.068   6.987   3.303 -1.9845 -1.4685  0.8435
23032SOL    HW271990   0.026   6.951   3.161  0.9589 -0.4091 -0.3688
23033SOL     OW71991   5.495   0.274   2.185 -0.2097 -0.9740 -0.8189
23033SOL    HW171992   5.404   0.303   2.187 -0.2608 -1.0967 -1.2184
23033SOL    HW271993   5.524   0.279   2.276 -0.3841 -0.2011 -0.8003
23034SOL     OW71994   5.530   5.818   6.731 -0.3192 -0.2471  0.0861
23034SOL    HW171995   5.621   5.804   6.705 -0.3561 -1.3723  0.5002
23034SOL    HW271996   5.501   5.893   6.679  0.3200 -0.9610 -1.3472
23035SOL     OW71997   9.217   0.787   0.591 -0.4716  0.2193 -0.2480
23035SOL    HW171998   9.234   0.850   0.522  0.5179  0.2202 -0.0137
23035SOL    HW271999   9.263   0.708   0.563  0.3480  0.3701  0.6312
23036SOL     OW72000  10.073   0.811   2.681 -0.0930  0.5950 -0.2152
23036SOL    HW172001   9.980   0.827   2.699 -0.0182  0.5114  0.2477
23036SOL    HW272002  10.117   0.825   2.765  0.0513 -1.4912  0.1198
23037SOL     OW72003   1.856   0.060   6.448  0.1936  0.1863  0.0653
23037SOL    HW172004   1.831   0.097   6.363  0.3731  0.7916  0.2729
23037SOL    HW272005   1.775   0.057   6.498 -0.2469 -1.7432 -0.6946
23038SOL     OW72006   7.519   3.246   6.014 -0.1483  0.2316  0.2071
23038SOL    HW172007   7.545   3.339   6.013 -0.1015  0.2188 -0.0399
23038SOL    HW272008   7.502   3.227   6.106  1.1644  0.1194  0.4481
23039SOL     OW72009   5.861   5.044   4.622  0.0793  0.2049  1.0763
23039SOL    HW172010   5.776   5.031   4.581 -0.1789  0.9981  1.3419
23039SOL    HW272011   5.870   5.139   4.630  1.8549  0.2807 -0.7811
23040SOL     OW72012   9.169   7.200   1.476  0.4308 -0.2004 -0.1967
23040SOL    HW172013   9.116   7.256   1.420  2.0585 -0.4409 -2.1381
23040SOL    HW272014   9.139   7.111   1.456  0.2119 -0.2267  0.2362
23041SOL     OW72015   8.031   4.003   9.183  0.0207  0.1432  0.6953
23041SOL    HW172016   8.067   4.091   9.186 -1.7408  0.8921  2.7832
23041SOL    HW272017   8.049   3.967   9.269 -1.5432 -0.5327  0.7751
23042SOL     OW72018   0.218  10.685   6.223  0.4445 -0.0451 -0.1093
23042SOL    HW172019   0.258  10.696   6.137 -0.0633 -1.0361 -0.4952
23042SOL    HW272020   0.225  10.591   6.241  0.4345  0.1328  0.8805
23043SOL     OW72021   3.925   8.032   9.549  0.5307 -0.0513 -0.3677
23043SOL    HW172022   3.830   8.041   9.557  0.2808 -3.1436  2.3020
23043SOL    HW272023   3.940   8.009   9.457 -1.4642 -0.5980 -0.6006
23044SOL     OW72024   3.196   4.198  10.297  0.1884  0.9428  0.2485
23044SOL    HW172025   3.162   4.272  10.348 -1.8533  0.0806  0.2107
23044SOL    HW272026   3.170   4.121  10.346  0.8370  0.1767 -0.5748
23045SOL     OW72027   2.492   6.575   5.542  0.2959 -0.0135  0.4680
23045SOL    HW172028   2.517   6.536   5.626 -2.3412 -1.4030  0.6999
23045SOL    HW272029   2.516   6.510   5.476 -1.8542 -1.0616  0.6360
23046SOL     OW72030   9.671   5.785   2.640  0.3045  0.5817 -0.2213
23046SOL    HW172031   9.607   5.732   2.689  1.1138 -1.8885 -1.6293
23046SOL    HW272032   9.731   5.818   2.707  0.6474 -1.6295  0.6661
23047SOL     OW72033   1.578   8.671   3.798 -0.4691 -0.0279 -0.1361
23047SOL    HW172034   1.489   8.662   3.764 -0.2080  0.7530 -1.0730
23047SOL    HW272035   1.605   8.581   3.819  0.1321 -0.9298 -4.0463
23048SOL     OW72036   6.915   8.088   2.337  0.2537  0.1950  0.3240
23048SOL    HW172037   6.904   8.143   2.414 -2.0119 -1.4781  1.3080
23048SOL    HW272038   6.967   8.014   2.367  0.7401  0.3145 -0.2029
23049SOL     OW72039  10.657   0.699   6.719 -0.0994 -0.1470 -0.2370
23049SOL    HW172040  10.732   0.757   6.733 -0.9974  1.3522 -1.3483
23049SOL    HW272041  10.695   0.618   6.686  1.1434 -0.0361  0.8211
23050SOL     OW72042   6.069   0.245   4.497 -0.6073 -0.3520  0.0666
23050SOL    HW172043   6.112   0.291   4.425 -1.6217 -1.1965 -1.1289
23050SOL    HW272044   6.111   0.159   4.498  1.2514  0.4698  2.2619
23051SOL     OW72045   1.362   7.556   5.760 -0.1272 -0.1276  0.3182
23051SOL    HW172046   1.321   7.579   5.844  1.3843  2.9780  0.3554
23051SOL    HW272047   1.306   7.598   5.694 -0.3815 -1.1425 -0.1305
23052SOL     OW72048  10.306   3.276  10.684 -0.3120 -0.0754  0.0508
23052SOL    HW172049  10.384   3.228  10.658 -0.2265  0.1445 -0.0991
23052SOL    HW272050  10.240   3.208  10.698  0.0378 -0.2986  0.6498
23053SOL     OW72051   5.063   8.034   4.518  0.1091  0.1333  0.2576
23053SOL    HW172052   5.112   8.053   4.598  0.6900 -1.6411  0.3482
23053SOL    HW272053   5.003   7.964   4.541 -0.2245  0.0865 -0.6902
23054SOL     OW72054   0.373   4.999   6.016 -0.8378 -0.2822  0.3749
23054SOL    HW172055   0.318   4.969   5.944 -1.0388 -0.5917  0.6501
23054SOL    HW272056   0.459   5.014   5.977 -0.7079 -1.3153  0.2385
23055SOL     OW72057   5.106   2.569  10.110 -0.0159  0.5160 -0.0264
23055SOL    HW172058   5.104   2.526  10.024 -0.8479  1.5506 -0.5389
23055SOL    HW272059   5.076   2.501  10.171 -2.4710  0.6428 -0.9746
23056SOL     OW72060   8.805   0.908   0.434 -0.1368  0.5338 -0.1640
23056SOL    HW172061   8.823   0.988   0.482 -1.8088  0.9370 -0.1511
23056SOL    HW272062   8.733   0.867   0.481  1.3879 -1.5841  0.4807
23057SOL     OW72063   6.482   9.638   9.157  0.0671  0.2427  0.2164
23057SOL    HW172064   6.410   9.692   9.190 -1.1816 -0.7770 -0.7375
23057SOL    HW272065   6.469   9.637   9.062  2.2615  1.2899 -0.1514
23058SOL     OW72066   7.552   4.222   4.685  0.5008 -0.5647  0.0389
23058SOL    HW172067   7.623   4.158   4.686  0.2332 -0.8591  0.2782
23058SOL    HW272068   7.515   4.218   4.774  0.8552  0.3381  0.2341
23059SOL     OW72069  10.477   0.917   6.697  0.0413 -0.3611 -0.6530
23059SOL    HW172070  10.515   1.001   6.671 -0.4160  0.5673  1.3942
23059SOL    HW272071  10.544   0.853   6.678  2.8144  1.1864  2.7450
23060SOL     OW72072   9.941   6.924   9.944 -0.2223  0.4492 -0.4441
23060SOL    HW172073   9.967   6.934   9.853 -1.3410 -0.0827 -0.8471
23060SOL    HW272074  10.023   6.917   9.992  0.4682 -2.6862 -1.8174
23061SOL     OW72075   2.688   7.546   9.831 -0.1962  0.2510 -0.7287
23061SOL    HW172076   2.614   7.512   9.881 -0.0204 -0.1974 -0.7725
23061SOL    HW272077   2.746   7.471   9.819 -1.6325 -0.5124 -4.2135
23062SOL     OW72078   8.748   8.864  10.547 -0.2788 -0.0673  0.5964
23062SOL    HW172079   8.767   8.825  10.632  0.0521  1.0440  1.0542
23062SOL    HW272080   8.767   8.795  10.484 -0.3092 -0.8331  1.4112
23063SOL     OW72081   5.798   8.588   0.016  0.1456 -0.2761 -0.4073
23063SOL    HW172082   5.772   8.496   0.018  0.5070 -0.3801 -0.2916
23063SOL    HW272083   5.850   8.597  -0.064  0.3400 -0.2399 -0.2790
23064SOL     OW72084   2.077   2.316   0.294  0.6344 -0.2589  0.0348
23064SOL    HW172085   2.012   2.372   0.336 -0.0793 -1.1859  0.1890
23064SOL    HW272086   2.026   2.259   0.236  1.4173 -0.2713 -0.6539
23065SOL     OW72087   2.785   6.793   5.611 -0.0894 -0.3338  0.0329
23065SOL    HW172088   2.716   6.855   5.590 -0.9313 -1.1764  0.2445
23065SOL    HW272089   2.849   6.803   5.540 -0.4297  0.4468 -0.1689
23066SOL     OW72090   0.432   8.318   9.015  0.0046 -0.5685 -0.0133
23066SOL    HW172091   0.408   8.402   9.053  0.1821 -1.2166  1.6072
23066SOL    HW272092   0.521   8.331   8.982  0.2191 -0.2687  0.6817
23067SOL     OW72093   1.707   4.436   7.290 -0.0741  0.4263  0.3270
23067SOL    HW172094   1.800   4.419   7.302  0.4379  2.2416 -0.7448
23067SOL    HW272095   1.683   4.492   7.364 -0.8791 -1.6692  1.7715
23068SOL     OW72096   1.744   4.202   4.676  0.0768 -0.0185  0.0008
23068SOL    HW172097   1.784   4.210   4.763 -0.0422  0.6325 -0.0028
23068SOL    HW272098   1.816   4.172   4.620  0.3530  0.3318  0.1650
23069SOL     OW72099   3.052   9.275   6.567  0.1707  0.1676 -0.0311
23069SOL    HW172100   3.056   9.249   6.475 -1.5655  1.4056 -0.5055
23069SOL    HW272101   3.016   9.199   6.612 -2.7234  0.8419 -1.0350
23070SOL     OW72102   4.238   4.497   9.004  0.3307 -0.3808  0.0222
23070SOL    HW172103   4.174   4.496   9.075 -3.0317 -0.1794 -2.7454
23070SOL    HW272104   4.214   4.574   8.951  1.5591 -1.4597 -2.2595
23071SOL     OW72105   7.607   4.477   1.626 -0.0761  1.0358  0.4728
23071SOL    HW172106   7.574   4.388   1.639  0.1253  0.8197 -0.4043
23071SOL    HW272107   7.543   4.518   1.568  0.9927  0.7150 -0.9865
23072SOL     OW72108   6.904   3.859   3.252 -0.2061 -0.2676  0.4138
23072SOL    HW172109   6.953   3.779   3.233  1.6349  0.8210  0.2420
23072SOL    HW272110   6.878   3.893   3.167  1.3296  0.6214  0.2429
23073SOL     OW72111   5.707   7.828   9.537  0.1691  0.0637 -0.3426
23073SOL    HW172112   5.792   7.800   9.506  0.4406  0.8425 -0.3214
23073SOL    HW272113   5.725   7.876   9.618 -0.3145 -0.0203 -0.1764
23074SOL     OW72114   6.027   4.023   5.233 -0.3015 -0.0792 -0.1001
23074SOL    HW172115   6.042   4.015   5.328  1.1676  1.2729 -0.1753
23074SOL    HW272116   5.932   4.030   5.225 -0.4683 -0.4384  1.2573
23075SOL     OW72117   6.945   9.322   4.878 -0.3956  0.5235 -0.7074
23075SOL    HW172118   6.985   9.245   4.839 -0.9654  0.4857 -1.2386
23075SOL    HW272119   6.985   9.396   4.833 -0.1840  0.5221 -0.5210
23076SOL     OW72120   8.106   8.821   4.673 -0.0857 -0.0429  0.8305
23076SOL    HW172121   8.068   8.861   4.752  0.8038  1.3675  0.5855
23076SOL    HW272122   8.038   8.828   4.607 -0.2825  0.2005  1.0584
23077SOL     OW72123   6.054   7.351   0.395 -0.1343 -0.0456 -0.2252
23077SOL    HW172124   5.999   7.296   0.340  1.8057  0.0410 -2.4077
23077SOL    HW272125   6.138   7.306   0.399  0.0541  0.4103  1.9877
23078SOL     OW72126   6.549   8.231   8.040 -0.4253  0.0258  0.2935
23078SOL    HW172127   6.609   8.181   7.985 -0.7465 -1.8539  1.5412
23078SOL    HW272128   6.464   8.220   7.998 -0.8846 -2.3966  1.6479
23079SOL     OW72129   3.396   1.314   8.544  0.2056  0.4847  0.6298
23079SOL    HW172130   3.378   1.405   8.567 -1.9510 -0.1018  1.5491
23079SOL    HW272131   3.312   1.269   8.557  1.4885 -1.8637  1.4007
23080SOL     OW72132   4.100   3.870   1.369  0.2161  0.3901 -0.2118
23080SOL    HW172133   4.020   3.855   1.419  1.0343 -0.6009  0.8479
23080SOL    HW272134   4.099   3.964   1.352 -1.0573  0.4340 -0.0174
23081SOL     OW72135   3.631   9.460   2.533 -0.1797  0.7146 -0.3041
23081SOL    HW172136   3.720   9.492   2.551 -0.1224 -0.1763  1.1290
23081SOL    HW272137   3.630   9.372   2.571 -3.0805  2.3025  4.0174
23082SOL     OW72138   0.489   2.870   4.642 -0.0350  0.0541  0.2085
23082SOL    HW172139   0.496   2.928   4.718  1.8133 -1.3237  1.1824
23082SOL    HW272140   0.410   2.818   4.659  0.5303 -0.4653  1.4194
23083SOL     OW72141   9.359   6.684   2.923  0.3394 -0.4342 -0.2861
23083SOL    HW172142   9.286   6.738   2.955 -1.2127 -1.6932 -1.4815
23083SOL    HW272143   9.385   6.632   2.999  1.3765  1.4231  0.6850
23084SOL     OW72144   0.772   3.324   9.849  0.4788  0.2417  0.0562
23084SOL    HW172145   0.696   3.285   9.892  0.0702  1.0949  0.1336
23084SOL    HW272146   0.781   3.277   9.767 -1.6046  1.6809 -1.0795
23085SOL     OW72147   4.033   1.273  10.661  0.2585  0.5730  0.1095
23085SOL    HW172148   4.122   1.308  10.655  0.9063 -1.0032 -0.0319
23085SOL    HW272149   4.016   1.268  10.755  0.2723  0.9825  0.1349
23086SOL     OW72150   3.657   4.709   1.921 -0.6885  0.4601 -0.7524
23086SOL    HW172151   3.572   4.747   1.944 -1.5857 -1.3697 -0.8879
23086SOL    HW272152   3.658   4.708   1.825 -0.2607  0.9607 -0.7624
23087SOL     OW72153   1.716   0.102   3.176 -0.3574 -0.1744  0.1724
23087SOL    HW172154   1.692   0.010   3.177  0.8632 -0.6456 -2.9050
23087SOL    HW272155   1.812   0.102   3.169 -0.2070  1.3879  1.4914
23088SOL     OW72156   7.798   4.965   5.162  0.4180  0.4007  0.1754
23088SOL    HW172157   7.887   4.997   5.176  0.8869  0.0045 -1.5728
23088SOL    HW272158   7.780   4.984   5.070 -0.7993 -0.7149  0.1494
23089SOL     OW72159   7.552   6.771   9.130  0.1809 -0.2657  0.1233
23089SOL    HW172160   7.514   6.816   9.055 -0.0202  0.2301  0.5120
23089SOL    HW272161   7.486   6.779   9.199 -0.0387 -1.5355  0.0786
23090SOL     OW72162   0.055   3.850   0.851  0.0238 -0.0422  0.2649
23090SOL    HW172163   0.065   3.798   0.771 -0.9084  0.7381 -0.3934
23090SOL    HW272164  -0.038   3.842   0.873  0.0690  0.5671  0.6912
23091SOL     OW72165   5.590   1.259  10.675 -0.7394  0.1551  0.4255
23091SOL    HW172166   5.671   1.265  10.623 -0.0419  0.5100  1.5279
23091SOL    HW272167   5.520   1.253  10.609  0.1748 -0.1853 -0.5477
23092SOL     OW72168   1.204   2.478   5.532 -0.5510 -0.8111 -0.4007
23092SOL    HW172169   1.264   2.406   5.511  0.4348 -0.6269  1.5014
23092SOL    HW272170   1.123   2.455   5.488  0.1980 -2.3264 -1.0753
23093SOL     OW72171   9.642   0.824   5.843  0.2869  0.2473  0.6971
23093SOL    HW172172   9.596   0.793   5.921  1.0715 -2.4801  0.1765
23093SOL    HW272173   9.591   0.787   5.770  1.9340 -0.8930  0.0700
23094SOL     OW72174   5.517   9.045   4.777 -0.2001  0.0847  0.2174
23094SOL    HW172175   5.445   9.083   4.726 -0.4459 -0.0351  0.4696
23094SOL    HW272176   5.478   9.026   4.862 -0.2134 -1.1899 -0.0572
23095SOL     OW72177   2.119  10.787   9.318  0.1913  0.3767 -0.2349
23095SOL    HW172178   2.211  10.808   9.336 -0.1994  0.6743  1.6251
23095SOL    HW272179   2.070  10.857   9.359 -0.9223 -0.7504  0.4348
23096SOL     OW72180   9.760   6.322   2.971  0.0275  0.3168  0.4312
23096SOL    HW172181   9.731   6.233   2.951 -1.0273  0.8354 -0.4336
23096SOL    HW272182   9.719   6.342   3.055 -2.3066  1.0642 -0.8014
23097SOL     OW72183   3.614   5.419  10.629 -0.1257 -0.0293 -0.1606
23097SOL    HW172184   3.633   5.430  10.535 -1.0326 -1.8095 -0.5888
23097SOL    HW272185   3.538   5.476  10.645  0.2084  0.5028 -0.4144
23098SOL     OW72186   7.627   9.045  10.247  0.5289  0.6630 -0.3213
23098SOL    HW172187   7.539   9.038  10.284  0.6855 -0.9949 -0.1875
23098SOL    HW272188   7.613   9.076  10.158 -0.2422 -0.0302 -0.4540
23099SOL     OW72189   9.000   9.956   0.273 -0.0269 -0.2441 -0.5366
23099SOL    HW172190   8.940   9.969   0.200  0.8127 -0.5726 -1.3087
23099SOL    HW272191   9.065  10.026   0.264 -1.3210  1.3292  1.4254
23100SOL     OW72192   8.734   9.539   6.552  0.2645 -0.3365 -0.4086
23100SOL    HW172193   8.738   9.449   6.522 -3.5370 -0.9464  0.4110
23100SOL    HW272194   8.763   9.591   6.477  0.8746 -2.1379 -1.4703
23101SOL     OW72195   3.383   7.230   0.780 -0.0418  0.1373 -0.5836
23101SOL    HW172196   3.473   7.214   0.810 -0.3905 -0.1614  0.3070
23101SOL    HW272197   3.394   7.253   0.687  0.8554 -1.0146 -0.7897
23102SOL     OW72198   0.560   2.958   4.887  0.1342 -0.2763 -0.3641
23102SOL    HW172199   0.611   3.039   4.889 -1.0710  0.6133 -2.5213
23102SOL    HW272200   0.610   2.897   4.941  2.7803  0.9333 -1.2912
23103SOL     OW72201   3.291   2.967   5.290  0.1731 -0.4430  0.3071
23103SOL    HW172202   3.228   2.988   5.221  0.6219 -1.3884 -0.4174
23103SOL    HW272203   3.327   3.052   5.316 -1.7534  0.1643  1.1136
23104SOL     OW72204   5.264   0.937   6.576  0.2453  0.1168  0.1816
23104SOL    HW172205   5.352   0.974   6.564  0.6517 -0.1391  2.0477
23104SOL    HW272206   5.278   0.858   6.628 -1.0478 -0.2319  0.0253
23105SOL     OW72207   8.352   3.195   6.670 -0.0171  0.0449 -0.0786
23105SOL    HW172208   8.325   3.145   6.592 -1.5923  0.3449  0.2557
23105SOL    HW272209   8.444   3.171   6.682 -0.0611 -0.8904 -1.3618
23106SOL     OW72210   6.922   7.325   7.536  0.5827 -0.1371  0.3864
23106SOL    HW172211   6.933   7.380   7.614 -2.4038  0.1602  0.7258
23106SOL    HW272212   6.981   7.363   7.471 -0.1385  2.4989  1.1463
23107SOL     OW72213   3.460   1.637   3.727 -0.2950 -0.0140  0.3113
23107SOL    HW172214   3.428   1.628   3.637  0.3697 -0.7949  0.1440
23107SOL    HW272215   3.473   1.732   3.738 -0.8239  0.1332 -0.2504
23108SOL     OW72216   1.382   2.750   4.849  0.0430 -0.3451 -0.5136
23108SOL    HW172217   1.342   2.690   4.912 -0.0538 -0.0393 -0.2761
23108SOL    HW272218   1.322   2.824   4.845  0.6560  0.2030 -0.0204
23109SOL     OW72219   3.384   2.190   8.162 -0.0416 -0.3173  0.0844
23109SOL    HW172220   3.472   2.153   8.169 -0.4773 -1.2836  0.7194
23109SOL    HW272221   3.348   2.153   8.081 -0.2539 -0.8186  0.4008
23110SOL     OW72222   6.025   4.192   6.046  0.1746  0.4705  0.1473
23110SOL    HW172223   6.038   4.262   6.111  2.3629 -0.8295  1.2336
23110SOL    HW272224   5.931   4.180   6.042 -0.2542  3.1337  0.2825
23111SOL     OW72225   6.438   6.236   9.717  0.0514  0.9061 -0.3692
23111SOL    HW172226   6.463   6.144   9.724  0.0864  0.9937  1.0310
23111SOL    HW272227   6.344   6.234   9.700  0.1875  0.6100 -1.0922
23112SOL     OW72228   2.893   2.952   3.471  0.1035  0.1734  0.1205
23112SOL    HW172229   2.840   2.894   3.417  0.4119  0.4020 -0.4304
23112SOL    HW272230   2.969   2.974   3.417  0.3272  0.5486  0.5733
23113SOL     OW72231   8.617   6.459   0.418  0.0466  0.2763 -0.0527
23113SOL    HW172232   8.592   6.527   0.355 -0.6437  1.7674  1.7523
23113SOL    HW272233   8.678   6.503   0.477  1.1097 -1.2511  0.0365
23114SOL     OW72234   6.149   6.091  10.791  0.4738 -0.0552 -0.3576
23114SOL    HW172235   6.231   6.045  10.805  0.5663  0.2060 -0.0376
23114SOL    HW272236   6.135   6.142  10.871 -1.2390 -1.9527  0.6479
23115SOL     OW72237   7.707   6.880   2.542  0.0313  0.4683 -0.0014
23115SOL    HW172238   7.756   6.936   2.483  2.0270  0.1126  1.2240
23115SOL    HW272239   7.671   6.811   2.486  1.5328  0.3503 -0.8689
23116SOL     OW72240   9.647   5.062   2.824  0.3491  0.6672 -0.4157
23116SOL    HW172241   9.559   5.086   2.797  0.3088  0.7244 -0.2373
23116SOL    HW272242   9.657   4.971   2.794  0.5436  0.9386 -1.1848
23117SOL     OW72243   2.044   6.761   0.133  0.8278  0.1776 -0.0767
23117SOL    HW172244   1.951   6.740   0.124  0.9394 -1.2957  1.5689
23117SOL    HW272245   2.089   6.691   0.086  1.1208  0.0476  0.3908
23118SOL     OW72246   9.754   8.355   4.812  0.4341 -0.3628  0.6419
23118SOL    HW172247   9.794   8.340   4.898 -0.3223 -2.7612  0.6279
23118SOL    HW272248   9.730   8.268   4.781  0.1555  0.5111 -1.7695
23119SOL     OW72249   1.010   9.888   4.762  0.5359  0.7018  0.6964
23119SOL    HW172250   0.931   9.858   4.718  0.7359  0.4775  0.4842
23119SOL    HW272251   1.050   9.949   4.700  0.8602  0.3232  0.5234
23120SOL     OW72252   6.450   2.882   3.488  0.1664 -0.4090 -0.2172
23120SOL    HW172253   6.400   2.951   3.445  0.1913  0.4492  1.0699
23120SOL    HW272254   6.443   2.902   3.582  1.3083 -1.3741  0.1020
23121SOL     OW72255   5.959   2.802   1.427 -0.1800  0.0056 -0.4676
23121SOL    HW172256   5.866   2.827   1.429 -0.5448 -1.2825  0.7575
23121SOL    HW272257   5.994   2.834   1.510 -0.6913 -3.3187  1.2112
23122SOL     OW72258  10.324   3.115   0.517 -0.5697 -0.2436  0.1800
23122SOL    HW172259  10.292   3.151   0.600 -0.2635 -0.7349  0.5116
23122SOL    HW272260  10.317   3.188   0.455  1.9910  1.0952  1.3037
23123SOL     OW72261  10.505   0.836   3.209 -0.2493 -0.6194 -0.1928
23123SOL    HW172262  10.542   0.921   3.185 -0.0994 -0.6814 -0.1789
23123SOL    HW272263  10.490   0.792   3.125  0.1367 -0.7775 -0.1816
23124SOL     OW72264   3.185   9.061   3.506 -0.2062 -0.2686 -0.1333
23124SOL    HW172265   3.265   9.045   3.557 -0.8759 -0.7653  0.7869
23124SOL    HW272266   3.184   8.991   3.441  0.7109  0.4302 -0.9210
23125SOL     OW72267   3.103   6.108   1.016 -0.2849 -0.3615 -0.2920
23125SOL    HW172268   3.133   6.126   0.927 -1.7493  0.0769 -0.7240
23125SOL    HW272269   3.138   6.180   1.068 -0.4879  0.0789 -0.7555
23126SOL     OW72270  10.582   9.911   9.823  0.3232 -0.2703 -0.2099
23126SOL    HW172271  10.550   9.928   9.735  0.4491  1.5909  0.0781
23126SOL    HW272272  10.659   9.856   9.810 -0.4772 -1.2242 -1.1485
23127SOL     OW72273   0.599   4.821   2.263  0.0667  0.2646  0.0558
23127SOL    HW172274   0.524   4.879   2.255 -0.6383 -0.7126 -0.5530
23127SOL    HW272275   0.577   4.762   2.334  1.5286  1.7833  1.8870
23128SOL     OW72276   3.707   2.989   7.348 -0.3375  0.6182  0.4581
23128SOL    HW172277   3.741   2.901   7.365  1.1310  1.3215  1.3002
23128SOL    HW272278   3.721   3.001   7.254 -2.3588 -0.7461 -0.0898
23129SOL     OW72279   6.687   5.286   5.699  0.1783  0.6272  0.4796
23129SOL    HW172280   6.676   5.381   5.703  0.3451  0.6341  0.8279
23129SOL    HW272281   6.679   5.257   5.790 -0.1669  0.2753  0.3412
23130SOL     OW72282   1.496   0.263   4.317  0.2246 -0.0311  0.1649
23130SOL    HW172283   1.524   0.269   4.226 -0.9198  0.4818 -0.1638
23130SOL    HW272284   1.575   0.284   4.367  0.3978  1.6379 -0.7445
23131SOL     OW72285   6.325   2.079   3.458 -0.2799  0.4347  0.1734
23131SOL    HW172286   6.284   2.027   3.388  0.3750 -0.7088  0.6126
23131SOL    HW272287   6.268   2.064   3.534  0.5931 -0.6755  0.6285
23132SOL     OW72288   2.163   6.592   6.161 -0.5067 -0.3896 -0.1537
23132SOL    HW172289   2.141   6.516   6.107  0.4748 -0.7579 -0.0531
23132SOL    HW272290   2.093   6.595   6.227  0.4082 -2.3834  1.0139
23133SOL     OW72291   3.461   7.864   1.756  0.4400 -0.1583  0.0982
23133SOL    HW172292   3.402   7.826   1.690  2.1966 -2.4918 -0.2510
23133SOL    HW272293   3.482   7.791   1.814  1.2271  1.1663  1.5289
23134SOL     OW72294   1.790   2.282   6.096  0.5342  0.0624  1.0389
23134SOL    HW172295   1.842   2.267   6.176  1.2279 -0.4033  0.5098
23134SOL    HW272296   1.711   2.230   6.108 -0.1179  1.2390  2.1173
23135SOL     OW72297   1.658  10.144  10.494 -0.3096 -0.4804 -0.0089
23135SOL    HW172298   1.574  10.105  10.472 -0.4193 -1.0620  1.3209
23135SOL    HW272299   1.656  10.155  10.589  0.5949  0.7549 -0.1005
23136SOL     OW72300   5.348  10.377   5.662  0.0240 -0.3142  0.1790
23136SOL    HW172301   5.371  10.445   5.725  1.4419  0.0626 -0.6976
23136SOL    HW272302   5.422  10.373   5.603 -0.0937 -2.5164  0.0878
23137SOL     OW72303   4.329   0.819   1.204  0.5053 -0.2965  0.0109
23137SOL    HW172304   4.242   0.859   1.197  0.1054 -1.2302 -0.6039
23137SOL    HW272305   4.387   0.892   1.223 -0.6140  0.1572  1.9320
23138SOL     OW72306   2.044   7.047   7.261 -0.5917 -0.2603 -0.1546
23138SOL    HW172307   2.028   7.070   7.170 -2.3295  0.5429  0.2950
23138SOL    HW272308   1.967   7.081   7.308  0.2357 -0.6736  1.6015
23139SOL     OW72309   1.785   6.228   8.129 -0.5306  0.0027 -1.0237
23139SOL    HW172310   1.813   6.188   8.046  0.7166 -1.2943 -0.0241
23139SOL    HW272311   1.729   6.301   8.102 -2.4308 -1.9957 -2.9647
23140SOL     OW72312   7.007   6.997   9.967 -0.3774 -0.0807 -0.4300
23140SOL    HW172313   6.922   6.974  10.005 -0.2208  1.5460  1.0516
23140SOL    HW272314   6.994   7.084   9.930  0.3368 -0.3241 -1.2848
23141SOL     OW72315   1.132   1.966   0.232  0.4304 -0.3387 -0.3466
23141SOL    HW172316   1.040   1.970   0.207  0.3907 -1.4018 -0.3907
23141SOL    HW272317   1.175   2.031   0.175 -0.5552  1.5939  1.0081
23142SOL     OW72318   3.213  10.019   4.280  0.2097 -0.1141 -0.2407
23142SOL    HW172319   3.130  10.019   4.232  0.3556  1.1670 -0.5142
23142SOL    HW272320   3.187  10.022   4.372 -0.0448 -0.8189 -0.2785
23143SOL     OW72321   6.734   4.702   2.932  0.1849  0.3095 -0.1520
23143SOL    HW172322   6.723   4.662   3.018  0.4368  1.5597  0.4819
23143SOL    HW272323   6.652   4.748   2.916 -0.3805 -0.9774 -1.1961
23144SOL     OW72324   6.033   9.820   9.503 -0.2022 -0.1838 -0.4836
23144SOL    HW172325   6.111   9.873   9.518 -0.3868 -0.1103  0.2194
23144SOL    HW272326   6.062   9.730   9.519 -1.1358  0.0698  3.7642
23145SOL     OW72327   0.621   0.530   5.622 -0.1762  0.0466 -0.4186
23145SOL    HW172328   0.545   0.519   5.565 -1.9081 -0.4988  1.8264
23145SOL    HW272329   0.647   0.440   5.643  0.8184  0.2388 -0.7898
23146SOL     OW72330   4.002   1.798   2.324 -0.2115  0.1302 -0.9038
23146SOL    HW172331   4.060   1.857   2.276  0.9884 -1.4517 -1.5297
23146SOL    HW272332   4.026   1.711   2.291 -0.6788 -0.8557  1.2181
23147SOL     OW72333   1.242   0.019   1.849 -0.1150  0.0312  0.6903
23147SOL    HW172334   1.327   0.037   1.890 -0.2426  0.9599  0.5730
23147SOL    HW272335   1.254  -0.066   1.806  0.8762  0.3172  0.3652
23148SOL     OW72336   1.972   8.550  10.642  0.1218  0.5513  0.1238
23148SOL    HW172337   1.957   8.460  10.669 -0.0626  0.5411 -0.0084
23148SOL    HW272338   1.956   8.603  10.720 -0.1197  0.4993  0.1089
23149SOL     OW72339   7.042   8.566   5.934 -0.4444 -0.1470 -0.4414
23149SOL    HW172340   6.967   8.617   5.903 -0.9625 -0.9288 -0.5045
23149SOL    HW272341   7.072   8.519   5.856 -1.1117 -1.3308  0.0011
23150SOL     OW72342   0.910   9.702  10.061 -0.4007 -0.3175  0.2816
23150SOL    HW172343   0.986   9.755  10.037 -0.1458 -1.0947 -0.6755
23150SOL    HW272344   0.946   9.626  10.106 -0.7251 -0.0023  1.0978
23151SOL     OW72345   5.358   3.622  10.730  0.9074 -0.6283  0.2043
23151SOL    HW172346   5.388   3.604  10.640  1.0027  0.5373 -0.0117
23151SOL    HW272347   5.339   3.716  10.730  2.5693 -0.2415  1.8740
23152SOL     OW72348   7.375  10.413   7.393 -0.5560 -0.0195 -0.0589
23152SOL    HW172349   7.443  10.372   7.447  0.7136 -0.1601 -1.6930
23152SOL    HW272350   7.408  10.501   7.375 -2.0763  0.8954  1.2887
23153SOL     OW72351   2.525   0.211   8.812  0.7945 -0.4918  0.2548
23153SOL    HW172352   2.481   0.140   8.859 -1.2622  0.5965  0.0659
23153SOL    HW272353   2.611   0.218   8.854  0.9886 -2.9433  0.3845
23154SOL     OW72354   8.678   1.355   0.599  0.0951  0.2339 -0.4991
23154SOL    HW172355   8.651   1.403   0.677  1.6566  0.2488  0.0711
23154SOL    HW272356   8.644   1.267   0.613  0.3361  0.2432  0.1911
23155SOL     OW72357   6.453   4.272  10.075 -0.1878  0.0526 -0.1173
23155SOL    HW172358   6.472   4.274  10.169 -0.0215  0.3805 -0.1566
23155SOL    HW272359   6.532   4.306  10.033 -0.2032 -0.2306 -0.3884
23156SOL     OW72360   6.469   8.527   5.486 -0.6209  0.0391 -0.2182
23156SOL    HW172361   6.465   8.590   5.558 -0.1737 -0.7336  0.4910
23156SOL    HW272362   6.398   8.465   5.504 -1.3655  0.5749 -1.1673
23157SOL     OW72363   0.146   2.543   7.413 -0.2769 -0.0788  0.1198
23157SOL    HW172364   0.084   2.584   7.352  0.6242 -1.3943 -1.7540
23157SOL    HW272365   0.202   2.615   7.442  0.4272  0.3166 -2.0494
23158SOL     OW72366   9.291   8.734  10.600  0.4125  0.1819  0.2225
23158SOL    HW172367   9.264   8.687  10.520 -1.5212  0.2188  0.8004
23158SOL    HW272368   9.352   8.800  10.569 -0.1301  0.0553 -1.2132
23159SOL     OW72369   6.426   4.370   8.619 -0.0435 -0.7468 -0.0182
23159SOL    HW172370   6.335   4.398   8.604  0.4561  0.3912 -1.0651
23159SOL    HW272371   6.420   4.307   8.690 -1.6541 -0.6302 -0.0139
23160SOL     OW72372   9.159   3.593   5.742 -0.3872  0.0393  0.4191
23160SOL    HW172373   9.194   3.531   5.806  1.5734 -0.6769 -1.2272
23160SOL    HW272374   9.120   3.538   5.673 -0.0965  0.6822 -0.2789
23161SOL     OW72375   9.561  10.346   1.345 -0.1943  0.1514  0.1203
23161SOL    HW172376   9.583  10.438   1.359  0.8105  0.1635 -1.3562
23161SOL    HW272377   9.555  10.336   1.250  2.0233 -1.7926  0.0878
23162SOL     OW72378   8.806   3.863   4.330 -0.3465  0.8368  0.5496
23162SOL    HW172379   8.722   3.894   4.297 -0.5412 -0.4424 -0.2210
23162SOL    HW272380   8.793   3.858   4.425 -1.4403 -0.1069  0.3831
23163SOL     OW72381   5.257   3.361  10.764  0.2471 -0.2364  0.0615
23163SOL    HW172382   5.284   3.445  10.801  0.4255 -0.8099  1.2822
23163SOL    HW272383   5.204   3.385  10.688 -0.1253  0.9973  0.6766
23164SOL     OW72384   4.029   5.571   7.380  0.1648  0.2815  0.3121
23164SOL    HW172385   3.961   5.625   7.340  0.8103  0.7717 -0.1510
23164SOL    HW272386   4.031   5.491   7.327 -1.5922 -0.7477  1.6967
23165SOL     OW72387   3.031   7.795   4.332 -0.0062 -0.3219 -0.8786
23165SOL    HW172388   3.001   7.854   4.401 -1.0755 -1.6091 -0.1899
23165SOL    HW272389   2.958   7.791   4.270  0.7784  0.4870 -1.8774
23166SOL     OW72390   8.241   5.049   2.608 -0.0174 -0.3995  0.0967
23166SOL    HW172391   8.244   4.988   2.682  2.0853 -1.7766 -1.0048
23166SOL    HW272392   8.307   5.115   2.629 -0.0041 -0.3284 -0.1715
23167SOL     OW72393   5.228   1.676   9.552  0.2117 -0.0427  0.6785
23167SOL    HW172394   5.162   1.608   9.557  0.5006 -0.3245  0.7246
23167SOL    HW272395   5.273   1.673   9.637 -0.6172  1.0809  1.1772
23168SOL     OW72396   5.976   0.138   3.599  0.0791 -0.4641 -0.4849
23168SOL    HW172397   6.041   0.164   3.534  2.3817 -2.6592  0.7500
23168SOL    HW272398   5.951   0.049   3.572 -0.7351 -0.4802  0.3084
23169SOL     OW72399  10.329   4.712   4.189  0.3970  0.3044 -0.0304
23169SOL    HW172400  10.366   4.788   4.144 -1.3127  2.1628  1.5165
23169SOL    HW272401  10.384   4.702   4.267  1.8418 -1.3865 -1.1729
23170SOL     OW72402   9.924   4.221   4.659 -0.6353 -0.2448 -0.1061
23170SOL    HW172403   9.948   4.290   4.598 -0.8454 -0.0224  0.0606
23170SOL    HW272404   9.894   4.267   4.737 -1.6062 -0.5176 -0.3088
23171SOL     OW72405   5.369   9.816   9.322  0.3065  0.6425  0.5556
23171SOL    HW172406   5.308   9.764   9.373  0.9853 -1.8025 -0.9597
23171SOL    HW272407   5.435   9.844   9.386 -0.0712 -0.3930  1.4320
23172SOL     OW72408   7.533   9.568   5.159  0.2492 -0.3946  0.2190
23172SOL    HW172409   7.598   9.582   5.090 -0.6097  1.6200 -0.2600
23172SOL    HW272410   7.561   9.488   5.202  2.7488  0.0911 -0.3180
23173SOL     OW72411   8.142   7.519   8.909 -0.2304 -1.0649  0.6409
23173SOL    HW172412   8.063   7.526   8.855 -0.2455 -1.7155  0.5735
23173SOL    HW272413   8.126   7.579   8.983  0.6237  1.4179 -1.0421
23174SOL     OW72414   3.302   1.807   9.313  0.3817  0.4768 -0.2690
23174SOL    HW172415   3.290   1.894   9.351 -1.5134  0.0396  0.2450
23174SOL    HW272416   3.283   1.818   9.220 -1.6869  0.3325  0.0843
23175SOL     OW72417   5.356  10.701   6.544 -0.2264  0.0693 -0.2794
23175SOL    HW172418   5.338  10.792   6.520  0.3335  0.0613 -0.7404
23175SOL    HW272419   5.399  10.664   6.467  1.4479 -0.0011  0.6452
23176SOL     OW72420   4.417   5.950   8.636  0.4417 -0.3847  0.2638
23176SOL    HW172421   4.362   5.872   8.625 -0.8148  0.4034  0.7704
23176SOL    HW272422   4.503   5.915   8.660 -0.0515 -1.6135  0.3240
23177SOL     OW72423   3.318   3.564   5.177 -0.4066  0.2268  0.2938
23177SOL    HW172424   3.270   3.540   5.256 -0.7292  0.4583  0.1690
23177SOL    HW272425   3.399   3.603   5.210 -0.3409 -0.0818  0.5051
23178SOL     OW72426   0.251   8.634  10.784 -0.1494 -0.2094 -0.1205
23178SOL    HW172427   0.235   8.563  10.846 -2.4292 -0.0811 -0.4790
23178SOL    HW272428   0.339   8.616  10.750 -0.2910 -2.3454  0.4681
23179SOL     OW72429   6.478  10.008   8.083  0.0417 -0.3062 -0.2179
23179SOL    HW172430   6.395  10.055   8.070 -0.2362 -0.5995  0.4705
23179SOL    HW272431   6.485   9.951   8.006 -0.9402 -1.0700  0.2432
23180SOL     OW72432   4.678   1.187   8.323  0.5781 -0.2165  0.8506
23180SOL    HW172433   4.740   1.140   8.267  0.7983  2.1372 -1.0626
23180SOL    HW272434   4.596   1.138   8.316  0.6220 -0.0584 -1.5501
23181SOL     OW72435   2.584   1.087   8.707  0.0712  0.6432 -0.4034
23181SOL    HW172436   2.626   1.060   8.789 -1.3100 -1.4170 -0.2749
23181SOL    HW272437   2.502   1.128   8.735 -0.6672 -0.5554 -0.6925
23182SOL     OW72438  10.137  10.134   5.888  0.5925  0.6843  0.6929
23182SOL    HW172439  10.202  10.103   5.951  1.5343 -0.1048 -0.6066
23182SOL    HW272440  10.174  10.215   5.853  1.2714 -0.1385 -0.5713
23183SOL     OW72441   2.889   1.750   2.139 -0.5858 -0.1111  0.3995
23183SOL    HW172442   2.947   1.809   2.187 -1.0666  0.1331  0.6876
23183SOL    HW272443   2.914   1.760   2.047 -1.4840  1.4853  0.2891
23184SOL     OW72444   9.052   3.678   3.714  0.0710  0.1951 -0.2371
23184SOL    HW172445   8.978   3.735   3.693  0.2670  0.8844  0.8732
23184SOL    HW272446   9.106   3.679   3.635 -0.1093  1.2662 -0.3593
23185SOL     OW72447   5.973   0.542   0.746  0.0602 -0.0263  0.9127
23185SOL    HW172448   6.064   0.561   0.723  0.1759  0.2265  1.5684
23185SOL    HW272449   5.921   0.589   0.680  0.3832  0.9678  1.3488
23186SOL     OW72450   9.633   0.247   1.194  0.0486 -0.3412 -0.2450
23186SOL    HW172451   9.654   0.338   1.172 -0.0776 -0.4733 -0.9549
23186SOL    HW272452   9.709   0.197   1.164 -1.1963 -0.8351 -2.9418
23187SOL     OW72453   9.799   7.723   8.748  0.0919 -0.3006  0.6418
23187SOL    HW172454   9.824   7.684   8.832  1.1169  0.1433  0.5561
23187SOL    HW272455   9.704   7.726   8.751  0.0035 -2.1135  0.9632
23188SOL     OW72456   5.704   9.500   9.907  0.3810 -0.1931 -0.1638
23188SOL    HW172457   5.772   9.557   9.943  0.6543 -0.5193 -0.1603
23188SOL    HW272458   5.749   9.448   9.841  0.1323 -0.4015 -0.1708
23189SOL     OW72459   3.147  10.188   0.659  0.1893 -0.3936  0.3494
23189SOL    HW172460   3.155  10.095   0.684  0.1870 -0.0488  1.7046
23189SOL    HW272461   3.060  10.195   0.620 -2.0855 -0.0374  4.8490
23190SOL     OW72462   0.670   9.943   6.417  0.9393  0.1783 -0.1988
23190SOL    HW172463   0.723   9.892   6.478  0.5296  0.5405  0.4825
23190SOL    HW272464   0.685  10.034   6.442 -0.7837  0.2565  0.7121
23191SOL     OW72465  10.358   2.429   8.736  0.5761  0.4908 -0.3593
23191SOL    HW172466  10.376   2.508   8.787 -0.2974  0.5972 -0.1896
23191SOL    HW272467  10.347   2.461   8.646  1.3963  0.4010 -0.4935
23192SOL     OW72468   4.474   9.666   8.921  0.2569  0.0726  0.2946
23192SOL    HW172469   4.489   9.573   8.938  1.8454  0.0547 -0.9476
23192SOL    HW272470   4.562   9.705   8.926 -0.3311  1.4388  0.3957
23193SOL     OW72471   8.747   2.159   2.827  0.4742  0.1938  0.7029
23193SOL    HW172472   8.673   2.110   2.792  2.0678 -1.7755 -0.0837
23193SOL    HW272473   8.707   2.223   2.887 -1.7922 -1.2279  0.8373
23194SOL     OW72474   5.371   0.037   7.311 -0.5469 -0.2749 -0.1255
23194SOL    HW172475   5.310   0.057   7.382  1.6240  1.1608  1.4729
23194SOL    HW272476   5.374   0.117   7.259  0.9274  0.2154  0.6347
23195SOL     OW72477   8.914   5.036   8.880  0.5078  0.3852  0.3032
23195SOL    HW172478   8.929   4.999   8.793  2.0039  3.7755 -1.0286
23195SOL    HW272479   8.826   5.004   8.904  0.1109 -0.7890 -2.3542
23196SOL     OW72480   1.129   4.551   3.541  0.2775  0.4853 -0.4738
23196SOL    HW172481   1.210   4.500   3.541 -0.2901 -0.4564 -0.2726
23196SOL    HW272482   1.060   4.485   3.536 -0.4862  1.2551 -0.3019
23197SOL     OW72483   5.180   9.526   3.633  0.3025  0.1661 -0.1239
23197SOL    HW172484   5.143   9.472   3.704  0.9918  0.4450  0.4540
23197SOL    HW272485   5.107   9.582   3.606  0.3590  0.9528  1.2403
23198SOL     OW72486   6.994   1.832   4.078  0.1736  0.8361  0.0696
23198SOL    HW172487   6.930   1.851   4.010  0.9600  0.5593 -0.7696
23198SOL    HW272488   7.078   1.831   4.032  0.5035 -1.8149  0.5600
23199SOL     OW72489   5.274   7.709   5.588  0.2531 -0.0963 -0.1226
23199SOL    HW172490   5.285   7.785   5.645  0.6592  0.4082 -0.8705
23199SOL    HW272491   5.355   7.704   5.538 -0.4543  0.0067 -1.3104
23200SOL     OW72492   6.538   1.035   6.641  0.0605 -0.2355  0.3516
23200SOL    HW172493   6.561   1.128   6.638  1.9309 -0.5582  2.3158
23200SOL    HW272494   6.577   0.998   6.562  0.6990  0.3869  0.3638
23201SOL     OW72495   8.730   4.040   1.123  0.0416 -0.4809  0.0010
23201SOL    HW172496   8.695   3.953   1.141 -1.4964 -0.5278 -2.7069
23201SOL    HW272497   8.797   4.054   1.191  0.2370 -3.6733  0.5931
23202SOL     OW72498   9.328   4.338   8.812 -0.4230 -0.4758  0.1353
23202SOL    HW172499   9.423   4.348   8.799  0.0552  1.1351  3.6817
23202SOL    HW272500   9.320   4.260   8.866 -1.0183 -0.1628  0.5086
23203SOL     OW72501   5.993   6.750   8.921 -0.3639  0.2360  0.3503
23203SOL    HW172502   5.959   6.682   8.863  0.0624  0.2531  0.0796
23203SOL    HW272503   5.967   6.832   8.880  1.9429  0.3214 -1.1040
23204SOL     OW72504  10.150   1.697   1.748  0.5576 -0.9727 -0.1765
23204SOL    HW172505  10.061   1.667   1.729  0.6112 -0.5951 -1.0317
23204SOL    HW272506  10.141   1.791   1.762  0.9138 -0.8258 -0.8982
23205SOL     OW72507   0.425   4.736   4.123 -0.4503 -0.3331  0.1510
23205SOL    HW172508   0.413   4.643   4.141 -1.4544 -0.8851 -2.8574
23205SOL    HW272509   0.450   4.740   4.031 -0.6107  2.4041  0.1376
23206SOL     OW72510   5.561   7.937   5.912  0.8323  0.2356 -0.1575
23206SOL    HW172511   5.579   8.006   5.848  0.6553 -0.5089 -1.0471
23206SOL    HW272512   5.541   7.860   5.858 -2.2779  0.2743  0.7541
23207SOL     OW72513   6.521   1.943   3.305  0.4591  0.1209 -0.1184
23207SOL    HW172514   6.492   1.993   3.382  0.5106 -0.7825  0.5049
23207SOL    HW272515   6.508   2.003   3.231 -1.8881  0.1574  0.2650
23208SOL     OW72516  10.011   2.106   5.773 -0.0064  0.0743 -0.7784
23208SOL    HW172517   9.938   2.153   5.731 -1.4544 -0.1501  1.3038
23208SOL    HW272518  10.009   2.019   5.735 -2.6638 -0.8047  1.0969
23209SOL     OW72519   0.310   9.688   8.729 -0.6077 -0.3282  0.1899
23209SOL    HW172520   0.367   9.659   8.658 -1.1339 -0.5112 -0.1670
23209SOL    HW272521   0.329   9.628   8.801  0.0879 -0.0036  0.2805
23210SOL     OW72522   2.316   4.182   5.507  0.6181 -0.7105  0.0592
23210SOL    HW172523   2.296   4.088   5.509  1.7478 -1.0192 -1.4113
23210SOL    HW272524   2.371   4.197   5.584 -1.1234 -0.8276  1.3830
23211SOL     OW72525   1.311   0.412  10.196 -0.3801 -0.1238 -0.2924
23211SOL    HW172526   1.344   0.333  10.240  1.3525  0.7530  0.0729
23211SOL    HW272527   1.262   0.459  10.264  0.7072  0.3086  0.2195
23212SOL     OW72528   2.715   6.370   2.078  0.0574  0.4638 -0.2677
23212SOL    HW172529   2.807   6.393   2.084  0.5175 -0.8675 -1.5006
23212SOL    HW272530   2.713   6.291   2.023 -1.6976 -0.3048  0.7720
23213SOL     OW72531   8.052   5.178   2.471  0.1367  0.1482  0.5294
23213SOL    HW172532   7.973   5.126   2.479  0.6950 -0.6915  0.6645
23213SOL    HW272533   8.117   5.133   2.525  0.8587  0.5241 -0.0055
23214SOL     OW72534   7.260   8.773   5.996  0.5041 -0.5095 -0.5160
23214SOL    HW172535   7.176   8.787   5.950  0.6632  0.4716 -0.5229
23214SOL    HW272536   7.316   8.732   5.930  0.4399  0.0408 -0.9165
23215SOL     OW72537   4.064   5.964   5.453 -0.0911 -0.4843 -0.0875
23215SOL    HW172538   4.096   6.054   5.461 -1.3614 -0.1489  2.0343
23215SOL    HW272539   4.143   5.910   5.459  0.6728  0.4508 -1.3000
23216SOL     OW72540   1.799   4.876   5.456 -0.0374  0.2026  0.2932
23216SOL    HW172541   1.843   4.910   5.534  1.3655 -0.6133 -0.0965
23216SOL    HW272542   1.811   4.944   5.390 -0.6085  0.5870  0.5751
23217SOL     OW72543   0.518   5.696   4.460  0.4589 -0.0398 -0.5014
23217SOL    HW172544   0.503   5.650   4.542 -2.3556  0.2788 -0.7402
23217SOL    HW272545   0.537   5.786   4.485 -0.4352  0.0658 -0.1922
23218SOL     OW72546   9.565   3.737   6.371 -0.3813 -0.1517  0.2439
23218SOL    HW172547   9.654   3.752   6.340 -0.6262  1.1471  0.1334
23218SOL    HW272548   9.560   3.642   6.382  0.4838 -0.4290 -1.3470
23219SOL     OW72549   6.572   6.183   5.193 -0.6801 -0.9336 -0.7386
23219SOL    HW172550   6.559   6.268   5.151 -1.2553  0.1033  1.4242
23219SOL    HW272551   6.657   6.153   5.160 -0.0578  0.8771 -0.8863
23220SOL     OW72552   6.122   3.902   6.324  0.1149 -0.6012  0.1426
23220SOL    HW172553   6.031   3.903   6.295 -0.0406  0.7007  0.5967
23220SOL    HW272554   6.128   3.829   6.386 -0.9292  0.0434  1.0255
23221SOL     OW72555  10.584   7.792   1.842  0.1322 -0.1614  0.0347
23221SOL    HW172556  10.512   7.746   1.887 -1.3990 -1.3345 -3.3231
23221SOL    HW272557  10.602   7.868   1.899 -2.1404 -1.0786  2.1987
23222SOL     OW72558   5.438   2.448   2.391 -0.1764 -0.1853 -0.1104
23222SOL    HW172559   5.434   2.540   2.419 -2.6823  0.1836 -1.3896
23222SOL    HW272560   5.450   2.452   2.296  0.5210 -1.2333 -0.0879
23223SOL     OW72561   1.810   7.462  10.351  0.1865 -0.1309  0.5014
23223SOL    HW172562   1.780   7.429  10.436  0.2403 -1.6165 -0.0375
23223SOL    HW272563   1.883   7.405  10.327  0.2172  0.3198 -0.5209
23224SOL     OW72564   5.766   3.364   4.686  0.1594  0.4388 -0.0951
23224SOL    HW172565   5.732   3.452   4.673  0.6017  0.6542  0.1893
23224SOL    HW272566   5.689   3.312   4.710 -0.4063  0.3534 -1.9474
23225SOL     OW72567   4.953   6.311   0.637 -0.3614  0.0558  0.3000
23225SOL    HW172568   5.023   6.362   0.678 -0.1264 -0.9667  1.2078
23225SOL    HW272569   4.876   6.369   0.640 -0.3012  0.1014  2.0122
23226SOL     OW72570   8.221   7.155   4.569 -0.0973  0.4972 -0.5713
23226SOL    HW172571   8.175   7.153   4.485 -0.6628 -2.4634 -0.3100
23226SOL    HW272572   8.157   7.122   4.632  1.1844 -0.0311  0.5032
23227SOL     OW72573   8.531   5.095   4.819  0.1196 -0.2488 -0.1294
23227SOL    HW172574   8.512   5.051   4.736  0.5534 -0.6876 -0.0009
23227SOL    HW272575   8.626   5.104   4.821  0.1117 -0.2056  0.3060
23228SOL     OW72576   7.398   4.650   6.306 -0.2097  0.2031  0.1465
23228SOL    HW172577   7.385   4.700   6.226 -1.6810  1.3487  1.0426
23228SOL    HW272578   7.482   4.681   6.340  1.7640 -2.1675 -2.1793
23229SOL     OW72579   7.988   7.837   1.354  0.0441 -0.0650  0.4761
23229SOL    HW172580   8.033   7.919   1.377  0.4000 -0.5904  1.7598
23229SOL    HW272581   7.900   7.848   1.390  0.4008 -0.6319  1.5572
23230SOL     OW72582   4.592   3.725   3.697  0.3734  0.1947 -0.0509
23230SOL    HW172583   4.600   3.654   3.762 -0.5715  0.0899 -0.0318
23230SOL    HW272584   4.498   3.737   3.687  0.5096  2.1476  0.6919
23231SOL     OW72585   2.112   9.831   2.109  0.1530  0.0564 -0.0485
23231SOL    HW172586   2.176   9.767   2.140 -0.0797  0.1171  0.5686
23231SOL    HW272587   2.091   9.802   2.020  1.2506  0.2137 -0.3743
23232SOL     OW72588   5.889   3.923  10.514  0.0347 -0.0278  0.3497
23232SOL    HW172589   5.829   3.848  10.506  0.9505 -0.9494  1.7952
23232SOL    HW272590   5.834   3.998  10.492 -1.0288 -1.0538 -0.7183
23233SOL     OW72591   1.717   4.464   8.020 -0.3878 -0.3319  0.1111
23233SOL    HW172592   1.667   4.479   7.939 -0.3792  1.6387  0.4280
23233SOL    HW272593   1.791   4.524   8.014  0.8763 -1.7729  0.5920
23234SOL     OW72594   9.828   2.698   5.220  0.3875 -0.1043  0.8806
23234SOL    HW172595   9.760   2.675   5.157 -1.0230  1.4593  1.7547
23234SOL    HW272596   9.827   2.794   5.222  1.0960 -0.0955  2.5154
23235SOL     OW72597   0.852  10.238   5.859 -0.1601  0.7058  0.1348
23235SOL    HW172598   0.945  10.258   5.850 -0.3163  0.5930 -2.5142
23235SOL    HW272599   0.809  10.323   5.856 -0.2194  0.6615 -0.5044
23236SOL     OW72600   0.980   3.942   0.732 -0.0609  0.1016 -0.0532
23236SOL    HW172601   1.036   3.875   0.772  0.1859  0.2052 -0.2197
23236SOL    HW272602   0.899   3.896   0.712  0.5303 -0.4742 -1.2731
23237SOL     OW72603   9.907   1.033   7.381  0.3460 -0.0015  0.1850
23237SOL    HW172604   9.922   0.965   7.316 -1.8178 -1.4202  1.0549
23237SOL    HW272605   9.844   1.092   7.339  1.2967  0.8183 -0.1174
23238SOL     OW72606   4.769   9.052   8.753 -0.6903 -0.0680 -0.3427
23238SOL    HW172607   4.817   8.981   8.710 -0.5243 -2.3990  3.3082
23238SOL    HW272608   4.686   9.013   8.781 -0.8199  1.2614  1.3201
23239SOL     OW72609   8.892   1.765   8.039 -0.1037 -0.2742  0.4092
23239SOL    HW172610   8.927   1.791   7.954  1.9794  0.5536  1.4361
23239SOL    HW272611   8.800   1.745   8.022  0.5004 -1.2235 -2.2215
23240SOL     OW72612   3.153   8.829   4.978 -0.1937  0.3999  0.0948
23240SOL    HW172613   3.066   8.865   4.958  0.9004  2.2671 -1.7055
23240SOL    HW272614   3.174   8.775   4.902  0.0871 -0.3512  0.6944
23241SOL     OW72615   4.700   6.304   0.403  0.0737 -0.3022 -0.0991
23241SOL    HW172616   4.712   6.210   0.420 -0.0101 -0.4222 -0.6781
23241SOL    HW272617   4.666   6.339   0.485  0.5268 -0.7002  0.2614
23242SOL     OW72618   3.333   5.675   9.480  0.0335 -0.3484  0.0707
23242SOL    HW172619   3.378   5.592   9.496  0.7532  0.2839  1.5611
23242SOL    HW272620   3.250   5.666   9.527  0.7307  0.2755  1.4885
23243SOL     OW72621   9.125   4.875   1.848 -0.3040 -0.3069 -0.2188
23243SOL    HW172622   9.111   4.969   1.838  1.2851 -0.0681 -0.5342
23243SOL    HW272623   9.061   4.847   1.913 -0.8925  0.9688 -0.2394
23244SOL     OW72624   1.682   9.331   3.483 -0.2558  0.7372  0.0183
23244SOL    HW172625   1.703   9.337   3.576  0.1547  1.9534 -0.1302
23244SOL    HW272626   1.610   9.267   3.478 -0.0223  0.3784  1.1162
23245SOL     OW72627   2.662   0.398   9.222  0.1239 -0.0839 -0.2378
23245SOL    HW172628   2.656   0.486   9.260  1.4520 -0.3306  0.5908
23245SOL    HW272629   2.699   0.344   9.292 -2.3507 -1.7440 -0.0896
23246SOL     OW72630  10.728   7.752   5.671 -0.1031  0.1953  0.2465
23246SOL    HW172631  10.702   7.733   5.761  1.9050  0.6236  0.9564
23246SOL    HW272632  10.766   7.670   5.639  0.0638  0.3266  0.1059
23247SOL     OW72633   6.897   0.773   3.803 -0.4962 -0.7467 -0.2166
23247SOL    HW172634   6.863   0.853   3.761  0.7629 -1.3182 -2.5128
23247SOL    HW272635   6.978   0.802   3.846 -1.5160 -0.2635  1.4572
23248SOL     OW72636   8.859   2.834   5.563 -0.6103  0.7456  0.3015
23248SOL    HW172637   8.917   2.892   5.612  0.5089 -0.6732  0.7382
23248SOL    HW272638   8.775   2.880   5.561  0.9144  3.8531 -2.0786
23249SOL     OW72639   4.836   8.848   8.041  0.2985  0.1969 -0.2428
23249SOL    HW172640   4.851   8.931   7.995  1.1528  0.0530 -0.2442
23249SOL    HW272641   4.911   8.794   8.017  0.2954 -0.1953  0.6191
23250SOL     OW72642   8.047   3.643   8.523 -0.1745  0.5950 -0.0293
23250SOL    HW172643   8.037   3.565   8.578 -3.0158  1.9600  1.6013
23250SOL    HW272644   8.096   3.704   8.577  1.7872  0.1273 -1.1958
23251SOL     OW72645   6.166   7.059   2.087  0.0379 -0.2869 -0.1349
23251SOL    HW172646   6.214   6.981   2.058  0.2129 -0.7195  1.2386
23251SOL    HW272647   6.142   7.104   2.006  1.0980 -1.0671 -0.9175
23252SOL     OW72648   3.093   4.202   6.447 -0.6445 -0.4024  0.3867
23252SOL    HW172649   3.117   4.149   6.370 -2.9449  0.4190 -0.9761
23252SOL    HW272650   3.052   4.280   6.411 -1.4122  0.2267  2.4690
23253SOL     OW72651   1.103   4.432   1.981  0.2420 -0.2523 -0.1503
23253SOL    HW172652   1.101   4.468   1.892 -0.5850  0.2202  0.0433
23253SOL    HW272653   1.086   4.338   1.969  0.5046 -0.2544 -0.5197
23254SOL     OW72654   2.815  10.726   0.654  0.4128  0.2683 -0.1277
23254SOL    HW172655   2.864  10.805   0.629  2.0358 -0.1531  1.4573
23254SOL    HW272656   2.753  10.757   0.720 -0.1832  0.4838 -0.7728
23255SOL     OW72657   5.612  10.005   6.280  0.2548 -0.0863 -0.6466
23255SOL    HW172658   5.684   9.942   6.279 -0.5923 -1.1932  1.6288
23255SOL    HW272659   5.564   9.986   6.361 -2.8617  0.2848 -2.2456
23256SOL     OW72660   7.854   0.556   5.954  0.4258  0.0185 -0.4161
23256SOL    HW172661   7.931   0.568   5.899 -0.1019 -1.5443 -1.5849
23256SOL    HW272662   7.886   0.570   6.043  1.4977  1.7683 -1.0333
23257SOL     OW72663   5.319   9.856   9.665 -0.4443  0.0499 -0.0308
23257SOL    HW172664   5.373   9.797   9.717  1.1366 -0.4459 -2.1067
23257SOL    HW272665   5.261   9.799   9.615 -0.1370  0.3370 -0.7308
23258SOL     OW72666   9.979   2.632   9.121 -0.1897  0.6116  0.4190
23258SOL    HW172667   9.933   2.695   9.066  0.6019  0.1084 -0.8825
23258SOL    HW272668  10.060   2.675   9.145 -0.9768  1.2290  2.1226
23259SOL     OW72669   4.811   4.128   2.143 -0.3380  0.0497  0.1799
23259SOL    HW172670   4.837   4.057   2.085 -1.2694  0.4450 -0.7736
23259SOL    HW272671   4.797   4.086   2.228 -3.5590 -1.5323 -0.9459
23260SOL     OW72672   8.108   6.677   6.935  0.1736  0.0576 -0.2634
23260SOL    HW172673   8.024   6.633   6.921  0.3989 -0.4407 -0.0799
23260SOL    HW272674   8.168   6.606   6.957 -0.0345  0.7053  2.7857
23261SOL     OW72675   6.414   3.587   6.102 -0.2198  0.0750  0.0971
23261SOL    HW172676   6.492   3.533   6.112  1.5670  2.6852  1.3402
23261SOL    HW272677   6.416   3.646   6.177 -1.6252  2.3573 -1.5466
23262SOL     OW72678   5.615   8.780   7.394  0.4748 -0.1419  0.4545
23262SOL    HW172679   5.655   8.778   7.307 -0.7281  0.7000 -0.1452
23262SOL    HW272680   5.600   8.688   7.416 -0.6108 -0.3159 -0.9128
23263SOL     OW72681   5.832   8.587   0.913 -0.0335  0.2146 -0.4824
23263SOL    HW172682   5.901   8.573   0.978 -0.1761 -0.4691 -0.4709
23263SOL    HW272683   5.752   8.597   0.965 -0.0253  0.4940 -0.5198
23264SOL     OW72684  10.635   1.631  10.041 -0.2187  0.1721 -0.3264
23264SOL    HW172685  10.681   1.711  10.065  1.9214 -0.5343 -1.7809
23264SOL    HW272686  10.591   1.652   9.959  0.0339 -0.0261 -0.5136
23265SOL     OW72687   7.728   4.819   2.527 -0.0831  0.0222 -0.0064
23265SOL    HW172688   7.748   4.906   2.493 -0.3067 -0.2846 -0.9311
23265SOL    HW272689   7.795   4.763   2.489 -0.8499 -0.4735 -0.6569
23266SOL     OW72690   4.827   8.667   3.960 -0.1454 -0.0516  0.3541
23266SOL    HW172691   4.808   8.719   4.037  0.4404 -0.1031  0.5409
23266SOL    HW272692   4.783   8.583   3.975 -0.1329 -0.0163  0.5769
23267SOL     OW72693   2.270   4.965   6.394  0.2925 -0.0482 -0.2746
23267SOL    HW172694   2.322   4.892   6.360  1.3129  0.3349  0.3921
23267SOL    HW272695   2.201   4.978   6.330  2.3734  0.9333 -2.4737
23268SOL     OW72696   6.632   7.114   9.607 -0.3844 -0.3730  0.0002
23268SOL    HW172697   6.565   7.093   9.541 -1.9666  1.7266  0.8300
23268SOL    HW272698   6.583   7.153   9.679  1.6381  0.1426  1.1675
23269SOL     OW72699   8.590   3.874   3.567  0.4384  0.7262  0.8663
23269SOL    HW172700   8.599   3.938   3.637  1.1062  1.7425 -0.1187
23269SOL    HW272701   8.519   3.907   3.513  1.0975  0.9021  0.0933
23270SOL     OW72702   9.976   4.352   9.965  1.4479 -0.1914 -0.1808
23270SOL    HW172703   9.892   4.306   9.958  1.1831  0.3992 -1.1844
23270SOL    HW272704   9.956   4.431  10.014  0.5103  1.8195 -3.4639
23271SOL     OW72705   6.814   4.849   3.614 -0.1716 -0.5390 -0.5623
23271SOL    HW172706   6.816   4.879   3.523  0.3271  1.6420  0.1212
23271SOL    HW272707   6.906   4.838   3.638 -0.2351  0.1630  0.0447
23272SOL     OW72708   8.630  10.568   4.588  0.2568  0.2521 -0.8647
23272SOL    HW172709   8.720  10.595   4.604 -0.4307  1.9435  0.4534
23272SOL    HW272710   8.588  10.571   4.674 -0.9168 -1.1491 -1.3469
23273SOL     OW72711   2.737   7.617   4.668  0.0998  0.1466 -0.2496
23273SOL    HW172712   2.710   7.529   4.695 -2.0789 -0.1688 -2.9503
23273SOL    HW272713   2.657   7.669   4.676  0.0167  0.6359 -3.1499
23274SOL     OW72714   0.287   9.616   0.906  0.0805  1.0655 -0.1145
23274SOL    HW172715   0.329   9.693   0.868 -1.0051  1.4357 -0.5964
23274SOL    HW272716   0.195   9.639   0.911 -0.2363 -0.1421 -0.1018
23275SOL     OW72717   9.625  10.557   0.735 -0.1276 -0.3685  0.1935
23275SOL    HW172718   9.535  10.537   0.759 -0.4878  0.5356 -0.3396
23275SOL    HW272719   9.618  10.611   0.657  0.8575  0.0836  0.3935
23276SOL     OW72720   9.266   7.355   3.238 -0.0762 -0.4226  0.3482
23276SOL    HW172721   9.292   7.319   3.323  0.6243  0.2302  0.4286
23276SOL    HW272722   9.258   7.449   3.254 -0.8354 -0.4105 -0.0992
23277SOL     OW72723   8.671   7.305   8.587  0.9831  0.2461  0.2152
23277SOL    HW172724   8.718   7.276   8.508 -0.1527  1.3678 -0.9135
23277SOL    HW272725   8.677   7.231   8.646 -1.8197 -2.4816 -2.5327
23278SOL     OW72726   1.496   9.334   0.371  0.0714  0.4541  0.7620
23278SOL    HW172727   1.421   9.394   0.374 -0.3363 -0.0692  1.6412
23278SOL    HW272728   1.463   9.253   0.411  0.7003 -0.2614 -0.1430
23279SOL     OW72729   5.489   3.895   8.577 -0.7595 -0.7185  0.1412
23279SOL    HW172730   5.542   3.840   8.519  1.2537 -0.5162  1.6864
23279SOL    HW272731   5.493   3.982   8.537 -0.8332 -0.9202 -0.3184
23280SOL     OW72732   0.412   0.477   7.237  1.1918  0.3860  0.3778
23280SOL    HW172733   0.326   0.446   7.209  1.3723  0.7493 -0.6284
23280SOL    HW272734   0.435   0.421   7.311  0.0092  0.4153  0.7817
23281SOL     OW72735   7.122   6.477   7.806 -0.0012  0.1364  0.6088
23281SOL    HW172736   7.105   6.561   7.764  0.3357 -0.4105 -0.6655
23281SOL    HW272737   7.041   6.428   7.796 -0.4149  0.5170  1.9171
23282SOL     OW72738   0.145   0.001   6.965  0.2756 -0.2927  0.1887
23282SOL    HW172739   0.216  -0.036   6.912  0.0972 -0.1374 -0.1643
23282SOL    HW272740   0.146  -0.051   7.045  1.8735  0.7735  0.9183
23283SOL     OW72741   3.922   0.259   4.033 -0.3740 -0.4019 -0.2082
23283SOL    HW172742   3.988   0.324   4.054 -0.1853 -0.7715  0.3687
23283SOL    HW272743   3.840   0.295   4.068 -0.4329 -0.0716 -0.6800
23284SOL     OW72744   7.241   9.942   6.797 -0.3841 -0.7624  0.0136
23284SOL    HW172745   7.261   9.989   6.716 -1.9042  0.6799  0.4226
23284SOL    HW272746   7.180   9.873   6.769  0.2333 -1.1963 -0.2790
23285SOL     OW72747   9.027   8.446   1.774 -0.5860 -0.2708 -0.6651
23285SOL    HW172748   8.963   8.513   1.752  0.9806  1.4167 -0.2750
23285SOL    HW272749   8.975   8.376   1.813 -2.1129  1.4512  0.5679
23286SOL     OW72750   2.855   8.604   8.639 -0.1093 -0.4395 -0.3243
23286SOL    HW172751   2.919   8.534   8.645  0.7163  0.2666 -0.6786
23286SOL    HW272752   2.775   8.561   8.607  1.1871 -0.8051 -3.4984
23287SOL     OW72753   9.373   9.754   4.641  0.1783  0.7717  0.6442
23287SOL    HW172754   9.289   9.744   4.686  1.0770  0.8051  2.3934
23287SOL    HW272755   9.410   9.666   4.640 -0.3627  0.5132 -1.2285
23288SOL     OW72756   6.733   6.910   9.025  0.3936  0.3127  0.4973
23288SOL    HW172757   6.818   6.868   9.041 -0.3869 -1.2470  0.7123
23288SOL    HW272758   6.713   6.889   8.934 -0.0090  0.1951  0.6103
23289SOL     OW72759   4.852   0.913   6.878  0.6203 -0.1355  0.0355
23289SOL    HW172760   4.892   0.989   6.837  0.7734 -0.5476 -0.5855
23289SOL    HW272761   4.925   0.851   6.890  0.2825 -0.6510 -0.5458
23290SOL     OW72762   6.851   1.846  10.020 -0.8002  0.0808 -0.0970
23290SOL    HW172763   6.794   1.795   9.963 -1.1713 -0.1800  0.4931
23290SOL    HW272764   6.886   1.915   9.964 -0.4622 -0.6802 -0.8593
23291SOL     OW72765   2.365   2.561   8.332  0.3870  0.1647 -0.3462
23291SOL    HW172766   2.304   2.624   8.370  1.5274  0.5447  0.9180
23291SOL    HW272767   2.339   2.555   8.240 -1.0680  0.8676 -0.0059
23292SOL     OW72768   2.791   7.049   1.707  0.0229 -0.3172 -0.0329
23292SOL    HW172769   2.801   6.959   1.739 -1.2447 -0.3406  0.3677
23292SOL    HW272770   2.698   7.056   1.687  0.0574  0.9959  0.2157
23293SOL     OW72771   7.148   1.549  10.220 -0.1366  0.4842  0.0340
23293SOL    HW172772   7.122   1.594  10.139  0.0055  2.0945  0.8392
23293SOL    HW272773   7.073   1.494  10.241  0.1359 -0.5801 -1.5929
23294SOL     OW72774   1.773   6.939   4.201  0.0438  0.4536 -0.7257
23294SOL    HW172775   1.836   6.982   4.259  0.4019 -1.6301  0.5143
23294SOL    HW272776   1.821   6.866   4.163 -1.6831 -1.5470  0.6903
23295SOL     OW72777   6.277   1.450   3.481  0.5502  0.0420 -0.3928
23295SOL    HW172778   6.293   1.373   3.426  0.7435 -0.9447  0.9845
23295SOL    HW272779   6.363   1.475   3.514  0.3825  0.3128 -0.1524
23296SOL     OW72780   7.044   2.981   7.716  0.6120 -0.1163  0.3358
23296SOL    HW172781   6.998   2.938   7.788 -0.5401  0.2875 -0.1519
23296SOL    HW272782   6.994   2.959   7.638  1.4636  0.0217 -0.2675
23297SOL     OW72783   4.188   9.574   9.287  0.0554  0.1414 -0.1861
23297SOL    HW172784   4.225   9.512   9.223 -1.2582 -1.1681  0.2610
23297SOL    HW272785   4.256   9.582   9.354  1.4170  1.4699 -1.6539
23298SOL     OW72786   0.045   6.418   9.305  0.0810 -0.0259  0.2798
23298SOL    HW172787   0.012   6.332   9.280  0.9798 -0.2795 -0.0881
23298SOL    HW272788  -0.032   6.474   9.309 -0.4499 -0.7364  0.0401
23299SOL     OW72789   1.119   1.267   4.256 -0.0721 -0.1616  0.4176
23299SOL    HW172790   1.093   1.195   4.313 -1.5141  0.1510  0.1866
23299SOL    HW272791   1.215   1.268   4.261 -0.0444 -1.8119  0.7488
23300SOL     OW72792   1.819   9.280   8.714  0.2345 -0.8788  1.0305
23300SOL    HW172793   1.868   9.324   8.644  0.8194 -3.7935 -0.5620
23300SOL    HW272794   1.859   9.312   8.795  0.2413  1.8192  0.0781
23301SOL     OW72795   1.619   5.325   1.746  0.1143  0.2209 -0.3677
23301SOL    HW172796   1.593   5.414   1.770  1.5763  0.1274  1.8098
23301SOL    HW272797   1.600   5.320   1.652 -3.1485  1.6614  0.0765
23302SOL     OW72798  10.169   5.851   7.621  0.2092  0.4119 -0.2688
23302SOL    HW172799  10.220   5.905   7.560 -0.8760 -0.2202 -1.7946
23302SOL    HW272800  10.104   5.808   7.566  0.1298 -1.3604  1.1223
23303SOL     OW72801   8.468   8.310   3.783  0.3285  0.2755 -0.1742
23303SOL    HW172802   8.379   8.330   3.814  0.6996  1.1838  0.3417
23303SOL    HW272803   8.488   8.382   3.722  0.2468 -0.5915 -1.2526
23304SOL     OW72804   5.306   3.201   1.140 -0.1807 -0.4839  0.4619
23304SOL    HW172805   5.297   3.274   1.079  0.2822 -1.6867 -1.0913
23304SOL    HW272806   5.398   3.203   1.166  0.1713 -1.3411 -0.6768
23305SOL     OW72807   1.118   8.781   4.851  0.0178  0.0456 -0.2725
23305SOL    HW172808   1.070   8.816   4.776  0.3539 -0.1456 -0.5761
23305SOL    HW272809   1.180   8.719   4.814 -0.6615 -0.9838  0.2829
23306SOL     OW72810   5.137   1.476   7.068 -0.0643  1.0170  0.0572
23306SOL    HW172811   5.221   1.467   7.113 -0.0988  0.3217 -0.0078
23306SOL    HW272812   5.074   1.434   7.127  0.0600 -0.9188 -1.1349
23307SOL     OW72813   2.700   1.694   8.966  0.2135 -0.0750  0.4214
23307SOL    HW172814   2.626   1.753   8.955  0.2697 -0.3915 -2.2418
23307SOL    HW272815   2.667   1.623   9.021 -0.9024  0.6531  0.7143
23308SOL     OW72816   7.410   6.461   4.419 -0.5232  0.2539  0.3347
23308SOL    HW172817   7.350   6.535   4.415 -0.6686  0.1506  0.5617
23308SOL    HW272818   7.374   6.398   4.357 -0.0936  0.5908 -0.2665
23309SOL     OW72819   2.803   3.772   5.214  0.4367 -0.5536  0.5497
23309SOL    HW172820   2.827   3.755   5.123 -0.0167 -0.2968  0.3795
23309SOL    HW272821   2.877   3.822   5.249  1.7311 -2.6626  1.0138
23310SOL     OW72822   1.162   6.569   1.413  0.3396  0.1611  0.4146
23310SOL    HW172823   1.110   6.533   1.486 -0.9671  1.5451  0.2082
23310SOL    HW272824   1.178   6.660   1.438  1.5976  0.1002 -0.1369
23311SOL     OW72825   0.662   4.957   7.963  0.4374  0.4857  0.2233
23311SOL    HW172826   0.591   4.997   7.913 -0.6442 -0.2401  1.1390
23311SOL    HW272827   0.646   4.863   7.956  2.0688  0.2280 -0.6319
23312SOL     OW72828   9.422   0.442   6.877 -0.3178  0.2491  0.1097
23312SOL    HW172829   9.339   0.429   6.923 -1.0971  1.5372 -0.8537
23312SOL    HW272830   9.405   0.411   6.788  0.9736 -1.6401  0.4635
23313SOL     OW72831   7.939   4.240   5.957  0.2507  0.1778 -0.1528
23313SOL    HW172832   7.950   4.335   5.945  0.2599  0.0662 -1.0998
23313SOL    HW272833   7.980   4.222   6.042  0.3067  1.0142  0.0073
23314SOL     OW72834   0.872   2.835   6.657 -0.0378  1.2696 -0.0068
23314SOL    HW172835   0.929   2.793   6.721 -2.0368 -0.5476  0.7131
23314SOL    HW272836   0.858   2.923   6.692 -0.8614  0.4176  1.9962
23315SOL     OW72837   8.790   2.324  10.052  0.0892 -0.3159  0.2651
23315SOL    HW172838   8.818   2.250  10.105 -0.6802  0.0196  1.1718
23315SOL    HW272839   8.782   2.289   9.963  0.3933 -1.1417  0.5588
23316SOL     OW72840   4.264   9.698   2.783  0.8330  0.5985  0.0691
23316SOL    HW172841   4.284   9.617   2.830 -1.6364 -0.1252  0.0031
23316SOL    HW272842   4.348   9.745   2.781  1.9971 -1.2403  1.4409
23317SOL     OW72843   6.356   7.594  10.368  0.1930  0.0092  0.5231
23317SOL    HW172844   6.337   7.531  10.437  0.2037  0.1755  0.6766
23317SOL    HW272845   6.451   7.603  10.368  0.0751  2.2882  2.5293
23318SOL     OW72846  10.555   3.063   3.611 -0.5863  0.6214 -0.2201
23318SOL    HW172847  10.557   3.156   3.589 -0.6002  0.7988  0.4838
23318SOL    HW272848  10.646   3.042   3.634 -0.9650  1.0652  1.9226
23319SOL     OW72849   0.503   9.800   8.019 -0.1284  0.0748  0.1381
23319SOL    HW172850   0.477   9.882   7.976 -0.0370 -0.0440 -0.1483
23319SOL    HW272851   0.567   9.827   8.085  1.0363  0.0862 -0.9575
23320SOL     OW72852   5.208   1.035   9.554 -0.0927  0.4907  0.2774
23320SOL    HW172853   5.143   0.992   9.498 -0.2836  0.7985  0.2577
23320SOL    HW272854   5.237   0.967   9.614  1.7879 -0.4733 -1.6022
23321SOL     OW72855   1.532   6.254   6.413  0.2395  0.4237  0.5036
23321SOL    HW172856   1.485   6.325   6.370 -1.3922 -1.8932 -1.8360
23321SOL    HW272857   1.598   6.226   6.349  0.7529 -0.2836  1.3131
23322SOL     OW72858   4.715   0.509   8.881  0.2281  0.5597 -0.2427
23322SOL    HW172859   4.810   0.508   8.893  0.1866  0.3181  0.0813
23322SOL    HW272860   4.682   0.560   8.955  0.0876  0.4281 -0.2149
23323SOL     OW72861   9.958  10.676   9.935  0.2015  0.7163 -0.4346
23323SOL    HW172862   9.910  10.750   9.975 -0.0373  1.0893 -1.3926
23323SOL    HW272863  10.016  10.645  10.005  0.4108  1.9030 -0.0548
23324SOL     OW72864   0.524   7.660   8.517 -0.2258  0.1019  0.5355
23324SOL    HW172865   0.526   7.605   8.595 -0.4337  0.6033  0.8963
23324SOL    HW272866   0.433   7.687   8.508 -0.1723  0.1872  0.2175
23325SOL     OW72867  10.450   2.589   2.328  0.3152 -0.2500 -0.0970
23325SOL    HW172868  10.502   2.669   2.336 -0.7062  0.5402 -1.0575
23325SOL    HW272869  10.485   2.531   2.395 -0.0735  1.6249  1.8389
23326SOL     OW72870   4.855   5.322  10.520  0.5182 -1.0071 -0.0677
23326SOL    HW172871   4.853   5.226  10.530 -0.3448 -0.9770  0.1403
23326SOL    HW272872   4.948   5.343  10.511  0.6965 -1.9100 -0.5470
23327SOL     OW72873   2.075   3.322   6.935 -0.0427  0.0250 -0.2346
23327SOL    HW172874   2.022   3.303   7.013 -0.8169 -1.8568 -1.1469
23327SOL    HW272875   2.020   3.293   6.862  1.0332  0.9169 -1.4366
23328SOL     OW72876   8.963   2.400   7.454  0.3595 -0.5652 -0.2555
23328SOL    HW172877   8.973   2.406   7.359 -2.7235  0.7327 -0.6201
23328SOL    HW272878   9.050   2.420   7.488  1.0420  1.3474 -2.7946
23329SOL     OW72879   6.761   0.413   4.689 -0.0526  0.0783  0.0047
23329SOL    HW172880   6.679   0.410   4.640 -0.0522  1.0650 -0.0887
23329SOL    HW272881   6.737   0.389   4.778 -0.2805 -0.4926 -0.2053
23330SOL     OW72882   6.021   6.712   3.361 -0.1698 -0.7384  0.0716
23330SOL    HW172883   6.045   6.795   3.320  0.4397 -1.1883 -0.4970
23330SOL    HW272884   6.016   6.732   3.454  1.6027 -0.4222  0.1354
23331SOL     OW72885   0.607   9.948   6.147  0.1859 -0.4125 -0.1665
23331SOL    HW172886   0.642   9.971   6.233 -0.3805 -1.9226  0.4993
23331SOL    HW272887   0.614   9.853   6.142 -1.5009 -0.5422 -1.0108
23332SOL     OW72888   1.805   2.906   8.822  0.4679 -0.5691  0.9034
23332SOL    HW172889   1.880   2.965   8.830  0.3200  0.2357 -2.3646
23332SOL    HW272890   1.834   2.838   8.761 -1.9322  0.9358 -2.2386
23333SOL     OW72891   6.128   2.634   9.208  0.3945 -0.4217  0.0395
23333SOL    HW172892   6.206   2.646   9.154 -0.7045 -2.5238 -2.2195
23333SOL    HW272893   6.057   2.621   9.144 -1.4875 -0.3036  2.0131
23334SOL     OW72894   6.989   5.142   7.357 -0.3378 -0.6005  0.4298
23334SOL    HW172895   6.901   5.127   7.324 -0.0532  0.7264 -1.0693
23334SOL    HW272896   6.980   5.213   7.420 -0.3493 -0.4670  0.2787
23335SOL     OW72897  10.070   3.672   9.698 -0.2184  0.4435  0.3074
23335SOL    HW172898  10.032   3.725   9.629 -1.2117  1.4101  1.5445
23335SOL    HW272899  10.041   3.714   9.779  1.2024 -0.4331  1.3170
23336SOL     OW72900   3.328  10.513   8.538  0.2781  0.0830  0.2733
23336SOL    HW172901   3.336  10.462   8.619 -1.9151 -0.6409  0.0902
23336SOL    HW272902   3.321  10.447   8.469 -1.6241  0.6056 -0.0708
23337SOL     OW72903   1.074   2.510   9.623  0.1654 -0.3714  0.4160
23337SOL    HW172904   1.015   2.467   9.561  0.5857 -0.9912  0.4340
23337SOL    HW272905   1.039   2.598   9.633 -1.5809 -1.1495  1.5035
23338SOL     OW72906   9.505   8.280   4.166 -0.8508  0.0801 -0.2374
23338SOL    HW172907   9.465   8.366   4.175 -2.9711 -1.0071  1.6482
23338SOL    HW272908   9.453   8.236   4.099 -2.0074 -0.8477  1.2085
23339SOL     OW72909   9.318   1.888   8.407  0.2351 -0.1118  0.0782
23339SOL    HW172910   9.246   1.948   8.389 -0.0973 -0.6758 -0.5096
23339SOL    HW272911   9.392   1.923   8.356  0.0322 -0.2165 -0.2927
23340SOL     OW72912   8.936   1.805   4.756  0.3352  0.1346  0.4061
23340SOL    HW172913   9.024   1.822   4.722 -0.7639  0.8183 -2.3373
23340SOL    HW272914   8.921   1.875   4.820  0.9612  1.3850 -0.7650
23341SOL     OW72915   5.962   1.219   3.943 -0.0621  0.2768  0.0215
23341SOL    HW172916   5.978   1.189   3.854  0.8702  0.4963  0.1116
23341SOL    HW272917   5.899   1.155   3.978 -0.5841  0.2952 -0.8418
23342SOL     OW72918   8.408   3.172   7.175  0.1393  0.4211 -0.2629
23342SOL    HW172919   8.339   3.126   7.223 -0.1274  0.0720 -0.9752
23342SOL    HW272920   8.440   3.109   7.112  1.4801  0.4062  0.3928
23343SOL     OW72921   2.100   8.209   1.234 -0.3465  0.4969 -0.3234
23343SOL    HW172922   2.068   8.278   1.292 -0.8939 -0.7931  1.0092
23343SOL    HW272923   2.041   8.211   1.159 -0.6528  1.1575 -0.0722
23344SOL     OW72924   7.451   2.372   5.510 -0.0758 -0.0052  0.3537
23344SOL    HW172925   7.531   2.374   5.459 -0.3911 -0.1040 -0.1586
23344SOL    HW272926   7.403   2.296   5.476 -0.8236  0.6213 -0.0312
23345SOL     OW72927   3.621   4.321   1.845  0.0568  0.5966  0.5556
23345SOL    HW172928   3.544   4.341   1.793  0.5699  2.3456  0.4026
23345SOL    HW272929   3.611   4.374   1.924  1.8000  2.0776 -0.1506
23346SOL     OW72930  10.672   9.129   1.654  0.1797  0.1144  0.3340
23346SOL    HW172931  10.758   9.144   1.695 -0.0801 -2.1766  1.9152
23346SOL    HW272932  10.693   9.108   1.563  1.1979  0.5090  0.4525
23347SOL     OW72933   8.373   2.376   2.433  0.2615  0.5641  0.1095
23347SOL    HW172934   8.455   2.328   2.445  0.6185  1.1976  0.2625
23347SOL    HW272935   8.341   2.390   2.522  0.0192  0.3839  0.0532
23348SOL     OW72936   9.106   2.209   5.797  0.2857  0.3704 -0.0736
23348SOL    HW172937   9.030   2.163   5.833  0.4875 -0.9897 -1.2997
23348SOL    HW272938   9.177   2.145   5.799  0.8585  0.9540 -0.8433
23349SOL     OW72939   9.485   5.686   2.835 -0.5909  0.1567  0.3490
23349SOL    HW172940   9.418   5.754   2.836  0.7907  1.6151  2.4003
23349SOL    HW272941   9.474   5.641   2.919 -0.3234 -0.9754 -0.2105
23350SOL     OW72942   3.607   9.044   9.375  0.0285 -0.3530  0.0385
23350SOL    HW172943   3.525   9.072   9.335  0.2694  0.1589 -0.1019
23350SOL    HW272944   3.670   9.039   9.302  0.6845  1.3845  0.4316
23351SOL     OW72945   9.268   7.177   7.694  0.0015 -0.2337 -0.3059
23351SOL    HW172946   9.306   7.090   7.687  1.9507  0.6214 -1.0579
23351SOL    HW272947   9.269   7.211   7.605 -0.9162  0.5093 -0.0498
23352SOL     OW72948   5.367   7.684   7.285  0.0865  0.4979 -0.5444
23352SOL    HW172949   5.288   7.638   7.314  0.1870  0.0080 -1.0349
23352SOL    HW272950   5.334   7.755   7.230 -0.0893  1.2528  0.4986
23353SOL     OW72951   4.181   2.905   3.912 -0.1417  0.9607  0.3601
23353SOL    HW172952   4.111   2.949   3.864 -0.2903  0.0188 -0.3396
23353SOL    HW272953   4.245   2.882   3.844 -0.1204  0.0320  0.6689
23354SOL     OW72954  10.429   8.466   7.132 -0.2525 -0.1083  0.3284
23354SOL    HW172955  10.350   8.516   7.150 -0.6276 -0.8791  0.8576
23354SOL    HW272956  10.451   8.425   7.216 -0.6717 -1.8366 -0.3661
23355SOL     OW72957   7.068   1.543   7.107  0.2090  0.1011 -0.4869
23355SOL    HW172958   7.128   1.486   7.155 -0.9638  0.0749  1.0577
23355SOL    HW272959   7.080   1.629   7.145 -1.8296 -0.2095  1.0671
23356SOL     OW72960   3.815   4.598   0.174  0.0689 -0.0095 -0.2779
23356SOL    HW172961   3.747   4.536   0.147 -2.1375  2.7144 -1.4887
23356SOL    HW272962   3.795   4.617   0.266 -0.2443  0.0970 -0.3673
23357SOL     OW72963   4.468   6.013   8.321 -0.0014  1.0396 -0.2277
23357SOL    HW172964   4.429   5.996   8.407  0.8365  2.7294  0.5545
23357SOL    HW272965   4.550   6.059   8.341  0.0456  1.7860 -1.9409
23358SOL     OW72966   5.306   1.789   3.379 -0.4850 -0.0340 -0.3092
23358SOL    HW172967   5.367   1.725   3.343 -2.1558 -0.9658 -1.6134
23358SOL    HW272968   5.299   1.765   3.472  0.1857 -0.6578 -0.4067
23359SOL     OW72969   4.190   3.401   6.681  0.1758  0.2054  0.1438
23359SOL    HW172970   4.282   3.391   6.656  0.9075 -2.0313  3.1641
23359SOL    HW272971   4.144   3.414   6.598  3.1086  0.7257 -1.5351
23360SOL     OW72972   2.495   5.305   7.222 -0.4951  0.0681 -0.3763
23360SOL    HW172973   2.490   5.369   7.293 -0.1960  0.7759 -0.9826
23360SOL    HW272974   2.417   5.323   7.169 -0.6641 -0.3912 -0.2850
23361SOL     OW72975   6.381   2.756   3.930 -0.0789  0.3492 -0.0070
23361SOL    HW172976   6.456   2.737   3.986 -0.2598 -1.3519 -0.2836
23361SOL    HW272977   6.313   2.696   3.960 -1.2232  1.5999 -0.0087
23362SOL     OW72978   5.697   9.262   3.038 -0.8069 -0.2269  0.1183
23362SOL    HW172979   5.693   9.180   2.990 -0.0322 -0.0946 -0.1883
23362SOL    HW272980   5.674   9.239   3.128 -0.9101 -0.7163 -0.0345
23363SOL     OW72981   1.544   4.745   5.471 -0.1776 -0.3418 -0.1351
23363SOL    HW172982   1.627   4.792   5.466  0.7286 -1.6851  1.3569
23363SOL    HW272983   1.501   4.779   5.549 -1.0132  0.2714 -0.8418
23364SOL     OW72984   3.578   0.059   5.811 -0.3265  0.3904 -0.5689
23364SOL    HW172985   3.563   0.104   5.728 -2.5091  1.6777  0.4335
23364SOL    HW272986   3.647   0.110   5.854  0.8693 -0.3295 -1.5865
23365SOL     OW72987   4.754   6.263   9.847 -0.4328  0.1747  0.3531
23365SOL    HW172988   4.788   6.350   9.826 -1.3902  0.7584  1.1290
23365SOL    HW272989   4.825   6.203   9.823 -1.2657  0.6996 -4.3293
23366SOL     OW72990   1.648   9.126   4.541 -0.1103 -0.9997 -0.0208
23366SOL    HW172991   1.637   9.101   4.633 -0.9769 -1.5142 -0.2446
23366SOL    HW272992   1.593   9.064   4.493 -1.5364  0.6994 -0.6936
23367SOL     OW72993   4.958   4.857   4.520 -0.3885 -0.4411 -0.2251
23367SOL    HW172994   5.033   4.840   4.463  0.4304  0.6522  0.4755
23367SOL    HW272995   4.994   4.855   4.608 -1.3345 -0.5841  0.1727
23368SOL     OW72996   7.831   0.621   1.050 -0.4236  0.6891  0.3393
23368SOL    HW172997   7.742   0.587   1.044 -0.6561  1.3926 -0.3105
23368SOL    HW272998   7.822   0.716   1.041  0.4312  0.7286 -0.3405
23369SOL     OW72999   4.970   5.026   9.098 -0.1816 -0.0149 -0.6317
23369SOL    HW173000   5.059   5.060   9.088 -0.1374  0.5308  1.2389
23369SOL    HW273001   4.981   4.932   9.112  0.3126  0.3333  1.6597
23370SOL     OW73002   3.547   3.326   9.429 -0.0293  0.3335  0.0822
23370SOL    HW173003   3.516   3.255   9.372  0.9019 -0.6137  0.7232
23370SOL    HW273004   3.492   3.401   9.405 -0.2517 -0.2682 -1.4377
23371SOL     OW73005   7.708   4.665   7.984  0.1075 -0.2559 -0.4931
23371SOL    HW173006   7.744   4.611   7.913  1.1657  0.7141 -0.7272
23371SOL    HW273007   7.617   4.681   7.959  0.2627 -0.5395 -1.2598
23372SOL     OW73008  10.471   3.935   4.669  0.8595 -0.0827 -0.3026
23372SOL    HW173009  10.467   3.995   4.744 -2.6416  0.1993 -0.5544
23372SOL    HW273010  10.454   3.991   4.593  0.8455 -0.8921 -0.9020
23373SOL     OW73011   3.561   7.785   2.272  0.0918 -0.3574 -0.5792
23373SOL    HW173012   3.568   7.690   2.280 -1.7407 -0.5456 -0.8089
23373SOL    HW273013   3.468   7.801   2.252 -0.4136  1.6772  2.5788
23374SOL     OW73014   8.623   0.855   9.834  0.3378  0.0615  0.1173
23374SOL    HW173015   8.538   0.852   9.789 -0.2811  1.5206  1.1035
23374SOL    HW273016   8.687   0.863   9.764 -0.4153 -0.1306 -0.6111
23375SOL     OW73017   4.716   5.084   7.781  0.1151 -0.2251 -0.4070
23375SOL    HW173018   4.748   5.096   7.692  0.9519  0.6247 -0.0077
23375SOL    HW273019   4.691   5.171   7.811  2.1352 -0.0579  1.0099
23376SOL     OW73020   8.282   7.960  10.291  0.3281  0.1125 -0.3632
23376SOL    HW173021   8.243   8.005  10.216  0.5113  1.5227  0.3627
23376SOL    HW273022   8.355   7.910  10.252 -1.1237 -1.2568 -1.4746
23377SOL     OW73023   6.218   0.885   4.444  0.1546  0.3175  0.5965
23377SOL    HW173024   6.282   0.860   4.510  0.1464 -0.8518  0.1841
23377SOL    HW273025   6.236   0.978   4.427  2.7813 -0.3047 -0.5956
23378SOL     OW73026   0.517   3.120   6.385 -0.1690 -0.3973 -0.6906
23378SOL    HW173027   0.521   3.118   6.481  2.0067 -0.5691 -0.7306
23378SOL    HW273028   0.510   3.213   6.364  2.8839  0.0146 -0.3425
23379SOL     OW73029   6.324   6.551   7.736  0.2489  0.2378  0.4560
23379SOL    HW173030   6.249   6.589   7.689  0.6833  0.8288  0.2295
23379SOL    HW273031   6.338   6.466   7.694 -0.5071 -0.0363  0.7303
23380SOL     OW73032   3.701   8.901   4.626  0.3994 -0.2065 -0.4163
23380SOL    HW173033   3.700   8.821   4.573 -0.2615 -1.1764  0.9834
23380SOL    HW273034   3.631   8.887   4.690  1.9292  0.3721  1.4568
23381SOL     OW73035   9.050  10.423   9.746  0.7772 -0.3132 -0.3667
23381SOL    HW173036   9.050  10.421   9.650  1.2640 -1.1473 -0.3520
23381SOL    HW273037   9.109  10.353   9.772 -1.4034 -1.9327  0.5915
23382SOL     OW73038  10.549  10.498   9.590 -0.0841 -0.0064  0.6874
23382SOL    HW173039  10.502  10.517   9.671 -1.4912  0.1440 -0.1336
23382SOL    HW273040  10.552  10.581   9.543 -1.3153 -0.5516 -0.4240
23383SOL     OW73041   2.371   3.842  10.540  0.1361 -0.1934  0.2958
23383SOL    HW173042   2.354   3.768  10.599  0.6625  0.5367  1.4107
23383SOL    HW273043   2.466   3.844  10.531  0.0649 -0.2301 -0.5143
23384SOL     OW73044   1.426   2.623   8.661  0.2620  0.6277  0.6224
23384SOL    HW173045   1.411   2.703   8.711 -2.7815  0.2085  0.5584
23384SOL    HW273046   1.368   2.631   8.585 -0.1020 -1.6166  0.6054
23385SOL     OW73047   9.247   5.576   3.297 -0.3561  0.4536 -0.2239
23385SOL    HW173048   9.180   5.644   3.299  0.5143  1.3877 -1.5185
23385SOL    HW273049   9.280   5.574   3.387 -0.4757  1.6927 -0.1238
23386SOL     OW73050  10.786   1.971   9.647 -0.0529  0.0158 -0.1889
23386SOL    HW173051  10.755   1.950   9.735  0.7160  0.8011  0.2937
23386SOL    HW273052  10.720   2.032   9.613 -0.7590 -0.8806 -0.4750
23387SOL     OW73053   1.187   3.255   2.542 -0.3742  0.2187 -0.0597
23387SOL    HW173054   1.096   3.264   2.515 -0.0538  1.6873 -0.7522
23387SOL    HW273055   1.217   3.175   2.499 -0.9234  0.5224 -1.0311
23388SOL     OW73056   5.522  10.528   8.803  0.5586  0.5296 -0.5851
23388SOL    HW173057   5.523  10.559   8.713 -0.6906 -1.1174 -1.2086
23388SOL    HW273058   5.430  10.514   8.824  0.7493  1.6020  1.2430
23389SOL     OW73059   1.114   1.749   5.542 -0.1848 -0.1017  0.1672
23389SOL    HW173060   1.113   1.712   5.630  0.3365 -0.8908 -0.1419
23389SOL    HW273061   1.075   1.682   5.487 -0.0045  0.1526 -0.2808
23390SOL     OW73062   7.312   5.996   7.335  0.1554  0.3797 -0.0679
23390SOL    HW173063   7.403   5.968   7.341 -0.1410 -0.4810  0.7088
23390SOL    HW273064   7.303   6.063   7.402  0.7913  2.2273 -1.7333
23391SOL     OW73065   1.662   6.962   8.651  0.0699 -0.0023 -0.3974
23391SOL    HW173066   1.716   7.034   8.682 -0.5999  1.1292 -1.7309
23391SOL    HW273067   1.714   6.883   8.668  0.7273  0.7493  1.2855
23392SOL     OW73068   6.783  10.076   1.897  0.0401  0.4876  0.0927
23392SOL    HW173069   6.822  10.025   1.826 -4.5381  0.1913 -2.5944
23392SOL    HW273070   6.786  10.166   1.867  0.7574  0.7744  0.9898
23393SOL     OW73071   7.524   0.561   6.843  0.0345  0.3634 -0.1325
23393SOL    HW173072   7.506   0.519   6.927 -1.3368 -0.9957 -1.0584
23393SOL    HW273073   7.519   0.655   6.862  0.3352  0.1042  1.4027
23394SOL     OW73074   0.257   5.925   5.925  0.1523 -0.1815 -0.4437
23394SOL    HW173075   0.283   5.985   5.995 -1.3632 -0.9206  0.7871
23394SOL    HW273076   0.188   5.972   5.877 -0.2192 -0.4766 -0.1986
23395SOL     OW73077   7.642   5.452   0.317  0.2010  0.0347  0.3615
23395SOL    HW173078   7.591   5.438   0.236  1.4425  0.1826 -0.4644
23395SOL    HW273079   7.713   5.388   0.312 -0.3554 -0.7490  1.9202
23396SOL     OW73080   8.785   3.713   1.534  0.0884  0.3792 -0.2509
23396SOL    HW173081   8.844   3.788   1.534  0.2439  0.3137  1.7311
23396SOL    HW273082   8.839   3.640   1.564 -0.6987  0.0735  0.4769
23397SOL     OW73083   5.520   4.299   5.421 -0.1198  0.7534 -0.0537
23397SOL    HW173084   5.496   4.222   5.371 -0.3441  0.7488  0.0616
23397SOL    HW273085   5.605   4.276   5.460 -0.2759  0.4944  0.1346
23398SOL     OW73086   4.227   2.697   8.690  0.6925 -0.0719  0.4712
23398SOL    HW173087   4.246   2.628   8.752  0.3690 -0.6616 -0.0748
23398SOL    HW273088   4.267   2.776   8.728  2.5823 -0.8783  0.2548
23399SOL     OW73089   9.744   3.044   5.421  0.3697  0.6464 -0.3583
23399SOL    HW173090   9.762   2.996   5.340  1.6049  0.1186  0.2109
23399SOL    HW273091   9.738   3.136   5.393  1.7504  0.5817 -0.9207
23400SOL     OW73092   4.780   0.724   5.005  0.1972 -0.6031  0.0897
23400SOL    HW173093   4.776   0.798   5.065  0.3239  0.1131 -0.7645
23400SOL    HW273094   4.736   0.653   5.052  0.1272 -0.0102  0.9463
23401SOL     OW73095   3.409   8.283  10.338  0.5671  0.7894  0.4112
23401SOL    HW173096   3.374   8.236  10.414 -0.0081  0.7693  0.1394
23401SOL    HW273097   3.362   8.367  10.338 -0.7854  0.0826 -0.9578
23402SOL     OW73098   1.222   3.174   5.131 -0.1499 -0.2250  0.1936
23402SOL    HW173099   1.206   3.142   5.219 -1.6117  0.6039  0.2621
23402SOL    HW273100   1.180   3.109   5.074  1.1544 -0.9833  0.0556
23403SOL     OW73101   1.400   2.928   6.518 -0.1672  0.0711 -0.0337
23403SOL    HW173102   1.445   2.843   6.520 -0.5151 -0.2443 -2.5343
23403SOL    HW273103   1.307   2.906   6.520 -0.2505  0.4478  0.2686
23404SOL     OW73104   7.973   2.150   8.720  0.1365 -0.1387 -0.3627
23404SOL    HW173105   8.002   2.147   8.629 -1.0047  3.8368 -1.0522
23404SOL    HW273106   8.027   2.219   8.760 -0.5557 -0.6347  1.5277
23405SOL     OW73107   7.428   9.489   1.714  0.0240 -0.3632 -0.7551
23405SOL    HW173108   7.483   9.553   1.760 -3.0286 -0.4115  3.5017
23405SOL    HW273109   7.380   9.541   1.649  0.8290  0.7409 -0.4904
23406SOL     OW73110   7.066   8.608   9.476  0.2042 -0.0884  0.4003
23406SOL    HW173111   7.152   8.569   9.460 -0.2428 -0.5591 -0.9946
23406SOL    HW273112   7.040   8.646   9.392  0.5453  3.1824  1.6078
23407SOL     OW73113   3.670   1.526   6.442  0.0509  0.5554 -0.5856
23407SOL    HW173114   3.692   1.435   6.461 -1.0343  0.5525  0.8282
23407SOL    HW273115   3.637   1.525   6.352  0.3811 -0.3779 -0.7046
23408SOL     OW73116   3.412   1.044   8.413 -0.3997 -0.0469 -0.7270
23408SOL    HW173117   3.502   1.066   8.388 -0.0813  0.5651  0.8621
23408SOL    HW273118   3.369   1.129   8.424 -0.3956 -0.2432  1.1568
23409SOL     OW73119   8.208   5.977   1.376  0.1600  0.4588  0.6611
23409SOL    HW173120   8.179   5.955   1.465 -1.1928  2.3008  0.7361
23409SOL    HW273121   8.170   6.063   1.359  0.1229  0.0274 -1.8275
23410SOL     OW73122   6.311   2.371   2.444 -0.7750  0.3836  0.1247
23410SOL    HW173123   6.304   2.393   2.537  0.4147  2.2399 -0.1678
23410SOL    HW273124   6.400   2.396   2.420 -0.6335 -1.2636 -1.2461
23411SOL     OW73125  10.633   9.161   4.627 -0.2627 -0.3811  0.3120
23411SOL    HW173126  10.702   9.098   4.606 -0.2452 -0.7303  1.3309
23411SOL    HW273127  10.574   9.160   4.551  0.1880 -1.0026 -0.0341
23412SOL     OW73128   7.603   3.133   9.123  0.1591 -0.1425  0.3895
23412SOL    HW173129   7.658   3.172   9.190 -0.2855 -0.1338  0.7556
23412SOL    HW273130   7.592   3.201   9.057 -1.3818  0.7168  1.4691
23413SOL     OW73131   2.335  10.412   7.736  0.9193  0.2661  0.6872
23413SOL    HW173132   2.335  10.442   7.645  0.3619  1.3173  1.0255
23413SOL    HW273133   2.302  10.322   7.731 -1.3950  1.0827  0.0639
23414SOL     OW73134   7.123   3.600   2.789 -0.0982 -0.6325 -0.2942
23414SOL    HW173135   7.048   3.540   2.787 -0.8832  0.2974  0.4079
23414SOL    HW273136   7.093   3.678   2.742  0.4746 -0.2910 -0.1015
23415SOL     OW73137   1.533  10.171   2.450 -0.3280 -0.0335 -0.1046
23415SOL    HW173138   1.539  10.087   2.495  0.8620  0.3162  0.4183
23415SOL    HW273139   1.603  10.224   2.487 -0.3140  0.8031 -1.2578
23416SOL     OW73140   1.950   4.230   3.908 -0.0777 -0.2884 -0.7177
23416SOL    HW173141   1.944   4.225   3.812 -1.3842 -0.0408 -0.6746
23416SOL    HW273142   1.920   4.319   3.928 -0.0313 -0.4185 -0.0714
23417SOL     OW73143   5.010   8.164   5.788  0.8777  0.1603 -0.4806
23417SOL    HW173144   4.989   8.071   5.778 -1.6194  0.6602 -0.6074
23417SOL    HW273145   5.031   8.173   5.881 -2.1488 -0.0598  0.3434
23418SOL     OW73146   7.109   5.613   2.265  0.4695  0.4791 -0.1023
23418SOL    HW173147   7.196   5.647   2.247  1.3411 -0.3288  2.2305
23418SOL    HW273148   7.087   5.647   2.352 -0.9018 -0.4868 -0.0322
23419SOL     OW73149   7.206  10.009   7.881  0.1851  0.6138 -0.1984
23419SOL    HW173150   7.189   9.926   7.926  0.2674  1.3459  1.2322
23419SOL    HW273151   7.243   9.983   7.797  1.7645 -0.7973  0.8546
23420SOL     OW73152   1.171   0.859   4.685 -0.0623  0.4725  0.2184
23420SOL    HW173153   1.209   0.812   4.759  0.6691 -0.0011 -0.4374
23420SOL    HW273154   1.216   0.944   4.685 -1.3495  1.1940  1.3736
23421SOL     OW73155   7.933   8.331   6.316 -0.2851  0.4999 -0.5111
23421SOL    HW173156   7.981   8.366   6.241 -1.1346 -0.2172 -1.4188
23421SOL    HW273157   7.865   8.397   6.333 -0.1473  0.6197 -0.4179
23422SOL     OW73158   4.986  10.628   2.768  0.3110  0.3889 -0.0489
23422SOL    HW173159   5.032  10.595   2.845 -1.5554  0.6023  1.2245
23422SOL    HW273160   4.978  10.723   2.784 -0.9111  0.2950 -0.0184
23423SOL     OW73161   1.139   8.785   7.008  0.3770  0.8790  0.8827
23423SOL    HW173162   1.099   8.813   6.926  0.2041  2.0397  1.3472
23423SOL    HW273163   1.069   8.793   7.073  0.0464 -1.4884  0.9249
23424SOL     OW73164  10.004   7.615   6.692  0.5229  0.3701  0.3587
23424SOL    HW173165  10.023   7.696   6.740  1.0242  0.4273  0.0703
23424SOL    HW273166   9.909   7.609   6.694  0.4914  0.8440  0.5902
23425SOL     OW73167   3.676   3.888   4.583  0.1001  0.4063 -0.3193
23425SOL    HW173168   3.654   3.797   4.598 -1.5439  0.6442 -1.0095
23425SOL    HW273169   3.725   3.915   4.661 -0.1008 -0.8361  0.2571
23426SOL     OW73170   9.620   3.491   8.151  0.4939  0.6648  0.0717
23426SOL    HW173171   9.534   3.521   8.180 -0.7592 -0.4314 -2.2063
23426SOL    HW273172   9.681   3.557   8.182 -1.5788  3.2126 -0.9269
23427SOL     OW73173  10.002   8.777   6.960  0.3540 -0.1140  0.0853
23427SOL    HW173174  10.027   8.832   7.034  1.0712 -0.1735 -0.1106
23427SOL    HW273175   9.961   8.837   6.898 -1.1815 -0.2286  0.9464
23428SOL     OW73176   0.393   8.877   6.277  0.5123 -0.0466 -0.4960
23428SOL    HW173177   0.328   8.808   6.262  1.3662 -0.6410 -1.7154
23428SOL    HW273178   0.471   8.830   6.305  0.8036  0.5236 -0.3412
23429SOL     OW73179   5.734   7.338   7.420 -0.0974  0.2431  0.2011
23429SOL    HW173180   5.747   7.418   7.472 -0.9614 -1.2513  2.9194
23429SOL    HW273181   5.820   7.321   7.381  1.5897 -0.0394  3.5800
23430SOL     OW73182   7.398   1.031   1.976  0.7894 -0.3734 -0.4729
23430SOL    HW173183   7.376   1.052   2.067  0.5537  0.1584 -0.6534
23430SOL    HW273184   7.326   0.975   1.947  1.4316 -1.4818  0.0138
23431SOL     OW73185   5.217   4.541  10.602  0.0940 -0.4143 -0.1068
23431SOL    HW173186   5.280   4.570  10.668  0.4193 -0.8635 -0.2126
23431SOL    HW273187   5.252   4.457  10.572  1.0261  0.6714 -2.2750
23432SOL     OW73188   8.520   7.895   4.749 -0.0748  0.3275 -0.1561
23432SOL    HW173189   8.592   7.946   4.711 -0.0893 -0.6582 -1.5859
23432SOL    HW273190   8.560   7.849   4.823  0.4414  0.7892 -0.1377
23433SOL     OW73191   8.141   2.121   7.706  0.3884  0.4829  0.1119
23433SOL    HW173192   8.163   2.047   7.763 -0.6687  0.3847  0.4180
23433SOL    HW273193   8.104   2.081   7.628 -0.4075  0.6769  0.3760
23434SOL     OW73194   4.530   1.227   6.980  0.1623 -0.4144  0.0763
23434SOL    HW173195   4.587   1.302   6.963  1.4036 -1.6348 -1.5078
23434SOL    HW273196   4.577   1.176   7.046  0.5908 -1.0281 -0.6731
23435SOL     OW73197  10.503   6.146   7.116 -0.4035  0.0086  0.0896
23435SOL    HW173198  10.475   6.105   7.034  0.4869  0.2865 -0.3632
23435SOL    HW273199  10.588   6.106   7.136  0.5518  1.6795 -0.4277
23436SOL     OW73200   6.579   5.276   2.708  0.7333  0.2119  0.2585
23436SOL    HW173201   6.573   5.332   2.630 -2.2445  0.7172  0.7367
23436SOL    HW273202   6.592   5.338   2.781  1.8524 -0.1364  0.3810
23437SOL     OW73203   2.684   9.899   0.333 -0.0243  0.0270 -0.0925
23437SOL    HW173204   2.653   9.812   0.357  0.6994 -0.2398 -0.0950
23437SOL    HW273205   2.690   9.946   0.416 -2.7275  0.9025 -0.2789
23438SOL     OW73206   7.506   4.113   3.125  0.8582  0.1760 -0.2941
23438SOL    HW173207   7.444   4.185   3.112 -0.3143 -0.4058  1.6882
23438SOL    HW273208   7.508   4.069   3.040 -0.1904  1.1823 -0.8811
23439SOL     OW73209   0.091   4.515   4.699  0.5524 -0.2077  0.1194
23439SOL    HW173210   0.117   4.494   4.789 -1.8545 -2.1667  0.4853
23439SOL    HW273211   0.012   4.567   4.709  0.2110 -0.5275 -0.8671
23440SOL     OW73212   8.057   9.451   4.084 -0.0609  0.0777 -0.4009
23440SOL    HW173213   8.100   9.371   4.116  0.4769  0.5019 -0.0365
23440SOL    HW273214   8.081   9.517   4.149 -0.7330  0.4709 -0.5564
23441SOL     OW73215   8.808   5.565   5.015 -0.7330 -0.0395 -0.2275
23441SOL    HW173216   8.742   5.631   4.996 -0.5158 -0.1159 -1.3390
23441SOL    HW273217   8.762   5.481   5.006 -0.9524 -0.0621  0.9524
23442SOL     OW73218   3.535   9.848   2.637  0.0874  0.0979 -0.7050
23442SOL    HW173219   3.502   9.760   2.621  1.2208 -0.2690 -1.1417
23442SOL    HW273220   3.525   9.893   2.553  0.8491 -0.0753 -0.8930
23443SOL     OW73221   4.328   9.021   7.017  0.8276  0.0518 -0.1841
23443SOL    HW173222   4.283   8.952   6.968 -0.2952  1.7949 -1.7630
23443SOL    HW273223   4.280   9.100   6.996  2.2593  1.4004  1.3120
23444SOL     OW73224   7.655   6.406   3.586 -0.0530 -0.1489 -0.2751
23444SOL    HW173225   7.640   6.318   3.550  1.3194 -0.7327  0.4936
23444SOL    HW273226   7.571   6.431   3.623 -0.7418 -0.7032 -1.4185
23445SOL     OW73227  10.167   2.177   0.331  0.0900  0.6540 -0.1971
23445SOL    HW173228  10.188   2.183   0.238 -0.0278  1.2055 -0.1907
23445SOL    HW273229  10.188   2.086   0.355 -1.0333  0.1417 -1.0434
23446SOL     OW73230   0.907   7.444   0.210 -0.2474 -0.5906 -0.5368
23446SOL    HW173231   0.819   7.480   0.215  0.2696  0.5934  2.6794
23446SOL    HW273232   0.941   7.450   0.300  3.1109 -0.9948 -1.6096
23447SOL     OW73233   6.754   1.678   2.240  0.0888 -0.9588 -0.1267
23447SOL    HW173234   6.709   1.760   2.217  0.6355 -0.5697  0.1675
23447SOL    HW273235   6.800   1.698   2.321  1.8384 -0.9488 -1.0714
23448SOL     OW73236   6.449   6.813   9.418 -0.0043 -0.0533  0.6928
23448SOL    HW173237   6.539   6.839   9.397  0.6484 -2.0330  0.8362
23448SOL    HW273238   6.457   6.751   9.490 -1.6181  0.6997  1.5848
23449SOL     OW73239   2.351   2.453   9.307  0.3626 -0.0151  0.2396
23449SOL    HW173240   2.283   2.387   9.292 -0.2274  0.2717  1.5174
23449SOL    HW273241   2.368   2.490   9.220 -2.4957  1.2632  0.1160
23450SOL     OW73242   7.944   0.150   4.107  0.0573  0.3911  0.2975
23450SOL    HW173243   7.968   0.059   4.088 -0.9648 -0.0290  0.9436
23450SOL    HW273244   7.848   0.150   4.104  0.0427  1.3696  0.6729
23451SOL     OW73245   1.330   4.010   4.255 -0.3406 -0.0890 -0.2354
23451SOL    HW173246   1.295   4.070   4.322  1.9096  0.4875  0.5197
23451SOL    HW273247   1.363   3.935   4.305  1.1700  0.2447 -0.6662
23452SOL     OW73248   6.107   5.352   8.971 -0.2383  0.2920 -0.2124
23452SOL    HW173249   6.061   5.337   8.889 -0.3053 -1.0107  0.0417
23452SOL    HW273250   6.064   5.294   9.034 -1.3352  2.4906  1.2001
23453SOL     OW73251   8.534   4.496   9.287  0.0862  0.0027 -0.1518
23453SOL    HW173252   8.584   4.535   9.215  2.3659 -0.6416  0.9900
23453SOL    HW273253   8.537   4.402   9.270 -0.7102 -0.0531 -0.0158
23454SOL     OW73254   0.840   8.661   9.791  0.1376 -0.0914  0.2006
23454SOL    HW173255   0.768   8.720   9.813 -0.6839 -1.0125  0.0380
23454SOL    HW273256   0.882   8.703   9.716 -0.8527 -0.0208 -0.3398
23455SOL     OW73257   6.620   8.441   7.014  0.2453 -0.4470  0.0895
23455SOL    HW173258   6.568   8.383   6.959 -0.6570  0.7130 -0.3276
23455SOL    HW273259   6.602   8.411   7.104  1.4709 -2.1327 -0.1727
23456SOL     OW73260   9.477   2.919   9.973 -0.0536  0.1635 -0.1305
23456SOL    HW173261   9.448   2.926   9.882  2.2508  0.7571 -0.8838
23456SOL    HW273262   9.424   2.984  10.020 -1.0205  0.0999 -1.1006
23457SOL     OW73263   0.789   4.730   0.320  0.2083  0.1284 -0.3332
23457SOL    HW173264   0.731   4.730   0.245 -0.2186 -1.2841 -0.0363
23457SOL    HW273265   0.797   4.822   0.344  1.1401  0.7343 -2.6744
23458SOL     OW73266   2.665   3.836  10.530 -0.1276  0.0101 -0.1733
23458SOL    HW173267   2.744   3.803  10.572 -0.0831  0.1279 -0.1635
23458SOL    HW273268   2.692   3.919  10.491 -0.5940  0.7346  1.0115
23459SOL     OW73269   9.521   3.857   8.281  0.8442 -0.0457  0.1127
23459SOL    HW173270   9.546   3.948   8.300  1.7471  0.0129 -1.2385
23459SOL    HW273271   9.480   3.862   8.194  0.0782 -0.8134  0.4179
23460SOL     OW73272   9.993   7.258   2.687  0.0029 -0.0434  0.0945
23460SOL    HW173273  10.017   7.326   2.750 -0.0930  0.2120 -0.1429
23460SOL    HW273274  10.069   7.251   2.629 -0.2927  0.4182 -0.3582
23461SOL     OW73275   2.633   1.516   8.143 -0.4242  0.6245 -0.0822
23461SOL    HW173276   2.559   1.526   8.084 -0.2674 -0.9897 -0.5917
23461SOL    HW273277   2.688   1.448   8.103  0.8087  1.0508  0.8045
23462SOL     OW73278   9.602   8.748   4.114  0.1648 -0.1258 -0.0284
23462SOL    HW173279   9.688   8.722   4.144 -0.0330 -0.6407  0.1000
23462SOL    HW273280   9.618   8.802   4.036  0.5828 -0.4285 -0.1485
23463SOL     OW73281   5.813   4.433   9.525 -0.2520  0.2925 -0.9504
23463SOL    HW173282   5.718   4.439   9.537  0.1020  1.7716  1.8714
23463SOL    HW273283   5.830   4.340   9.512 -1.8365 -0.4084  1.4799
23464SOL     OW73284   3.700   8.170   8.159  0.0320  0.0109 -0.5060
23464SOL    HW173285   3.622   8.117   8.143  0.2953 -0.9045  1.0167
23464SOL    HW273286   3.719   8.211   8.074 -0.7444 -1.5752 -1.4948
23465SOL     OW73287   7.026   0.139   0.002 -0.0527  0.1079  0.2454
23465SOL    HW173288   6.945   0.101   0.035 -0.1375  0.1620  0.0980
23465SOL    HW273289   7.034   0.222   0.049 -0.5635  0.5403 -0.4146
23466SOL     OW73290   5.747   3.295   3.567 -0.4052 -0.5051  0.5655
23466SOL    HW173291   5.675   3.348   3.533 -0.2516  0.8618  2.2359
23466SOL    HW273292   5.781   3.249   3.490 -1.6869  0.4564 -0.6323
23467SOL     OW73293   0.357   0.105   5.420  0.4011  0.1930  0.0840
23467SOL    HW173294   0.447   0.072   5.418  0.9256  1.5790 -1.9813
23467SOL    HW273295   0.304   0.034   5.384  0.8812 -0.0802 -0.0928
23468SOL     OW73296   2.852   9.549   5.556  0.5948  0.7507 -0.6248
23468SOL    HW173297   2.886   9.638   5.544  0.0552  0.9300 -0.8686
23468SOL    HW273298   2.929   9.493   5.549  1.2486  1.3189  1.3867
23469SOL     OW73299   8.886   7.363  10.589 -0.3350 -0.7913 -0.2396
23469SOL    HW173300   8.801   7.362  10.546 -0.6825 -1.6907  0.4299
23469SOL    HW273301   8.866   7.348  10.681  0.5780 -1.3730 -0.1265
23470SOL     OW73302  10.428   4.318   2.338 -0.5393  0.1954 -0.1183
23470SOL    HW173303  10.523   4.304   2.331 -0.6144 -0.5917  0.2549
23470SOL    HW273304  10.390   4.243   2.292 -0.9825  0.5230 -0.2854
23471SOL     OW73305   8.451   0.661   7.829  0.3222 -0.3398 -0.4385
23471SOL    HW173306   8.389   0.676   7.757 -0.9294 -0.3022  0.6162
23471SOL    HW273307   8.454   0.745   7.875  0.1514 -0.7303  0.2874
23472SOL     OW73308   1.815  10.123   0.523 -0.1602  0.1728 -0.1792
23472SOL    HW173309   1.850  10.135   0.611 -0.5390  0.8928 -0.1170
23472SOL    HW273310   1.858  10.190   0.470 -1.4863  1.1559 -0.0726
23473SOL     OW73311   6.009   4.103   4.034  0.1587  0.0446 -0.1083
23473SOL    HW173312   5.914   4.110   4.042  0.0989  2.7294 -1.8481
23473SOL    HW273313   6.027   4.010   4.045 -2.8115 -0.7530 -1.0545
23474SOL     OW73314   3.682  10.032   4.368 -0.2732 -0.1343  0.3782
23474SOL    HW173315   3.665   9.950   4.322  0.5991  0.5455 -1.2685
23474SOL    HW273316   3.704  10.005   4.457 -2.4211 -1.4772  0.5779
23475SOL     OW73317  10.618   4.149   2.070 -0.0954  0.4260 -0.7214
23475SOL    HW173318  10.594   4.108   2.153  1.3278 -0.8163 -0.8767
23475SOL    HW273319  10.543   4.132   2.012 -0.5480  0.1688 -0.0722
23476SOL     OW73320   1.280   4.383   5.091  0.5951  0.6885 -0.2876
23476SOL    HW173321   1.275   4.441   5.014  2.8600  2.6167  0.8914
23476SOL    HW273322   1.272   4.442   5.166 -0.9502 -1.0751  1.0152
23477SOL     OW73323   5.869   4.715   1.426  0.3535 -0.0128 -0.2103
23477SOL    HW173324   5.877   4.740   1.334  0.6419 -0.5147 -0.3265
23477SOL    HW273325   5.775   4.714   1.443  0.1181 -2.4522 -1.2442
23478SOL     OW73326   7.768   2.299   9.541 -0.4513  0.0632 -0.2100
23478SOL    HW173327   7.757   2.218   9.590 -1.2064 -0.1240 -0.6770
23478SOL    HW273328   7.804   2.360   9.605  0.4561 -0.7281  0.0517
23479SOL     OW73329   7.772   0.601   2.802 -0.1953  0.0128  0.3279
23479SOL    HW173330   7.790   0.582   2.710  0.6571 -1.5259  0.7854
23479SOL    HW273331   7.704   0.669   2.800  0.3807  0.5788 -1.4237
23480SOL     OW73332  10.547   3.182   1.462  0.0275 -0.3459  0.1731
23480SOL    HW173333  10.487   3.202   1.534 -1.7815  0.6225 -1.5350
23480SOL    HW273334  10.541   3.087   1.452 -0.1794 -0.4160  0.8676
23481SOL     OW73335   4.021   1.683   5.587 -0.4791 -0.9356  0.5383
23481SOL    HW173336   3.956   1.677   5.517  1.3014 -0.7654 -1.2249
23481SOL    HW273337   3.973   1.718   5.662 -1.6318  3.1071 -1.7892
23482SOL     OW73338   6.152  10.769   9.212 -0.5932 -0.5436  0.3460
23482SOL    HW173339   6.225  10.822   9.245 -0.9059 -1.0759  1.9572
23482SOL    HW273340   6.083  10.832   9.194  0.3104  0.0080 -1.4861
23483SOL     OW73341  10.313   3.098   5.649  0.6375 -0.2595  0.4592
23483SOL    HW173342  10.400   3.127   5.621  0.3965  1.0905  1.0589
23483SOL    HW273343  10.268   3.076   5.568  0.5754  1.8146 -0.1304
23484SOL     OW73344   2.029   0.825   9.571  0.3611  0.0667  0.0509
23484SOL    HW173345   2.019   0.853   9.662 -1.5655  0.8075 -0.3299
23484SOL    HW273346   2.025   0.906   9.520 -0.9574 -0.5044 -0.8073
23485SOL     OW73347   7.568   6.830  10.280  0.3377 -0.0923  0.5553
23485SOL    HW173348   7.527   6.874  10.355 -2.5888 -1.5426 -0.0411
23485SOL    HW273349   7.557   6.891  10.207  1.2458  0.4198  0.8328
23486SOL     OW73350   4.384   4.486  10.174 -0.0123 -0.4727  0.0403
23486SOL    HW173351   4.344   4.508  10.090 -1.2684  1.8232  1.1417
23486SOL    HW273352   4.448   4.556  10.189 -1.0064  0.1471  1.7029
23487SOL     OW73353   8.891   2.308   2.591  0.5098 -0.1400  0.3397
23487SOL    HW173354   8.816   2.363   2.568  0.5330  0.0538  0.7117
23487SOL    HW273355   8.855   2.241   2.650  0.5549 -0.2850  0.2017
23488SOL     OW73356   5.413   1.317   7.846  0.1688 -0.0507  0.1049
23488SOL    HW173357   5.433   1.271   7.927  1.0294 -0.0332 -0.0880
23488SOL    HW273358   5.470   1.394   7.847  0.2688 -0.1069 -0.5619
23489SOL     OW73359   8.107   6.756   1.889  0.1539  0.7063 -0.3971
23489SOL    HW173360   8.016   6.744   1.915 -0.4037  2.2945 -1.5040
23489SOL    HW273361   8.140   6.826   1.946  2.0609 -2.4967  2.9431
23490SOL     OW73362   8.371   6.755   6.161 -0.2289 -0.2589  0.2790
23490SOL    HW173363   8.336   6.666   6.151  1.2189 -0.7812 -0.4702
23490SOL    HW273364   8.451   6.744   6.213  0.2875  0.5021 -0.3148
23491SOL     OW73365   4.005  10.697   9.734  0.2522  0.1192 -0.2645
23491SOL    HW173366   3.945  10.624   9.717 -0.6663  0.5161  1.1053
23491SOL    HW273367   4.080  10.656   9.779  0.7037 -0.2635 -1.3256
23492SOL     OW73368   5.151   7.713  10.727 -1.0391  0.2845  0.3506
23492SOL    HW173369   5.240   7.711  10.693 -1.0661 -0.6453  0.3133
23492SOL    HW273370   5.135   7.624  10.759 -2.1444  0.2816 -0.1489
23493SOL     OW73371   8.516   6.062   9.432 -0.9239  0.2716 -0.6217
23493SOL    HW173372   8.581   6.068   9.502 -2.0308  0.0519  0.4605
23493SOL    HW273373   8.490   5.970   9.433 -0.8614  0.2434 -1.4198
23494SOL     OW73374   7.494   0.472   4.988 -0.0542 -0.3388 -0.1489
23494SOL    HW173375   7.455   0.527   5.056 -1.2612 -0.1737 -0.9408
23494SOL    HW273376   7.583   0.455   5.019  0.0035  1.1738  0.6261
23495SOL     OW73377   7.085   8.937   7.251  0.2136 -0.0307 -0.8443
23495SOL    HW173378   7.119   8.857   7.292  2.4852  1.8542  1.2949
23495SOL    HW273379   7.114   8.931   7.160  0.5555 -1.5163 -0.6623
23496SOL     OW73380   7.548   8.937   6.807  0.3111  0.4536  0.1196
23496SOL    HW173381   7.574   9.013   6.755 -0.7424 -0.0689 -1.2292
23496SOL    HW273382   7.452   8.944   6.812  0.1412 -1.0289 -0.4665
23497SOL     OW73383   7.142   0.935   8.940  0.3408 -0.2551 -0.6860
23497SOL    HW173384   7.067   0.987   8.967  0.0238 -0.7948 -0.5085
23497SOL    HW273385   7.215   0.997   8.937  0.2287 -0.0192  0.6746
23498SOL     OW73386   5.545   3.234   8.930  0.1592  0.0470 -0.1401
23498SOL    HW173387   5.469   3.211   8.983 -0.6330  0.1415 -1.1936
23498SOL    HW273388   5.555   3.329   8.941 -0.2655  0.1325 -0.5003
23499SOL     OW73389   8.942   5.429   6.727  0.3677  0.0380 -0.2825
23499SOL    HW173390   8.960   5.491   6.797 -1.9555 -1.0685  1.4254
23499SOL    HW273391   9.024   5.382   6.714  1.3320  1.4800  0.4108
23500SOL     OW73392   5.751   9.303   1.877  0.3623 -0.0284 -0.5587
23500SOL    HW173393   5.802   9.234   1.919  1.3418  0.8297 -0.3034
23500SOL    HW273394   5.815   9.354   1.828 -0.6467 -0.5804 -2.5682
23501SOL     OW73395   0.206   4.535  10.543 -0.6081  0.3030  0.3406
23501SOL    HW173396   0.238   4.625  10.547  0.9643 -0.1768 -0.2215
23501SOL    HW273397   0.228   4.498  10.628 -2.6415  0.8366  1.1443
23502SOL     OW73398   3.209   9.612   9.631  0.1435 -0.1307  0.3249
23502SOL    HW173399   3.244   9.617   9.720  0.3482  0.9644  0.1965
23502SOL    HW273400   3.191   9.519   9.618  1.0297 -0.4411  1.1569
23503SOL     OW73401   7.540   2.325   9.922 -0.4378  0.0531 -0.0202
23503SOL    HW173402   7.617   2.273   9.900 -0.6996 -0.5334  0.4082
23503SOL    HW273403   7.548   2.342  10.016  0.6168  2.4387 -0.4532
23504SOL     OW73404   2.940   0.766   0.772  0.4015  0.0591  0.1292
23504SOL    HW173405   2.903   0.710   0.704  0.6498  0.2205 -0.1419
23504SOL    HW273406   2.932   0.855   0.736  1.2958  0.0787 -0.0602
23505SOL     OW73407   0.357   5.144   7.269 -0.2079  0.1063 -0.3965
23505SOL    HW173408   0.404   5.200   7.208 -0.4825  0.1981 -0.5290
23505SOL    HW273409   0.362   5.057   7.230  0.7407 -0.0740  0.1187
23506SOL     OW73410   7.236   2.555   0.531  0.6241  0.7529  0.2220
23506SOL    HW173411   7.320   2.529   0.492 -0.3287 -1.9816 -0.2659
23506SOL    HW273412   7.174   2.550   0.458 -1.0585 -3.6973  1.6372
23507SOL     OW73413   9.424   0.608   2.039 -0.7907  0.3475 -0.7298
23507SOL    HW173414   9.393   0.564   2.119 -0.6616  3.0176  0.9177
23507SOL    HW273415   9.513   0.575   2.027 -0.8910 -0.2784  0.0859
23508SOL     OW73416   2.211   8.164   5.373 -0.1994 -0.2039  0.0953
23508SOL    HW173417   2.156   8.236   5.345 -0.0172  0.6677  1.8384
23508SOL    HW273418   2.161   8.120   5.442  0.4805 -0.5866  0.3573
23509SOL     OW73419   8.522   9.698   4.576  0.1644 -0.5234 -0.6207
23509SOL    HW173420   8.585   9.629   4.554 -0.9719 -2.0794  0.7369
23509SOL    HW273421   8.501   9.682   4.668 -0.7838  1.1472 -0.5155
23510SOL     OW73422   6.168   5.116  10.624 -0.2166  0.0123  0.3257
23510SOL    HW173423   6.225   5.101  10.549 -1.6019 -1.5517 -0.4691
23510SOL    HW273424   6.098   5.172  10.590 -0.0995  0.4856  0.8445
23511SOL     OW73425   7.702   7.087   7.639 -0.3168 -0.3676  0.1149
23511SOL    HW173426   7.688   7.181   7.650 -0.7662 -0.2643 -1.1625
23511SOL    HW273427   7.646   7.063   7.565 -0.2246 -1.6465  0.4392
23512SOL     OW73428   3.234   7.898   1.152  0.5283 -0.0347  0.4212
23512SOL    HW173429   3.273   7.952   1.221  0.2406  0.9456 -0.1638
23512SOL    HW273430   3.144   7.929   1.145  0.0595 -1.2755  0.7424
23513SOL     OW73431   9.343   2.080  10.385 -0.2246  0.0729  0.6017
23513SOL    HW173432   9.386   2.165  10.374 -0.3790  0.3468  1.9450
23513SOL    HW273433   9.416   2.018  10.398 -0.0458 -0.2333 -1.4473
23514SOL     OW73434   0.314   8.865   7.587  0.1245 -0.6614  0.4858
23514SOL    HW173435   0.388   8.919   7.558 -0.6100  0.2277  0.1951
23514SOL    HW273436   0.265   8.847   7.507  1.1141 -3.0210  0.3489
23515SOL     OW73437  10.701   4.659   4.932  0.1806  0.6036  0.2631
23515SOL    HW173438  10.758   4.699   4.998  0.2334  0.9890 -0.0109
23515SOL    HW273439  10.704   4.720   4.858 -0.3881  0.5004  0.1516
23516SOL     OW73440   7.140   6.342   6.627 -0.0574  0.2265 -0.3381
23516SOL    HW173441   7.072   6.284   6.661 -0.1542  0.5568  0.0419
23516SOL    HW273442   7.092   6.418   6.593  0.1751  1.2074  1.3860
23517SOL     OW73443   8.150   8.613   1.180  0.1621  0.0742  0.0690
23517SOL    HW173444   8.233   8.603   1.135  0.5173  1.2475  0.4130
23517SOL    HW273445   8.089   8.644   1.113  0.2033 -0.0414 -0.0202
23518SOL     OW73446   0.582   0.322   0.203  0.1962 -0.3300  0.3582
23518SOL    HW173447   0.522   0.377   0.254  0.5167  1.0400 -0.6994
23518SOL    HW273448   0.573   0.353   0.113 -0.5301 -2.8526 -0.5340
23519SOL     OW73449   4.058  10.430   2.325  0.4721  0.0626 -0.7084
23519SOL    HW173450   4.146  10.448   2.357  0.9555  0.4474 -2.1689
23519SOL    HW273451   4.040  10.340   2.354  0.8179  0.4039  0.6641
23520SOL     OW73452   7.233  10.423   9.172 -0.1885 -0.6848  0.3305
23520SOL    HW173453   7.320  10.460   9.191 -0.5798  0.6010 -0.3024
23520SOL    HW273454   7.249  10.361   9.101  0.0905  0.2909 -0.4889
23521SOL     OW73455   7.341   3.358   8.062  0.0539  0.2687 -0.2743
23521SOL    HW173456   7.378   3.302   8.129 -2.0899 -1.3934 -0.3546
23521SOL    HW273457   7.268   3.403   8.105  0.0342  0.8883 -0.9225
23522SOL     OW73458   7.504  10.597   9.177  0.5863 -0.0965 -0.0770
23522SOL    HW173459   7.445  10.669   9.157 -0.2022 -1.4996 -3.6183
23522SOL    HW273460   7.591  10.637   9.178  0.0790  1.0918 -0.8908
23523SOL     OW73461  10.650   7.581   8.076 -1.4664  0.2884 -0.9177
23523SOL    HW173462  10.600   7.650   8.120 -0.6035 -0.5800  1.6269
23523SOL    HW273463  10.742   7.602   8.095 -1.1567 -1.1199 -0.7661
23524SOL     OW73464   9.504   1.544   0.691  0.3023  0.2143 -0.1572
23524SOL    HW173465   9.464   1.621   0.649  0.1245  0.4651  0.4650
23524SOL    HW273466   9.559   1.506   0.622 -0.2499  0.4198 -0.7274
23525SOL     OW73467   6.046  10.437   6.421  0.0118  0.4224 -0.7622
23525SOL    HW173468   6.076  10.526   6.437 -0.0984  0.3167  0.0576
23525SOL    HW273469   5.953  10.438   6.444  0.2615 -0.1714  0.3388
23526SOL     OW73470   5.761   5.979   0.648  0.7319  0.4145  0.1812
23526SOL    HW173471   5.745   6.046   0.581  2.9648  1.3126  0.4649
23526SOL    HW273472   5.724   5.899   0.611  0.1601  1.2915 -1.2402
23527SOL     OW73473   8.366   2.525   4.206  0.0628 -1.3460  0.4202
23527SOL    HW173474   8.351   2.508   4.299 -3.6811 -0.8411  0.0787
23527SOL    HW273475   8.419   2.605   4.204  0.7561 -1.7283  2.0904
23528SOL     OW73476   9.721   9.949   2.299  0.1517 -0.1295 -0.4427
23528SOL    HW173477   9.745   9.999   2.377  0.6343  1.2239 -1.4346
23528SOL    HW273478   9.752   9.860   2.318 -0.5141 -0.0322  1.2474
23529SOL     OW73479   3.788   4.670   0.875  0.6155  0.0402 -0.3339
23529SOL    HW173480   3.733   4.652   0.799  0.4149 -0.4376 -0.0732
23529SOL    HW273481   3.873   4.631   0.853  0.7203  0.3765 -0.5397
23530SOL     OW73482   9.386   0.253   5.636 -0.4806  0.2889 -0.4049
23530SOL    HW173483   9.380   0.159   5.618 -0.8015  0.5451 -1.7714
23530SOL    HW273484   9.361   0.294   5.553 -0.2985  1.5803  0.1666
23531SOL     OW73485   3.764   6.823   4.796  0.5565  1.0839 -0.1238
23531SOL    HW173486   3.747   6.843   4.888 -1.6833  2.4058 -0.7485
23531SOL    HW273487   3.692   6.765   4.770  2.2504 -0.9303 -0.6039
23532SOL     OW73488   5.108   4.300   8.668  0.8261  0.1503 -0.3939
23532SOL    HW173489   5.072   4.382   8.633  0.6688  0.3862  0.3107
23532SOL    HW273490   5.031   4.246   8.684  0.8528  0.2908  0.2063
23533SOL     OW73491   9.315   5.987  10.539 -0.2263 -0.2430 -0.4627
23533SOL    HW173492   9.281   5.904  10.572  0.3133 -0.4510 -0.4083
23533SOL    HW273493   9.358   6.027  10.614  0.6220 -0.5128 -0.7899
23534SOL     OW73494   2.003   5.210   6.545  0.2911 -0.5792  0.5096
23534SOL    HW173495   1.962   5.283   6.499  2.2675  0.2472 -0.0403
23534SOL    HW273496   2.000   5.138   6.483 -0.8044 -0.7242  0.7001
23535SOL     OW73497  10.783   8.837   1.936 -0.7106  0.4440  0.0371
23535SOL    HW173498  10.774   8.814   1.844  0.4020  0.7113 -0.1502
23535SOL    HW273499  10.721   8.780   1.981 -0.0530 -0.9198 -0.7141
23536SOL     OW73500   0.978   5.517   5.630 -0.2568  0.1766  0.8319
23536SOL    HW173501   0.927   5.588   5.592  0.4122 -1.0591 -2.6691
23536SOL    HW273502   0.990   5.543   5.722 -2.4166  3.1421  0.4100
23537SOL     OW73503   5.789  10.442   8.799 -0.4072  0.0847  0.0235
23537SOL    HW173504   5.770  10.355   8.765 -2.3622  0.5657 -0.2435
23537SOL    HW273505   5.704  10.486   8.801  0.5269  1.9921  0.1392
23538SOL     OW73506   2.875   5.733   3.290  0.1288  0.3394 -0.0829
23538SOL    HW173507   2.947   5.740   3.353  0.2020  0.9317 -0.2324
23538SOL    HW273508   2.812   5.675   3.333  0.7752 -0.3398 -0.0286
23539SOL     OW73509   0.153  10.147   0.634 -0.2952 -0.6378  0.0542
23539SOL    HW173510   0.153  10.145   0.538 -0.6989 -1.0873  0.0597
23539SOL    HW273511   0.065  10.119   0.659  0.4029 -2.5062  0.5787
23540SOL     OW73512   2.690   7.083   8.073 -0.2011  0.4246  0.0438
23540SOL    HW173513   2.683   7.003   8.021 -0.2848  1.0147 -0.8899
23540SOL    HW273514   2.726   7.055   8.157  0.6435 -0.4707 -0.5943
23541SOL     OW73515   1.657  10.732   4.180  0.2204 -0.4756 -0.3831
23541SOL    HW173516   1.735  10.684   4.208 -0.5299 -1.8515 -0.5483
23541SOL    HW273517   1.685  10.779   4.102  1.4394  0.7793  0.7481
23542SOL     OW73518   6.076  10.400   4.011  0.7040 -0.0733  0.1196
23542SOL    HW173519   6.029  10.328   3.969 -1.0344  1.0306  0.0907
23542SOL    HW273520   6.035  10.409   4.097  1.2201  0.5738  0.3062
23543SOL     OW73521  10.443   9.299   1.295 -0.7481 -0.3649  0.3132
23543SOL    HW173522  10.415   9.300   1.386 -1.2770  0.5172  0.1469
23543SOL    HW273523  10.493   9.380   1.284 -2.6168  0.7139 -0.7467
23544SOL     OW73524   5.472  10.572   8.123  0.6267 -0.2883 -0.4244
23544SOL    HW173525   5.400  10.539   8.177 -1.5502  0.2693 -2.8258
23544SOL    HW273526   5.439  10.653   8.085  2.5775  0.0342 -1.5825
23545SOL     OW73527   3.025   6.489   9.448 -0.7100 -0.3372  0.0177
23545SOL    HW173528   3.059   6.435   9.520 -1.3823 -0.0972  0.5298
23545SOL    HW273529   3.057   6.577   9.468 -2.1046  0.0162  0.8554
23546SOL     OW73530   0.755   6.973   3.509 -0.1746  0.2740 -0.6517
23546SOL    HW173531   0.822   7.041   3.510 -0.3341  0.4308 -0.0576
23546SOL    HW273532   0.697   6.996   3.581 -0.7957  0.0664 -1.0730
23547SOL     OW73533   5.943   9.482   4.864  0.3485  1.0991 -0.2720
23547SOL    HW173534   5.862   9.479   4.914  1.1843  1.8215  1.2150
23547SOL    HW273535   5.968   9.390   4.853  0.3448  0.9214  1.0279
23548SOL     OW73536   4.430   9.290   6.701  0.0737  0.2581  0.6185
23548SOL    HW173537   4.342   9.325   6.688  0.1809  0.0637 -0.8079
23548SOL    HW273538   4.473   9.352   6.760 -0.1150  1.9453 -0.9241
23549SOL     OW73539   1.929   9.164   2.445  0.1531 -0.0285 -0.8377
23549SOL    HW173540   2.000   9.169   2.382  0.9315  0.4438  0.0475
23549SOL    HW273541   1.884   9.248   2.438  1.6304  0.9796  0.7708
23550SOL     OW73542   3.783   9.793   5.680 -0.3105 -0.6358 -0.5697
23550SOL    HW173543   3.690   9.802   5.703  0.0069 -1.0953  1.0363
23550SOL    HW273544   3.811   9.881   5.656 -0.9038 -0.2884 -0.0157
23551SOL     OW73545   2.020   3.910   3.405  0.7743 -0.0072  0.1166
23551SOL    HW173546   2.005   3.893   3.312 -1.4685 -0.0377  0.4230
23551SOL    HW273547   2.029   3.823   3.445  0.0418 -0.0728  0.1518
23552SOL     OW73548   1.813   2.661   7.929 -0.0124 -0.0699  0.1067
23552SOL    HW173549   1.751   2.588   7.925  1.0419 -0.9448 -1.5103
23552SOL    HW273550   1.826   2.687   7.838  1.9567  0.1046  0.3855
23553SOL     OW73551   3.578   0.910   8.214  0.3090 -0.0207  0.2721
23553SOL    HW173552   3.585   1.003   8.236 -1.3758  0.1877  0.0615
23553SOL    HW273553   3.633   0.899   8.137  2.1917  0.3281  1.5073
23554SOL     OW73554   6.765   5.094   1.282  0.2171  0.0883  0.3105
23554SOL    HW173555   6.712   5.128   1.354 -1.7417 -0.9501 -0.5704
23554SOL    HW273556   6.761   4.999   1.291 -0.7151 -0.0968 -1.5656
23555SOL     OW73557   2.648   9.142   7.624  0.5142  0.2227 -0.2234
23555SOL    HW173558   2.563   9.114   7.657  1.9493 -2.3019  1.7236
23555SOL    HW273559   2.662   9.090   7.545  1.2573 -1.3999  0.9051
23556SOL     OW73560  10.364   8.465   1.072 -0.3590 -0.0523 -0.2558
23556SOL    HW173561  10.331   8.444   0.985 -1.0769 -2.5956  0.5336
23556SOL    HW273562  10.286   8.477   1.126 -0.0416 -1.9855  0.7346
23557SOL     OW73563   2.585   3.693   8.005  0.3789 -0.4834 -0.0011
23557SOL    HW173564   2.605   3.654   7.921 -0.0266 -0.1876 -0.2408
23557SOL    HW273565   2.531   3.628   8.050  0.4340 -0.5619 -0.0492
23558SOL     OW73566   0.699   6.428   6.391  0.1522  0.0246  0.0643
23558SOL    HW173567   0.723   6.434   6.299 -1.6819 -2.3657 -0.6862
23558SOL    HW273568   0.616   6.475   6.397  0.1180 -0.0741  0.4134
23559SOL     OW73569   1.792   9.184   0.084  0.0901  0.5386 -0.3811
23559SOL    HW173570   1.870   9.161   0.034  1.1823  0.7623  1.1924
23559SOL    HW273571   1.806   9.274   0.111 -0.0603  0.1559  1.0625
23560SOL     OW73572   9.515   8.913   4.715 -0.2509  0.0656 -0.0706
23560SOL    HW173573   9.594   8.898   4.663  0.0112 -0.0095  0.3436
23560SOL    HW273574   9.449   8.856   4.676  0.1510 -0.5570  0.1534
23561SOL     OW73575   7.091   2.070  10.261  0.6016  0.3897  0.1748
23561SOL    HW173576   7.153   2.123  10.311  0.9715 -1.2521  1.5655
23561SOL    HW273577   7.109   1.980  10.288 -1.4938 -0.2608 -0.3889
23562SOL     OW73578   3.942   9.684   9.987  0.4292 -0.4987  0.1919
23562SOL    HW173579   4.016   9.745   9.987  0.3377 -0.3767  1.0824
23562SOL    HW273580   3.955   9.630   9.909  0.7997  0.3117 -0.3252
23563SOL     OW73581   4.534   2.138   4.888 -0.2307  0.3921 -0.2136
23563SOL    HW173582   4.515   2.121   4.796  0.9676  2.0950 -0.8259
23563SOL    HW273583   4.589   2.064   4.914 -1.3782 -0.6139 -0.5519
23564SOL     OW73584  10.219   6.619   3.442 -0.3833 -0.3667  0.6504
23564SOL    HW173585  10.191   6.700   3.400 -1.6386  0.1526  2.3632
23564SOL    HW273586  10.143   6.561   3.435  0.0952 -0.9826  0.4640
23565SOL     OW73587  10.315   2.565   5.815  0.7972  0.2450  0.6593
23565SOL    HW173588  10.350   2.531   5.732  2.2703 -1.5234  1.9366
23565SOL    HW273589  10.350   2.654   5.821  1.4053  0.0740 -0.1943
23566SOL     OW73590   3.380   1.746   0.701  0.3915 -0.1400  0.1113
23566SOL    HW173591   3.395   1.652   0.715  2.3946  0.3861  2.0078
23566SOL    HW273592   3.461   1.788   0.730 -0.1300  2.1637 -1.4860
23567SOL     OW73593  10.419   4.236   1.243 -0.3022  0.0971 -0.6912
23567SOL    HW173594  10.323   4.229   1.239 -0.2570 -0.2051 -1.4092
23567SOL    HW273595  10.446   4.157   1.291 -0.6669  2.4357  4.0095
23568SOL     OW73596   7.604   0.117   6.461 -0.2493 -0.0391  0.4087
23568SOL    HW173597   7.601   0.115   6.365 -0.9076  0.7566  0.4034
23568SOL    HW273598   7.646   0.201   6.482  1.0174 -0.7513  0.8131
23569SOL     OW73599   2.886   8.213   2.402 -0.0469  0.2167  0.0486
23569SOL    HW173600   2.806   8.217   2.351 -0.2468  0.9088  0.4119
23569SOL    HW273601   2.935   8.292   2.378 -0.4381  0.8923  1.3958
23570SOL     OW73602   4.644   1.877   6.876  0.4396  0.0701  0.1770
23570SOL    HW173603   4.608   1.966   6.878  0.7892  0.2016  0.8793
23570SOL    HW273604   4.590   1.828   6.939 -1.4306 -0.8983 -2.0241
23571SOL     OW73605   8.869   7.798   6.198  0.5602  0.3910 -0.5498
23571SOL    HW173606   8.795   7.768   6.146 -1.7169  4.2572  0.0987
23571SOL    HW273607   8.867   7.743   6.277 -2.2715  0.9394 -0.1405
23572SOL     OW73608   2.571   8.981   9.556  0.4062  0.1948  0.1060
23572SOL    HW173609   2.597   8.889   9.557  0.3400  0.1761 -0.0005
23572SOL    HW273610   2.624   9.022   9.625 -0.0293 -0.0533  0.5992
23573SOL     OW73611   3.606   5.162   6.235 -0.3706  0.0133 -0.3446
23573SOL    HW173612   3.603   5.143   6.329  0.2359  1.2226 -0.0553
23573SOL    HW273613   3.695   5.139   6.209  0.0561  1.4428 -0.2000
23574SOL     OW73614   0.340   6.194  10.395  0.0931 -0.8103  0.2408
23574SOL    HW173615   0.290   6.247  10.457  1.0006 -0.2670  0.5294
23574SOL    HW273616   0.423   6.175  10.441 -0.0412 -2.1334 -0.0116
23575SOL     OW73617   4.826   4.229   4.064 -0.7886 -0.3984  0.3195
23575SOL    HW173618   4.900   4.183   4.025 -1.0590 -0.1442 -0.5309
23575SOL    HW273619   4.814   4.307   4.009 -1.3655 -0.1711  0.7461
23576SOL     OW73620   4.360   1.778   7.680  0.2340 -0.3960  0.2652
23576SOL    HW173621   4.268   1.756   7.671 -0.0919  0.2661  1.6092
23576SOL    HW273622   4.392   1.720   7.749  1.3903 -2.0841 -1.6038
23577SOL     OW73623   4.533   1.766   3.819 -0.1229 -1.2958  0.5419
23577SOL    HW173624   4.521   1.743   3.727  1.4607 -1.8413  0.4455
23577SOL    HW273625   4.469   1.713   3.866 -2.2690  0.3462 -0.3426
23578SOL     OW73626   5.295   5.991  10.664  0.0200 -0.6464  0.2852
23578SOL    HW173627   5.308   5.898  10.683 -0.0053 -0.7609 -0.2401
23578SOL    HW273628   5.381   6.022  10.638 -0.2977 -0.9360 -1.2312
23579SOL     OW73629   0.604   6.084   5.668  0.6459 -0.5083 -0.4570
23579SOL    HW173630   0.581   6.144   5.597 -0.0935 -0.8713 -0.5228
23579SOL    HW273631   0.602   6.139   5.746  1.8860 -0.0067 -0.7513
23580SOL     OW73632   4.351   3.483   2.741  0.3869 -0.1431 -0.1054
23580SOL    HW173633   4.396   3.408   2.780 -1.3399 -0.1748  1.9496
23580SOL    HW273634   4.267   3.487   2.785  0.4460  3.0901 -0.0610
23581SOL     OW73635   0.296  10.514   8.624  0.0960 -0.0087  0.0505
23581SOL    HW173636   0.262  10.603   8.641 -0.6184 -0.4368  0.9658
23581SOL    HW273637   0.391  10.525   8.621  0.0439  0.7111  0.6546
23582SOL     OW73638   4.021   7.011   0.391 -0.0522  0.2796  0.1376
23582SOL    HW173639   3.970   6.976   0.318  0.9803 -0.2883 -0.3263
23582SOL    HW273640   4.054   7.095   0.359  1.4569 -0.5425 -0.5551
23583SOL     OW73641  10.272   8.657   4.318 -0.1878 -0.1124  0.6517
23583SOL    HW173642  10.198   8.602   4.343 -1.4125  0.3294 -1.7182
23583SOL    HW273643  10.327   8.600   4.264 -0.6485  0.5108 -0.5052
23584SOL     OW73644   4.535   8.511   3.884  0.0423 -0.0332 -0.2765
23584SOL    HW173645   4.499   8.481   3.801 -1.5848 -0.7839  0.6507
23584SOL    HW273646   4.623   8.475   3.887 -1.2243 -3.4212  0.0363
23585SOL     OW73647   5.086   4.542   1.950 -0.7639  0.2297  0.6355
23585SOL    HW173648   5.112   4.511   2.037  2.0673 -1.3540 -0.6525
23585SOL    HW273649   5.167   4.542   1.899 -2.2547  1.5411 -1.9048
23586SOL     OW73650   5.387   0.207   0.992  0.1281  0.6455  0.1223
23586SOL    HW173651   5.322   0.247   1.049  0.7371  0.8169  0.7006
23586SOL    HW273652   5.468   0.252   1.013  1.8553 -3.5317  3.8292
23587SOL     OW73653   5.767   1.831   0.012 -0.0982 -0.5717 -0.0180
23587SOL    HW173654   5.823   1.820   0.089 -0.6392  0.3373  0.5222
23587SOL    HW273655   5.699   1.893   0.040 -1.5330 -1.8349 -0.5792
23588SOL     OW73656  10.021   3.561  10.082 -0.0673  0.3467 -0.6700
23588SOL    HW173657  10.107   3.597  10.061  0.3401  0.8920  1.5948
23588SOL    HW273658  10.030   3.530  10.172 -0.9127 -3.9891 -1.8680
23589SOL     OW73659   0.139   7.198   6.086  0.2468 -0.2013  0.0321
23589SOL    HW173660   0.120   7.290   6.107  1.0260 -0.0865  0.2801
23589SOL    HW273661   0.059   7.166   6.044 -0.0376  0.5904 -0.0551
23590SOL     OW73662   9.390  10.672   2.920  0.2957  0.8491  0.1482
23590SOL    HW173663   9.413  10.635   2.835  0.5878  0.4823  0.3815
23590SOL    HW273664   9.296  10.691   2.914 -0.2869 -1.5391  0.5738
23591SOL     OW73665  10.453   7.216   7.750  0.9508  1.0021  0.2590
23591SOL    HW173666  10.475   7.283   7.814 -0.8657  0.6869  1.2959
23591SOL    HW273667  10.366   7.185   7.777  0.9758 -0.5114 -1.2296
23592SOL     OW73668   1.725   5.093   1.864 -0.1940  0.1647 -0.1450
23592SOL    HW173669   1.652   5.032   1.857 -0.3926  0.3073  0.5733
23592SOL    HW273670   1.692   5.176   1.829 -0.0098 -0.0586 -0.8688
23593SOL     OW73671  10.485   5.407   2.408 -0.0558  0.1515  0.2160
23593SOL    HW173672  10.463   5.366   2.324  1.8601  1.1404 -0.8619
23593SOL    HW273673  10.579   5.424   2.402 -0.4972  3.7061  0.9584
23594SOL     OW73674   9.145   9.309  10.709  0.5065  0.0587  0.0534
23594SOL    HW173675   9.137   9.333  10.617 -1.7809 -1.3205 -0.1827
23594SOL    HW273676   9.187   9.223  10.709  2.3035  0.8911  0.4689
23595SOL     OW73677   8.307   3.879   8.181 -0.6712  0.1780  0.1255
23595SOL    HW173678   8.386   3.930   8.201  1.0018 -0.6943 -3.4793
23595SOL    HW273679   8.308   3.808   8.245  1.1703  0.4999  0.5249
23596SOL     OW73680   0.239   5.462   0.961 -0.0187 -0.0893  0.0192
23596SOL    HW173681   0.276   5.478   0.874 -0.3525  0.1561 -0.0786
23596SOL    HW273682   0.224   5.367   0.963  0.9876 -0.2595  0.2139
23597SOL     OW73683   5.203   1.536   9.083  0.0875 -0.6616 -0.0181
23597SOL    HW173684   5.161   1.606   9.132 -0.2847 -0.6091 -0.4084
23597SOL    HW273685   5.232   1.474   9.150 -0.0517 -0.3966  0.2915
23598SOL     OW73686   7.088   9.776   0.906  0.0850 -0.7179  0.4513
23598SOL    HW173687   7.107   9.778   0.813  0.4836  0.8942  0.5256
23598SOL    HW273688   7.165   9.735   0.946 -0.2901 -1.8428  0.0613
23599SOL     OW73689   1.234   3.252   4.660  0.6316  0.1180 -0.2882
23599SOL    HW173690   1.259   3.317   4.594  0.3877  0.6448  0.1369
23599SOL    HW273691   1.224   3.302   4.741 -3.9934  0.3879 -0.8005
23600SOL     OW73692   9.046   8.017   2.795 -0.0095 -0.1615 -0.4846
23600SOL    HW173693   8.982   7.985   2.860  0.1461  2.6439  1.2467
23600SOL    HW273694   9.130   7.981   2.824 -0.1210  0.0984  0.1823
23601SOL     OW73695   0.894   4.372   2.559 -0.0520  0.5396  0.0427
23601SOL    HW173696   0.887   4.391   2.465  0.8418  0.2706 -0.0920
23601SOL    HW273697   0.932   4.284   2.562  0.9827  0.9933  0.6589
23602SOL     OW73698   9.502   9.437   4.644 -0.3092  0.2222 -0.2113
23602SOL    HW173699   9.542   9.507   4.591 -0.4921 -0.5927 -1.4850
23602SOL    HW273700   9.557   9.432   4.722  2.6147 -1.3205 -2.1890
23603SOL     OW73701   8.823   3.193   0.852  0.1921  0.4081 -0.2223
23603SOL    HW173702   8.783   3.258   0.794  1.2040  0.7177 -0.5957
23603SOL    HW273703   8.870   3.135   0.792  0.3434  0.0795  0.2148
23604SOL     OW73704   9.154  10.439   8.373 -0.2341 -0.4541  0.0510
23604SOL    HW173705   9.135  10.372   8.307 -0.4149 -0.4691  0.1184
23604SOL    HW273706   9.234  10.481   8.342 -1.0730  0.4755 -0.9098
23605SOL     OW73707   4.216   6.417   8.610  0.1382 -0.2582  0.6370
23605SOL    HW173708   4.290   6.363   8.634  0.3744 -0.6864 -0.9363
23605SOL    HW273709   4.254   6.489   8.559 -0.6554 -1.7377 -2.2423
23606SOL     OW73710   6.217   2.163   1.557 -0.5768 -0.1872  0.2780
23606SOL    HW173711   6.247   2.105   1.627 -1.5098 -0.7661  0.2202
23606SOL    HW273712   6.279   2.147   1.485 -0.8864 -1.2311  0.2180
23607SOL     OW73713   6.918   1.500   2.968  0.4367  0.1007  0.1505
23607SOL    HW173714   6.841   1.549   2.940  0.1011  0.6372  1.8987
23607SOL    HW273715   6.915   1.419   2.916 -0.7455  0.5403 -0.5042
23608SOL     OW73716   5.165   6.028   1.629 -0.5462 -0.1595 -0.7096
23608SOL    HW173717   5.247   6.078   1.636  0.5350 -1.5929 -2.1968
23608SOL    HW273718   5.119   6.046   1.710  1.6764 -0.0041  0.5998
23609SOL     OW73719   9.491   4.697   3.011  0.1607 -0.6595 -0.5676
23609SOL    HW173720   9.586   4.690   3.025 -0.1609 -4.6016  0.9725
23609SOL    HW273721   9.463   4.766   3.070  2.0709  1.2471 -1.7118
23610SOL     OW73722   6.345   2.810   7.994 -0.0320  0.7597  0.2630
23610SOL    HW173723   6.345   2.714   7.994  1.4063  0.7200 -0.7953
23610SOL    HW273724   6.266   2.833   7.945 -0.0610  0.1069 -0.0173
23611SOL     OW73725   1.931   7.114   5.620 -0.4597 -0.1089 -0.2530
23611SOL    HW173726   1.875   7.166   5.563  0.2538  1.7492  0.6676
23611SOL    HW273727   2.014   7.161   5.622  0.1357 -1.1411  0.8422
23612SOL     OW73728   4.916   8.648   0.062 -0.1868  0.0514  0.3048
23612SOL    HW173729   4.885   8.723   0.012  0.3055  1.9769  2.6868
23612SOL    HW273730   4.921   8.680   0.152  1.3953 -2.4408  1.2029
23613SOL     OW73731   1.679   9.082   9.711 -0.1196  0.5581  0.7342
23613SOL    HW173732   1.598   9.101   9.665 -0.7997 -1.6262  0.9158
23613SOL    HW273733   1.657   9.009   9.769  2.4694 -1.6708 -0.8590
23614SOL     OW73734   0.648   5.475   4.918  0.3005 -0.2936  0.5411
23614SOL    HW173735   0.560   5.440   4.930  0.4371 -0.9623 -0.2851
23614SOL    HW273736   0.706   5.403   4.942  0.5822 -0.7999 -1.4416
23615SOL     OW73737   0.373   5.199   8.712  0.1019 -0.4225 -0.1405
23615SOL    HW173738   0.332   5.207   8.626 -0.8942  0.8874  0.4279
23615SOL    HW273739   0.463   5.173   8.693 -0.0414  0.0247 -1.5767
23616SOL     OW73740   4.511   8.028   6.592 -0.5022 -0.7905 -0.0053
23616SOL    HW173741   4.454   8.105   6.588 -0.1917 -0.5219  0.4710
23616SOL    HW273742   4.595   8.059   6.557 -0.4290 -0.9619  0.0171
23617SOL     OW73743   8.336   1.414   0.940  0.5477 -0.1384 -0.3864
23617SOL    HW173744   8.331   1.484   0.874 -2.0721  0.3064  0.1904
23617SOL    HW273745   8.399   1.351   0.903 -0.2811  0.4261 -2.9774
23618SOL     OW73746   0.507   9.038   4.047  0.6391  0.3302  0.7203
23618SOL    HW173747   0.454   9.026   4.126 -1.4617 -0.8329 -0.7337
23618SOL    HW273748   0.475   8.970   3.987  2.2122  1.0960 -1.0981
23619SOL     OW73749   7.558   3.233   1.133  0.5422  0.7336 -0.0707
23619SOL    HW173750   7.485   3.293   1.119  1.9963  2.9857  1.3774
23619SOL    HW273751   7.541   3.160   1.074 -3.9092  0.1201  1.6218
23620SOL     OW73752   4.998   2.752   7.236 -0.4545  0.4456 -0.4974
23620SOL    HW173753   4.927   2.760   7.172 -1.2063 -0.0405  0.2340
23620SOL    HW273754   5.012   2.841   7.268 -1.8710  0.3593  0.4882
23621SOL     OW73755   8.124   4.238   9.253 -0.1222 -0.1774  0.0320
23621SOL    HW173756   8.147   4.330   9.271 -1.0822  0.2645 -0.8830
23621SOL    HW273757   8.199   4.188   9.284  0.5734  0.9525  0.2215
23622SOL     OW73758  10.696   0.147   9.926  0.0556 -0.3136 -0.1321
23622SOL    HW173759  10.725   0.113   9.842  0.1497 -1.0036  0.1712
23622SOL    HW273760  10.627   0.211   9.904  1.8781  1.4974 -0.8600
23623SOL     OW73761   5.226  10.552   4.021  0.1152  0.2162  0.5688
23623SOL    HW173762   5.200  10.644   4.016 -2.3234 -0.4198  0.4782
23623SOL    HW273763   5.169  10.514   4.087 -1.5304 -1.9852 -1.9167
23624SOL     OW73764   0.892   2.719   2.218 -0.4207 -0.3096  0.5060
23624SOL    HW173765   0.906   2.704   2.312  0.3264 -1.6952  0.1923
23624SOL    HW273766   0.824   2.657   2.194 -0.4874 -0.0753  0.0788
23625SOL     OW73767   5.484   4.973   7.514  0.4567 -0.1989  0.3595
23625SOL    HW173768   5.460   5.063   7.539  0.7012 -0.0410  0.0315
23625SOL    HW273769   5.456   4.920   7.588 -0.0741  0.0979  0.3776
23626SOL     OW73770   1.664   0.441   0.062  0.1471 -0.0536 -0.3259
23626SOL    HW173771   1.651   0.347   0.075 -0.7594  0.0600 -0.3299
23626SOL    HW273772   1.707   0.471   0.143 -2.9322  0.1593  1.3838
23627SOL     OW73773   6.401   2.846  10.250 -0.1853 -0.0030 -0.4552
23627SOL    HW173774   6.472   2.847  10.187  1.4511  1.2466  1.2841
23627SOL    HW273775   6.336   2.907  10.214  1.1128  1.3767 -0.5670
23628SOL     OW73776   2.389   3.542   5.425 -0.2242  0.3094 -0.2162
23628SOL    HW173777   2.474   3.562   5.386 -0.4102 -0.1216 -0.8510
23628SOL    HW273778   2.332   3.613   5.396 -0.9376 -1.1365 -2.6395
23629SOL     OW73779   9.867   8.015   3.905  0.9341  0.1942  0.2071
23629SOL    HW173780   9.927   8.089   3.895  0.7849  0.1827 -0.8005
23629SOL    HW273781   9.899   7.950   3.844 -1.4714  1.0707 -2.1670
23630SOL     OW73782   3.065  10.367   4.096 -0.6468  0.6373 -0.2766
23630SOL    HW173783   3.029  10.452   4.121 -1.8495  0.2094 -0.4777
23630SOL    HW273784   3.044  10.358   4.003  0.6753  0.6951 -0.5978
23631SOL     OW73785   9.763   9.773   3.855  0.0171 -0.5584 -0.0870
23631SOL    HW173786   9.736   9.850   3.904  2.3765  0.1647  0.2065
23631SOL    HW273787   9.823   9.807   3.788  1.0087 -2.0846 -0.0269
23632SOL     OW73788   6.379   8.134   7.609 -0.0189  0.2688 -0.1785
23632SOL    HW173789   6.350   8.087   7.531  0.7765 -0.0282 -0.3030
23632SOL    HW273790   6.462   8.094   7.632 -0.1349  0.5044  0.6993
23633SOL     OW73791   6.480   4.161   8.852  0.2965  0.2347 -0.0972
23633SOL    HW173792   6.430   4.195   8.925 -1.1141  1.8673 -1.7179
23633SOL    HW273793   6.435   4.080   8.827  1.2789 -0.7776  1.2964
23634SOL     OW73794   5.809   1.011   3.704  0.0024 -0.0215 -0.5015
23634SOL    HW173795   5.833   0.949   3.772  0.6253  0.9655  0.2153
23634SOL    HW273796   5.891   1.027   3.656  1.0676  3.5239  2.0834
23635SOL     OW73797   6.858   1.822  10.508 -0.1493 -0.4916 -0.0731
23635SOL    HW173798   6.944   1.853  10.480 -0.2877 -0.3382 -0.3280
23635SOL    HW273799   6.806   1.901  10.521 -0.0478 -0.5548  0.7530
23636SOL     OW73800   9.470   8.312   6.986  0.0397 -0.1284 -0.0638
23636SOL    HW173801   9.526   8.235   6.977  0.9376  0.5166 -0.0845
23636SOL    HW273802   9.391   8.279   7.030  1.5903 -0.5257  2.5882
23637SOL     OW73803   1.593   8.327   2.073 -0.0938 -0.0258  0.3673
23637SOL    HW173804   1.674   8.378   2.066 -0.3973  0.6012  1.1662
23637SOL    HW273805   1.528   8.379   2.024 -0.3712  0.2871  1.0595
23638SOL     OW73806   9.097   6.669   6.472 -0.5532  0.0574  0.7109
23638SOL    HW173807   9.094   6.635   6.382  0.1870 -0.6063  0.9240
23638SOL    HW273808   9.071   6.594   6.526  1.2256 -0.2287  1.2045
23639SOL     OW73809   7.115   7.180   2.400 -0.2604 -0.2001 -0.0875
23639SOL    HW173810   7.164   7.100   2.379  1.2724  0.6611  0.0419
23639SOL    HW273811   7.157   7.248   2.347  1.4011  1.3569  2.9761
23640SOL     OW73812  10.010   1.067   4.656  0.0303 -0.4077 -0.7029
23640SOL    HW173813  10.047   0.988   4.617  1.4231 -0.5285  0.7874
23640SOL    HW273814   9.998   1.046   4.749 -2.5860  0.0936 -0.8295
23641SOL     OW73815   1.735   8.260   7.520  0.5112  0.1071  0.0047
23641SOL    HW173816   1.661   8.211   7.556  0.9167  0.1695  0.9409
23641SOL    HW273817   1.812   8.213   7.552  0.9326  1.7722  1.5362
23642SOL     OW73818   4.437   3.566   1.300 -0.3441 -0.5826 -0.0445
23642SOL    HW173819   4.508   3.607   1.349 -0.2235 -0.6145 -0.1917
23642SOL    HW273820   4.476   3.489   1.259 -0.6317 -0.9953  0.4412
23643SOL     OW73821   3.011   9.571   0.116  0.4325  0.1818 -0.5356
23643SOL    HW173822   2.935   9.626   0.095 -0.1705 -0.7238 -0.8086
23643SOL    HW273823   2.994   9.489   0.070  3.2818  1.0721 -3.5504
23644SOL     OW73824   4.116   9.379   5.580 -0.0856 -0.0866 -0.0329
23644SOL    HW173825   4.044   9.368   5.518  2.0037 -1.6565 -2.3458
23644SOL    HW273826   4.138   9.472   5.576 -1.6331  0.3197  0.3650
23645SOL     OW73827   8.979   7.445   7.000 -0.4946  0.1103 -0.7105
23645SOL    HW173828   9.031   7.375   7.040 -1.9100 -0.3566  0.3781
23645SOL    HW273829   8.941   7.405   6.922 -1.1969 -0.3017 -0.1605
23646SOL     OW73830   9.558   3.402   0.085  0.1919  0.1957  0.3654
23646SOL    HW173831   9.489   3.438   0.030 -0.6117 -1.0327  0.5213
23646SOL    HW273832   9.512   3.366   0.161  1.2722  1.7375  1.8025
23647SOL     OW73833   8.560   1.565   5.946 -0.2444  0.2477  0.3273
23647SOL    HW173834   8.623   1.535   5.881  0.5988  1.7193  0.4508
23647SOL    HW273835   8.492   1.610   5.895 -1.3134 -1.4297  0.1813
23648SOL     OW73836   7.329   9.482   1.163 -0.2928 -0.4382  0.2429
23648SOL    HW173837   7.247   9.463   1.209  0.3171  1.0533  2.1095
23648SOL    HW273838   7.313   9.566   1.119 -0.1837 -0.8094 -0.5142
23649SOL     OW73839   2.747   0.816   6.020  0.1584  0.8611  0.1685
23649SOL    HW173840   2.737   0.772   6.104 -2.3544  1.6016  0.3446
23649SOL    HW273841   2.779   0.748   5.960 -1.3051 -0.5882  0.9714
23650SOL     OW73842   7.487   4.779   1.754  0.4278  0.4947 -0.3144
23650SOL    HW173843   7.571   4.793   1.797  0.1262  2.1273 -0.1979
23650SOL    HW273844   7.500   4.809   1.664  0.2120 -0.0685 -0.5370
23651SOL     OW73845   1.101   2.539   2.449  0.1975  0.0203 -0.1135
23651SOL    HW173846   1.115   2.490   2.530  0.9195  0.6376  0.1459
23651SOL    HW273847   1.184   2.585   2.434 -0.3167  0.8313 -0.5678
23652SOL     OW73848   0.313   9.754   3.479 -0.7296  0.4512 -0.3272
23652SOL    HW173849   0.317   9.712   3.565 -0.5535  1.4850  0.1896
23652SOL    HW273850   0.377   9.706   3.426  0.2776  0.7573  0.5620
23653SOL     OW73851   3.144   7.070   2.365  0.5488 -0.4072 -0.4084
23653SOL    HW173852   3.158   7.152   2.411  0.2508 -0.4698 -0.1983
23653SOL    HW273853   3.128   7.095   2.274 -0.3886 -0.1641 -0.1879
23654SOL     OW73854   0.267  10.459   3.755 -0.1140 -0.4944 -0.0670
23654SOL    HW173855   0.337  10.421   3.702 -0.0158 -1.4218  0.7114
23654SOL    HW273856   0.303  10.463   3.843 -1.4549 -2.1314  0.5959
23655SOL     OW73857   9.208   4.519   4.816  0.4605  0.0561 -0.1911
23655SOL    HW173858   9.225   4.607   4.780 -1.0145  0.7786  0.7616
23655SOL    HW273859   9.197   4.534   4.910  1.7988 -1.4194  0.2259
23656SOL     OW73860   8.497   8.057   4.387  0.1293  0.0298  0.3690
23656SOL    HW173861   8.417   8.031   4.342  0.1557  1.0397 -0.2976
23656SOL    HW273862   8.491   8.015   4.472 -1.8850  1.3319  0.9386
23657SOL     OW73863   5.561   2.965   8.875 -0.1542  0.2756 -0.2946
23657SOL    HW173864   5.473   2.934   8.854 -0.5741  1.7218 -0.7691
23657SOL    HW273865   5.551   3.060   8.884  1.5099  0.5500 -1.1505
23658SOL     OW73866   2.548  10.306   4.248 -0.3665 -0.1496  0.0851
23658SOL    HW173867   2.475  10.275   4.302 -0.0112 -0.4132  0.4251
23658SOL    HW273868   2.626  10.286   4.300 -0.0712  0.4437 -0.1235
23659SOL     OW73869   8.021   7.309  10.437  0.1064  0.0149 -0.2541
23659SOL    HW173870   8.001   7.354  10.355 -1.5421 -0.5099 -0.1925
23659SOL    HW273871   8.107   7.269  10.423  0.5274  1.1833 -1.1541
23660SOL     OW73872   3.208   1.323   0.601 -0.5480  0.8807  0.1268
23660SOL    HW173873   3.208   1.228   0.606 -1.5774  0.8957  0.8170
23660SOL    HW273874   3.245   1.352   0.684  0.0321  1.0889 -0.1993
23661SOL     OW73875   0.701   5.455   8.614 -0.1627 -0.0115  0.2928
23661SOL    HW173876   0.734   5.498   8.693 -1.1181 -0.8379  1.1828
23661SOL    HW273877   0.727   5.363   8.624  0.4056  0.0239 -0.7643
23662SOL     OW73878   6.611   0.313   9.476 -0.4832 -0.3184  0.0946
23662SOL    HW173879   6.624   0.219   9.489 -2.4879 -0.5553  0.6802
23662SOL    HW273880   6.628   0.351   9.562 -1.6654 -0.4116  0.3851
23663SOL     OW73881   1.455   2.678  10.669  0.2713  0.5232 -0.0075
23663SOL    HW173882   1.413   2.636  10.594  1.9651 -1.7886  0.2407
23663SOL    HW273883   1.530   2.725  10.632 -1.1139  2.7760 -0.1672
23664SOL     OW73884   4.373   7.359   4.382 -0.3442  0.0732 -0.1062
23664SOL    HW173885   4.436   7.391   4.318 -0.5764  0.6767 -0.0401
23664SOL    HW273886   4.390   7.265   4.387  1.0352  0.3319  0.4591
23665SOL     OW73887  10.284   1.107   6.780 -0.2824  0.2327  0.1313
23665SOL    HW173888  10.347   1.045   6.742  0.5870 -0.1071  2.0046
23665SOL    HW273889  10.283   1.180   6.719 -0.2403 -0.9899 -1.4060
23666SOL     OW73890  10.783   8.391   6.983  0.4761 -0.2501  0.2668
23666SOL    HW173891  10.867   8.409   6.942 -0.0280 -1.5257 -1.4141
23666SOL    HW273892  10.724   8.456   6.944 -0.1316 -1.8311 -1.5746
23667SOL     OW73893   8.674   1.921   4.941 -0.1866 -0.8074  0.8618
23667SOL    HW173894   8.644   1.908   4.851 -0.2335  0.1573  0.7285
23667SOL    HW273895   8.769   1.930   4.933 -0.3862  2.2087  0.4818
23668SOL     OW73896   4.516   1.717   4.969  0.4719  0.3604 -0.7558
23668SOL    HW173897   4.463   1.779   5.020  0.9687  0.6531 -0.5934
23668SOL    HW273898   4.451   1.662   4.925  0.0286  0.2628 -0.0064
23669SOL     OW73899   8.117   0.956   3.899 -0.1132  0.0856 -0.2614
23669SOL    HW173900   8.148   0.866   3.902 -1.1971 -0.3097 -0.3893
23669SOL    HW273901   8.133   0.991   3.986  0.1196 -0.3029 -0.1489
23670SOL     OW73902   2.800   1.774   9.401  0.1859  0.5972  0.6035
23670SOL    HW173903   2.830   1.705   9.341 -0.4837  0.2187  0.6840
23670SOL    HW273904   2.704   1.769   9.396  0.1304  1.7647  0.3476
23671SOL     OW73905   9.612   1.061   6.957  0.2450 -0.1221  0.5559
23671SOL    HW173906   9.645   1.028   7.041  1.0053  0.5831  0.5512
23671SOL    HW273907   9.625   1.156   6.962  3.4148 -0.2571 -1.5896
23672SOL     OW73908   8.897   7.301   0.108 -0.1175 -0.5072  0.1217
23672SOL    HW173909   8.818   7.339   0.068  0.6378  0.4244 -0.5167
23672SOL    HW273910   8.896   7.335   0.198 -0.1505 -0.0459 -0.0501
23673SOL     OW73911   5.604   8.092   1.246 -0.0634 -0.3915 -0.8742
23673SOL    HW173912   5.591   8.119   1.156  1.1845 -1.3058 -1.3571
23673SOL    HW273913   5.661   8.015   1.240  0.1317 -0.4008  0.6959
23674SOL     OW73914   6.059   0.296   4.982 -0.3097  0.1549  0.4802
23674SOL    HW173915   6.078   0.204   4.964 -0.9774 -0.0612  0.8425
23674SOL    HW273916   6.000   0.294   5.058 -1.9397  0.7611 -0.7069
23675SOL     OW73917   5.530   6.503   1.217  0.1593  0.6831  0.2888
23675SOL    HW173918   5.584   6.571   1.258  0.8141  1.2467 -1.4263
23675SOL    HW273919   5.592   6.433   1.196  0.1094  1.0069 -1.0054
23676SOL     OW73920   3.484   9.032   1.255  0.1855  0.0281 -0.4933
23676SOL    HW173921   3.483   8.938   1.273 -1.0784  0.2704  0.8841
23676SOL    HW273922   3.394   9.060   1.266  0.3999  1.2906 -1.6664
23677SOL     OW73923   3.187   8.732   4.079  0.6089 -0.3499  0.1874
23677SOL    HW173924   3.246   8.775   4.141 -0.4711  0.9745  0.3427
23677SOL    HW273925   3.208   8.771   3.994  0.4057 -0.3606  0.1312
23678SOL     OW73926   6.943   9.358   1.887 -0.2132  0.1998 -0.1942
23678SOL    HW173927   6.908   9.363   1.976 -0.2238  0.3822 -0.2092
23678SOL    HW273928   7.036   9.381   1.896 -0.3674  0.8781 -0.3288
23679SOL     OW73929   5.750   6.473   7.939 -0.0720 -0.3158  0.0629
23679SOL    HW173930   5.775   6.467   8.031 -0.0247 -3.0556 -0.0538
23679SOL    HW273931   5.832   6.461   7.891 -0.4100 -1.1466 -0.3207
23680SOL     OW73932   6.105   5.017   2.626  0.1713  0.4796  0.2221
23680SOL    HW173933   6.047   5.090   2.605 -1.6659 -1.5434 -2.3604
23680SOL    HW273934   6.172   5.018   2.558  0.1226 -0.1964  0.1495
23681SOL     OW73935   3.073  10.603   5.024  0.2704  0.2478  0.1106
23681SOL    HW173936   3.004  10.547   5.060  0.1977 -0.2379 -0.7691
23681SOL    HW273937   3.040  10.630   4.938  0.1488  1.9385  0.6589
23682SOL     OW73938   8.196   7.193   0.128  0.5421 -0.0443 -0.3538
23682SOL    HW173939   8.211   7.112   0.176  2.7172  0.4926 -0.0225
23682SOL    HW273940   8.279   7.211   0.083  0.1241  1.9707 -0.4466
23683SOL     OW73941   1.640   5.035   6.654  0.5966 -0.4053  0.2295
23683SOL    HW173942   1.588   4.976   6.599  0.0112  1.6514 -1.5763
23683SOL    HW273943   1.576   5.078   6.711  0.5304  0.6424 -0.5877
23684SOL     OW73944  10.022   2.954   8.003  0.2830 -1.0439 -0.4714
23684SOL    HW173945   9.986   2.877   7.959  0.9797 -1.2602 -0.6905
23684SOL    HW273946   9.947   3.012   8.016 -0.7796 -2.8114  2.0158
23685SOL     OW73947   1.277   4.594   2.669 -0.1607 -0.0776 -0.3070
23685SOL    HW173948   1.361   4.609   2.712 -0.8936  1.4323  0.6815
23685SOL    HW273949   1.270   4.664   2.604 -0.7868  0.0040 -0.1594
23686SOL     OW73950   4.814   3.679   4.957 -0.9466 -0.1832  0.2085
23686SOL    HW173951   4.757   3.756   4.960 -0.6526  0.0512 -0.1345
23686SOL    HW273952   4.878   3.699   4.889 -0.6314 -0.5696  0.3867
23687SOL     OW73953   3.186   2.913  10.583  0.5089  0.2195  0.4682
23687SOL    HW173954   3.117   2.851  10.606  0.9412 -1.1301 -1.6138
23687SOL    HW273955   3.268   2.863  10.593  0.9836  0.9331  0.2626
23688SOL     OW73956   7.252   8.463   2.155 -0.1845 -0.2464 -0.1955
23688SOL    HW173957   7.157   8.458   2.159 -0.1571 -1.7456 -0.7905
23688SOL    HW273958   7.282   8.373   2.170  1.0677 -0.0906 -1.4992
23689SOL     OW73959   4.492   8.692   7.635  0.2869 -0.3549 -0.3764
23689SOL    HW173960   4.403   8.720   7.652  0.2581 -0.0922 -0.9345
23689SOL    HW273961   4.530   8.679   7.722 -0.0136  0.4215 -0.1165
23690SOL     OW73962   6.975   6.981   6.283 -0.0550 -0.1745  0.1530
23690SOL    HW173963   7.069   6.989   6.266 -0.0692 -1.0640 -0.4055
23690SOL    HW273964   6.964   7.004   6.375  0.5714  0.9144 -0.0318
23691SOL     OW73965   5.543   7.970   3.013 -0.2490  0.3736 -0.3358
23691SOL    HW173966   5.567   7.983   2.921 -0.7116  2.6923 -0.1700
23691SOL    HW273967   5.504   8.052   3.040  0.2467 -0.1054  2.0822
23692SOL     OW73968   5.713   8.110   3.668 -0.1396 -0.3334  0.3874
23692SOL    HW173969   5.775   8.180   3.645  0.4557 -1.0480 -0.2454
23692SOL    HW273970   5.751   8.031   3.630 -0.6698 -1.0578  1.3161
23693SOL     OW73971   8.977  10.673   9.838 -0.6153  0.6680  0.1545
23693SOL    HW173972   9.066  10.705   9.831 -0.1397 -0.7951 -0.9119
23693SOL    HW273973   8.979  10.585   9.801 -2.5954  0.7740 -0.3719
23694SOL     OW73974   0.953   6.208   8.946  0.4551 -0.0451 -0.0508
23694SOL    HW173975   0.948   6.303   8.940  0.2072  0.0295  1.1046
23694SOL    HW273976   1.011   6.192   9.020  1.1366 -0.8068 -0.7304
23695SOL     OW73977  10.394   6.600   8.327  0.2293 -0.0747 -0.6593
23695SOL    HW173978  10.471   6.641   8.366 -0.7346  1.3893 -0.2318
23695SOL    HW273979  10.395   6.510   8.361  0.6079  0.5286  1.0200
23696SOL     OW73980   7.367   3.645   4.954 -0.0309 -0.2320  0.1596
23696SOL    HW173981   7.311   3.575   4.987  0.4726 -0.6802  0.0658
23696SOL    HW273982   7.350   3.718   5.014  0.7567 -0.9880  1.3627
23697SOL     OW73983   4.399   3.654   8.775 -0.4235  0.2781  0.6422
23697SOL    HW173984   4.353   3.647   8.692 -0.6347 -3.4880  0.9167
23697SOL    HW273985   4.490   3.668   8.751 -0.6356  0.2817 -0.1987
23698SOL     OW73986   9.929   8.687   0.841 -0.1542 -0.1698 -0.2879
23698SOL    HW173987  10.016   8.704   0.806 -0.1145  0.2789  0.0284
23698SOL    HW273988   9.870   8.697   0.766 -0.0155  0.2821 -0.3348
23699SOL     OW73989   6.227   2.487  10.167 -0.4197  0.5613  0.1941
23699SOL    HW173990   6.161   2.555  10.175 -0.6352  0.2117  1.5769
23699SOL    HW273991   6.307   2.534  10.143 -0.4724  1.3689  1.5002
23700SOL     OW73992   3.497   2.075  10.212  0.2955  0.2744  0.5811
23700SOL    HW173993   3.566   2.110  10.155 -1.8272 -0.4798 -2.7453
23700SOL    HW273994   3.428   2.141  10.210 -0.2747 -0.2745  1.4185
23701SOL     OW73995   0.043  10.144  10.701  0.0344 -0.5578 -0.8038
23701SOL    HW173996   0.128  10.099  10.701  0.4367  0.1915 -0.7650
23701SOL    HW273997   0.063  10.233  10.673 -0.4964  0.1038  0.7975
23702SOL     OW73998   6.968   0.500   7.892  0.4869  0.0914  0.4765
23702SOL    HW173999   6.963   0.405   7.885  2.8792 -0.1362  1.1350
23702SOL    HW274000   6.930   0.519   7.978 -2.2645  0.0486 -0.6337
23703SOL     OW74001   3.104   3.992   6.221 -0.1678  0.4481 -0.7406
23703SOL    HW174002   3.187   4.007   6.175  0.9187 -0.4114  0.8195
23703SOL    HW274003   3.127   3.931   6.292 -2.3494 -0.5852 -0.8484
23704SOL     OW74004   4.525   8.777   2.339 -0.2237 -0.3060  0.4466
23704SOL    HW174005   4.598   8.820   2.295  0.1356 -0.6511  0.7041
23704SOL    HW274006   4.543   8.788   2.432 -1.5307  1.3793  0.5636
23705SOL     OW74007   0.490   7.460   4.940 -0.0536  0.7626  0.0478
23705SOL    HW174008   0.467   7.438   4.850  0.2473 -0.4531  0.2453
23705SOL    HW274009   0.423   7.522   4.968 -0.7845  0.3060 -0.6605
23706SOL     OW74010   2.054   0.425  10.732 -0.3276  0.4412 -0.3254
23706SOL    HW174011   2.011   0.365  10.793 -0.8561  0.7234 -0.4121
23706SOL    HW274012   2.047   0.381  10.647 -0.3525  0.4383 -0.3219
23707SOL     OW74013   0.899   4.223   0.029  0.2674  0.0410  0.3590
23707SOL    HW174014   0.851   4.223  -0.054  0.7616 -1.9876  0.0205
23707SOL    HW274015   0.835   4.253   0.094 -0.4152  0.6948 -0.5894
23708SOL     OW74016   1.931   9.742   2.592  0.8566  0.3345 -0.5154
23708SOL    HW174017   1.994   9.810   2.612 -0.7904  2.0729 -0.9267
23708SOL    HW274018   1.887   9.772   2.512 -0.8958 -0.4640  0.0798
23709SOL     OW74019   8.523   7.060   3.008 -0.1136 -0.8174  0.3551
23709SOL    HW174020   8.591   7.061   2.941 -0.9454 -1.6900 -0.5302
23709SOL    HW274021   8.482   7.146   3.002  0.3980 -0.5718  0.3578
23710SOL     OW74022   1.350   2.246   5.474  0.9053 -0.5755 -0.8397
23710SOL    HW174023   1.310   2.165   5.506  0.5596  0.0845  0.4510
23710SOL    HW274024   1.443   2.224   5.466  0.7563 -1.2238 -0.8951
23711SOL     OW74025   9.345   1.926   0.900 -0.0429 -0.3760 -0.4369
23711SOL    HW174026   9.264   1.944   0.853  0.0595 -0.5751 -0.6868
23711SOL    HW274027   9.349   1.831   0.906  0.2147 -0.3683 -0.4934
23712SOL     OW74028  10.707   1.152   0.378 -0.3825  0.3502 -0.2789
23712SOL    HW174029  10.656   1.112   0.448 -0.0539 -0.3661 -0.4369
23712SOL    HW274030  10.645   1.165   0.307 -0.7734  1.3091  0.2219
23713SOL     OW74031   2.858   4.371   9.266 -0.2831 -0.1787  0.3162
23713SOL    HW174032   2.928   4.416   9.219 -0.7906  0.3715  0.0886
23713SOL    HW274033   2.866   4.280   9.238  1.3512 -0.4612  1.4971
23714SOL     OW74034   9.034   5.526   9.367  0.5511 -0.2066  0.6659
23714SOL    HW174035   8.982   5.584   9.312 -0.1255  0.1540  1.6658
23714SOL    HW274036   9.018   5.556   9.456  1.7404 -0.6858  1.0615
23715SOL     OW74037   8.323   8.558   2.512 -0.4445 -0.2359 -0.1498
23715SOL    HW174038   8.333   8.608   2.431  0.8921  0.5859  0.4945
23715SOL    HW274039   8.247   8.502   2.496 -0.6849  0.4741 -1.6738
23716SOL     OW74040   5.253   3.063   7.684  0.0129  0.9056 -0.2208
23716SOL    HW174041   5.285   3.021   7.604  0.3922 -1.7714  1.2067
23716SOL    HW274042   5.158   3.072   7.670 -0.3225 -1.7149 -0.1608
23717SOL     OW74043   0.558   6.219   1.562 -0.8242  0.1994  0.0392
23717SOL    HW174044   0.492   6.162   1.522 -0.3572  0.2611 -0.8417
23717SOL    HW274045   0.578   6.284   1.495 -0.2980  0.5433  0.5140
23718SOL     OW74046  10.131   8.342   7.777 -0.1541  0.3314 -0.4331
23718SOL    HW174047  10.127   8.312   7.686  2.7679 -0.9532 -0.2479
23718SOL    HW274048  10.072   8.283   7.824  1.0846 -1.4143 -0.9896
23719SOL     OW74049   7.019   1.810   1.144  0.0763 -0.0865 -0.3740
23719SOL    HW174050   6.981   1.726   1.170 -0.7572  0.0116 -1.2027
23719SOL    HW274051   7.112   1.801   1.163 -0.0701 -1.0218 -0.0069
23720SOL     OW74052   8.087   4.751   3.403  0.0407 -0.3683  0.1575
23720SOL    HW174053   8.023   4.771   3.335 -0.1001 -2.0326 -0.2248
23720SOL    HW274054   8.110   4.660   3.389  1.6982 -0.1091  0.9685
23721SOL     OW74055   7.324   5.765   2.228 -0.4188 -0.3379 -0.1865
23721SOL    HW174056   7.416   5.739   2.219 -0.6158 -0.6912 -1.4926
23721SOL    HW274057   7.327   5.860   2.243  0.1741 -0.4762  0.6244
23722SOL     OW74058   0.637   4.095   0.539 -0.0127 -0.0346 -0.3484
23722SOL    HW174059   0.581   4.033   0.493  1.2840 -1.6657  0.1928
23722SOL    HW274060   0.711   4.109   0.479  0.6729 -0.5626  0.3660
23723SOL     OW74061   7.358   1.288   4.295  0.2048 -0.2341  0.0487
23723SOL    HW174062   7.390   1.258   4.380  1.7975 -0.3188 -0.5315
23723SOL    HW274063   7.323   1.210   4.254  0.7790 -0.5135  0.0720
23724SOL     OW74064   7.228  10.080   4.511  0.1093  0.0898 -0.1064
23724SOL    HW174065   7.176  10.046   4.438 -1.4317 -0.2205  1.0754
23724SOL    HW274066   7.205  10.173   4.514  0.3163  0.1408 -0.1326
23725SOL     OW74067   5.612   1.450   9.554 -0.8450  0.5500  0.4391
23725SOL    HW174068   5.593   1.475   9.645  3.2481  1.6659  1.2180
23725SOL    HW274069   5.628   1.533   9.510 -0.8206 -0.0883 -0.7887
23726SOL     OW74070   7.160   4.277   4.372 -0.2529 -0.5944 -0.2683
23726SOL    HW174071   7.241   4.248   4.415 -1.1325 -1.9585  0.5838
23726SOL    HW274072   7.186   4.352   4.319  1.0934  0.6388  1.9813
23727SOL     OW74073   2.302   1.459   7.677  0.8229 -0.2797 -0.0273
23727SOL    HW174074   2.263   1.388   7.728  0.2132 -0.6557 -1.0010
23727SOL    HW274075   2.269   1.539   7.718  1.6211 -0.5264  1.1598
23728SOL     OW74076   8.806   7.134   3.764  0.2072  0.1826 -0.1791
23728SOL    HW174077   8.719   7.106   3.739 -0.2916 -0.7753  2.3661
23728SOL    HW274078   8.865   7.084   3.708 -0.8108 -1.9866  0.6060
23729SOL     OW74079   2.880  10.217   1.316 -0.1528 -0.5218 -0.3563
23729SOL    HW174080   2.907  10.133   1.278  0.7019 -0.6810  0.5678
23729SOL    HW274081   2.787  10.223   1.296 -0.0618 -1.3282 -1.1045
23730SOL     OW74082   8.385   5.561   4.302 -0.0892  0.1205  0.5959
23730SOL    HW174083   8.439   5.634   4.333 -0.2528 -0.1956  1.6740
23730SOL    HW274084   8.406   5.489   4.360 -0.1527 -0.6159 -0.2777
23731SOL     OW74085   8.361   4.980   9.193  0.2669  0.2856  0.3454
23731SOL    HW174086   8.369   4.949   9.283  0.1366  1.6166  0.8484
23731SOL    HW274087   8.426   4.931   9.143  1.9382  1.1281  1.6203
23732SOL     OW74088  10.620   8.233   5.933  0.1898  0.3145  0.0943
23732SOL    HW174089  10.595   8.313   5.980  0.1569 -0.0157  0.6570
23732SOL    HW274090  10.712   8.244   5.913 -0.2138  1.2398 -1.3635
23733SOL     OW74091  10.340   0.428   3.590  0.4101 -0.3782 -0.1478
23733SOL    HW174092  10.244   0.421   3.594  0.5747 -2.8626  1.6126
23733SOL    HW274093  10.365   0.453   3.679  1.3947  1.6357 -0.9307
23734SOL     OW74094   3.131   3.805   3.505 -0.2778  0.2592 -0.2738
23734SOL    HW174095   3.108   3.824   3.596  1.3364 -0.5584  0.3298
23734SOL    HW274096   3.206   3.862   3.487 -0.8793  0.7658 -1.2641
23735SOL     OW74097   0.771   7.039   4.682  0.0906 -0.1177 -0.4403
23735SOL    HW174098   0.812   7.117   4.720  0.2472 -0.8994  1.0304
23735SOL    HW274099   0.748   7.066   4.593  1.9494  0.9865 -0.6455
23736SOL     OW74100   7.404   4.282   4.904 -0.1584 -0.1143 -0.2837
23736SOL    HW174101   7.321   4.325   4.928  0.2253  0.6649 -0.3381
23736SOL    HW274102   7.466   4.312   4.970 -0.2655 -1.9601  0.7373
23737SOL     OW74103   5.669   0.780  10.002  0.0173 -0.1537  0.1768
23737SOL    HW174104   5.700   0.693   9.976 -1.6434 -0.1267 -2.2277
23737SOL    HW274105   5.575   0.777   9.985 -0.0676  2.1239  0.0104
23738SOL     OW74106   0.978   1.934   5.234 -0.1228 -1.0810 -0.3763
23738SOL    HW174107   1.066   1.900   5.247  0.2901  0.0759 -0.0024
23738SOL    HW274108   0.987   2.029   5.246 -1.6959 -1.0880  1.2115
23739SOL     OW74109   1.486   0.561   2.668  0.2061 -0.2003  0.0975
23739SOL    HW174110   1.434   0.539   2.746 -1.3612  0.0212 -0.8378
23739SOL    HW274111   1.472   0.487   2.609  0.0141  0.4023 -0.6213
23740SOL     OW74112   2.451   8.796   1.283  0.1578 -0.2454 -0.2499
23740SOL    HW174113   2.430   8.716   1.234 -0.8671 -0.5736  0.6957
23740SOL    HW274114   2.456   8.864   1.215  0.4183 -0.9896 -0.9958
23741SOL     OW74115   2.813   0.757   6.622 -0.4169  0.2353 -0.0096
23741SOL    HW174116   2.766   0.678   6.647  1.5401 -1.3102 -0.9109
23741SOL    HW274117   2.891   0.725   6.576  0.7970  2.6663  0.1826
23742SOL     OW74118   4.740   8.276   3.173  0.0069  0.7763 -0.7768
23742SOL    HW174119   4.767   8.355   3.126  0.9037  1.3137  0.5662
23742SOL    HW274120   4.789   8.279   3.255 -0.3918 -0.8855 -0.4358
23743SOL     OW74121  10.379   9.162  10.103  0.2998 -0.0825 -0.2365
23743SOL    HW174122  10.471   9.139  10.089  0.9011  1.6803  0.5760
23743SOL    HW274123  10.342   9.164  10.015  0.7425 -1.8036 -0.5091
23744SOL     OW74124   8.399   6.308   0.569  0.1260  0.0423 -0.5600
23744SOL    HW174125   8.388   6.382   0.629 -0.7655 -0.3136 -0.2675
23744SOL    HW274126   8.429   6.348   0.487 -2.0560  0.9830 -0.9667
23745SOL     OW74127  10.590   3.495   8.298 -0.1697  0.1765 -0.0484
23745SOL    HW174128  10.625   3.497   8.387  1.1599  0.5535 -0.5454
23745SOL    HW274129  10.498   3.517   8.308 -0.4122 -1.2854  1.3765
23746SOL     OW74130   9.283   0.435   8.117  0.1867  0.5117  0.0282
23746SOL    HW174131   9.235   0.409   8.197  0.2988  0.4009  0.0591
23746SOL    HW274132   9.215   0.471   8.060 -0.0825 -0.4536 -0.2757
23747SOL     OW74133   0.281   1.673   3.648 -0.3410 -0.5881 -0.0758
23747SOL    HW174134   0.339   1.602   3.620  1.0727 -0.2693  1.8703
23747SOL    HW274135   0.194   1.643   3.623  0.4564 -1.9142 -1.4283
23748SOL     OW74136   7.335   1.656   5.004 -0.8185 -0.4650 -0.1790
23748SOL    HW174137   7.271   1.695   5.063  0.4409  1.4524  0.0209
23748SOL    HW274138   7.419   1.697   5.029  0.0056 -0.7755 -2.2278
23749SOL     OW74139   0.328   7.420   1.257 -0.0194  0.0582  0.7832
23749SOL    HW174140   0.415   7.429   1.297 -0.5342  0.2306  1.8968
23749SOL    HW274141   0.305   7.328   1.270 -0.0484  0.0398  0.5958
23750SOL     OW74142   0.006   6.666   3.932 -1.0229  0.3831  0.0515
23750SOL    HW174143   0.010   6.717   4.012 -1.8167  2.0321 -0.9024
23750SOL    HW274144  -0.084   6.676   3.901 -0.5489  0.3941 -1.4231
23751SOL     OW74145   4.036   7.513   5.012  0.7960 -0.3380 -0.4443
23751SOL    HW174146   3.953   7.474   4.985  0.4615 -0.9329  1.3330
23751SOL    HW274147   4.017   7.606   5.022  0.4863 -0.3870 -0.5674
23752SOL     OW74148   0.652   0.270   4.121  0.0585  0.3178 -0.0216
23752SOL    HW174149   0.623   0.328   4.192  1.4591  1.0928 -0.0465
23752SOL    HW274150   0.722   0.319   4.077 -1.2336  0.1827 -2.4109
23753SOL     OW74151   3.000   2.494   4.978  0.0550  0.5470  0.2383
23753SOL    HW174152   3.054   2.474   4.901  0.0485  0.8757  0.1450
23753SOL    HW274153   3.052   2.464   5.053 -0.6351 -1.3053  0.0274
23754SOL     OW74154   3.550   7.015   6.482 -0.0126 -0.8359  0.5604
23754SOL    HW174155   3.575   7.067   6.406 -1.4864  0.0700  0.6459
23754SOL    HW274156   3.542   6.926   6.450  2.1333 -0.9728  0.3052
23755SOL     OW74157  10.709   4.554   3.383  0.2721 -0.0543 -0.4399
23755SOL    HW174158  10.614   4.545   3.372 -0.4389  1.2993  3.1901
23755SOL    HW274159  10.734   4.478   3.436  1.1924 -0.1933 -1.0537
23756SOL     OW74160  10.580   8.845   6.522 -0.0070 -0.2613 -0.1629
23756SOL    HW174161  10.495   8.806   6.501 -0.1800  0.1694 -0.2900
23756SOL    HW274162  10.563   8.894   6.603  0.2198 -0.4939  0.0252
23757SOL     OW74163   1.317   7.517  10.529 -0.1654  0.0331  0.3558
23757SOL    HW174164   1.389   7.487  10.472  0.8086 -1.1982  2.1482
23757SOL    HW274165   1.355   7.518  10.617 -1.6750  1.7520  1.0428
23758SOL     OW74166   8.643   9.160   1.137 -0.0871 -0.2289 -0.1294
23758SOL    HW174167   8.584   9.185   1.208 -0.6711 -1.3118 -0.2103
23758SOL    HW274168   8.674   9.072   1.161  0.3679 -0.2571 -0.7972
23759SOL     OW74169   2.315   5.538   5.226  0.0726 -0.1835  0.5759
23759SOL    HW174170   2.308   5.574   5.137 -0.2879 -2.4471 -0.3886
23759SOL    HW274171   2.380   5.468   5.218  1.0328  0.4201  2.4440
23760SOL     OW74172   5.270   8.995  10.590 -0.4325 -0.1187 -0.1151
23760SOL    HW174173   5.298   8.904  10.581  3.6217  0.7080  1.7692
23760SOL    HW274174   5.233   9.000  10.678 -1.4571 -0.0557 -0.5348
23761SOL     OW74175   2.263   0.236   1.867  0.4440  0.2840 -0.5946
23761SOL    HW174176   2.276   0.296   1.940  0.6894 -0.8279  0.3200
23761SOL    HW274177   2.270   0.290   1.789 -0.4365  1.6097  0.2180
23762SOL     OW74178   1.781   6.393   7.143 -0.0397  0.8552 -0.4700
23762SOL    HW174179   1.872   6.374   7.164  0.2399  1.5493 -0.9968
23762SOL    HW274180   1.779   6.397   7.047 -0.8843 -0.3672 -0.5193
23763SOL     OW74181   0.482   6.041   6.477 -0.1158 -0.3113  0.5563
23763SOL    HW174182   0.410   6.085   6.432 -0.6392 -1.6606  0.0007
23763SOL    HW274183   0.446   6.014   6.561  0.2339  0.4064  0.9397
23764SOL     OW74184   6.182   4.493   7.384  0.3762 -0.2271 -0.1217
23764SOL    HW174185   6.119   4.550   7.427  0.5472 -1.2511  1.5884
23764SOL    HW274186   6.147   4.480   7.296  0.2771  2.3558 -0.5433
23765SOL     OW74187   3.946   2.757   1.758 -0.6335  0.6489  0.2677
23765SOL    HW174188   3.977   2.695   1.691  1.2608  1.0257  0.7186
23765SOL    HW274189   3.945   2.841   1.714  0.5251  0.8823  0.6394
23766SOL     OW74190   9.129   9.968   4.794 -0.3383  0.1647  0.1417
23766SOL    HW174191   9.102   9.899   4.855 -0.1548  0.2525  0.3239
23766SOL    HW274192   9.099  10.049   4.835  1.4577  0.4146  1.0917
23767SOL     OW74193   8.599   6.070   5.406 -0.4014  0.4823  1.1125
23767SOL    HW174194   8.625   6.155   5.440  0.2809  1.2305 -1.1505
23767SOL    HW274195   8.504   6.069   5.415 -0.6474  2.3368 -0.5623
23768SOL     OW74196  10.591   2.025   9.292 -0.3902 -0.7642 -0.6702
23768SOL    HW174197  10.593   2.063   9.204  0.5098 -0.5855 -0.5716
23768SOL    HW274198  10.678   1.987   9.305  0.0234  0.5667  0.7473
23769SOL     OW74199   6.664   2.378   6.894  0.0290 -0.2416 -0.1708
23769SOL    HW174200   6.599   2.363   6.963 -1.2309 -0.3911 -1.3494
23769SOL    HW274201   6.729   2.436   6.935 -1.0914  0.3116  0.9068
23770SOL     OW74202  10.034   5.029   9.748 -0.1165  0.0090  0.5964
23770SOL    HW174203   9.955   5.073   9.716 -1.4149 -2.2282  0.4613
23770SOL    HW274204  10.023   5.028   9.843  0.7140  1.3201  0.7277
23771SOL     OW74205   9.597   3.382   5.683  0.1023  0.3374 -0.1536
23771SOL    HW174206   9.588   3.374   5.588  1.0832 -0.6644 -0.1943
23771SOL    HW274207   9.510   3.363   5.717 -0.0164 -0.4121 -0.8274
23772SOL     OW74208   2.526   9.707   1.582 -0.0694  0.7256  0.2604
23772SOL    HW174209   2.467   9.635   1.559  1.0468  0.0911 -0.7775
23772SOL    HW274210   2.519   9.714   1.677 -0.9016 -0.1344  0.2802
23773SOL     OW74211   3.368   8.085   8.387 -0.6705  0.6335  0.1941
23773SOL    HW174212   3.439   8.025   8.410 -0.7272  1.0792  1.6502
23773SOL    HW274213   3.370   8.090   8.292 -0.2125 -1.1301  0.0799
23774SOL     OW74214   6.282   4.622   1.950 -0.3726 -0.1673  0.3269
23774SOL    HW174215   6.219   4.559   1.985  0.2333 -0.5487  0.7399
23774SOL    HW274216   6.354   4.621   2.012  0.5159 -0.5047 -0.6817
23775SOL     OW74217   4.283   5.558  10.014 -0.3381  0.1105 -0.5088
23775SOL    HW174218   4.207   5.612   9.995 -1.1135 -0.7509  0.0744
23775SOL    HW274219   4.277   5.539  10.108 -1.4965 -3.0418 -1.1034
23776SOL     OW74220   7.290   6.735   8.824 -0.6514 -0.4020 -0.3690
23776SOL    HW174221   7.343   6.684   8.763 -2.7996  0.6096 -3.3617
23776SOL    HW274222   7.310   6.826   8.803 -1.1940 -0.0128  0.7200
23777SOL     OW74223   0.195   8.763   7.282  0.4804  0.2848  0.4548
23777SOL    HW174224   0.251   8.688   7.305  1.9760  0.8493 -1.1092
23777SOL    HW274225   0.119   8.755   7.340 -0.3668 -3.5390 -0.9090
23778SOL     OW74226   5.526   3.610   0.179  0.5317  1.0136  0.6985
23778SOL    HW174227   5.481   3.606   0.094  2.4633  1.9284 -0.4405
23778SOL    HW274228   5.476   3.675   0.229  0.7614  2.3452 -0.6888
23779SOL     OW74229   7.319   3.425   7.241 -0.1836  0.6158  0.4797
23779SOL    HW174230   7.383   3.459   7.304 -0.1846  0.0239  0.8032
23779SOL    HW274231   7.358   3.444   7.156  0.3543  0.4079  0.6731
23780SOL     OW74232   7.502   4.634  10.399 -0.1261  0.1823  0.3640
23780SOL    HW174233   7.543   4.708  10.354  2.0102 -0.2771  1.4047
23780SOL    HW274234   7.472   4.670  10.482 -1.2175  0.3656 -0.1035
23781SOL     OW74235   7.777   8.578   6.423  0.3443 -0.0596 -0.1536
23781SOL    HW174236   7.839   8.651   6.425  0.1565  0.1183 -0.5527
23781SOL    HW274237   7.711   8.601   6.489 -0.0423  0.4419 -0.6970
23782SOL     OW74238   2.646   6.565   5.811 -0.8092 -0.3562 -0.4266
23782SOL    HW174239   2.713   6.632   5.802  0.0791 -1.0209  1.0098
23782SOL    HW274240   2.582   6.602   5.872 -0.7592 -0.4957 -0.2912
23783SOL     OW74241   2.433   8.123   3.802 -0.5464 -0.2221  0.2366
23783SOL    HW174242   2.525   8.149   3.804  0.4126 -2.9866 -1.5027
23783SOL    HW274243   2.384   8.205   3.803  1.8013  1.3247  3.1401
23784SOL     OW74244   0.022  10.641   8.454  0.4679 -0.3398 -0.4699
23784SOL    HW174245   0.087  10.624   8.385  0.8228 -1.1282  0.0435
23784SOL    HW274246   0.018  10.559   8.503 -0.0663  0.0931  0.2170
23785SOL     OW74247   3.224   5.020   1.722 -0.8100  0.0103  0.1447
23785SOL    HW174248   3.138   5.024   1.765 -1.2248 -1.9917 -0.3865
23785SOL    HW274249   3.209   4.966   1.644  0.5162  1.3086 -1.0735
23786SOL     OW74250   2.181   6.965   0.231 -0.3002 -0.1359 -0.3707
23786SOL    HW174251   2.141   6.887   0.193 -0.5646  0.3818 -1.1967
23786SOL    HW274252   2.159   6.960   0.324 -0.1818 -1.1121 -0.3817
23787SOL     OW74253   5.271   2.654  10.324 -0.1179  0.0596  0.0134
23787SOL    HW174254   5.260   2.613  10.239 -2.5899  0.3024  0.1654
23787SOL    HW274255   5.329   2.729  10.307  2.0784 -1.6826 -0.7839
23788SOL     OW74256   7.694   1.175   0.598 -0.6731  0.1347 -0.0230
23788SOL    HW174257   7.720   1.172   0.690  1.5912 -1.5584 -0.6155
23788SOL    HW274258   7.694   1.084   0.571  1.4424  0.7140 -2.3334
23789SOL     OW74259   4.616   6.260   5.147 -0.0639  0.3418 -0.7776
23789SOL    HW174260   4.671   6.307   5.085 -2.6507  0.2006 -3.3461
23789SOL    HW274261   4.637   6.168   5.133  1.5597  0.3773  0.8964
23790SOL     OW74262   5.396   7.361   5.111  0.2844  0.0248  0.5324
23790SOL    HW174263   5.471   7.420   5.112  0.8565 -0.6831  0.8788
23790SOL    HW274264   5.414   7.299   5.183  0.5516 -1.5775 -0.8545
23791SOL     OW74265   8.131   3.696   6.702 -0.5682 -0.2489 -0.1437
23791SOL    HW174266   8.188   3.748   6.759 -1.8858  1.2056 -0.0867
23791SOL    HW274267   8.114   3.752   6.626  2.6594 -2.8176 -3.0671
23792SOL     OW74268   9.894   2.288   7.883  0.4334 -0.5885  0.2451
23792SOL    HW174269   9.800   2.296   7.869  0.4597  1.2931  0.9526
23792SOL    HW274270   9.923   2.227   7.814 -1.1260 -0.3841 -0.6332
23793SOL     OW74271   8.587   3.572   2.773 -0.3926  0.3611  0.0288
23793SOL    HW174272   8.607   3.514   2.847  2.2278  0.8770 -0.1738
23793SOL    HW274273   8.612   3.659   2.803 -1.3982  0.9305 -0.7254
23794SOL     OW74274  10.011   5.565   2.986 -0.5015  0.2024 -0.3243
23794SOL    HW174275  10.072   5.514   3.039 -0.0130  0.9421 -0.1672
23794SOL    HW274276   9.926   5.551   3.028 -0.6165 -1.4577 -0.9913
23795SOL     OW74277  10.364  10.053   2.437  0.1032 -0.3689 -0.9450
23795SOL    HW174278  10.403  10.030   2.353 -0.5328 -0.6071 -1.1802
23795SOL    HW274279  10.400   9.990   2.499  0.4380 -0.3029 -1.0709
23796SOL     OW74280   3.242   7.176   9.284 -0.3439  0.1557  0.1226
23796SOL    HW174281   3.335   7.165   9.265 -0.3211  0.4379  0.0618
23796SOL    HW274282   3.224   7.267   9.260 -0.7941 -0.1007 -0.5156
23797SOL     OW74283   6.824   7.805   4.082  0.4381  0.0656 -0.1353
23797SOL    HW174284   6.889   7.860   4.127 -0.1673 -0.5335  1.5312
23797SOL    HW274285   6.767   7.772   4.152 -1.1739 -0.0943 -1.4625
23798SOL     OW74286   1.586   8.366   0.210  0.3309  0.3305 -0.3997
23798SOL    HW174287   1.660   8.321   0.250  1.5245  1.4563 -1.2508
23798SOL    HW274288   1.548   8.302   0.150  1.0721 -0.0221 -0.4968
23799SOL     OW74289   9.319   7.848   5.068  0.2964 -0.2332 -0.3363
23799SOL    HW174290   9.334   7.833   4.975 -1.8964 -0.4437 -0.7018
23799SOL    HW274291   9.320   7.943   5.078  1.1309 -0.2237 -0.4462
23800SOL     OW74292   2.929   9.196   2.466  0.6155 -0.0639 -0.0545
23800SOL    HW174293   2.973   9.167   2.546 -1.2251 -2.1299  0.3274
23800SOL    HW274294   2.940   9.123   2.405  2.2031  1.5734 -1.8786
23801SOL     OW74295   2.238   0.138   1.173 -0.0598  0.2130  0.0570
23801SOL    HW174296   2.154   0.092   1.174 -0.2135  0.4607 -0.8451
23801SOL    HW274297   2.228   0.205   1.106  0.8375  0.2937 -0.0048
23802SOL     OW74298   9.124   4.779   0.648  0.5587 -0.0991 -0.3350
23802SOL    HW174299   9.201   4.739   0.606  0.1446 -0.5687 -0.6658
23802SOL    HW274300   9.050   4.742   0.601 -0.1252 -2.8903  2.6064
23803SOL     OW74301   4.328   5.897   9.221  0.0436  0.1718 -0.8914
23803SOL    HW174302   4.354   5.832   9.287  1.2687 -0.2657 -1.7760
23803SOL    HW274303   4.298   5.972   9.273 -0.5874 -0.7757  0.1517
23804SOL     OW74304  10.717   8.453   3.989 -0.7249  0.5105  0.1434
23804SOL    HW174305  10.772   8.419   3.919 -0.5078 -0.9399  0.9784
23804SOL    HW274306  10.672   8.376   4.024  1.0858  0.6878  3.2614
23805SOL     OW74307   5.564   6.105   1.352 -0.1083  0.0382  0.3723
23805SOL    HW174308   5.582   6.157   1.273 -2.0961 -1.6116 -1.2964
23805SOL    HW274309   5.647   6.064   1.374  0.6894  1.2195 -0.3140
23806SOL     OW74310   1.454   7.474   2.829  0.2240  0.0079  0.0476
23806SOL    HW174311   1.496   7.463   2.915  0.3398  1.3256  0.1867
23806SOL    HW274312   1.397   7.550   2.840  0.0939  0.0723 -0.9884
23807SOL     OW74313   6.556   8.612  10.707  0.2941  0.4102 -0.0594
23807SOL    HW174314   6.590   8.523  10.712  2.5794  1.2382  0.2002
23807SOL    HW274315   6.470   8.602  10.667  0.1236 -1.9809  0.7047
23808SOL     OW74316   2.714   7.254   2.553  0.2553 -0.6360 -0.2597
23808SOL    HW174317   2.768   7.264   2.631  2.0402  0.6666 -1.5856
23808SOL    HW274318   2.626   7.280   2.581  0.7092 -0.8365  1.4542
23809SOL     OW74319   0.088   8.216   1.630 -0.5790  0.0879 -0.0971
23809SOL    HW174320   0.105   8.306   1.657 -0.9777  0.1928 -0.1886
23809SOL    HW274321  -0.007   8.209   1.628 -0.5512 -0.2513 -0.3674
23810SOL     OW74322  10.014  10.001   7.485 -0.2254  0.4632 -0.0046
23810SOL    HW174323  10.085  10.010   7.422  2.0587  2.4247  2.5974
23810SOL    HW274324  10.031  10.067   7.551 -2.6356 -1.1880  2.5327
23811SOL     OW74325   4.993   3.418   7.548  0.0489  0.2203  0.1189
23811SOL    HW174326   5.004   3.510   7.522  0.2969  0.0260 -0.4805
23811SOL    HW274327   5.078   3.394   7.586 -0.0525  0.2677  0.3796
23812SOL     OW74328   6.258   9.830   5.617 -0.2432  0.0103 -0.4336
23812SOL    HW174329   6.200   9.879   5.560  0.4671  0.9219 -0.3838
23812SOL    HW274330   6.320   9.895   5.651 -0.8786 -0.3966  1.6876
23813SOL     OW74331   3.726   9.985   7.873 -0.3914 -0.5025  0.4725
23813SOL    HW174332   3.669  10.045   7.919 -0.1036  0.2805 -0.1651
23813SOL    HW274333   3.772  10.039   7.808 -0.1813 -1.4119 -0.1718
23814SOL     OW74334  10.601   9.025   2.403 -0.0609 -0.3877 -0.0388
23814SOL    HW174335  10.561   8.943   2.429 -0.5300 -1.0171 -2.5222
23814SOL    HW274336  10.679   9.032   2.459 -1.2710 -1.2794  1.8603
23815SOL     OW74337   5.831   2.360   7.247  0.8677  0.2612 -0.3573
23815SOL    HW174338   5.791   2.284   7.204  1.7457 -1.1233  1.1671
23815SOL    HW274339   5.925   2.348   7.235  1.1589 -0.2724  2.0346
23816SOL     OW74340   3.074   7.801   2.200 -0.1863  0.5992 -0.2325
23816SOL    HW174341   3.002   7.771   2.256  0.4744 -0.6694 -0.0312
23816SOL    HW274342   3.090   7.891   2.229 -1.4603  0.7971 -0.0592
23817SOL     OW74343   5.732   5.394   8.167 -0.4707 -0.0269  0.7848
23817SOL    HW174344   5.750   5.365   8.078 -2.4326  0.8351  0.0656
23817SOL    HW274345   5.706   5.314   8.213 -0.9827 -0.2306  0.1565
23818SOL     OW74346   1.955   6.750   8.319 -0.7191  0.3827 -0.3046
23818SOL    HW174347   1.949   6.822   8.382 -0.3983  0.4241 -0.3159
23818SOL    HW274348   1.888   6.769   8.254  0.9886  2.0567 -1.6889
23819SOL     OW74349   6.468   4.264   2.020 -0.2945 -0.1053  0.3070
23819SOL    HW174350   6.398   4.263   2.085  0.4435  1.1111  1.1661
23819SOL    HW274351   6.459   4.348   1.976 -1.1008 -1.1192 -1.5774
23820SOL     OW74352   3.533   8.064   6.150 -0.2078 -0.3872  0.4892
23820SOL    HW174353   3.448   8.041   6.187 -0.5543  0.5587  0.3097
23820SOL    HW274354   3.514   8.136   6.089  0.2331 -2.2728 -2.0424
23821SOL     OW74355   9.445   6.647   1.078 -0.2345 -0.7534 -0.1490
23821SOL    HW174356   9.369   6.622   1.027 -1.2737 -1.0318  1.4571
23821SOL    HW274357   9.500   6.569   1.081  0.5549 -0.3198 -1.9786
23822SOL     OW74358   4.625   0.238   9.549  0.0454  0.3460 -0.3084
23822SOL    HW174359   4.670   0.208   9.471  1.0215  0.3501  0.2297
23822SOL    HW274360   4.567   0.166   9.573 -1.5456  1.0124 -1.9763
23823SOL     OW74361   1.604   7.188   6.238  0.3024  0.4785 -0.1938
23823SOL    HW174362   1.650   7.268   6.264  0.2262  0.5166 -0.1773
23823SOL    HW274363   1.558   7.160   6.317 -1.3123  1.5242 -0.7274
23824SOL     OW74364   0.358   2.665   5.829 -0.1449  0.5344 -0.3913
23824SOL    HW174365   0.341   2.653   5.923  0.3730 -0.1668 -0.3804
23824SOL    HW274366   0.449   2.638   5.818 -0.7500 -1.2784 -1.4156
23825SOL     OW74367   2.599   1.658   0.947  0.2999 -0.2304 -0.8243
23825SOL    HW174368   2.576   1.710   0.870 -0.9292 -1.4038 -1.3071
23825SOL    HW274369   2.610   1.569   0.913 -1.4268 -1.0067  0.4657
23826SOL     OW74370   8.734   6.810   0.188  0.1373 -0.0518 -0.2343
23826SOL    HW174371   8.662   6.747   0.189  0.0883  0.0037  1.3249
23826SOL    HW274372   8.811   6.758   0.209  0.5267 -0.0481 -1.5713
23827SOL     OW74373   5.517   5.339   4.178  0.5992 -0.3707 -0.0530
23827SOL    HW174374   5.519   5.260   4.123 -0.9072 -0.8977  0.6026
23827SOL    HW274375   5.557   5.407   4.123  2.3791 -1.6731 -0.4533
23828SOL     OW74376   2.197   0.897  10.626  0.1275  0.7466 -0.2182
23828SOL    HW174377   2.190   0.936  10.713  1.5769 -0.1444  0.3327
23828SOL    HW274378   2.284   0.858  10.624 -0.4396 -0.5434 -1.5345
23829SOL     OW74379   4.219   0.284  10.469  0.1911 -0.3779  0.1123
23829SOL    HW174380   4.181   0.361  10.428 -0.3930 -0.7799 -0.1160
23829SOL    HW274381   4.293   0.317  10.520 -0.2403  0.3693  0.2609
23830SOL     OW74382   9.973   6.845   8.548 -0.3530  0.0940 -0.1337
23830SOL    HW174383  10.019   6.895   8.615  0.4253 -0.4086 -0.2752
23830SOL    HW274384   9.934   6.911   8.491 -1.0833  0.5270  0.8408
23831SOL     OW74385  10.566   7.705  10.318  0.6201  1.0847 -0.2621
23831SOL    HW174386  10.564   7.647  10.242 -0.0690 -0.2304  0.7254
23831SOL    HW274387  10.651   7.689  10.358  0.0794  0.0148  0.5245
23832SOL     OW74388   1.408   3.421   4.071  0.4807  0.5366 -0.0855
23832SOL    HW174389   1.484   3.463   4.031  1.4005  0.3762  1.4273
23832SOL    HW274390   1.435   3.330   4.085 -0.7280 -0.0570 -1.3625
23833SOL     OW74391   8.820   9.691   6.750 -0.2203 -0.4324 -0.1393
23833SOL    HW174392   8.912   9.667   6.738 -0.3532 -0.4732 -1.1526
23833SOL    HW274393   8.771   9.623   6.706 -0.6553  0.7500 -1.5519
23834SOL     OW74394   5.510   6.972  10.428 -0.1573 -0.4359 -0.1037
23834SOL    HW174395   5.493   6.931  10.342 -1.6022 -2.2033  0.9515
23834SOL    HW274396   5.504   6.900  10.490 -1.2403  1.1460  1.7280
23835SOL     OW74397   1.939   7.232   6.100 -0.2910 -0.0116 -0.0841
23835SOL    HW174398   1.962   7.142   6.124  1.2014  0.5068  0.5455
23835SOL    HW274399   1.982   7.246   6.016  0.0746  0.3378  0.1599
23836SOL     OW74400  10.627   4.133   6.966  0.3576  0.8535 -0.4070
23836SOL    HW174401  10.664   4.174   7.044  3.2929  0.4203 -1.4280
23836SOL    HW274402  10.544   4.095   6.995  0.6849  1.9099  2.1202
23837SOL     OW74403   1.581   8.763   7.052 -0.3039  0.1787  0.0010
23837SOL    HW174404   1.607   8.849   7.084 -0.5797  0.0645  0.5355
23837SOL    HW274405   1.628   8.701   7.107 -0.2149 -0.0162 -0.2909
23838SOL     OW74406   3.684   7.100   8.764  0.3869 -1.0284  0.0667
23838SOL    HW174407   3.630   7.039   8.713 -0.7238  0.1595 -0.2223
23838SOL    HW274408   3.749   7.133   8.702  0.2842 -1.0779 -0.0675
23839SOL     OW74409   7.278   2.740   5.183 -0.4114 -0.2086  0.1369
23839SOL    HW174410   7.330   2.819   5.196 -1.5119  0.5711 -0.0439
23839SOL    HW274411   7.299   2.684   5.257  0.9247 -0.0668 -0.1046
23840SOL     OW74412   7.705   9.192   7.609  0.1403 -0.0786  0.0772
23840SOL    HW174413   7.677   9.202   7.700  0.6387 -0.6550  0.3006
23840SOL    HW274414   7.624   9.178   7.560 -0.0562 -0.8397  0.5908
23841SOL     OW74415   8.395   4.621   8.329  0.0186  0.2903 -0.2920
23841SOL    HW174416   8.360   4.603   8.417 -0.8855 -1.2207 -0.9191
23841SOL    HW274417   8.360   4.707   8.306 -0.9319  0.0577  0.2525
23842SOL     OW74418   3.802   2.337   7.768 -0.1423  0.6584 -0.1665
23842SOL    HW174419   3.830   2.407   7.709  0.7811  0.6538  0.2598
23842SOL    HW274420   3.757   2.274   7.712  1.0818  0.4522 -0.9315
23843SOL     OW74421   2.443  10.378   2.761  0.1183 -0.3957 -0.2308
23843SOL    HW174422   2.375  10.408   2.822  0.8204  0.7011  0.0593
23843SOL    HW274423   2.503  10.453   2.755  1.5990 -1.5281 -0.0308
23844SOL     OW74424   1.156   7.571   3.235  0.4479 -0.0506  0.3623
23844SOL    HW174425   1.062   7.558   3.224  0.4038  0.4421  0.1372
23844SOL    HW274426   1.169   7.665   3.227  1.2737 -0.2813 -2.2127
23845SOL     OW74427   0.222   6.555   0.265 -0.3591 -0.5646 -0.1009
23845SOL    HW174428   0.305   6.602   0.270 -0.5647 -0.1586 -0.3920
23845SOL    HW274429   0.188   6.576   0.177 -1.1324 -0.1017  0.2956
23846SOL     OW74430   9.821   7.987   6.604  0.4029 -0.2553  0.0320
23846SOL    HW174431   9.837   7.933   6.527  0.1057 -0.2362 -0.0452
23846SOL    HW274432   9.834   8.077   6.574 -0.1891 -0.2164 -0.1237
23847SOL     OW74433   9.860   7.475   4.540  0.1300  0.0989  0.4045
23847SOL    HW174434   9.891   7.402   4.487 -0.8563  0.7143 -1.0895
23847SOL    HW274435   9.916   7.473   4.618  1.5302 -0.9493 -0.5644
23848SOL     OW74436   3.507   1.631   0.366  0.8065 -0.6762  0.3187
23848SOL    HW174437   3.487   1.721   0.339 -0.7684 -0.5926  1.6011
23848SOL    HW274438   3.589   1.639   0.415  0.5623  0.1209  0.6228
23849SOL     OW74439   6.810   3.248   6.850  0.2591 -0.1266 -0.2106
23849SOL    HW174440   6.772   3.174   6.899  2.4620 -0.4927  1.0580
23849SOL    HW274441   6.835   3.310   6.918 -0.1944  1.1500 -1.1820
23850SOL     OW74442   1.197   0.828   0.063  0.4561  0.5290 -0.2261
23850SOL    HW174443   1.205   0.767  -0.010  1.3289  0.4827 -0.1047
23850SOL    HW274444   1.188   0.914   0.022  1.8654  0.6121 -0.4078
23851SOL     OW74445   8.082   8.115   6.721  0.0960  0.0514 -0.2504
23851SOL    HW174446   8.089   8.061   6.800 -0.7972  0.1416 -0.1061
23851SOL    HW274447   8.065   8.052   6.651 -0.3164  0.0778 -0.1783
23852SOL     OW74448   2.342   1.723   8.348  0.0936 -0.6179  0.4475
23852SOL    HW174449   2.280   1.652   8.362 -1.2763  0.6871  1.2823
23852SOL    HW274450   2.300   1.800   8.386  0.1993  1.3095 -2.9270
23853SOL     OW74451   9.837   3.685   3.585  0.5769 -0.4756  0.5462
23853SOL    HW174452   9.761   3.743   3.576  0.5734 -0.2704  1.7061
23853SOL    HW274453   9.813   3.606   3.538  0.7500  0.5971 -1.4806
23854SOL     OW74454   6.571   0.350  10.504  0.3571  0.2876 -0.3647
23854SOL    HW174455   6.591   0.372  10.595 -0.0159  1.2396 -0.4934
23854SOL    HW274456   6.538   0.432  10.467  0.1618 -0.1830 -1.2593
23855SOL     OW74457   2.002   5.303   9.870  0.9007 -0.0952 -0.7057
23855SOL    HW174458   2.022   5.278   9.960  0.3755 -0.2085 -0.6146
23855SOL    HW274459   1.966   5.223   9.830  0.2065  0.2181 -0.7218
23856SOL     OW74460   7.943  10.263   9.402  0.1058 -0.0847 -0.1758
23856SOL    HW174461   7.959  10.201   9.331 -1.5552 -1.4162  0.5636
23856SOL    HW274462   8.026  10.265   9.451  0.3528 -1.3220 -0.5152
23857SOL     OW74463   5.952   6.007   4.530 -0.0652 -0.1959  0.0780
23857SOL    HW174464   5.924   6.097   4.516  0.2074  0.2438  2.1572
23857SOL    HW274465   5.905   5.978   4.607  0.8451 -1.3962  0.2172
23858SOL     OW74466  10.135   7.693   1.259 -0.4433 -0.1243  0.4840
23858SOL    HW174467  10.185   7.640   1.321  3.1299  1.4886 -0.7607
23858SOL    HW274468  10.137   7.643   1.177  2.3547  1.3957 -0.5064
23859SOL     OW74469   0.249   0.556   3.399  0.0020  0.1121 -0.1544
23859SOL    HW174470   0.309   0.509   3.457  0.7770  0.6822 -0.4813
23859SOL    HW274471   0.194   0.608   3.458  3.0769  3.4814  0.0622
23860SOL     OW74472   2.780   6.921   1.235  0.0564 -0.5142  0.2702
23860SOL    HW174473   2.845   6.880   1.178  0.1166 -0.5276  0.3480
23860SOL    HW274474   2.824   6.999   1.269  0.6161 -1.3700  1.5906
23861SOL     OW74475  10.726   7.430   5.294  0.3931  0.0340  0.7983
23861SOL    HW174476  10.716   7.377   5.215 -0.7513 -0.9357  1.5590
23861SOL    HW274477  10.812   7.472   5.284 -0.6466  1.7094 -1.9591
23862SOL     OW74478   3.709   0.693  10.154 -0.2111 -0.3679  0.1011
23862SOL    HW174479   3.706   0.775  10.105 -0.2709 -0.5341 -0.1793
23862SOL    HW274480   3.620   0.659  10.149  0.3273 -1.6686 -1.9125
23863SOL     OW74481   1.996   8.042   7.957  0.2289  0.3496  0.1452
23863SOL    HW174482   2.066   8.070   8.015  0.1952  1.0943 -0.1623
23863SOL    HW274483   1.916   8.050   8.009  0.2817  0.2829  0.2358
23864SOL     OW74484   3.895   8.184   8.945  0.0234  0.7112 -0.1365
23864SOL    HW174485   3.825   8.196   9.009  0.8227  0.3126  0.8398
23864SOL    HW274486   3.918   8.091   8.952  0.4825  0.7832 -0.6193
23865SOL     OW74487   2.301   6.201   8.451  0.1555 -0.3868  0.5089
23865SOL    HW174488   2.296   6.231   8.360 -3.4329  1.2688  1.0884
23865SOL    HW274489   2.384   6.236   8.483 -0.0183  1.8760 -1.2515
23866SOL     OW74490  10.456   8.286   5.160  0.5006  0.0947 -0.3452
23866SOL    HW174491  10.373   8.267   5.116  0.7916  1.4698 -1.5777
23866SOL    HW274492  10.442   8.370   5.203  1.7174  1.2622 -2.0545
23867SOL     OW74493   9.145   1.712   2.500 -0.0521 -0.0867  0.3608
23867SOL    HW174494   9.054   1.740   2.508 -0.2347 -0.8527  1.1555
23867SOL    HW274495   9.178   1.710   2.590  0.5586 -0.4220  0.1415
23868SOL     OW74496  10.123   5.779   0.426 -0.3148  0.0418 -0.1231
23868SOL    HW174497  10.063   5.852   0.441  0.3024  0.4831  0.2519
23868SOL    HW274498  10.084   5.706   0.474  0.8766  1.0649  2.6271
23869SOL     OW74499   4.594   0.495   9.606  0.7073  0.5634  0.2335
23869SOL    HW174500   4.591   0.531   9.518 -0.5692  0.0322  0.0280
23869SOL    HW274501   4.620   0.403   9.593  0.9226  0.5937  0.4501
23870SOL     OW74502   2.423   0.389   0.293 -0.2936  0.2636  0.8440
23870SOL    HW174503   2.415   0.402   0.198  0.0765 -0.2327  0.7402
23870SOL    HW274504   2.463   0.302   0.301  0.2987  0.5925  1.4425
23871SOL     OW74505   3.811   8.852   4.315  0.4593  0.8252 -0.4948
23871SOL    HW174506   3.738   8.793   4.339  0.4730  0.5872 -1.0154
23871SOL    HW274507   3.785   8.937   4.349  1.1866  0.2244  1.7449
23872SOL     OW74508   5.352   3.662   2.541  0.1978  0.2991 -0.2102
23872SOL    HW174509   5.427   3.687   2.488  0.7037  0.2509  0.4737
23872SOL    HW274510   5.278   3.710   2.502  0.3986 -0.3632 -1.4518
23873SOL     OW74511   9.326   4.177  10.100 -0.1877 -0.3297 -0.0615
23873SOL    HW174512   9.332   4.149  10.192  0.7637 -0.2136 -0.0813
23873SOL    HW274513   9.266   4.114  10.060 -1.2052  0.0503  0.7963
23874SOL     OW74514   5.032   2.837   1.225 -0.5434  0.3457 -0.4502
23874SOL    HW174515   5.085   2.856   1.148  0.5927  2.9374  0.8673
23874SOL    HW274516   4.969   2.909   1.229 -1.8038 -0.7347  0.0702
23875SOL     OW74517   1.242   8.133   7.465 -0.1173  0.0284  0.3190
23875SOL    HW174518   1.282   8.072   7.403  0.3957  0.2345  0.4412
23875SOL    HW274519   1.154   8.098   7.480  0.4738 -1.1826  1.0745
23876SOL     OW74520   3.399   0.117   0.166 -0.1811  0.2241 -0.0520
23876SOL    HW174521   3.383   0.056   0.238 -1.2931  0.0134 -0.4612
23876SOL    HW274522   3.327   0.179   0.170  1.0015  1.6443  0.4420
23877SOL     OW74523   1.549   0.889   6.334  0.5172 -0.1025 -0.4027
23877SOL    HW174524   1.639   0.905   6.360  0.0670  0.2834  1.0006
23877SOL    HW274525   1.528   0.804   6.372 -0.1303  0.4416  0.5139
23878SOL     OW74526   1.688   3.954  10.783 -0.2068  0.1086 -0.3009
23878SOL    HW174527   1.641   3.934  10.864 -0.8643  0.9302 -0.4583
23878SOL    HW274528   1.619   3.968  10.719  0.2873  0.4009 -0.7712
23879SOL     OW74529   1.262  10.448   1.585 -0.1083 -0.1983  0.5867
23879SOL    HW174530   1.314  10.368   1.590  1.0730  0.6101  2.4095
23879SOL    HW274531   1.213  10.450   1.667 -2.8457 -0.7404 -0.9024
23880SOL     OW74532   1.117   6.952   4.644  0.9663 -0.5434  0.5649
23880SOL    HW174533   1.070   6.899   4.709 -0.1126  0.4054  0.5829
23880SOL    HW274534   1.175   7.008   4.696 -0.7630  1.0794  0.8678
23881SOL     OW74535   4.620   8.846   6.811 -0.2285  0.0935 -0.1639
23881SOL    HW174536   4.537   8.864   6.766 -0.2673 -0.3290 -0.2617
23881SOL    HW274537   4.679   8.815   6.742 -1.0206 -3.0551  0.4058
23882SOL     OW74538   5.888   0.336   9.406 -0.0006 -0.1283 -0.1263
23882SOL    HW174539   5.838   0.386   9.341 -0.9249  0.4489  1.0048
23882SOL    HW274540   5.934   0.401   9.458 -0.3500 -0.5034  0.6690
23883SOL     OW74541   6.371   0.128   9.330  0.1312 -0.1684  0.5088
23883SOL    HW174542   6.333   0.212   9.306  1.2000  0.4161  0.7781
23883SOL    HW274543   6.442   0.115   9.267 -0.6491 -1.3652 -0.1544
23884SOL     OW74544   2.805   9.566   9.420 -0.1372 -0.4176 -0.1663
23884SOL    HW174545   2.870   9.610   9.474  0.1239 -0.8272 -0.1461
23884SOL    HW274546   2.741   9.531   9.482 -0.8790  0.7572 -0.2289
23885SOL     OW74547   7.139   5.293   3.105 -0.1524 -0.3256 -0.2760
23885SOL    HW174548   7.176   5.288   3.017  0.7400 -0.0389  0.0720
23885SOL    HW274549   7.163   5.209   3.145  0.2763 -0.0683  0.0089
23886SOL     OW74550   8.197   2.020   5.908  1.0114 -0.2400 -0.8934
23886SOL    HW174551   8.172   1.971   5.987 -0.4599 -0.3023 -1.3655
23886SOL    HW274552   8.154   1.973   5.836 -0.3465  1.6102 -1.3815
23887SOL     OW74553   8.090   3.346   5.488  0.5509  0.0769  0.3217
23887SOL    HW174554   8.173   3.340   5.536  0.2180 -0.1554  0.8689
23887SOL    HW274555   8.063   3.255   5.477 -0.2085  0.1977  1.1427
23888SOL     OW74556   9.738   4.572   4.057  0.8285 -0.7481  0.1803
23888SOL    HW174557   9.780   4.656   4.074  2.2836 -1.6888  1.4520
23888SOL    HW274558   9.793   4.530   3.991 -0.3309 -0.4217 -1.0430
23889SOL     OW74559   0.702   1.660   5.993  0.4712 -0.4881 -0.1532
23889SOL    HW174560   0.607   1.659   6.009  0.6768  0.8145  1.4168
23889SOL    HW274561   0.714   1.726   5.925  0.4634  1.6422  1.8030
23890SOL     OW74562   1.354   6.401   0.059 -0.0488  0.1566 -0.1644
23890SOL    HW174563   1.411   6.332   0.093  0.5313  0.7942  0.1932
23890SOL    HW274564   1.299   6.425   0.134  0.5164  0.8425  0.0427
23891SOL     OW74565   3.195   1.567   6.544 -0.2000  0.3170 -0.4595
23891SOL    HW174566   3.114   1.539   6.500 -1.1765 -0.4009  1.6564
23891SOL    HW274567   3.198   1.662   6.529 -3.2770  0.9857  2.0653
23892SOL     OW74568   9.673   5.846   3.227  0.0648  0.2926 -0.2836
23892SOL    HW174569   9.613   5.885   3.163 -0.4258 -0.6251 -0.4067
23892SOL    HW274570   9.618   5.786   3.278  0.7662 -0.1611 -0.0457
23893SOL     OW74571   1.068   8.924   3.219 -0.5405  0.0372  0.0744
23893SOL    HW174572   1.023   8.848   3.182 -0.2181  1.4411 -3.5832
23893SOL    HW274573   1.007   8.997   3.208  1.1510  1.2835 -1.6092
23894SOL     OW74574   6.305   6.827   1.039  0.5104 -0.5142 -0.0336
23894SOL    HW174575   6.311   6.919   1.015  1.1150 -0.4944  0.1745
23894SOL    HW274576   6.240   6.824   1.108  0.4042 -0.2605 -0.1215
23895SOL     OW74577   8.693   6.540   3.435  0.1284  1.0604  0.2300
23895SOL    HW174578   8.689   6.625   3.478 -0.0105  0.8805  0.5768
23895SOL    HW274579   8.669   6.558   3.344  0.6260  1.4775  0.1766
23896SOL     OW74580   4.276   2.777   7.895 -0.0344  0.3406  0.4391
23896SOL    HW174581   4.360   2.789   7.938  1.3946  0.1744 -2.0774
23896SOL    HW274582   4.213   2.770   7.966  2.2477 -0.9974  2.4937
23897SOL     OW74583   5.006   7.482   9.184  0.5316  0.2337  0.0286
23897SOL    HW174584   4.958   7.554   9.225 -0.4283 -0.3318 -0.0598
23897SOL    HW274585   5.028   7.424   9.257  1.0614  0.4753  0.0638
23898SOL     OW74586   1.992   6.259  10.436 -0.3191  0.2801 -0.1636
23898SOL    HW174587   2.014   6.175  10.476 -0.0328 -0.2424 -1.3985
23898SOL    HW274588   1.907   6.243  10.394  1.2816 -0.5024 -3.4253
23899SOL     OW74589  10.656   2.999   0.303  0.2730  0.1931 -0.0762
23899SOL    HW174590  10.562   3.019   0.302  0.1891 -0.1795 -1.0671
23899SOL    HW274591  10.699   3.084   0.299 -0.0272  0.3540  0.0717
23900SOL     OW74592   2.211   0.736   7.721  0.3027 -0.3041  0.3181
23900SOL    HW174593   2.244   0.771   7.638 -2.1392 -0.6758 -0.8925
23900SOL    HW274594   2.138   0.679   7.696  1.5286 -3.0861  2.5166
23901SOL     OW74595  10.657   7.999   8.445 -0.3704 -0.2167 -0.5328
23901SOL    HW174596  10.689   8.013   8.534  2.8028 -1.8282 -1.2591
23901SOL    HW274597  10.578   7.946   8.456  0.0356 -0.5122  1.3197
23902SOL     OW74598   6.029   1.159   1.442  0.0790 -0.1094 -0.3110
23902SOL    HW174599   6.113   1.204   1.430 -0.2656  0.6796  0.1730
23902SOL    HW274600   6.051   1.080   1.492  0.5391  0.0637 -0.2333
23903SOL     OW74601   4.346   1.460   3.065 -0.1039 -0.3771  0.4680
23903SOL    HW174602   4.272   1.513   3.037 -0.0536  0.3363  1.6031
23903SOL    HW274603   4.411   1.470   2.995 -0.1298  1.0206  0.6037
23904SOL     OW74604   5.362   0.823  10.069  0.3523 -0.4170  0.3639
23904SOL    HW174605   5.416   0.847  10.144  0.1415  0.6565  0.1815
23904SOL    HW274606   5.312   0.902  10.049 -0.6382 -1.1149 -0.0246
23905SOL     OW74607   3.242   8.606   4.442 -0.0076  0.5543 -0.1833
23905SOL    HW174608   3.265   8.561   4.361  2.0229  2.2613 -0.6337
23905SOL    HW274609   3.265   8.544   4.511  0.5251 -0.0067 -0.8456
23906SOL     OW74610   2.522   3.220   5.745 -0.3506 -0.1292  0.4924
23906SOL    HW174611   2.583   3.147   5.734 -0.4491 -0.3793  1.5265
23906SOL    HW274612   2.490   3.238   5.657 -2.3585 -3.0694  0.4780
23907SOL     OW74613   1.527   9.295   9.362  0.3171 -0.7990 -0.1286
23907SOL    HW174614   1.598   9.326   9.418 -2.3810  1.8878  2.1209
23907SOL    HW274615   1.548   9.328   9.275  0.3791  2.8570  1.1108
23908SOL     OW74616   4.004   5.257   8.968 -0.1784  0.0035  0.9019
23908SOL    HW174617   3.999   5.263   8.872 -0.2374  1.5908  0.9812
23908SOL    HW274618   4.091   5.291   8.989  0.0335 -0.8287  1.3884
23909SOL     OW74619   9.968   4.447   4.476 -0.0893 -0.5061 -0.0630
23909SOL    HW174620   9.995   4.440   4.384  0.0115  0.4043 -0.1100
23909SOL    HW274621  10.025   4.514   4.513 -1.2443  0.3559  0.2258
23910SOL     OW74622   9.193   5.918   7.855  0.0966 -0.1435  0.0109
23910SOL    HW174623   9.233   5.994   7.812  2.2495 -1.7950 -1.1008
23910SOL    HW274624   9.161   5.864   7.783 -0.0592 -0.9936  0.6979
23911SOL     OW74625   5.079   3.436   5.846 -0.1272  0.3419  0.8382
23911SOL    HW174626   5.122   3.439   5.761 -1.2835 -1.9445  0.1038
23911SOL    HW274627   5.003   3.494   5.837 -1.7724 -1.9067 -0.6783
23912SOL     OW74628   5.522   9.755   2.287 -0.2435  0.8110  0.0551
23912SOL    HW174629   5.515   9.693   2.359 -0.2496  1.5574  0.7070
23912SOL    HW274630   5.435   9.755   2.247 -0.3613  0.7148  0.3099
23913SOL     OW74631   9.383   5.207   8.077 -0.7517 -0.6325 -0.4703
23913SOL    HW174632   9.455   5.153   8.044 -0.3435 -1.9767  2.3286
23913SOL    HW274633   9.319   5.144   8.109 -1.9926  0.5677 -0.5241
23914SOL     OW74634   4.623  10.624  10.529 -0.6617  0.0020  0.2822
23914SOL    HW174635   4.677  10.624  10.608 -0.4706  3.4079  0.2853
23914SOL    HW274636   4.591  10.534  10.522  2.5489 -1.4214  1.9453
23915SOL     OW74637  10.018   7.731   7.375 -0.2386 -0.4389 -0.4974
23915SOL    HW174638  10.103   7.759   7.343  0.6348 -0.7439  1.3841
23915SOL    HW274639  10.034   7.646   7.416 -0.7570  0.7349  2.4339
23916SOL     OW74640   4.102   7.256   6.942 -0.3071  0.5873  0.0710
23916SOL    HW174641   4.040   7.267   7.014 -0.2432  1.4221  0.0096
23916SOL    HW274642   4.047   7.260   6.863  0.0198  3.7461 -0.1184
23917SOL     OW74643   4.579   4.694   0.412  0.3008  0.0152  0.0498
23917SOL    HW174644   4.634   4.728   0.341  0.9680 -0.5106  0.3105
23917SOL    HW274645   4.494   4.678   0.370  0.1775  1.2805 -0.2545
23918SOL     OW74646   3.522   0.221   9.932 -0.0704 -0.1212  0.2836
23918SOL    HW174647   3.582   0.146   9.937  0.5421  0.3998  0.9568
23918SOL    HW274648   3.530   0.264  10.017 -2.5331 -0.8651  0.9790
23919SOL     OW74649   0.096   5.940  10.397  0.0212  0.5805 -0.1902
23919SOL    HW174650   0.102   5.845  10.411  0.2414  0.7505  0.9482
23919SOL    HW274651   0.155   5.956  10.323  0.2286 -0.1278 -0.1949
23920SOL     OW74652   9.067   7.428   6.563 -0.4521 -1.1277 -0.3921
23920SOL    HW174653   9.154   7.439   6.603 -0.6312 -0.2084 -0.2216
23920SOL    HW274654   9.014   7.496   6.605 -1.3797 -1.9868 -0.1529
23921SOL     OW74655   4.450   0.839   7.169 -0.5039 -0.3290  0.1557
23921SOL    HW174656   4.459   0.765   7.229 -1.4407 -0.4532  0.1712
23921SOL    HW274657   4.399   0.803   7.096  0.4903 -0.1392 -0.6515
23922SOL     OW74658  10.597   5.481   1.376 -0.0454  0.4460 -0.3668
23922SOL    HW174659  10.618   5.512   1.288 -1.7252  0.7422 -0.6995
23922SOL    HW274660  10.592   5.386   1.369 -0.6420  0.5040 -0.6963
23923SOL     OW74661   5.991   2.646   6.041  0.4371 -0.8732  0.3555
23923SOL    HW174662   5.985   2.577   6.107  0.9816  0.5810  1.9761
23923SOL    HW274663   6.079   2.682   6.051 -0.0273  0.4280 -0.1010
23924SOL     OW74664  10.218   5.012   9.042  0.0957 -0.1993 -0.2425
23924SOL    HW174665  10.241   5.072   8.971 -2.2221  2.7543  1.2325
23924SOL    HW274666  10.125   4.992   9.029  0.3055 -1.8333  0.4797
23925SOL     OW74667   9.308   5.642   9.354 -0.5740 -0.3946 -0.7028
23925SOL    HW174668   9.314   5.722   9.302 -0.0690 -1.2496 -2.0208
23925SOL    HW274669   9.235   5.593   9.315 -2.1857  0.2235  1.3264
23926SOL     OW74670   4.120   3.534   1.893 -0.0831 -0.2409 -0.0592
23926SOL    HW174671   4.168   3.489   1.822  1.2339  0.7996  0.1294
23926SOL    HW274672   4.091   3.616   1.854 -3.0627 -1.4506 -0.5949
23927SOL     OW74673   6.994   1.139   4.939  0.1546 -0.3010 -0.3372
23927SOL    HW174674   6.908   1.182   4.941  0.8111  1.0108  0.6716
23927SOL    HW274675   7.002   1.098   5.025  0.9215  0.3711 -0.0776
23928SOL     OW74676   4.671  10.230   3.879  0.2261 -0.4386  0.0076
23928SOL    HW174677   4.690  10.318   3.848  0.3117 -0.1839  0.7566
23928SOL    HW274678   4.585  10.237   3.921  0.7201 -0.4504  1.0503
23929SOL     OW74679   7.819   9.252   2.375  0.8070  0.5770  0.3393
23929SOL    HW174680   7.810   9.206   2.458 -1.2727 -0.7458 -0.5343
23929SOL    HW274681   7.730   9.281   2.354  1.2184  0.5872 -1.5691
23930SOL     OW74682   7.148   1.191   4.714  0.4471 -0.1904  0.0957
23930SOL    HW174683   7.088   1.130   4.757  0.0510 -1.7305 -2.4129
23930SOL    HW274684   7.215   1.209   4.780 -0.5208 -1.7750  1.6007
23931SOL     OW74685   6.029   0.761   0.071 -0.1499 -0.6252 -0.2169
23931SOL    HW174686   6.094   0.766   0.141  1.4011 -2.4367 -1.4239
23931SOL    HW274687   6.073   0.799  -0.005 -1.1609 -0.3171 -0.6674
23932SOL     OW74688   8.156   5.202   9.153 -0.6232  0.1965 -0.5689
23932SOL    HW174689   8.247   5.175   9.158  0.4640  3.0444 -2.6536
23932SOL    HW274690   8.109   5.123   9.125  0.8536 -1.7230  1.9469
23933SOL     OW74691   1.286   6.533   8.218 -0.0837  0.0771 -0.0235
23933SOL    HW174692   1.320   6.519   8.130  0.7919 -2.4519  0.6390
23933SOL    HW274693   1.325   6.616   8.246  0.5335  0.3410 -1.5653
23934SOL     OW74694   0.767   5.938   5.467  0.5453 -0.2513  0.5364
23934SOL    HW174695   0.724   5.872   5.521 -0.4779 -1.8566 -2.0224
23934SOL    HW274696   0.738   6.022   5.503 -0.0936 -1.2126  2.3922
23935SOL     OW74697   4.881   5.585   0.927 -0.1351  0.1641  0.5599
23935SOL    HW174698   4.901   5.493   0.947  0.6083  0.1984  0.0115
23935SOL    HW274699   4.846   5.620   1.008  2.6032  0.2506  1.8272
23936SOL     OW74700   1.658   0.290   5.228  0.6803  0.6377 -0.0201
23936SOL    HW174701   1.654   0.237   5.308 -1.0314 -0.4526 -0.7879
23936SOL    HW274702   1.749   0.322   5.225  1.1592 -0.4670  1.6000
23937SOL     OW74703   5.856   0.217   3.208  0.4985  0.1044  0.6595
23937SOL    HW174704   5.932   0.159   3.217  0.7156  0.4561  1.1552
23937SOL    HW274705   5.888   0.291   3.157  0.1517 -0.3187 -0.1981
23938SOL     OW74706   1.369   9.108   0.446  0.6240  0.0245  0.4083
23938SOL    HW174707   1.396   9.025   0.483  1.7396  0.2605  0.1777
23938SOL    HW274708   1.301   9.141   0.505  1.9395  0.1196  1.9412
23939SOL     OW74709   0.522   7.217   0.788 -0.3727 -0.1703  0.2163
23939SOL    HW174710   0.611   7.252   0.785  0.1936 -1.5860 -0.8419
23939SOL    HW274711   0.470   7.286   0.828  1.2047  0.6705  0.8977
23940SOL     OW74712   5.540   4.519   3.153 -0.0770 -0.0035 -0.3984
23940SOL    HW174713   5.528   4.609   3.185  2.5419  0.2901 -0.0269
23940SOL    HW274714   5.589   4.529   3.072  1.1491 -1.0940  0.1708
23941SOL     OW74715   8.391   7.367   7.425  0.1047 -0.1282  0.5563
23941SOL    HW174716   8.316   7.425   7.415  0.0631  0.0972  1.9742
23941SOL    HW274717   8.355   7.287   7.465  0.3892 -0.6150 -0.1301
23942SOL     OW74718   3.576   9.756   3.791 -0.9394 -0.6288  0.2873
23942SOL    HW174719   3.491   9.735   3.830 -0.8126  0.5773  1.2642
23942SOL    HW274720   3.607   9.831   3.840  0.4037 -0.6356 -0.5049
23943SOL     OW74721   8.292   6.944   4.943  0.3044 -0.2372 -0.3859
23943SOL    HW174722   8.298   6.929   5.037 -0.7820  0.4842 -0.1849
23943SOL    HW274723   8.384   6.951   4.914  0.7101 -2.1203  0.3090
23944SOL     OW74724   2.297   7.068   7.608 -0.5694  0.1299  0.0195
23944SOL    HW174725   2.232   7.103   7.668  1.0050 -0.5303  2.2462
23944SOL    HW274726   2.267   6.979   7.590 -0.9292  0.2518 -0.0003
23945SOL     OW74727   1.673   4.507   7.559  0.2263 -0.1048  0.0151
23945SOL    HW174728   1.685   4.412   7.571 -0.0427 -0.0245  0.9994
23945SOL    HW274729   1.586   4.524   7.595  0.0375  0.4280 -0.6861
23946SOL     OW74730   3.387   5.690   7.945  0.4435 -0.2277  0.3060
23946SOL    HW174731   3.475   5.728   7.936  0.4936 -0.3300  0.3694
23946SOL    HW274732   3.396   5.624   8.014  0.0056  0.7229  1.3065
23947SOL     OW74733   7.106   7.377   6.802  0.1291 -0.1159 -0.5361
23947SOL    HW174734   7.157   7.296   6.803 -1.2815 -1.0517  0.8512
23947SOL    HW274735   7.083   7.389   6.710  1.7904 -0.3238 -1.0176
23948SOL     OW74736   8.958  10.357  10.435  0.5096  0.4665  0.7285
23948SOL    HW174737   8.987  10.434  10.386  0.1809  0.2583  0.1964
23948SOL    HW274738   8.949  10.288  10.369 -0.3480  0.2940  1.0117
23949SOL     OW74739   1.882   6.521   0.308 -0.6172 -0.2112  0.6478
23949SOL    HW174740   1.822   6.543   0.237  0.4656  3.1740  0.6280
23949SOL    HW274741   1.826   6.478   0.373 -2.0657 -1.3745 -1.2347
23950SOL     OW74742   8.896   1.391   9.891 -0.3089  0.6267 -0.1275
23950SOL    HW174743   8.886   1.431   9.805  2.3548 -0.9967 -1.3028
23950SOL    HW274744   8.869   1.300   9.879  0.0013  0.4054  0.7862
23951SOL     OW74745   0.248   2.612   1.200  0.2812  0.2352 -0.4735
23951SOL    HW174746   0.210   2.657   1.275 -2.0002 -0.4486 -1.1445
23951SOL    HW274747   0.202   2.528   1.196  1.4746 -0.4037 -1.7079
23952SOL     OW74748   9.971   6.922   3.660  0.1444 -0.5245 -0.2597
23952SOL    HW174749  10.008   7.009   3.647 -0.3526 -0.2215  0.2993
23952SOL    HW274750  10.041   6.862   3.635  0.6899  0.0371 -0.1019
23953SOL     OW74751   2.034   8.610   2.202 -0.3820 -0.1356  0.4081
23953SOL    HW174752   2.000   8.696   2.228  0.8918 -0.0300  1.9096
23953SOL    HW274753   2.011   8.553   2.276 -0.9568 -1.0418 -0.4497
23954SOL     OW74754   8.701   9.505   9.817  0.0349 -0.0742  0.2892
23954SOL    HW174755   8.615   9.522   9.778  0.6346  2.0052 -0.2302
23954SOL    HW274756   8.704   9.409   9.826 -1.5270 -0.3643 -1.5130
23955SOL     OW74757   1.667   5.172   1.248 -0.2361  0.1993 -0.0485
23955SOL    HW174758   1.619   5.224   1.183 -0.1493  1.2602  0.7101
23955SOL    HW274759   1.759   5.189   1.229 -0.1481 -1.2100 -1.0001
23956SOL     OW74760   2.723   0.154   4.154  0.6249  0.1250  0.5074
23956SOL    HW174761   2.644   0.101   4.142  1.8077 -1.4281 -1.0096
23956SOL    HW274762   2.757   0.129   4.239  0.5941 -0.8026  0.2549
23957SOL     OW74763   4.909   3.637   4.184  0.1235  0.2093 -0.5305
23957SOL    HW174764   4.900   3.732   4.194  2.6957  0.6014 -1.3660
23957SOL    HW274765   4.820   3.604   4.197 -0.9834  2.7768 -0.8555
23958SOL     OW74766   1.135   0.272   8.957 -0.3046 -0.1233  0.1741
23958SOL    HW174767   1.157   0.349   8.905  0.9497 -0.3459  0.3488
23958SOL    HW274768   1.132   0.201   8.894  0.1888 -0.2102  0.2413
23959SOL     OW74769   6.346   8.758   9.256  0.2181 -0.2157 -0.1923
23959SOL    HW174770   6.355   8.756   9.351  0.1134 -0.5918 -0.1872
23959SOL    HW274771   6.397   8.682   9.226 -0.2692 -0.4657 -0.3912
23960SOL     OW74772   8.721   6.945   4.064  0.0663  0.5776  0.1258
23960SOL    HW174773   8.794   7.002   4.039  1.9183 -1.3439  0.8978
23960SOL    HW274774   8.736   6.927   4.157 -1.2461 -0.0818  0.2246
23961SOL     OW74775   8.941   8.283   3.110  0.2761 -0.6930  0.3257
23961SOL    HW174776   8.870   8.287   3.046 -0.2536  1.1698  0.9511
23961SOL    HW274777   8.903   8.235   3.184 -0.5394  0.6700  0.8360
23962SOL     OW74778   6.797   5.390   8.546 -0.0316  0.1451  0.4019
23962SOL    HW174779   6.868   5.445   8.512 -0.0177 -0.2543 -0.2269
23962SOL    HW274780   6.719   5.425   8.504  0.2244 -1.6284 -1.6724
23963SOL     OW74781   2.311   8.420   1.399 -0.0802 -0.2248  0.1733
23963SOL    HW174782   2.376   8.363   1.440 -0.5199  0.6371  2.2067
23963SOL    HW274783   2.231   8.369   1.398  0.1290 -0.5455 -0.3957
23964SOL     OW74784   4.513   5.327   4.035  0.2226 -0.7065 -0.0514
23964SOL    HW174785   4.594   5.303   4.081  0.3338  0.6285  0.4710
23964SOL    HW274786   4.452   5.352   4.104  0.4336  1.4405 -0.5711
23965SOL     OW74787   2.572  10.599   3.614 -0.1392 -0.7599 -0.2411
23965SOL    HW174788   2.627  10.569   3.541 -0.2703 -0.4380 -0.4736
23965SOL    HW274789   2.604  10.549   3.690 -0.9734 -2.1899 -0.7837
23966SOL     OW74790   4.513   0.636   2.021 -0.3847  0.0037 -0.2383
23966SOL    HW174791   4.558   0.719   2.004 -0.3430  0.2173  0.8442
23966SOL    HW274792   4.483   0.643   2.112 -1.2717 -0.7584 -0.4568
23967SOL     OW74793   8.406   7.198   5.313  0.2875  0.6029  0.1488
23967SOL    HW174794   8.477   7.204   5.377  1.0687 -2.3841 -0.2920
23967SOL    HW274795   8.445   7.229   5.231  0.5891  0.4712  0.2432
23968SOL     OW74796   0.015   5.818   1.313 -0.2983 -0.5427 -0.2548
23968SOL    HW174797   0.037   5.744   1.369 -0.3890 -0.0504  0.4435
23968SOL    HW274798  -0.003   5.778   1.227 -3.7810 -1.8258  0.8609
23969SOL     OW74799   2.011   0.635   3.356  0.2144  0.2735  0.0873
23969SOL    HW174800   1.992   0.616   3.447 -3.0050 -1.8979 -0.8589
23969SOL    HW274801   2.076   0.569   3.330  0.5517  0.4023  0.5995
23970SOL     OW74802   3.206   6.015   8.490  0.1938  0.4559  0.5784
23970SOL    HW174803   3.235   6.048   8.575  2.1628 -0.3217  0.2585
23970SOL    HW274804   3.286   5.988   8.446 -0.7112  1.2797 -1.7484
23971SOL     OW74805   0.941   4.239   5.503  0.0832 -0.4656 -0.1230
23971SOL    HW174806   0.906   4.322   5.537 -1.8027 -1.4957  0.6341
23971SOL    HW274807   0.980   4.262   5.419 -2.2626  0.9141 -0.9542
23972SOL     OW74808   6.049   6.823   1.216 -0.4818 -0.3433  0.1469
23972SOL    HW174809   5.969   6.876   1.220 -1.5973 -1.9849  0.6586
23972SOL    HW274810   6.087   6.830   1.303 -0.5819 -0.3139  0.1881
23973SOL     OW74811   9.155   6.921   1.363 -0.2104  0.2214 -0.3586
23973SOL    HW174812   9.250   6.927   1.354  0.1503 -0.9993  1.8294
23973SOL    HW274813   9.129   6.855   1.299  1.0446 -2.3509  1.6047
23974SOL     OW74814   1.611   4.933   2.074  0.0208 -0.1351  0.0169
23974SOL    HW174815   1.596   5.021   2.108  2.8672 -0.0020  1.1580
23974SOL    HW274816   1.626   4.880   2.152  3.1977 -0.5623 -0.7771
23975SOL     OW74817   6.777   9.283   0.521  0.0770  0.1380  0.4928
23975SOL    HW174818   6.757   9.360   0.468  0.2752  0.1977  0.5048
23975SOL    HW274819   6.692   9.242   0.535  0.1134 -0.3248 -0.5483
23976SOL     OW74820   3.528   2.163   4.603  0.1797  0.1137  0.5987
23976SOL    HW174821   3.555   2.072   4.614 -0.5057 -0.3204 -0.9967
23976SOL    HW274822   3.446   2.169   4.654 -0.2372 -0.4159  0.0078
23977SOL     OW74823   5.952   5.815   0.159  0.3512  0.5076  0.2262
23977SOL    HW174824   5.889   5.859   0.102 -0.0416 -2.4706 -1.8845
23977SOL    HW274825   5.901   5.751   0.208  1.3194  0.0528  0.6833
23978SOL     OW74826   7.151   4.172   9.837  0.4859  0.1633 -0.0631
23978SOL    HW174827   7.183   4.212   9.756 -0.3555 -1.3959 -1.2228
23978SOL    HW274828   7.065   4.213   9.851  1.0679  1.1834  0.6433
23979SOL     OW74829   4.118  10.185   1.667  0.0917 -0.0219  0.6596
23979SOL    HW174830   4.189  10.161   1.726  0.9574  1.8973  0.4473
23979SOL    HW274831   4.094  10.274   1.693 -1.2088 -0.0730 -0.2738
23980SOL     OW74832  10.071   8.281   5.771  0.3950  0.6356 -0.0978
23980SOL    HW174833  10.157   8.249   5.743  0.7490  0.9242  0.6541
23980SOL    HW274834  10.011   8.246   5.705  0.9836 -0.2246 -0.2016
23981SOL     OW74835   5.808   3.875   4.372  0.8577  0.3841  0.0627
23981SOL    HW174836   5.898   3.859   4.398 -0.5553 -2.3438  4.2689
23981SOL    HW274837   5.788   3.805   4.310  0.7835 -1.0448  1.6605
23982SOL     OW74838   3.910   2.959   1.153 -0.2793  0.4613 -0.1416
23982SOL    HW174839   3.944   2.974   1.241 -0.5898 -1.7488  0.4104
23982SOL    HW274840   3.884   3.046   1.123  1.1133  1.4725  1.3810
23983SOL     OW74841   5.471   4.681   3.851  0.2462  0.4688 -0.4501
23983SOL    HW174842   5.429   4.734   3.784  0.2251 -0.2189 -0.9938
23983SOL    HW274843   5.473   4.593   3.814  0.3304  0.0990  0.4092
23984SOL     OW74844   6.000  10.562   3.802 -0.6693 -0.1858 -0.1360
23984SOL    HW174845   6.070  10.611   3.759 -1.2144 -0.3262 -1.2100
23984SOL    HW274846   6.045  10.497   3.855  0.0828  1.3642  1.2298
23985SOL     OW74847  10.749   1.477  10.560  0.1324 -0.3090 -0.2344
23985SOL    HW174848  10.768   1.386  10.541  2.0310 -0.0887  0.4283
23985SOL    HW274849  10.793   1.526  10.490  1.5823  0.1924  0.9822
23986SOL     OW74850   5.895   2.122   6.479  0.7412  0.0319  0.1817
23986SOL    HW174851   5.868   2.112   6.388  2.8968 -0.0159 -0.5133
23986SOL    HW274852   5.868   2.041   6.521 -0.7725  0.2879 -0.2629
23987SOL     OW74853   3.592   4.478   5.710 -0.7368 -0.1073  0.2083
23987SOL    HW174854   3.536   4.495   5.634 -3.1977 -1.0735  1.6850
23987SOL    HW274855   3.536   4.495   5.785  0.5141 -2.4602  1.8055
23988SOL     OW74856   8.668   4.355   1.384 -0.1794  0.0485  0.1610
23988SOL    HW174857   8.606   4.391   1.320 -0.0233 -0.2854 -0.1885
23988SOL    HW274858   8.620   4.353   1.466 -0.6750 -0.2988 -0.1271
23989SOL     OW74859   1.009   8.015   8.620 -0.0984  0.0468 -0.3872
23989SOL    HW174860   0.952   7.986   8.691 -0.1499 -1.2094 -0.9267
23989SOL    HW274861   1.021   8.109   8.636  1.5329 -0.5187  2.4677
23990SOL     OW74862   0.971   4.460   4.872  0.0465  0.1421  0.6364
23990SOL    HW174863   1.036   4.521   4.906 -0.0236 -0.4528  1.9028
23990SOL    HW274864   0.900   4.516   4.840  0.6110  0.7545  0.4348
23991SOL     OW74865   9.615   1.057   7.624  0.0876  0.3682 -0.1947
23991SOL    HW174866   9.662   1.138   7.605 -1.2448  1.4863  1.0522
23991SOL    HW274867   9.575   1.032   7.540 -1.3136  2.2658 -0.1550
23992SOL     OW74868   0.920   1.181   1.923  0.0080 -0.3814  0.2019
23992SOL    HW174869   0.881   1.203   2.008 -0.4598  0.4503 -0.2253
23992SOL    HW274870   0.865   1.224   1.859  0.4707 -0.8535 -0.5285
23993SOL     OW74871   1.835   2.366   4.510 -0.2634  0.8813  0.5043
23993SOL    HW174872   1.920   2.330   4.485 -0.4601  0.6216  0.1982
23993SOL    HW274873   1.812   2.423   4.436 -1.3800 -0.7728 -0.4801
23994SOL     OW74874   4.119  10.110   1.038  0.0575 -0.6493 -0.8530
23994SOL    HW174875   4.201  10.155   1.059  0.1063 -0.8365 -0.6333
23994SOL    HW274876   4.054  10.180   1.035  0.3338 -0.4176 -1.6531
23995SOL     OW74877   8.423   2.225   4.388 -0.3375  0.5646 -0.3160
23995SOL    HW174878   8.342   2.176   4.376 -0.5513  0.8415 -0.0506
23995SOL    HW274879   8.394   2.313   4.413  0.0420  0.2280  1.4761
23996SOL     OW74880   8.622   9.923   4.998  0.3154  1.1124  0.3819
23996SOL    HW174881   8.593   9.838   4.966  1.6182  0.8405 -0.1284
23996SOL    HW274882   8.630   9.977   4.919  1.8224  0.9719  0.4169
23997SOL     OW74883   4.178   7.729   6.837  0.6578 -0.3800  0.2519
23997SOL    HW174884   4.255   7.773   6.801  0.5977 -0.9077 -0.5568
23997SOL    HW274885   4.206   7.638   6.848  0.4703 -0.3574  0.9549
23998SOL     OW74886   4.934  10.384   3.179  0.0199 -0.1422  0.4110
23998SOL    HW174887   4.993  10.438   3.127  0.3875 -0.7396  0.1955
23998SOL    HW274888   4.866  10.356   3.118  0.2781 -0.5858  0.3234
23999SOL     OW74889   5.159   7.033   9.769  0.2615 -0.2791 -0.0614
23999SOL    HW174890   5.246   7.066   9.746  0.4907 -0.5102  0.4569
23999SOL    HW274891   5.103   7.060   9.696  0.7290  0.0323 -0.3107
24000SOL     OW74892   9.363   5.242   6.212 -0.0652 -0.0073  0.1841
24000SOL    HW174893   9.377   5.268   6.120 -0.8205 -1.4195 -0.3525
24000SOL    HW274894   9.367   5.324   6.261 -0.3754  0.8619 -1.2012
24001SOL     OW74895   9.639   1.367   7.033  0.6885 -0.3006 -0.6236
24001SOL    HW174896   9.719   1.419   7.037  0.5132  0.0016 -0.9194
24001SOL    HW274897   9.568   1.431   7.046  0.5295 -0.7251  0.7414
24002SOL     OW74898   7.778   8.590   4.370  0.1891  0.0891 -0.2830
24002SOL    HW174899   7.686   8.617   4.361 -0.0209 -0.5476 -0.1072
24002SOL    HW274900   7.775   8.516   4.430  0.8278  0.0909 -0.2484
24003SOL     OW74901   9.187   6.299   5.372  0.2193 -0.0845  0.4247
24003SOL    HW174902   9.194   6.333   5.461 -0.2365  0.6348  0.1947
24003SOL    HW274903   9.206   6.374   5.316 -1.3380 -0.0539 -0.1008
24004SOL     OW74904   5.908   1.426   9.512 -0.3852  0.2530  0.5706
24004SOL    HW174905   5.813   1.438   9.506 -0.4004 -0.0517  0.1325
24004SOL    HW274906   5.943   1.474   9.437 -0.1258  1.0058  1.1544
24005SOL     OW74907   7.651   0.633  10.556  0.5604 -0.4799 -0.1358
24005SOL    HW174908   7.556   0.621  10.555  0.3692  0.8337 -1.0747
24005SOL    HW274909   7.685   0.561  10.609 -0.7959 -2.1640 -1.4457
24006SOL     OW74910  10.654   6.227   0.234 -0.3726 -0.1192 -0.0281
24006SOL    HW174911  10.613   6.242   0.319  0.7590  0.1058  0.5027
24006SOL    HW274912  10.728   6.169   0.254 -0.8473 -1.0989 -1.0588
24007SOL     OW74913   4.569   5.921   4.474 -0.0524 -0.7047  0.1835
24007SOL    HW174914   4.567   5.826   4.483 -1.1623 -0.6152  1.2003
24007SOL    HW274915   4.523   5.939   4.392  1.8309 -1.1011 -1.0209
24008SOL     OW74916   0.962   2.676   8.276 -0.1572  0.6338 -0.1368
24008SOL    HW174917   0.934   2.746   8.217 -0.0998  0.4854 -0.3438
24008SOL    HW274918   0.985   2.604   8.217 -2.3999 -0.3782  0.1226
24009SOL     OW74919   0.371   0.552   5.515 -0.2516 -0.0193  0.7072
24009SOL    HW174920   0.319   0.546   5.595 -1.8471  2.0246 -0.0881
24009SOL    HW274921   0.365   0.644   5.489  0.2583 -0.6016 -1.7201
24010SOL     OW74922   9.238   3.593   8.876 -0.4285  1.0276  0.3128
24010SOL    HW174923   9.194   3.509   8.889  1.9515 -0.4236 -0.4189
24010SOL    HW274924   9.205   3.625   8.791  0.3325 -0.3422 -0.5322
24011SOL     OW74925   5.359   1.573   4.391  0.3503 -0.5850 -0.2214
24011SOL    HW174926   5.367   1.631   4.467  0.5193  1.5490 -1.7703
24011SOL    HW274927   5.443   1.580   4.346 -0.4762 -0.0486 -1.7493
24012SOL     OW74928   9.264   5.401   5.682 -0.0589  0.2956 -0.2405
24012SOL    HW174929   9.199   5.367   5.621 -0.9325  0.5101  0.5513
24012SOL    HW274930   9.216   5.463   5.737 -0.2091 -2.2523  2.8472
24013SOL     OW74931   8.895   7.756   4.687 -0.2283 -0.5293  0.3655
24013SOL    HW174932   8.984   7.792   4.682  1.2404 -3.7926 -0.0846
24013SOL    HW274933   8.880   7.719   4.600 -1.8515 -0.4321  0.5907
24014SOL     OW74934   4.149   1.265   4.935  0.0102  0.2438 -0.0274
24014SOL    HW174935   4.201   1.245   4.858  0.3696  1.9973 -0.2813
24014SOL    HW274936   4.109   1.350   4.916  0.5613  1.0129  1.9173
24015SOL     OW74937   8.771  10.545   7.556  0.3115 -0.6552 -0.3754
24015SOL    HW174938   8.843  10.484   7.566  0.1626 -0.4100  3.8914
24015SOL    HW274939   8.807  10.630   7.584 -1.3474 -0.3719  1.0640
24016SOL     OW74940   8.173   5.307   3.897  0.2828 -0.4150  0.5018
24016SOL    HW174941   8.177   5.335   3.989  0.3205  0.9105  0.1228
24016SOL    HW274942   8.116   5.230   3.898  1.1914 -1.1092  1.7838
24017SOL     OW74943   7.482   5.096   4.605  0.3460  0.2996 -0.1602
24017SOL    HW174944   7.401   5.121   4.561  0.2706  1.9688  0.8366
24017SOL    HW274945   7.546   5.161   4.577  0.4387  1.0670  1.6984
24018SOL     OW74946   1.014   1.902   1.639  0.4551 -0.1567  0.4454
24018SOL    HW174947   1.054   1.956   1.707 -0.5846  0.7494  0.3813
24018SOL    HW274948   1.049   1.937   1.557  0.4979 -0.1915  0.4491
24019SOL     OW74949   7.189  10.008   3.353  0.4368  0.1919 -0.1415
24019SOL    HW174950   7.140  10.058   3.417  0.8268  0.5233 -0.1004
24019SOL    HW274951   7.281  10.025   3.374  0.5822  1.0760 -1.3713
24020SOL     OW74952   0.214   5.606   2.933  0.2353 -0.4422 -0.7860
24020SOL    HW174953   0.188   5.516   2.952  1.4864 -0.7759 -0.5860
24020SOL    HW274954   0.294   5.598   2.881 -0.7916  0.5369 -2.6430
24021SOL     OW74955   0.424   1.388   6.665 -0.1385 -0.5242 -0.0033
24021SOL    HW174956   0.407   1.321   6.600 -0.5656  0.4362 -0.9090
24021SOL    HW274957   0.513   1.417   6.648 -0.8701  1.0523 -1.4502
24022SOL     OW74958   7.230   5.102   9.480  0.5938 -0.0665 -0.3909
24022SOL    HW174959   7.210   5.010   9.493 -2.0253  0.2961 -1.3099
24022SOL    HW274960   7.151   5.149   9.506  0.8288  1.7120 -2.4956
24023SOL     OW74961   9.035   0.923   8.784  0.1144 -0.5300 -0.3056
24023SOL    HW174962   9.045   1.012   8.750  0.7612 -0.7299 -0.6576
24023SOL    HW274963   8.965   0.885   8.732 -0.8516  0.0927  0.5182
24024SOL     OW74964   3.692   5.153   6.902 -0.8007  0.4826 -0.6975
24024SOL    HW174965   3.618   5.139   6.844  0.5067 -1.1416 -2.1043
24024SOL    HW274966   3.715   5.065   6.933  0.1915  1.0078  0.1408
24025SOL     OW74967   7.195   2.959   8.714  0.1206 -0.1373  0.0530
24025SOL    HW174968   7.105   2.986   8.732  0.2015  0.3428 -0.2408
24025SOL    HW274969   7.247   3.037   8.730  0.1972  0.3235 -2.1923
24026SOL     OW74970   5.441   3.815   6.368  0.0902  0.1109 -0.6841
24026SOL    HW174971   5.486   3.871   6.431  0.0031  0.7616 -1.1898
24026SOL    HW274972   5.397   3.749   6.422  1.9891 -0.8345 -0.1933
24027SOL     OW74973  10.188   0.360  10.525 -0.1876  0.0773 -0.0437
24027SOL    HW174974  10.273   0.318  10.520  0.1680  0.8280 -0.6712
24027SOL    HW274975  10.147   0.341  10.441  0.4318  1.8405 -0.8093
24028SOL     OW74976   5.576   4.775   8.246  0.1121  0.3102  0.1300
24028SOL    HW174977   5.569   4.679   8.247  0.9517  0.2485  0.6285
24028SOL    HW274978   5.666   4.792   8.220  0.4451  0.9303  1.6281
24029SOL     OW74979   6.295   1.559   1.718 -0.0836  0.5486  0.6083
24029SOL    HW174980   6.376   1.611   1.722 -0.8019  1.6761  1.1775
24029SOL    HW274981   6.277   1.551   1.625  1.2092 -0.5954  0.4241
24030SOL     OW74982   1.210   7.235   3.998 -0.3292  0.1031 -0.9745
24030SOL    HW174983   1.167   7.313   3.964  0.2160  0.3885 -1.0229
24030SOL    HW274984   1.150   7.163   3.978 -0.9348  0.5370 -0.7366
24031SOL     OW74985   9.272   2.464   6.333 -0.1714  0.0962 -0.8027
24031SOL    HW174986   9.365   2.479   6.317 -0.4866  1.0756 -1.8456
24031SOL    HW274987   9.249   2.392   6.274 -0.5328  1.3256 -2.2363
24032SOL     OW74988   1.749   2.835   3.440 -0.0553  0.0279 -0.3710
24032SOL    HW174989   1.810   2.883   3.496  0.1503  0.4336 -0.9376
24032SOL    HW274990   1.793   2.750   3.425  0.5308  0.4319 -1.0294
24033SOL     OW74991   5.182   9.672   7.838  0.4143  0.3592 -0.0099
24033SOL    HW174992   5.218   9.612   7.773  3.2149  1.4697  0.3802
24033SOL    HW274993   5.236   9.661   7.916  0.7261  2.9503  0.2522
24034SOL     OW74994   7.557   8.246   4.793 -0.1433 -0.2581  0.2819
24034SOL    HW174995   7.577   8.168   4.743 -0.2663 -0.8143  1.0753
24034SOL    HW274996   7.477   8.281   4.753  0.7054  0.2928 -0.9863
24035SOL     OW74997  10.169   6.013   8.725  0.3504 -0.0894 -0.1741
24035SOL    HW174998  10.087   5.966   8.738  2.2809 -3.0168  3.1845
24035SOL    HW274999  10.211   5.967   8.652 -0.0517  0.0270 -0.4855
24036SOL     OW75000   7.342   8.861   9.486 -0.3566  0.1330  0.0156
24036SOL    HW175001   7.387   8.842   9.568  0.1265 -0.9535 -0.4827
24036SOL    HW275002   7.264   8.910   9.512  0.1918  0.4874  1.0433
24037SOL     OW75003   3.477   5.129   0.443 -0.2154  0.3822 -0.4297
24037SOL    HW175004   3.433   5.104   0.524 -2.4383  0.4533 -1.5381
24037SOL    HW275005   3.554   5.071   0.438  0.1114  0.5582  1.8078
24038SOL     OW75006   4.958   9.987   0.763 -0.2480  0.1685 -0.0054
24038SOL    HW175007   4.879   9.956   0.720  1.7013 -1.6268 -2.5664
24038SOL    HW275008   5.011   9.908   0.776  1.1050  1.2869  1.8075
24039SOL     OW75009   1.537   5.803   6.341  0.2824  0.8780  0.2606
24039SOL    HW175010   1.516   5.844   6.257  0.0418 -0.7938 -0.5235
24039SOL    HW275011   1.455   5.808   6.391 -0.5149 -0.8788 -0.7957
24040SOL     OW75012   5.007   0.376   9.338  0.1111 -0.3483  0.3065
24040SOL    HW175013   4.952   0.449   9.311  0.0315 -1.5847 -3.4641
24040SOL    HW275014   4.945   0.306   9.360  0.1792 -0.3306  0.5568
24041SOL     OW75015   9.653   1.214   8.246 -0.5361 -0.0264 -0.3720
24041SOL    HW175016   9.646   1.301   8.206  0.2789 -0.6437 -1.9432
24041SOL    HW275017   9.562   1.193   8.270 -0.9067  0.8225 -0.9400
24042SOL     OW75018   7.847  10.133   0.620  0.0088 -1.1148 -0.2529
24042SOL    HW175019   7.928  10.104   0.578  1.2614 -1.7113  2.3944
24042SOL    HW275020   7.856  10.105   0.711 -2.5187  0.1807  0.4719
24043SOL     OW75021   7.570   9.528   7.082  0.4508 -0.8223 -0.3834
24043SOL    HW175022   7.643   9.562   7.030  0.5920  0.1972  0.4511
24043SOL    HW275023   7.507   9.496   7.018  1.2038 -0.8287 -1.1382
24044SOL     OW75024   7.203   2.740   2.476  0.1730 -0.2375 -0.8310
24044SOL    HW175025   7.115   2.734   2.511  0.1064  1.9179 -0.5189
24044SOL    HW275026   7.222   2.833   2.473  3.0509 -0.6656  0.6509
24045SOL     OW75027   8.917   0.232   8.571 -0.0751  0.6320 -0.5039
24045SOL    HW175028   8.993   0.189   8.532 -0.6649 -0.7618 -0.1772
24045SOL    HW275029   8.942   0.245   8.662 -1.5380 -3.4080  0.6788
24046SOL     OW75030   9.151   8.677   7.531 -0.5409 -0.0379  0.4268
24046SOL    HW175031   9.185   8.764   7.509  1.4592 -0.9093 -0.1293
24046SOL    HW275032   9.072   8.668   7.477  1.0242  0.1925 -2.0494
24047SOL     OW75033   9.914   4.429   1.069  0.0832  0.2350  0.8027
24047SOL    HW175034   9.839   4.400   1.017  0.8279 -0.8210  0.2850
24047SOL    HW275035   9.886   4.418   1.160 -1.1731  1.9598  0.6794
24048SOL     OW75036   7.671   8.434   6.809 -0.2930 -0.0573 -0.4041
24048SOL    HW175037   7.766   8.441   6.811 -0.2513 -0.3514 -1.1777
24048SOL    HW275038   7.651   8.400   6.722 -1.1777  1.2917 -0.7601
24049SOL     OW75039   1.610   7.745   1.189  0.2988  0.8947  0.0676
24049SOL    HW175040   1.535   7.805   1.189 -0.1212  0.3871  0.9770
24049SOL    HW275041   1.615   7.712   1.278 -0.0501 -1.1250 -0.5958
24050SOL     OW75042  10.043   9.152   0.145  0.0617 -0.2507  0.2942
24050SOL    HW175043  10.017   9.228   0.095  1.3227 -0.1488 -0.2392
24050SOL    HW275044  10.084   9.188   0.224  0.6558 -0.3803  0.0424
24051SOL     OW75045   1.325   1.644   8.211  0.1863  0.0609 -0.3346
24051SOL    HW175046   1.286   1.702   8.275  0.4088 -0.6113  0.4297
24051SOL    HW275047   1.301   1.681   8.126  0.4113  1.3121  0.1345
24052SOL     OW75048   8.468   8.265   8.127  0.7847 -0.1783  0.1220
24052SOL    HW175049   8.539   8.263   8.191  2.7781  1.2870 -1.8847
24052SOL    HW275050   8.422   8.347   8.146  0.4864 -0.4452  0.5589
24053SOL     OW75051   7.356   1.580   3.755 -0.5756 -0.3602 -0.5335
24053SOL    HW175052   7.397   1.661   3.723 -2.1911  0.8055  0.2039
24053SOL    HW275053   7.419   1.546   3.818 -0.4542  1.1221  0.2085
24054SOL     OW75054   5.684   5.010   7.878 -0.0144  0.1425 -0.1551
24054SOL    HW175055   5.612   5.068   7.852  1.7989  2.1613 -0.9286
24054SOL    HW275056   5.720   5.051   7.957  0.5102 -0.6665  0.0360
24055SOL     OW75057   8.878   9.704  10.520  0.2411  0.0590  0.1261
24055SOL    HW175058   8.956   9.659  10.489 -0.4947 -0.8814 -0.4228
24055SOL    HW275059   8.807   9.642  10.505 -1.0426  1.9029 -1.9859
24056SOL     OW75060   5.069   5.981   0.413  0.0292 -0.0576  0.4090
24056SOL    HW175061   5.087   6.075   0.426  0.9655  0.1228 -1.7662
24056SOL    HW275062   5.153   5.939   0.430 -0.0899 -0.3730  0.2114
24057SOL     OW75063   5.470   5.867   1.180  0.5502 -0.5347  0.1545
24057SOL    HW175064   5.487   5.773   1.185 -0.9706 -0.7859  1.5599
24057SOL    HW275065   5.426   5.887   1.263 -0.8289  1.0358 -0.9043
24058SOL     OW75066   5.979   4.362   3.887  0.0323  0.4032 -0.3784
24058SOL    HW175067   5.993   4.277   3.929 -0.3487  0.2521 -0.5550
24058SOL    HW275068   5.936   4.415   3.954 -0.3439  0.2424 -0.4913
24059SOL     OW75069  10.691   3.580  10.318  0.0585  0.4515 -0.1282
24059SOL    HW175070  10.650   3.566  10.403 -2.4738  0.4065 -1.2481
24059SOL    HW275071  10.719   3.493  10.290 -2.1101 -0.1492 -0.6737
24060SOL     OW75072   0.220   1.323   9.577 -0.3899 -0.0056  0.2994
24060SOL    HW175073   0.156   1.306   9.508  0.7404  0.9836 -1.0427
24060SOL    HW275074   0.183   1.395   9.628 -0.3356  0.6035 -0.5090
24061SOL     OW75075   6.979   4.851   0.190 -0.0554 -0.3341 -0.7933
24061SOL    HW175076   6.958   4.910   0.263 -1.5546 -3.1953  1.3092
24061SOL    HW275077   6.900   4.848   0.137 -0.8072 -1.8939  0.3054
24062SOL     OW75078   2.813  10.348   8.209  0.1785 -0.4975  0.5033
24062SOL    HW175079   2.875  10.381   8.274  1.4269 -0.0733 -0.8396
24062SOL    HW275080   2.754  10.292   8.259  0.6468  0.3694  2.1101
24063SOL     OW75081  10.088   6.865   2.162  0.3158  0.0790  0.2046
24063SOL    HW175082  10.142   6.924   2.109  0.2216  0.7838  0.8826
24063SOL    HW275083  10.002   6.867   2.120  0.2635  0.5686  0.3295
24064SOL     OW75084   7.102   7.579   9.725 -0.0481 -0.0008 -0.0082
24064SOL    HW175085   7.070   7.548   9.810 -0.6258  0.7415  0.0522
24064SOL    HW275086   7.046   7.654   9.703  1.0224  0.7393 -0.3443
24065SOL     OW75087   3.984   4.561   7.288 -0.5568  0.1688  0.2097
24065SOL    HW175088   4.048   4.530   7.225 -0.3158  0.2414  0.4186
24065SOL    HW275089   4.027   4.551   7.373 -0.8912  0.0427  0.3658
24066SOL     OW75090   8.161   9.439   9.922 -0.3621 -0.1150  0.1762
24066SOL    HW175091   8.202   9.371   9.869  0.0361  1.3349 -1.4665
24066SOL    HW275092   8.067   9.421   9.916 -0.2219 -1.0070  0.4896
24067SOL     OW75093   3.607   8.573   0.928 -0.2959  0.0312 -0.6281
24067SOL    HW175094   3.549   8.501   0.902 -0.0723  0.0485 -1.1695
24067SOL    HW275095   3.548   8.646   0.946 -0.3901  0.3041 -1.9975
24068SOL     OW75096  10.796   1.525   0.072  0.3545 -0.0180 -0.4849
24068SOL    HW175097  10.779   1.533  -0.022 -1.7188  2.5234 -0.0004
24068SOL    HW275098  10.880   1.568   0.085  0.3646  0.1635 -1.1055
24069SOL     OW75099   0.340   3.891   9.970 -0.7211  0.0749 -0.3818
24069SOL    HW175100   0.304   3.858  10.052 -2.9004 -0.7060 -1.5762
24069SOL    HW275101   0.267   3.889   9.909  1.1949 -0.9294 -2.8102
24070SOL     OW75102   8.610   7.880  10.251  0.1452  0.1200  0.3855
24070SOL    HW175103   8.601   7.927  10.334 -0.8918 -0.3388  0.5524
24070SOL    HW275104   8.610   7.950  10.185 -0.9963  0.4042  0.6546
24071SOL     OW75105   2.232   3.527   1.788 -0.4533  0.6145 -0.6101
24071SOL    HW175106   2.218   3.438   1.756 -2.1327  1.0003 -1.0563
24071SOL    HW275107   2.283   3.569   1.719 -1.0535  0.4426 -1.1706
24072SOL     OW75108   3.415   9.266   8.948 -0.4638  0.0681  0.2435
24072SOL    HW175109   3.478   9.195   8.958 -0.1674  0.1355 -0.9688
24072SOL    HW275110   3.381   9.256   8.859 -2.7860 -0.4422  1.1030
24073SOL     OW75111   0.789   2.896   0.535 -0.1386 -0.0866  0.0386
24073SOL    HW175112   0.699   2.887   0.567  0.0896 -1.3124  0.3896
24073SOL    HW275113   0.823   2.806   0.534  1.5873  0.5082  1.3792
24074SOL     OW75114   2.410   8.195   4.721  0.3412 -0.1248 -0.2733
24074SOL    HW175115   2.384   8.163   4.808 -2.0696 -0.5373 -1.0527
24074SOL    HW275116   2.493   8.152   4.703  0.7630 -0.2191  1.7238
24075SOL     OW75117   5.139  10.707   5.108  0.1200  0.3257  0.0130
24075SOL    HW175118   5.233  10.722   5.114 -0.0784  1.6996 -0.0647
24075SOL    HW275119   5.127  10.618   5.140  1.6818 -0.6795 -1.9995
24076SOL     OW75120   5.124   3.760   7.976  0.0967  0.1570 -0.2405
24076SOL    HW175121   5.168   3.714   8.047  0.8440  1.2377  0.0281
24076SOL    HW275122   5.046   3.799   8.017 -1.4034 -2.0604 -0.7940
24077SOL     OW75123   8.691   1.386   3.677 -0.3262 -0.0852  0.4568
24077SOL    HW175124   8.767   1.418   3.628 -1.6335 -0.4365 -1.9697
24077SOL    HW275125   8.694   1.291   3.667 -1.2820 -0.0759  0.0091
24078SOL     OW75126   7.367   7.212  10.027 -0.6360  0.0960 -0.5342
24078SOL    HW175127   7.428   7.241   9.960  0.2096  0.5634  0.4156
24078SOL    HW275128   7.281   7.217   9.985 -0.2271  1.3684 -1.2571
24079SOL     OW75129   4.435   6.582   0.117  0.1823  0.4374  0.1647
24079SOL    HW175130   4.477   6.578   0.031 -0.4519 -1.5132 -0.1115
24079SOL    HW275131   4.343   6.560   0.099  0.2232 -0.9132  1.4284
24080SOL     OW75132   6.986   3.532   2.438 -0.4294 -0.4661  0.0610
24080SOL    HW175133   7.063   3.588   2.447 -0.5026  0.1204 -2.3675
24080SOL    HW275134   7.020   3.443   2.444  0.0151 -0.2300  1.6334
24081SOL     OW75135   5.945   1.483   3.392  0.7087  0.0694 -0.8199
24081SOL    HW175136   5.976   1.556   3.446  0.6397  1.5401 -2.6513
24081SOL    HW275137   5.867   1.517   3.347 -0.5625 -1.8524 -0.1818
24082SOL     OW75138   6.068   6.314   1.277 -0.1500 -0.1114 -0.8026
24082SOL    HW175139   6.064   6.279   1.366  0.9629 -0.1714 -0.7625
24082SOL    HW275140   6.027   6.400   1.284  1.7809  0.8015  0.2755
24083SOL     OW75141   2.504   5.816   0.547  0.2987 -0.5629  0.8003
24083SOL    HW175142   2.582   5.843   0.498  1.1266 -0.0502  2.3315
24083SOL    HW275143   2.534   5.744   0.603  0.0481  0.5051  2.3720
24084SOL     OW75144   2.359   3.345   0.759 -0.1426  0.7649 -0.3861
24084SOL    HW175145   2.345   3.330   0.853 -0.9619  0.1300 -0.5924
24084SOL    HW275146   2.453   3.336   0.747 -0.0966  0.2591  0.2820
24085SOL     OW75147   8.450   6.855   0.048 -0.4605  0.3561 -0.0432
24085SOL    HW175148   8.434   6.836   0.140 -2.3579 -0.8266 -0.5634
24085SOL    HW275149   8.481   6.946   0.048  0.1251  0.2094  1.7751
24086SOL     OW75150   6.404   3.537   1.165  0.0404 -0.3606  0.1487
24086SOL    HW175151   6.320   3.571   1.132  0.5058  0.0048 -0.6941
24086SOL    HW275152   6.469   3.602   1.137  0.8340 -1.5111 -0.7737
24087SOL     OW75153   9.723   4.610   9.498 -0.5028  0.3432 -0.5632
24087SOL    HW175154   9.779   4.682   9.470  0.7706  0.1256  1.3184
24087SOL    HW275155   9.639   4.651   9.517  0.3634  1.4512  1.0121
24088SOL     OW75156   7.715   2.039   1.135 -0.1894 -0.0375  0.6471
24088SOL    HW175157   7.709   2.122   1.183  1.1286  0.5767 -0.1909
24088SOL    HW275158   7.638   2.039   1.079 -0.6424  0.2176  1.2486
24089SOL     OW75159   9.055   0.636  10.397 -0.8301  0.2441 -0.1480
24089SOL    HW175160   9.127   0.696  10.378  2.3737 -3.0217  0.4979
24089SOL    HW275161   9.052   0.578  10.321 -1.4427 -0.9021  0.7265
24090SOL     OW75162   2.981   8.484   1.637  0.1125 -0.3537  0.3658
24090SOL    HW175163   3.051   8.543   1.607 -1.2975  0.0912 -2.3873
24090SOL    HW275164   3.022   8.397   1.637  1.0705  0.0790  0.3083
24091SOL     OW75165  10.519   1.659   9.190  0.2178  0.2508 -0.5450
24091SOL    HW175166  10.424   1.651   9.182 -0.0676  2.0732  0.3858
24091SOL    HW275167  10.554   1.601   9.123 -1.5718  0.5857 -1.8494
24092SOL     OW75168   5.707   0.988   4.751 -0.2170 -0.1575 -0.0920
24092SOL    HW175169   5.630   1.044   4.763  1.5870  2.0728  2.1300
24092SOL    HW275170   5.761   1.037   4.689  0.4786 -0.5030  0.2430
24093SOL     OW75171   0.355   6.052   7.316  0.1501  0.4709 -0.3437
24093SOL    HW175172   0.379   6.007   7.397 -1.2518  1.4500  0.6565
24093SOL    HW275173   0.312   6.132   7.345 -2.1934 -0.0844 -2.0428
24094SOL     OW75174   7.210   4.560  10.146 -0.1028 -0.1416  0.1612
24094SOL    HW175175   7.272   4.510  10.197  0.6769 -0.3080 -0.9164
24094SOL    HW275176   7.154   4.603  10.211  1.6518  0.6843  1.1986
24095SOL     OW75177   9.237   7.332   5.086 -0.5702  0.1221  0.3497
24095SOL    HW175178   9.247   7.427   5.097  0.7194 -0.0796  1.0750
24095SOL    HW275179   9.286   7.312   5.006 -2.8126  0.3671 -1.1639
24096SOL     OW75180   4.401   3.299   9.721 -0.4276  0.5177 -0.0034
24096SOL    HW175181   4.402   3.219   9.668  1.2585 -0.1812  0.9974
24096SOL    HW275182   4.310   3.308   9.749 -0.6037 -1.2154  0.0730
24097SOL     OW75183   2.347  10.790   0.120 -0.0999  0.5917 -0.1804
24097SOL    HW175184   2.312  10.703   0.100 -0.8235  0.3107  1.9529
24097SOL    HW275185   2.313  10.847   0.051 -4.0400  0.1145  1.0847
24098SOL     OW75186   4.326   4.922  10.358 -0.5155  0.2959 -0.0544
24098SOL    HW175187   4.395   4.864  10.389  1.5753  1.3281 -2.3809
24098SOL    HW275188   4.297   4.969  10.436  0.6489 -0.9352  1.1817
24099SOL     OW75189   6.890   7.383   6.208 -0.0832 -0.4348 -0.5071
24099SOL    HW175190   6.922   7.344   6.127 -1.1411  1.3132 -1.8357
24099SOL    HW275191   6.850   7.466   6.181 -0.6689  0.1062  1.7807
24100SOL     OW75192   8.636   9.470   0.687 -0.2075 -0.1510 -0.3605
24100SOL    HW175193   8.690   9.547   0.673 -1.4594  0.8374  0.1138
24100SOL    HW275194   8.687   9.398   0.651  1.8426  0.5963  0.9071
24101SOL     OW75195   9.286   3.811   2.030 -0.0294  0.0012 -0.3029
24101SOL    HW175196   9.263   3.727   2.069  2.7475 -2.2956 -3.0621
24101SOL    HW275197   9.299   3.792   1.937  1.5337  3.3159 -0.9325
24102SOL     OW75198   3.472   8.409   8.560 -0.0397 -0.2539 -0.2547
24102SOL    HW175199   3.476   8.329   8.614 -1.6273  0.0851  0.4323
24102SOL    HW275200   3.485   8.378   8.471  2.0474 -0.9193  0.2319
24103SOL     OW75201   4.186   4.496   1.703 -0.6028 -0.3189  0.0028
24103SOL    HW175202   4.122   4.521   1.770 -0.5745 -2.3850  0.8665
24103SOL    HW275203   4.174   4.402   1.693  0.0437 -0.2054 -2.2532
24104SOL     OW75204   3.535   4.935   7.490 -0.1062  0.1442 -0.1062
24104SOL    HW175205   3.506   4.844   7.478 -1.7107  0.7480 -1.2085
24104SOL    HW275206   3.615   4.942   7.439 -1.0374 -0.1850 -1.6963
24105SOL     OW75207   3.755   6.522   7.319 -0.3572 -0.8271 -0.3447
24105SOL    HW175208   3.801   6.510   7.402 -0.2588 -0.4625 -0.3455
24105SOL    HW275209   3.689   6.588   7.337  0.2478 -0.0842 -0.7733
24106SOL     OW75210   3.869   5.409   7.625  0.2230 -0.0312  0.2536
24106SOL    HW175211   3.862   5.452   7.540 -0.8769 -1.5470 -0.4705
24106SOL    HW275212   3.811   5.460   7.682  0.3797  0.5455 -0.0944
24107SOL     OW75213   6.304   5.833  10.125 -0.8221 -0.0433  0.3494
24107SOL    HW175214   6.328   5.780  10.049  0.6972  0.1745  0.6403
24107SOL    HW275215   6.362   5.803  10.195 -1.9155  0.0346  1.3384
24108SOL     OW75216   5.306   6.375   6.767 -0.2600  0.1220  0.0485
24108SOL    HW175217   5.356   6.299   6.738  0.9929  0.5239  1.0497
24108SOL    HW275218   5.257   6.403   6.690  0.5884 -0.6712 -0.8005
24109SOL     OW75219   1.775   5.503   4.334  0.5322  0.0280  0.9914
24109SOL    HW175220   1.720   5.523   4.410  0.9192 -0.4050  1.3895
24109SOL    HW275221   1.847   5.566   4.340  0.0233  0.6861  0.3939
24110SOL     OW75222   7.129  10.290   6.785 -0.0551  0.3059 -0.2303
24110SOL    HW175223   7.146  10.231   6.859 -0.6321  0.7251  0.2471
24110SOL    HW275224   7.212  10.334   6.770  0.0769  0.1918  0.1533
24111SOL     OW75225   1.193   7.592   7.010  0.3218  1.0479 -0.6007
24111SOL    HW175226   1.154   7.544   6.938  1.9667  1.0543 -1.5408
24111SOL    HW275227   1.220   7.525   7.073 -0.3927  0.9883 -0.3555
24112SOL     OW75228   3.792   3.622   2.504 -0.0727 -0.0363  0.0767
24112SOL    HW175229   3.821   3.558   2.439  0.9623  2.0791 -1.7217
24112SOL    HW275230   3.867   3.634   2.561 -0.2104 -0.2966  0.3148
24113SOL     OW75231   7.661   6.040   3.179  0.1818  0.5385 -0.0946
24113SOL    HW175232   7.705   6.106   3.232  2.7542 -0.1213 -1.2503
24113SOL    HW275233   7.707   6.042   3.095 -0.7219 -1.6031 -0.7199
24114SOL     OW75234   9.131   9.785   8.720 -0.2927  0.2553  0.0606
24114SOL    HW175235   9.036   9.779   8.724 -0.3014  0.9211  1.1687
24114SOL    HW275236   9.161   9.701   8.755 -0.4489 -0.7431 -2.0671
24115SOL     OW75237   7.142   2.812   0.789  0.3585 -0.4848 -0.0417
24115SOL    HW175238   7.077   2.821   0.720 -0.5024 -1.4040  0.6051
24115SOL    HW275239   7.160   2.718   0.792  0.7776 -0.3887  0.6193
24116SOL     OW75240   2.763   1.346   7.934 -0.0545 -0.6019  0.1997
24116SOL    HW175241   2.737   1.364   7.843  3.4323  1.0800 -0.6400
24116SOL    HW275242   2.746   1.252   7.945  1.1207 -1.3056 -2.8962
24117SOL     OW75243   7.053   5.030   3.525  0.7498 -0.3708 -0.7260
24117SOL    HW175244   7.042   5.031   3.620  0.8111  0.1502 -0.7166
24117SOL    HW275245   7.146   5.050   3.512  0.5991  0.2441 -0.9042
24118SOL     OW75246   0.112   7.352   0.858  0.0959  0.6466 -0.3694
24118SOL    HW175247   0.125   7.308   0.774  0.6063 -2.0090  0.9960
24118SOL    HW275248   0.027   7.394   0.850 -1.5950 -2.5782 -1.0961
24119SOL     OW75249  10.595   8.942   9.295  0.0812  0.5464  0.4408
24119SOL    HW175250  10.515   8.917   9.250 -2.3355  0.9116  4.1546
24119SOL    HW275251  10.630   8.861   9.331 -0.6118  0.7852  1.7116
24120SOL     OW75252   8.513   0.498   5.087 -0.1110 -0.0078 -0.1556
24120SOL    HW175253   8.599   0.539   5.094  0.3795 -0.6448 -1.9002
24120SOL    HW275254   8.457   0.565   5.049 -0.4944  0.5112  1.2729
24121SOL     OW75255   9.819   3.988   3.498  0.1198 -0.0558 -0.5134
24121SOL    HW175256   9.794   3.925   3.431  1.2731  0.6550 -1.6420
24121SOL    HW275257   9.812   4.073   3.455 -0.7231  0.5623  0.7719
24122SOL     OW75258   7.806  10.617   5.859  0.8477  0.3742  0.4386
24122SOL    HW175259   7.716  10.585   5.849  0.0154  2.3021  1.2557
24122SOL    HW275260   7.813  10.689   5.797  1.5217  0.8525  1.0631
24123SOL     OW75261   5.830   0.511   4.782 -0.0330  0.3003 -0.5497
24123SOL    HW175262   5.758   0.558   4.739  1.3137  2.6799 -0.4009
24123SOL    HW275263   5.793   0.480   4.864 -0.6320  2.5870  0.1206
24124SOL     OW75264   6.069   2.444   2.604  0.3599 -0.1787 -0.1240
24124SOL    HW175265   6.129   2.411   2.670 -0.1957 -1.1114 -0.0671
24124SOL    HW275266   6.124   2.466   2.529  0.8558 -0.2404  0.2226
24125SOL     OW75267  10.152   6.737   8.208  0.5515 -0.2517 -0.2366
24125SOL    HW175268  10.231   6.695   8.241  0.3440  0.2065  0.8833
24125SOL    HW275269  10.132   6.691   8.126  1.9497 -0.3850 -0.5169
24126SOL     OW75270   4.056  10.095   3.372  0.0469  0.1058  0.3253
24126SOL    HW175271   3.998  10.036   3.325  1.2614 -0.1816 -0.8807
24126SOL    HW275272   4.118  10.038   3.417  1.5172  0.3992 -1.2167
24127SOL     OW75273   3.211  10.357   2.430 -0.1751  0.1512  0.1176
24127SOL    HW175274   3.294  10.325   2.465 -0.5421  0.5047  1.3469
24127SOL    HW275275   3.192  10.436   2.480 -2.0828 -0.8414  1.0500
24128SOL     OW75276   1.333   5.875   9.525  0.3304  0.4289 -0.2830
24128SOL    HW175277   1.427   5.870   9.539  0.0795 -1.9024  1.0370
24128SOL    HW275278   1.300   5.788   9.547 -2.3008  1.5382  0.7082
24129SOL     OW75279   3.696   7.584  10.565 -0.0861  0.2206  0.6993
24129SOL    HW175280   3.717   7.509  10.620  0.9212 -0.1069 -0.0834
24129SOL    HW275281   3.762   7.650  10.588  0.7320 -0.1386 -0.4970
24130SOL     OW75282   8.479   3.090   0.035  0.1270  0.2372  0.7701
24130SOL    HW175283   8.559   3.072   0.084  0.4687  0.4710  0.3038
24130SOL    HW275284   8.456   3.006  -0.005  1.3309  0.6371 -0.8340
24131SOL     OW75285  10.173   1.946   6.926  0.5108 -0.0317  0.3908
24131SOL    HW175286  10.161   2.034   6.888 -0.9262 -0.8604 -1.2051
24131SOL    HW275287  10.226   1.900   6.862 -0.4906 -0.9387  0.1854
24132SOL     OW75288   9.128   6.669   7.705 -0.3796  1.0470  0.1406
24132SOL    HW175289   9.141   6.750   7.656 -0.7443  0.1561 -1.4946
24132SOL    HW275290   9.033   6.657   7.706 -0.3042  0.4196 -0.0104
24133SOL     OW75291   1.313   1.243   4.446 -0.1515  0.4397 -0.1791
24133SOL    HW175292   1.393   1.190   4.447 -0.3471  0.0188 -2.4875
24133SOL    HW275293   1.342   1.330   4.474  0.4408 -0.4445  2.2787
24134SOL     OW75294   7.077   5.100   2.037  0.2544  0.4635  0.1386
24134SOL    HW175295   6.991   5.061   2.022 -0.4211  1.5533  1.0123
24134SOL    HW275296   7.135   5.025   2.052 -0.4787 -0.2954 -0.7363
24135SOL     OW75297   4.061   6.362  10.577  0.6780 -0.2392 -0.2400
24135SOL    HW175298   4.027   6.434  10.525  0.8533 -1.0774 -1.5705
24135SOL    HW275299   4.002   6.289  10.559  1.1054 -0.7207  0.2536
24136SOL     OW75300   8.594   5.349   3.569  0.3336  0.2744 -0.2119
24136SOL    HW175301   8.677   5.334   3.614  1.3666 -0.0871 -2.1248
24136SOL    HW275302   8.561   5.431   3.605  1.1689  0.0596  1.0828
24137SOL     OW75303   8.862  10.314   2.435 -0.3699 -0.0796 -0.0953
24137SOL    HW175304   8.939  10.369   2.420 -0.9782  0.1430 -2.8374
24137SOL    HW275305   8.794  10.351   2.379 -2.4225 -0.5242  1.9176
24138SOL     OW75306   7.344   7.948   1.672  0.1093  0.5464  0.0785
24138SOL    HW175307   7.425   7.917   1.712 -0.0196  0.2250  0.0979
24138SOL    HW275308   7.319   7.878   1.611 -0.8050  0.0402  0.9771
24139SOL     OW75309   4.386   2.702   4.348 -0.3221 -0.1935  0.2529
24139SOL    HW175310   4.460   2.659   4.391 -0.1674  0.9829  1.1976
24139SOL    HW275311   4.352   2.762   4.414 -0.4434  1.2357 -1.0635
24140SOL     OW75312   9.657   7.044   6.224 -0.5323  0.1607 -0.2842
24140SOL    HW175313   9.602   7.122   6.232  0.3955  0.6908  1.5341
24140SOL    HW275314   9.662   7.008   6.313  0.6727 -0.8338 -0.7132
24141SOL     OW75315   5.080   3.276   6.324 -0.0334 -0.8214  0.1106
24141SOL    HW175316   5.172   3.267   6.350 -0.3970 -2.5786  0.9219
24141SOL    HW275317   5.073   3.222   6.244 -0.2130 -0.1162 -0.3558
24142SOL     OW75318  10.638   5.674   3.043 -0.2184  0.1613  0.6332
24142SOL    HW175319  10.558   5.623   3.027  0.6426 -0.4501 -2.2296
24142SOL    HW275320  10.697   5.612   3.087 -0.4462 -0.1695  0.4776
24143SOL     OW75321   3.212   3.355   0.312 -0.0566  0.0350 -0.4792
24143SOL    HW175322   3.284   3.406   0.274  0.3646  1.8908  2.4850
24143SOL    HW275323   3.253   3.273   0.339  1.4265  1.5106  2.2226
24144SOL     OW75324   8.218   0.050   9.950 -0.1747  0.3028 -0.8629
24144SOL    HW175325   8.291   0.109   9.970  0.0876 -0.2150 -0.2857
24144SOL    HW275326   8.256  -0.037   9.951 -0.7562  0.0468 -0.7829
24145SOL     OW75327   8.480   5.894   1.298 -0.3161  0.0244  0.1403
24145SOL    HW175328   8.400   5.945   1.307 -0.4185 -0.1419  0.1716
24145SOL    HW275329   8.501   5.867   1.388 -0.7962 -0.8075  0.0110
24146SOL     OW75330   3.659   7.456   4.529  0.1209  0.4028  0.4584
24146SOL    HW175331   3.750   7.482   4.512  0.1345  1.6237  2.1854
24146SOL    HW275332   3.613   7.539   4.543 -0.2008 -0.2767  4.5261
24147SOL     OW75333   9.364   3.785   1.213 -0.0341 -0.2043 -0.0549
24147SOL    HW175334   9.324   3.755   1.132  1.4825 -1.3528 -0.4404
24147SOL    HW275335   9.393   3.704   1.256 -0.9244  0.3652  1.7242
24148SOL     OW75336   6.565   6.209   6.014 -0.1451  0.2351  0.5646
24148SOL    HW175337   6.647   6.260   6.013 -0.5631  0.9219  0.4053
24148SOL    HW275338   6.590   6.124   6.051  1.3645 -0.8064 -2.5094
24149SOL     OW75339   5.660   7.386   8.899  0.2868  0.6334 -0.1334
24149SOL    HW175340   5.697   7.451   8.959 -1.5017  2.2956 -0.7421
24149SOL    HW275341   5.651   7.432   8.816  1.5353 -1.2633 -1.4065
24150SOL     OW75342   0.313   3.953   1.554 -0.2479 -0.7175  0.9037
24150SOL    HW175343   0.388   3.953   1.494 -0.9589 -0.4922 -0.0164
24150SOL    HW275344   0.267   4.035   1.536 -1.0606 -1.1356  0.9902
24151SOL     OW75345   5.067   3.234   4.005 -0.3121  0.2327  0.5621
24151SOL    HW175346   5.036   3.324   4.008 -1.2095 -0.0438 -0.0957
24151SOL    HW275347   5.158   3.241   3.975 -0.6816  0.8579 -0.4553
24152SOL     OW75348   0.107   0.722   8.465  0.5761 -0.2588 -0.1428
24152SOL    HW175349   0.080   0.634   8.487 -1.4090  0.6392  1.2883
24152SOL    HW275350   0.027   0.775   8.472  1.2453  1.3334 -2.9625
24153SOL     OW75351   4.714   3.841   2.353 -0.1312  0.0433  0.3541
24153SOL    HW175352   4.763   3.909   2.399  1.2518 -0.5583 -0.1583
24153SOL    HW275353   4.775   3.767   2.349 -1.3028 -0.9296  0.1695
24154SOL     OW75354   7.439  10.685   1.524 -0.0354 -0.2127  0.3665
24154SOL    HW175355   7.488  10.658   1.602  1.3340  0.9016 -0.0635
24154SOL    HW275356   7.396  10.766   1.549 -0.1002 -0.1837  0.1635
24155SOL     OW75357   9.984   2.034   2.676  0.3226  0.1521 -0.0183
24155SOL    HW175358  10.023   2.120   2.688  1.8343 -0.5066  0.1663
24155SOL    HW275359   9.892   2.050   2.657  1.1771  1.9888 -3.3034
24156SOL     OW75360   9.694   2.064   2.635  0.0245 -0.0050  0.5875
24156SOL    HW175361   9.664   2.079   2.725  0.9078  1.0810  0.7219
24156SOL    HW275362   9.626   2.009   2.597 -0.1647 -0.8314  2.0386
24157SOL     OW75363   2.254   0.757   3.099 -0.4017  0.0613  0.3242
24157SOL    HW175364   2.327   0.813   3.073 -0.6369  0.0524 -0.3851
24157SOL    HW275365   2.224   0.794   3.181  1.5696 -1.0625  1.6229
24158SOL     OW75366   0.659   9.392   3.241 -0.0771 -0.1470  0.4280
24158SOL    HW175367   0.644   9.383   3.147  0.3738 -1.5380  0.4617
24158SOL    HW275368   0.572   9.394   3.279 -0.2607  0.2812  0.0007
24159SOL     OW75369   1.479   8.362   1.281 -0.8034  0.0810 -0.1149
24159SOL    HW175370   1.553   8.374   1.342 -1.7532  2.0384  0.7357
24159SOL    HW275371   1.419   8.433   1.302 -2.0666 -0.3235 -2.1012
24160SOL     OW75372   7.993   2.097   5.084 -0.0954 -0.3133  0.4500
24160SOL    HW175373   7.974   2.041   5.009  0.6480 -0.9038  0.6958
24160SOL    HW275374   8.033   2.039   5.148  0.5877  0.4813  0.7584
24161SOL     OW75375   1.154   9.841   3.789  0.0208  0.6439  0.4291
24161SOL    HW175376   1.214   9.916   3.797 -0.7254  1.3027 -0.0392
24161SOL    HW275377   1.178   9.800   3.706  0.2121  0.5599  0.5258
24162SOL     OW75378   0.462   3.336   7.177  0.1016 -0.1496 -0.2535
24162SOL    HW175379   0.412   3.306   7.252  1.9239 -1.8998  0.3265
24162SOL    HW275380   0.412   3.307   7.101 -1.0769  0.4654  0.2731
24163SOL     OW75381   8.579   9.999   6.020  0.5123  0.0151  0.3728
24163SOL    HW175382   8.529   9.919   6.037  0.3966  0.0821  0.3496
24163SOL    HW275383   8.621  10.019   6.104  1.5635 -0.7663  0.0548
24164SOL     OW75384   4.142  10.735   7.374  0.5331 -0.2997  0.4893
24164SOL    HW175385   4.131  10.723   7.468 -1.5976 -0.2734  0.2946
24164SOL    HW275386   4.227  10.695   7.354  0.7031 -0.9228  2.2960
24165SOL     OW75387   8.281   1.670   2.670  0.5287  0.3894  0.1430
24165SOL    HW175388   8.302   1.742   2.612  1.2233 -0.0585 -0.1718
24165SOL    HW275389   8.186   1.674   2.680  0.7065  2.3206  1.4325
24166SOL     OW75390   3.051   4.216   9.455  0.6254 -0.0979 -0.2562
24166SOL    HW175391   2.973   4.190   9.406  1.4701  1.0014 -2.3148
24166SOL    HW275392   3.123   4.207   9.392  2.0029 -0.0275  1.2565
24167SOL     OW75393   5.044   6.755   0.739 -0.5908  0.0747  0.0802
24167SOL    HW175394   5.081   6.696   0.674  0.1045  0.8946 -0.2820
24167SOL    HW275395   5.095   6.835   0.731 -0.3059  0.1105  1.8235
24168SOL     OW75396   7.058   1.632   0.500 -0.0487 -0.0443  0.3539
24168SOL    HW175397   7.092   1.679   0.423  0.9223 -1.4199 -0.1002
24168SOL    HW275398   6.972   1.670   0.515 -0.3629  0.1178 -1.5654
24169SOL     OW75399   7.885   6.450   4.240 -0.4183 -0.2885 -0.2355
24169SOL    HW175400   7.807   6.394   4.237 -0.0303 -0.7931 -1.0747
24169SOL    HW275401   7.920   6.449   4.151  0.2914  0.3031  0.0238
24170SOL     OW75402   7.960   5.354   9.526  0.3904  0.5384  0.1637
24170SOL    HW175403   7.916   5.358   9.440 -0.7452 -0.8998  0.6260
24170SOL    HW275404   7.955   5.443   9.560 -1.3621  0.6345 -0.2371
24171SOL     OW75405   4.571   7.878  10.389  0.2405  0.0663  0.1129
24171SOL    HW175406   4.500   7.917  10.338 -0.5240 -0.5368  0.6941
24171SOL    HW275407   4.533   7.866  10.477  2.1714  3.1621  1.5526
24172SOL     OW75408   2.519   2.036   5.172 -0.2617 -0.3432 -0.0939
24172SOL    HW175409   2.594   1.983   5.199 -0.1345  0.3523  1.0246
24172SOL    HW275410   2.483   2.070   5.255 -1.3255 -0.0189 -0.6654
24173SOL     OW75411   1.096   1.432   6.241 -0.3106 -0.3116 -0.6486
24173SOL    HW175412   1.053   1.478   6.169  0.8813  1.6850 -0.1453
24173SOL    HW275413   1.029   1.423   6.308 -0.1615  2.4400 -0.0128
24174SOL     OW75414  10.563   3.224   5.684  0.4260  0.4642 -0.0319
24174SOL    HW175415  10.585   3.249   5.774  0.5969  0.3735 -0.0487
24174SOL    HW275416  10.572   3.304   5.634  1.1285  0.3408 -0.1144
24175SOL     OW75417   9.397   9.795   4.301 -0.4731 -0.6299  0.1420
24175SOL    HW175418   9.489   9.815   4.280 -0.0102 -2.9610 -0.3397
24175SOL    HW275419   9.361   9.763   4.218 -1.5526 -0.3955  0.5100
24176SOL     OW75420   3.085   7.942   3.617  0.0590 -0.3641  0.2507
24176SOL    HW175421   3.130   8.026   3.606 -2.7380  1.3049  0.6643
24176SOL    HW275422   3.091   7.924   3.711  1.6795 -1.3110  0.0043
24177SOL     OW75423   6.070   6.180  10.127 -0.0352  0.1083 -0.2641
24177SOL    HW175424   6.096   6.130  10.204  0.1883  1.8458  0.8287
24177SOL    HW275425   6.142   6.169  10.065 -0.4919 -1.8070 -0.5357
24178SOL     OW75426   6.970   1.051   2.723 -0.0472 -0.1440 -0.0331
24178SOL    HW175427   6.988   0.960   2.701  2.3359  0.5576 -1.2641
24178SOL    HW275428   7.053   1.085   2.756 -0.5757  1.8606 -0.6149
24179SOL     OW75429   1.707   7.756   0.251  0.1690  0.0093  0.2455
24179SOL    HW175430   1.675   7.675   0.290 -0.6036  0.3574  0.3440
24179SOL    HW275431   1.802   7.746   0.250  0.1862 -0.2020  1.7888
24180SOL     OW75432   1.662   5.773   5.938 -0.2960  0.5688 -0.2215
24180SOL    HW175433   1.709   5.826   6.003  0.9273  2.3476 -2.4078
24180SOL    HW275434   1.573   5.808   5.939 -0.3504  0.4318  0.6135
24181SOL     OW75435   2.853   9.526  10.444  0.1709 -0.7140 -0.0925
24181SOL    HW175436   2.821   9.516  10.534 -1.6587 -0.4418 -0.6823
24181SOL    HW275437   2.865   9.620  10.432  1.0130 -0.7928  0.0365
24182SOL     OW75438   6.498   6.948   0.006  0.3392 -0.5549 -0.1243
24182SOL    HW175439   6.562   6.988  -0.053  1.0627  1.3601  1.7927
24182SOL    HW275440   6.551   6.905   0.073 -0.3607 -0.1368  0.7285
24183SOL     OW75441   1.717   3.155   5.176  0.4921  0.0229  0.1818
24183SOL    HW175442   1.707   3.062   5.193  0.1425  0.1485  0.6730
24183SOL    HW275443   1.662   3.172   5.099  1.8126 -0.4786 -0.9159
24184SOL     OW75444   6.473   2.963   3.748 -0.0250  0.0970  0.0382
24184SOL    HW175445   6.514   2.888   3.792 -0.5351  0.2005  0.7021
24184SOL    HW275446   6.521   3.039   3.782  0.6742  0.0591 -0.8416
24185SOL     OW75447   0.314   1.646   9.397  0.4190  0.0645  0.3212
24185SOL    HW175448   0.235   1.672   9.444  0.0734 -0.0883 -0.1826
24185SOL    HW275449   0.354   1.729   9.370 -0.8335  0.0954 -1.5388
24186SOL     OW75450   5.661   5.037   7.249  0.1841 -0.0629 -0.4440
24186SOL    HW175451   5.622   5.122   7.231  0.7458  0.3004  0.0142
24186SOL    HW275452   5.609   4.975   7.198 -2.1270  0.1592  1.4524
24187SOL     OW75453   0.484   9.103   8.649  0.2033 -0.6846 -0.1243
24187SOL    HW175454   0.436   9.159   8.709 -0.8556 -0.9328 -0.7145
24187SOL    HW275455   0.420   9.080   8.581  0.9891 -1.5114 -0.6088
24188SOL     OW75456  10.605   6.597   3.159 -0.1620  0.0251  0.0589
24188SOL    HW175457  10.632   6.524   3.104  0.3200  0.7640 -0.6961
24188SOL    HW275458  10.676   6.661   3.152 -0.6950  0.6824  0.5067
24189SOL     OW75459   7.690   5.659   4.424  0.1587  0.0609  0.1006
24189SOL    HW175460   7.701   5.711   4.504  0.6860  1.3593 -0.7894
24189SOL    HW275461   7.720   5.572   4.448  0.4010  0.4520  1.2925
24190SOL     OW75462   8.459   2.884   3.792 -0.0972 -0.4416 -0.0888
24190SOL    HW175463   8.468   2.963   3.846 -1.3259 -0.7671  0.6287
24190SOL    HW275464   8.394   2.907   3.727  2.1264  0.3045 -2.2017
24191SOL     OW75465   0.185   0.390   1.883 -0.2783  0.0666 -0.0415
24191SOL    HW175466   0.193   0.317   1.944 -2.4599  0.8282  1.2868
24191SOL    HW275467   0.108   0.368   1.829  0.6018  0.1974 -1.3943
24192SOL     OW75468   0.913   5.126   2.500 -0.7618  0.9547 -0.1526
24192SOL    HW175469   0.905   5.128   2.595 -0.4485  0.8728 -0.1241
24192SOL    HW275470   0.961   5.046   2.481 -1.1702  0.7670 -0.4089
24193SOL     OW75471   3.869   2.163   1.281 -0.4583 -0.2662 -0.5932
24193SOL    HW175472   3.944   2.104   1.285 -1.0165 -0.9315  0.4420
24193SOL    HW275473   3.855   2.176   1.187  0.3024 -0.9666 -0.8214
24194SOL     OW75474   1.765   9.690   3.903 -0.3690 -0.0651 -0.2926
24194SOL    HW175475   1.851   9.731   3.908  1.0597 -2.5045 -2.4147
24194SOL    HW275476   1.782   9.596   3.915 -2.1350 -1.0382 -3.9406
24195SOL     OW75477   5.069   6.450   0.408  0.2575  0.3673 -0.0956
24195SOL    HW175478   4.999   6.392   0.438 -0.7635  0.6569 -1.7952
24195SOL    HW275479   5.123   6.394   0.352  1.3261  0.1900  1.0712
24196SOL     OW75480   6.052   8.474   6.342  0.1940  0.6448  0.1886
24196SOL    HW175481   6.105   8.454   6.419 -0.1729  0.8689  0.5022
24196SOL    HW275482   5.962   8.471   6.374 -0.0051 -0.1833 -0.4436
24197SOL     OW75483   5.954   1.368   9.186 -0.0323  0.2292 -0.4858
24197SOL    HW175484   5.873   1.344   9.142 -1.2943  0.3947  1.6410
24197SOL    HW275485   5.948   1.463   9.197 -0.7074 -0.0156  1.7292
24198SOL     OW75486   2.033   3.274   8.334  0.9413  0.1702  0.3889
24198SOL    HW175487   2.089   3.348   8.357  1.2046  0.4968 -1.1839
24198SOL    HW275488   2.084   3.225   8.269 -0.1127 -0.2038 -0.1713
24199SOL     OW75489   6.490  10.778   0.047 -0.1957 -0.2516 -0.0009
24199SOL    HW175490   6.401  10.754   0.073 -0.5493  1.7362  0.8452
24199SOL    HW275491   6.494  10.873   0.062  1.8047 -0.1612 -0.8201
24200SOL     OW75492  10.098  10.685   0.219  0.6542  0.2295 -0.1160
24200SOL    HW175493  10.160  10.675   0.291  1.7483 -2.9167 -1.3172
24200SOL    HW275494  10.137  10.751   0.161  0.1087  2.2646  1.6991
24201SOL     OW75495   7.881   3.224   9.866  0.2164  0.6545  0.3535
24201SOL    HW175496   7.918   3.274   9.939 -0.4978  0.1700  1.0589
24201SOL    HW275497   7.820   3.163   9.907  2.2228 -1.9864 -0.2941
24202SOL     OW75498   4.768   5.552   4.751  0.1347  0.3254 -0.1420
24202SOL    HW175499   4.830   5.541   4.824 -1.2290 -0.7889  0.9159
24202SOL    HW275500   4.776   5.471   4.701  0.6306  0.8367 -0.9046
24203SOL     OW75501  10.432   8.207  10.331  0.4739  0.4077  0.0057
24203SOL    HW175502  10.508   8.265  10.340  0.3421  0.6003 -0.1268
24203SOL    HW275503  10.465   8.133  10.280  0.2438  1.0988 -1.1928
24204SOL     OW75504   9.812   2.059   3.732  0.2310  0.2791  0.3238
24204SOL    HW175505   9.838   2.045   3.823  0.4606 -0.4238  0.1513
24204SOL    HW275506   9.837   1.979   3.687 -0.2946  0.4436 -0.2718
24205SOL     OW75507   2.946   4.594   3.628 -0.1128  0.3234  0.2941
24205SOL    HW175508   2.957   4.528   3.697  1.6166  0.8744  0.6082
24205SOL    HW275509   2.925   4.544   3.550  0.8653 -0.5987  0.5949
24206SOL     OW75510   6.155   6.082   3.888  0.1341 -0.0130  0.5901
24206SOL    HW175511   6.203   6.009   3.850  2.3896  0.8381  1.5844
24206SOL    HW275512   6.098   6.042   3.954  0.6610 -0.9640  0.4894
24207SOL     OW75513   0.948   3.575   2.869 -0.3184 -0.5381  0.3691
24207SOL    HW175514   0.933   3.491   2.824  0.4617 -0.2952 -0.3766
24207SOL    HW275515   1.041   3.574   2.892  0.3885  1.1875 -2.0066
24208SOL     OW75516   7.458   2.826   8.815 -0.1651 -0.2509  0.2941
24208SOL    HW175517   7.370   2.861   8.807 -0.5978 -0.5020  2.9664
24208SOL    HW275518   7.513   2.904   8.827  0.2052 -0.0171 -2.4248
24209SOL     OW75519   8.056   2.735   9.779  0.0808 -0.0155 -0.2006
24209SOL    HW175520   8.016   2.744   9.693 -1.1645 -3.3614 -0.1277
24209SOL    HW275521   8.124   2.670   9.768  1.6868  1.3901  0.9020
24210SOL     OW75522   0.641   9.297   2.588  0.2026 -0.2463 -0.4442
24210SOL    HW175523   0.634   9.231   2.656  0.6418  0.2110  0.0616
24210SOL    HW275524   0.735   9.300   2.568  0.2814  0.6872  0.0193
24211SOL     OW75525   5.782   7.804   8.039  0.3108 -0.3442  0.1144
24211SOL    HW175526   5.762   7.839   8.126 -0.5712 -0.1839 -0.1434
24211SOL    HW275527   5.804   7.882   7.987  2.5489 -0.5824  0.6062
24212SOL     OW75528   7.241   3.490   3.924  0.2898  0.3962 -0.1480
24212SOL    HW175529   7.307   3.469   3.991 -1.5552 -0.2150  1.5829
24212SOL    HW275530   7.230   3.584   3.930  0.0382  0.3270  0.5240
24213SOL     OW75531   7.267   6.945   4.264 -0.1623  0.6247  0.1323
24213SOL    HW175532   7.181   6.981   4.242  1.3610  2.8204 -3.1711
24213SOL    HW275533   7.298   6.905   4.182  2.3023  0.6932  0.9444
24214SOL     OW75534   4.960   1.712   8.911  0.2610 -0.0017  1.0325
24214SOL    HW175535   4.992   1.785   8.964  0.5346  0.5747  0.0949
24214SOL    HW275536   4.888   1.749   8.861  2.1793  0.4819 -1.5866
24215SOL     OW75537   5.473   3.477   6.212  0.2614  0.2907 -0.1048
24215SOL    HW175538   5.387   3.521   6.211  0.9104  1.6402  0.4708
24215SOL    HW275539   5.506   3.491   6.300 -0.8219 -4.1897  1.2252
24216SOL     OW75540   1.195   2.765   4.279 -0.5433  0.3876 -0.1202
24216SOL    HW175541   1.121   2.747   4.221 -1.1600 -0.7075  0.9706
24216SOL    HW275542   1.154   2.796   4.360  0.2079  0.0071  0.4068
24217SOL     OW75543  10.431   0.935  10.628  0.1265  0.3893  0.0801
24217SOL    HW175544  10.452   1.003  10.564  2.0514 -1.4292 -1.3565
24217SOL    HW275545  10.510   0.880  10.632 -0.8467 -0.9960  2.1934
24218SOL     OW75546   5.485   4.869   7.076 -0.0425  0.1599  0.4173
24218SOL    HW175547   5.461   4.900   6.988 -0.6292  1.6553  1.0669
24218SOL    HW275548   5.420   4.909   7.134  0.2954 -0.8643  1.5396
24219SOL     OW75549   6.500  10.177   7.403  0.2115 -0.2891 -0.0178
24219SOL    HW175550   6.494  10.119   7.327 -0.7748 -0.6242  0.2944
24219SOL    HW275551   6.569  10.139   7.457  0.1854 -0.6604 -0.2422
24220SOL     OW75552  10.374   5.497   2.650  0.1982 -0.1778 -0.1696
24220SOL    HW175553  10.405   5.429   2.710  2.8120 -0.1784 -1.3806
24220SOL    HW275554  10.415   5.476   2.566  0.0274  2.1375 -0.9049
24221SOL     OW75555   9.834   8.373   0.882  0.0164 -0.2793 -0.1842
24221SOL    HW175556   9.797   8.331   0.960 -1.2361 -1.7224 -1.4779
24221SOL    HW275557   9.770   8.439   0.858 -0.2265 -0.6782 -0.6652
24222SOL     OW75558   4.153   2.769   3.308  0.3788  0.3249  0.1692
24222SOL    HW175559   4.209   2.785   3.232  0.5848 -1.4537 -0.0769
24222SOL    HW275560   4.076   2.725   3.273 -0.6547  1.6425  0.6829
24223SOL     OW75561   6.545   1.314   6.621 -0.3842 -0.0341 -0.0016
24223SOL    HW175562   6.487   1.389   6.607 -0.2937  0.7311  3.0500
24223SOL    HW275563   6.627   1.353   6.652 -0.1361 -1.3439  1.0846
24224SOL     OW75564   4.430   4.909   5.361  0.0166 -0.0798 -0.3051
24224SOL    HW175565   4.498   4.845   5.382  0.9412  0.2219 -2.1600
24224SOL    HW275566   4.467   4.961   5.290 -1.4971  1.2374 -0.2007
24225SOL     OW75567  10.107   2.709   4.700 -0.2070 -0.4210  0.1333
24225SOL    HW175568  10.164   2.780   4.670  0.5485 -1.6362 -1.4277
24225SOL    HW275569  10.021   2.729   4.661 -0.0561 -0.2584 -0.1193
24226SOL     OW75570   6.767   6.462   5.346 -0.3175 -0.0914  0.0269
24226SOL    HW175571   6.843   6.462   5.405  1.1929  4.6139 -1.4645
24226SOL    HW275572   6.692   6.472   5.404  0.7158  0.2090  1.3668
24227SOL     OW75573   1.694   0.328   4.505 -0.5178 -0.2222 -0.4004
24227SOL    HW175574   1.743   0.254   4.540  0.9764  0.5935 -0.7113
24227SOL    HW275575   1.674   0.382   4.581 -0.1300 -0.0958 -0.3867
24228SOL     OW75576   2.152   5.615   7.394 -0.1347 -0.3944  0.0001
24228SOL    HW175577   2.068   5.609   7.351 -0.3182 -2.5445  0.5364
24228SOL    HW275578   2.212   5.646   7.326 -0.7642 -1.8738 -1.2830
24229SOL     OW75579   0.729   2.594   4.872 -0.7452 -0.8186 -0.2023
24229SOL    HW175580   0.784   2.524   4.906  0.2148  0.4465  0.9564
24229SOL    HW275581   0.687   2.632   4.949 -1.5730 -0.3766 -0.8498
24230SOL     OW75582   3.127   0.874   4.999  0.2499 -0.0972 -0.0647
24230SOL    HW175583   3.092   0.857   4.911  0.1930  1.9487 -0.4762
24230SOL    HW275584   3.089   0.958   5.025  1.8849  0.3505  1.0540
24231SOL     OW75585   4.163   1.411   5.155  0.3069 -0.4312 -0.0474
24231SOL    HW175586   4.136   1.326   5.120 -1.0816 -0.5858  1.2843
24231SOL    HW275587   4.256   1.417   5.135  0.4120 -2.2345 -0.2449
24232SOL     OW75588   8.287   0.808   4.388  0.9403  0.2985 -0.6284
24232SOL    HW175589   8.291   0.870   4.460  1.2781 -0.5861  0.1381
24232SOL    HW275590   8.198   0.772   4.391  0.7779  0.6691 -1.0036
24233SOL     OW75591   6.775  10.740   0.986  0.6600  0.4998 -0.0056
24233SOL    HW175592   6.828  10.798   1.042  1.3695  0.3069 -0.4611
24233SOL    HW275593   6.836  10.672   0.957  0.0328 -0.0178 -0.1390
24234SOL     OW75594   8.526   8.359   4.761  0.1385  0.1799 -0.0679
24234SOL    HW175595   8.555   8.437   4.808  0.7765 -0.0730 -0.0411
24234SOL    HW275596   8.594   8.343   4.696  1.2475 -1.7480  1.4681
24235SOL     OW75597   6.694   0.225   1.670 -0.0122  0.6412  0.0983
24235SOL    HW175598   6.609   0.223   1.713  0.2911 -0.1431  0.6826
24235SOL    HW275599   6.738   0.145   1.699  0.7899  0.8597 -0.4701
24236SOL     OW75600   8.495   2.701   5.267 -0.0033  0.1057 -0.1053
24236SOL    HW175601   8.540   2.630   5.313 -0.4897  0.1061  0.3893
24236SOL    HW275602   8.521   2.691   5.176 -0.1659 -0.7978 -0.0702
24237SOL     OW75603   9.724   1.656   3.938 -0.0210 -0.5230 -0.0743
24237SOL    HW175604   9.675   1.680   4.016  0.2645 -1.2745  0.3416
24237SOL    HW275605   9.807   1.621   3.971  0.7907  0.6746 -0.7594
24238SOL     OW75606   5.452   5.448   7.353  0.0985  0.0952 -0.1039
24238SOL    HW175607   5.405   5.532   7.349 -1.6019 -0.7748  0.5886
24238SOL    HW275608   5.513   5.458   7.425 -0.0797  0.7358 -0.0294
24239SOL     OW75609   5.380   0.959   3.946 -0.4609  0.3512  0.0994
24239SOL    HW175610   5.383   1.051   3.922  0.9078  0.0489 -1.0333
24239SOL    HW275611   5.294   0.930   3.917 -0.4763  1.0274 -0.5877
24240SOL     OW75612   8.376   3.420   7.523 -0.3146 -0.2951 -0.0020
24240SOL    HW175613   8.381   3.324   7.530 -0.1159 -0.1810  1.6934
24240SOL    HW275614   8.286   3.441   7.549 -0.5080 -0.0375 -0.8436
24241SOL     OW75615   9.970   4.126   6.587 -0.6233 -0.0519  0.7653
24241SOL    HW175616   9.951   4.179   6.510 -2.0198  0.7623  1.6284
24241SOL    HW275617   9.899   4.061   6.589  1.3182 -2.3956 -0.5628
24242SOL     OW75618   9.626   0.435   7.633  0.3277  0.8589  0.0168
24242SOL    HW175619   9.613   0.491   7.710  1.7287  0.2630  0.7246
24242SOL    HW275620   9.718   0.410   7.637 -0.3384 -1.9774  0.1049
24243SOL     OW75621   4.980   7.402  10.597  0.5366 -0.2536 -0.0447
24243SOL    HW175622   5.002   7.369  10.510  1.9354 -2.4282  1.0496
24243SOL    HW275623   4.904   7.350  10.624  0.8016 -0.3833  0.4652
24244SOL     OW75624   6.162   7.706   0.821 -0.7412 -0.2542  0.0339
24244SOL    HW175625   6.130   7.675   0.906 -2.4987  3.1571  0.8151
24244SOL    HW275626   6.085   7.701   0.764 -0.5912  0.7999 -0.2857
24245SOL     OW75627   1.958   9.706   6.192 -0.7498 -0.3204  0.3981
24245SOL    HW175628   1.923   9.770   6.255 -0.2756  0.4181 -0.0718
24245SOL    HW275629   2.040   9.745   6.163  0.1856 -1.7528  1.0380
24246SOL     OW75630  10.388   3.305   7.599 -0.6296 -0.6038  0.1295
24246SOL    HW175631  10.348   3.246   7.535 -1.5882  0.7452 -0.5698
24246SOL    HW275632  10.384   3.257   7.682  0.9239 -2.5083 -0.8297
24247SOL     OW75633   7.383   2.854   9.748  0.0520 -0.0162 -0.5967
24247SOL    HW175634   7.451   2.788   9.758  0.1051  0.1139 -0.0634
24247SOL    HW275635   7.319   2.834   9.816  0.1013  0.5210 -0.3883
24248SOL     OW75636   9.619   5.921   7.458  0.6293 -0.1507 -1.1100
24248SOL    HW175637   9.654   5.897   7.372  0.0197  0.4003 -1.5194
24248SOL    HW275638   9.608   6.016   7.453 -0.9054 -0.3004 -0.9896
24249SOL     OW75639   2.856   1.172   7.623  0.2712  0.9182  0.4072
24249SOL    HW175640   2.827   1.098   7.569 -0.4210  1.6676 -0.2956
24249SOL    HW275641   2.801   1.167   7.701 -0.1544  0.9841  0.1218
24250SOL     OW75642   5.432  10.215   1.533  0.0152  0.3460  0.1865
24250SOL    HW175643   5.339  10.212   1.508 -0.2566 -0.1373  1.2209
24250SOL    HW275644   5.472  10.271   1.466 -0.7745 -0.4978 -1.0370
24251SOL     OW75645   2.299  10.534   0.068 -0.6668  0.3673  0.6036
24251SOL    HW175646   2.250  10.477   0.009 -0.2279  1.4834 -0.8987
24251SOL    HW275647   2.323  10.477   0.141 -0.4549 -1.3157 -0.7040
24252SOL     OW75648   0.185   4.261   5.740  0.5303 -0.1449 -0.1254
24252SOL    HW175649   0.207   4.242   5.648 -0.6384  1.1206 -0.6945
24252SOL    HW275650   0.101   4.219   5.754  0.5893 -0.1231  0.3014
24253SOL     OW75651   0.864   6.000   9.309  0.0843 -0.0196  0.2144
24253SOL    HW175652   0.960   6.005   9.308  0.1376 -0.7812 -0.8399
24253SOL    HW275653   0.844   5.945   9.385  0.5367 -0.5238 -0.0202
24254SOL     OW75654   6.999   6.822   4.408 -0.5212  0.3925 -0.1837
24254SOL    HW175655   7.022   6.897   4.353  0.5567 -0.5100 -1.0234
24254SOL    HW275656   6.908   6.803   4.387 -0.6564  1.1611 -0.3168
24255SOL     OW75657  10.491  10.792   3.225 -0.1512 -0.0728  0.3324
24255SOL    HW175658  10.413  10.835   3.261 -0.6876 -0.0512 -0.8249
24255SOL    HW275659  10.456  10.722   3.170  0.6763 -0.7239  0.6079
24256SOL     OW75660   0.578   3.657   5.609 -0.2746 -0.2398 -0.0963
24256SOL    HW175661   0.600   3.750   5.614  2.2045 -0.6604 -1.4802
24256SOL    HW275662   0.487   3.656   5.576 -1.1189  1.6431  1.9141
24257SOL     OW75663   2.272   6.734   9.451  0.0072  0.3836  0.0304
24257SOL    HW175664   2.339   6.752   9.385  1.1205  1.4997  1.4209
24257SOL    HW275665   2.320   6.693   9.523 -1.2240 -0.9962  0.1164
24258SOL     OW75666   1.247   7.277   0.053  0.4951  0.2411 -0.2964
24258SOL    HW175667   1.253   7.228  -0.028 -0.4285  0.2847 -0.3998
24258SOL    HW275668   1.173   7.337   0.040  0.3092  0.2194  0.5780
24259SOL     OW75669   8.496   1.851   8.463  0.4135  0.8551 -0.3607
24259SOL    HW175670   8.468   1.931   8.420  0.7022  0.9194 -0.4294
24259SOL    HW275671   8.423   1.791   8.452  0.0689  1.2144 -0.0253
24260SOL     OW75672   0.806   6.870   9.275  0.1953  0.2121  0.7573
24260SOL    HW175673   0.771   6.809   9.210  2.6472 -1.3456  0.7379
24260SOL    HW275674   0.783   6.957   9.242 -1.5543 -0.6356 -0.3712
24261SOL     OW75675   0.697   8.500   3.150  0.0750  0.2445  0.0939
24261SOL    HW175676   0.637   8.538   3.214 -0.6538 -0.5813 -0.0848
24261SOL    HW275677   0.670   8.539   3.067 -1.1966 -1.1894 -0.2188
24262SOL     OW75678   0.706   7.382   2.994  0.1034  0.0056 -0.0369
24262SOL    HW175679   0.698   7.315   3.061 -3.1812 -2.8209 -2.8585
24262SOL    HW275680   0.789   7.361   2.949  1.0528  0.3765  1.4797
24263SOL     OW75681   3.363   2.500   6.517  0.0564 -0.2141 -0.2574
24263SOL    HW175682   3.434   2.522   6.578 -0.5384  0.3557  0.2431
24263SOL    HW275683   3.381   2.410   6.490  1.0903 -0.0076 -0.3039
24264SOL     OW75684   0.412   2.605   0.760 -0.5499  0.2273  0.6636
24264SOL    HW175685   0.476   2.675   0.774  0.0569 -0.0094 -0.7548
24264SOL    HW275686   0.442   2.561   0.681 -1.7205 -0.7530  0.7433
24265SOL     OW75687   8.521   1.802   1.524  0.0090 -0.5721  0.4888
24265SOL    HW175688   8.498   1.709   1.517 -0.0822 -0.4998 -0.2064
24265SOL    HW275689   8.616   1.803   1.526  0.0071 -0.7427  1.5336
24266SOL     OW75690  10.598   4.552   2.294 -0.0941 -0.0299 -0.6961
24266SOL    HW175691  10.602   4.587   2.205 -2.0005  0.1188 -0.7829
24266SOL    HW275692  10.521   4.495   2.293  0.2644 -0.5696  0.6775
24267SOL     OW75693   4.319   6.383   8.263  0.2174  0.1608  0.3084
24267SOL    HW175694   4.394   6.382   8.323  0.8185 -2.8488 -0.3382
24267SOL    HW275695   4.264   6.310   8.292 -0.3177 -0.3228 -1.7756
24268SOL     OW75696   5.115   0.659   6.399  0.6434  0.1582  0.2981
24268SOL    HW175697   5.111   0.615   6.314  0.8306 -1.2471  0.9985
24268SOL    HW275698   5.208   0.663   6.420  0.5851  0.3246  0.5331
24269SOL     OW75699   4.021   7.438   0.798 -0.5492  0.0277  0.2462
24269SOL    HW175700   3.926   7.427   0.800 -0.7357  1.3700  2.7207
24269SOL    HW275701   4.034   7.529   0.771  0.0064 -0.0149  0.3716
24270SOL     OW75702   6.078  10.579   1.886 -0.2390  0.0485 -0.0247
24270SOL    HW175703   6.147  10.570   1.820 -0.1455 -0.0943  0.0892
24270SOL    HW275704   6.077  10.673   1.907 -1.4515  0.3808 -1.4708
24271SOL     OW75705   8.943   3.118   8.889 -0.2183  0.2971 -0.7596
24271SOL    HW175706   8.972   3.027   8.885  1.0374  0.5504  1.5041
24271SOL    HW275707   8.854   3.113   8.924  0.7342 -0.0097  1.8260
24272SOL     OW75708   6.016   2.038   3.467 -0.0759  0.0450 -0.0492
24272SOL    HW175709   5.929   2.053   3.431  1.2940  1.5372 -3.1811
24272SOL    HW275710   6.064   1.995   3.396  1.8305 -0.5186  1.4813
24273SOL     OW75711   3.230   4.600   3.545 -0.2253  0.9025  0.2052
24273SOL    HW175712   3.155   4.596   3.604  1.8208 -0.5555  2.9196
24273SOL    HW275713   3.201   4.553   3.467 -1.7688 -0.7501  1.6884
24274SOL     OW75714   7.358  10.226   2.135 -0.0439  0.1350 -0.3468
24274SOL    HW175715   7.390  10.237   2.225  0.4838  1.7730 -0.7097
24274SOL    HW275716   7.409  10.287   2.083 -1.6897  0.6516 -1.4494
24275SOL     OW75717   3.049   6.775   8.929 -0.4558  0.2323 -0.0628
24275SOL    HW175718   3.078   6.685   8.919 -1.8678 -0.3001  0.4524
24275SOL    HW275719   3.086   6.803   9.013  0.4013  0.3199 -0.4573
24276SOL     OW75720   8.348   6.174   6.669 -0.1527  0.5929 -0.0029
24276SOL    HW175721   8.332   6.200   6.578 -2.8666  0.8461  0.4601
24276SOL    HW275722   8.354   6.078   6.666  1.6429  0.6915 -0.6419
24277SOL     OW75723   2.798   4.490   1.093  0.4548  0.5431  0.4259
24277SOL    HW175724   2.792   4.584   1.109  0.5478  1.1306 -2.5094
24277SOL    HW275725   2.714   4.467   1.053 -0.1656 -1.0074  2.4148
24278SOL     OW75726   9.308   6.234   2.045  0.2212  0.0118  0.0625
24278SOL    HW175727   9.325   6.173   2.117 -0.1478 -2.5488 -1.8814
24278SOL    HW275728   9.380   6.220   1.984  0.4592  2.0446 -0.1936
24279SOL     OW75729   7.576   2.126   3.626  0.6498  0.7972  0.3033
24279SOL    HW175730   7.671   2.125   3.635  0.9551 -2.2163 -1.6811
24279SOL    HW275731   7.560   2.144   3.533 -0.4948 -1.5142 -0.0245
24280SOL     OW75732   2.780   4.762  10.743  0.4015  0.2250  0.2849
24280SOL    HW175733   2.760   4.754  10.650 -1.0986 -0.0621  0.6024
24280SOL    HW275734   2.865   4.806  10.746  1.4015 -1.4821 -1.2451
24281SOL     OW75735   0.204  10.698   7.658  0.6804 -0.0780 -0.6959
24281SOL    HW175736   0.134  10.749   7.617  0.1324 -0.0145  0.2887
24281SOL    HW275737   0.246  10.651   7.586 -0.2840  0.0057 -1.3204
24282SOL     OW75738   0.524   0.738   9.646 -0.1152  0.6668 -0.7077
24282SOL    HW175739   0.523   0.649   9.609  1.1396  0.6055 -0.6118
24282SOL    HW275740   0.439   0.775   9.621 -0.3735 -0.3196 -1.3353
24283SOL     OW75741  10.607   0.550   2.381  0.0228  0.2192 -0.1449
24283SOL    HW175742  10.570   0.462   2.384 -0.0116  0.1397 -2.0450
24283SOL    HW275743  10.568   0.590   2.303  0.7974  1.5786  0.1315
24284SOL     OW75744   5.950  10.758   4.217 -0.2386  0.0835 -0.4272
24284SOL    HW175745   5.916  10.732   4.131 -0.5477  1.0347 -0.5975
24284SOL    HW275746   5.925  10.849   4.227  1.0952  0.4339  0.0262
24285SOL     OW75747  10.118   4.768   0.982 -0.7659 -0.0037 -0.2163
24285SOL    HW175748  10.145   4.703   1.046 -2.3053 -0.6112 -0.1426
24285SOL    HW275749  10.161   4.741   0.901  0.0810 -0.0246  0.2306
24286SOL     OW75750   6.065   2.605   8.120  0.4884  0.5773  0.6735
24286SOL    HW175751   6.050   2.535   8.056  0.5846 -0.4236  1.7182
24286SOL    HW275752   6.053   2.686   8.070 -0.9111 -0.1718 -0.2723
24287SOL     OW75753   3.437   3.744   1.581  0.2594  0.3172  0.1167
24287SOL    HW175754   3.400   3.816   1.529 -2.2362 -0.7046  0.3180
24287SOL    HW275755   3.456   3.784   1.666 -1.6368  0.6772  0.4107
24288SOL     OW75756   4.567   5.084   5.161 -0.6262  0.4449  0.2541
24288SOL    HW175757   4.534   5.058   5.075  0.8239  0.7030 -0.4056
24288SOL    HW275758   4.557   5.179   5.163  0.5218  0.5975 -0.1830
24289SOL     OW75759   7.957   7.549  10.746 -0.3393 -0.5336  0.3492
24289SOL    HW175760   7.999   7.513  10.668  0.5361  1.5588 -0.2145
24289SOL    HW275761   7.959   7.478  10.810 -1.7997 -2.5975 -1.7253
24290SOL     OW75762   3.290   9.980   0.368 -0.3492 -0.5090  0.7398
24290SOL    HW175763   3.203   9.952   0.341 -0.0524 -0.6522 -0.0930
24290SOL    HW275764   3.294   9.958   0.461 -0.5939 -2.0896  0.4115
24291SOL     OW75765  10.099  10.100   8.624 -0.0153 -0.3649  0.1255
24291SOL    HW175766  10.185  10.140   8.641 -0.5980  0.0708  2.2856
24291SOL    HW275767  10.044  10.128   8.697 -1.7653 -1.3951 -0.7262
24292SOL     OW75768  10.182   2.172   4.176  0.1587  0.0883 -0.2536
24292SOL    HW175769  10.179   2.209   4.265  1.5241  1.7691 -0.8500
24292SOL    HW275770  10.092   2.145   4.158  0.0069 -1.2715  1.9972
24293SOL     OW75771   7.459   1.710   9.155 -0.2924 -0.3186 -0.4042
24293SOL    HW175772   7.433   1.802   9.151  0.9073  0.0271 -0.4628
24293SOL    HW275773   7.409   1.674   9.229 -1.7255  0.0491 -1.1586
24294SOL     OW75774   1.069   4.457   4.384  0.5679  0.1054 -0.5931
24294SOL    HW175775   0.983   4.415   4.383  1.3598 -1.6514  1.0285
24294SOL    HW275776   1.053   4.543   4.423 -0.4307 -0.1964 -0.3121
24295SOL     OW75777   6.508   1.358   1.737  0.3149  0.0633 -0.2762
24295SOL    HW175778   6.429   1.410   1.746  1.3904  1.8607 -0.7067
24295SOL    HW275779   6.549   1.390   1.656  1.0359 -1.4505 -0.5472
24296SOL     OW75780   1.481   2.784   3.505  0.5042 -0.5237 -0.6406
24296SOL    HW175781   1.554   2.790   3.444  3.1584  0.1079  2.3918
24296SOL    HW275782   1.472   2.871   3.542 -3.4196  0.0871 -2.4108
24297SOL     OW75783   7.363   2.625   7.406  0.0887 -0.3131 -0.9142
24297SOL    HW175784   7.332   2.576   7.481 -0.2364 -0.6016 -1.2351
24297SOL    HW275785   7.330   2.714   7.420  1.0491 -0.0616 -0.1092
24298SOL     OW75786   2.894   2.234   4.997 -0.8751  0.0173 -0.3182
24298SOL    HW175787   2.861   2.224   5.086 -1.5183  1.9057 -0.2897
24298SOL    HW275788   2.896   2.329   4.983 -1.5105 -0.2343 -2.5735
24299SOL     OW75789   9.988   9.629   3.455  0.1775 -0.3787  0.0785
24299SOL    HW175790   9.960   9.539   3.440 -0.6946 -0.2027  0.6066
24299SOL    HW275791  10.066   9.639   3.400 -0.6088 -0.9753 -1.1942
24300SOL     OW75792  10.591   6.492   4.724  0.2841 -0.1044 -0.2876
24300SOL    HW175793  10.583   6.462   4.814 -3.6714 -1.1650 -0.7959
24300SOL    HW275794  10.645   6.427   4.680 -1.8629 -2.4542  0.3336
24301SOL     OW75795   6.845   3.928   3.796  0.7585 -0.0763 -0.9398
24301SOL    HW175796   6.859   3.990   3.868  0.7068 -1.0899 -0.0399
24301SOL    HW275797   6.923   3.872   3.798 -0.0839 -1.2664 -0.4815
24302SOL     OW75798   5.505   7.030   5.978  0.1431 -0.1697  0.0675
24302SOL    HW175799   5.487   6.936   5.989  1.8631 -0.4417  0.7598
24302SOL    HW275800   5.564   7.052   6.049  3.6631  0.3018 -2.6965
24303SOL     OW75801   9.844   0.210   9.446  0.1131  0.4030 -0.2083
24303SOL    HW175802   9.791   0.278   9.487  0.4899  0.3819  0.3283
24303SOL    HW275803   9.843   0.231   9.353  1.8853  2.3438  0.1398
24304SOL     OW75804   6.903   9.076   0.020 -0.1217 -0.1510 -0.1947
24304SOL    HW175805   6.815   9.045   0.040  0.6607 -2.0581  0.5317
24304SOL    HW275806   6.955   8.996   0.007  1.3564  0.9209 -1.3333
24305SOL     OW75807   7.992   6.652  10.787  0.5774  0.6967 -0.4158
24305SOL    HW175808   8.088   6.644  10.780  0.5898  0.5611 -0.1041
24305SOL    HW275809   7.976   6.746  10.778  0.6408  0.6093 -1.6116
24306SOL     OW75810   8.183   9.708   9.969  0.2814 -0.1692 -0.1139
24306SOL    HW175811   8.272   9.720  10.002  0.7785 -1.6360 -0.8288
24306SOL    HW275812   8.179   9.616   9.944 -0.8789  0.2930 -1.7751
24307SOL     OW75813   0.539   0.756   4.402 -0.0788  0.2129  0.2876
24307SOL    HW175814   0.579   0.715   4.479  0.0005  0.0301  0.1514
24307SOL    HW275815   0.612   0.793   4.353  0.0536 -1.0112 -0.4876
24308SOL     OW75816   8.452   0.777   2.237  0.9790  0.0836 -0.2691
24308SOL    HW175817   8.446   0.873   2.230  1.5659  0.0975 -0.6725
24308SOL    HW275818   8.363   0.749   2.258  0.9353  0.7750  0.5257
24309SOL     OW75819   7.103   6.677   7.376  1.0273  0.5301  0.1756
24309SOL    HW175820   7.074   6.605   7.320  0.5325 -0.6961  1.9576
24309SOL    HW275821   7.152   6.735   7.316  0.7647 -0.8543 -1.4514
24310SOL     OW75822   9.798   7.854   3.569 -0.2770 -0.5856 -0.4743
24310SOL    HW175823   9.793   7.799   3.647 -0.2864 -0.8131 -0.6309
24310SOL    HW275824   9.888   7.843   3.538 -0.1412 -0.1374 -0.2427
24311SOL     OW75825   0.758   7.211   9.727 -0.2036 -0.1701 -0.4090
24311SOL    HW175826   0.827   7.277   9.732 -0.6260  0.2697 -0.1905
24311SOL    HW275827   0.803   7.128   9.714  0.4985 -0.1945  1.9010
24312SOL     OW75828   4.758   9.129   9.396  0.6576 -0.1027 -0.4168
24312SOL    HW175829   4.705   9.166   9.326 -0.5416  0.4836  0.7500
24312SOL    HW275830   4.699   9.068   9.441  1.4164 -0.5234  0.0417
24313SOL     OW75831  10.578   9.417   6.818  0.5510  0.5115 -0.4516
24313SOL    HW175832  10.600   9.324   6.828 -2.9406 -0.5305 -1.0754
24313SOL    HW275833  10.579   9.432   6.723 -1.3192  0.3422 -0.5360
24314SOL     OW75834   6.830   5.196   9.791 -0.0637 -0.1626 -0.4752
24314SOL    HW175835   6.747   5.150   9.787  1.5264 -3.2029 -1.8283
24314SOL    HW275836   6.806   5.289   9.794 -3.4456 -0.9437  0.5462
24315SOL     OW75837   3.836   9.224   2.386  0.5275 -0.1574 -0.0056
24315SOL    HW175838   3.850   9.175   2.467  1.7134 -1.8818 -1.1958
24315SOL    HW275839   3.839   9.316   2.413  0.6117 -0.6863  1.9363
24316SOL     OW75840   0.043   1.234   2.334  0.0639 -0.2486  0.3615
24316SOL    HW175841   0.009   1.323   2.346 -2.8232 -1.3072  0.9503
24316SOL    HW275842   0.131   1.237   2.371  0.1926  2.4173  0.0577
24317SOL     OW75843   8.798   5.392   8.118  0.2154 -0.1207 -0.1303
24317SOL    HW175844   8.786   5.448   8.041 -0.2728  0.7543  0.5647
24317SOL    HW275845   8.892   5.393   8.134  0.3733 -0.6437 -0.9465
24318SOL     OW75846   0.428   2.713   8.711 -0.1572  0.2414  0.0059
24318SOL    HW175847   0.451   2.695   8.620  0.6276  0.0426  0.2412
24318SOL    HW275848   0.430   2.627   8.754  1.1568  0.5408  0.5808
24319SOL     OW75849   2.424   1.561   3.818 -0.0202 -0.4787 -0.8359
24319SOL    HW175850   2.401   1.516   3.736  1.0737 -0.3870 -1.2098
24319SOL    HW275851   2.394   1.651   3.805 -4.2932 -1.4147  0.7702
24320SOL     OW75852  10.649   2.319   7.873  0.3985  0.0692 -0.2955
24320SOL    HW175853  10.703   2.243   7.894  0.8227  0.6293  0.7557
24320SOL    HW275854  10.618   2.350   7.958 -0.2143  0.7452 -0.7530
24321SOL     OW75855   1.576   9.492   3.014  0.2528 -0.5693 -0.2344
24321SOL    HW175856   1.547   9.563   3.072  0.5957 -0.2522 -0.4463
24321SOL    HW275857   1.670   9.488   3.026  0.0524 -2.1366  1.0434
24322SOL     OW75858   9.719   0.774   7.159  0.5814  0.3704 -0.0051
24322SOL    HW175859   9.690   0.743   7.073  2.5101 -0.4076 -0.4273
24322SOL    HW275860   9.785   0.710   7.187  1.3890  1.6507  1.1808
24323SOL     OW75861  10.462   4.777   4.450  0.2317 -0.1075 -0.1737
24323SOL    HW175862  10.435   4.794   4.540  1.4680 -0.1133  0.2080
24323SOL    HW275863  10.558   4.778   4.453  0.3085  1.1138 -1.7058
24324SOL     OW75864   5.253   1.981   4.716 -0.2983  0.2761 -0.4285
24324SOL    HW175865   5.197   2.023   4.781 -0.6717  0.8157 -1.0892
24324SOL    HW275866   5.198   1.914   4.676 -0.0107 -0.1851 -0.0709
24325SOL     OW75867   2.044   1.358   4.125 -0.4115 -0.1022  0.5349
24325SOL    HW175868   2.035   1.273   4.166  2.5372 -0.8546 -0.1454
24325SOL    HW275869   2.121   1.350   4.068 -1.1903  2.4357 -1.0729
24326SOL     OW75870   9.096   6.721   1.206 -0.2428  0.6949  0.1334
24326SOL    HW175871   9.025   6.681   1.156  0.0808 -0.5545  0.6260
24326SOL    HW275872   9.144   6.647   1.243 -0.2897  1.5443  2.0535
24327SOL     OW75873   2.512   7.316   8.036 -0.8774  0.6797  0.2198
24327SOL    HW175874   2.564   7.384   7.994 -1.5436  0.4539 -0.9967
24327SOL    HW275875   2.572   7.241   8.044 -0.5462  0.9535  0.3328
24328SOL     OW75876  10.151   2.089   2.088  0.1944  0.4337  0.0880
24328SOL    HW175877  10.146   2.094   2.183 -1.1621  1.1071  0.0075
24328SOL    HW275878  10.124   2.176   2.058 -1.5708 -0.4178 -0.9481
24329SOL     OW75879  10.438   9.805   8.895  0.0598 -0.3786  0.0141
24329SOL    HW175880  10.516   9.749   8.896 -0.0732 -0.5575  0.4289
24329SOL    HW275881  10.436   9.842   8.806  1.5566  0.9624  0.4950
24330SOL     OW75882   9.487   4.356   1.464 -0.2261  0.6109  0.5441
24330SOL    HW175883   9.425   4.397   1.523  1.2968  1.1700  1.8003
24330SOL    HW275884   9.504   4.422   1.396 -1.5029  0.1940 -0.2104
24331SOL     OW75885   3.718   2.376   9.650 -0.1124 -0.5190  0.0018
24331SOL    HW175886   3.714   2.433   9.726  0.2938 -1.4316  0.7247
24331SOL    HW275887   3.672   2.424   9.581 -0.7126  0.1969  0.8906
24332SOL     OW75888   9.938   8.503   3.078  0.3081  0.3775  0.0091
24332SOL    HW175889   9.960   8.553   3.157  0.9334  1.1088 -0.6063
24332SOL    HW275890   9.918   8.415   3.110  0.3191  0.7171  1.0045
24333SOL     OW75891   7.169   8.458   5.671 -0.0350  0.1663 -0.1770
24333SOL    HW175892   7.249   8.432   5.716 -1.5058 -0.7869  2.0600
24333SOL    HW275893   7.119   8.377   5.662 -2.2929  1.2103  1.8516
24334SOL     OW75894   7.528   3.989   4.470  0.0671 -0.5097 -0.4573
24334SOL    HW175895   7.469   3.920   4.442 -2.3499  1.3881 -0.3181
24334SOL    HW275896   7.562   3.959   4.554 -1.9057 -1.0453  0.1950
24335SOL     OW75897   0.616   0.666   4.668  1.1145 -0.1504 -0.8845
24335SOL    HW175898   0.540   0.625   4.708  1.6099 -0.2741 -0.0317
24335SOL    HW275899   0.690   0.613   4.698  1.7163  1.0272 -0.1767
24336SOL     OW75900   3.119   7.197   8.123 -0.1195 -0.1100  0.1144
24336SOL    HW175901   3.144   7.289   8.127  0.9239 -0.3447 -0.3455
24336SOL    HW275902   3.054   7.185   8.192 -0.8339  1.1311 -0.3223
24337SOL     OW75903   9.902   5.048   4.362  0.5829 -0.0902  0.1439
24337SOL    HW175904   9.958   4.992   4.417  2.5834  1.8061  0.1714
24337SOL    HW275905   9.964   5.096   4.306 -1.1715  0.8038 -1.1190
24338SOL     OW75906   8.061   5.414   8.560  0.6552 -0.5342  0.0122
24338SOL    HW175907   8.137   5.470   8.546  0.1118  0.1734 -0.1856
24338SOL    HW275908   7.994   5.473   8.597  0.1830 -1.1265  0.1224
24339SOL     OW75909   5.627   0.521   4.048  0.0544 -0.1868  0.1570
24339SOL    HW175910   5.574   0.514   3.969 -0.2536 -0.6606  0.3991
24339SOL    HW275911   5.680   0.441   4.048  0.2852 -0.0353  0.2669
24340SOL     OW75912   2.965   1.580   3.907  0.5325 -0.2752 -0.1204
24340SOL    HW175913   2.891   1.597   3.965 -0.1024 -0.3552 -0.8876
24340SOL    HW275914   3.029   1.648   3.928  0.4293 -0.4696  0.8597
24341SOL     OW75915   7.695   7.477   6.121 -0.4098 -0.2250  0.0773
24341SOL    HW175916   7.690   7.396   6.070 -2.5929  0.0014 -0.1945
24341SOL    HW275917   7.609   7.484   6.162  0.7742  0.4052  2.6118
24342SOL     OW75918   5.544   5.629   9.846 -0.3021  0.2378 -0.3294
24342SOL    HW175919   5.582   5.687   9.911  1.3987  0.0543 -1.0830
24342SOL    HW275920   5.508   5.687   9.779 -1.2978  0.4150  0.3417
24343SOL     OW75921   0.175   0.670   5.704  0.1043  0.2286  0.3344
24343SOL    HW175922   0.146   0.615   5.777 -0.8763  0.0187 -0.1888
24343SOL    HW275923   0.096   0.717   5.677  0.5329  0.5572 -0.3707
24344SOL     OW75924   8.890   5.202   0.221 -0.0294 -0.1447  0.0424
24344SOL    HW175925   8.851   5.218   0.307  1.0128 -1.2609  0.7513
24344SOL    HW275926   8.976   5.244   0.227 -0.2941  0.5501 -0.7951
24345SOL     OW75927   4.981   5.583   9.383  0.2881  0.0723  0.5870
24345SOL    HW175928   4.981   5.589   9.288  0.5451  0.8048  0.6286
24345SOL    HW275929   5.036   5.508   9.403 -0.0456 -0.2933  0.1480
24346SOL     OW75930   7.818   3.568  10.514 -0.1233  0.4440  0.5365
24346SOL    HW175931   7.810   3.662  10.533  0.0086  0.5396  0.1205
24346SOL    HW275932   7.899   3.541  10.557 -0.4204  0.4061  1.0889
24347SOL     OW75933   6.274   8.395   3.128 -0.1880 -0.2343 -0.1941
24347SOL    HW175934   6.307   8.475   3.089  1.2312 -0.7957 -0.2121
24347SOL    HW275935   6.180   8.410   3.139 -0.2002  0.8430 -1.5722
24348SOL     OW75936   5.955   1.159  10.771 -0.5543  0.3723  0.3703
24348SOL    HW175937   5.995   1.226  10.827  0.1884  1.3698 -1.2871
24348SOL    HW275938   5.886   1.121  10.826 -0.9816  2.4516  1.3978
24349SOL     OW75939   3.073  10.660   6.968 -0.1869  0.2292  0.4881
24349SOL    HW175940   3.021  10.654   6.888  1.7422  0.8983 -0.8964
24349SOL    HW275941   3.067  10.572   7.007  1.7408 -1.3397 -2.3822
24350SOL     OW75942   6.465   0.229   1.048 -0.2908 -0.3322  0.2291
24350SOL    HW175943   6.495   0.189   0.966  0.1287  2.4538 -1.0870
24350SOL    HW275944   6.425   0.157   1.096  1.8948 -2.6591 -1.1918
24351SOL     OW75945   9.811   0.768   5.034  0.4208  0.1117 -0.5599
24351SOL    HW175946   9.813   0.820   5.115 -1.4240 -0.3723 -0.1755
24351SOL    HW275947   9.837   0.680   5.061 -2.7500 -0.7210  0.1019
24352SOL     OW75948   8.695   2.510   5.174 -0.0449 -0.4173  0.0066
24352SOL    HW175949   8.745   2.578   5.218 -0.4793  0.6060 -1.0136
24352SOL    HW275950   8.708   2.432   5.227  2.0663 -0.0321  0.1604
24353SOL     OW75951   3.040   3.437   2.582  0.4546  0.3585  0.7168
24353SOL    HW175952   2.977   3.368   2.560  0.7856 -0.5610  2.4623
24353SOL    HW275953   3.107   3.431   2.514 -0.8339  0.7161 -0.6178
24354SOL     OW75954   5.111   4.325   3.349 -0.3834  0.0460  0.3485
24354SOL    HW175955   5.090   4.255   3.287 -3.0556  1.6848 -0.7822
24354SOL    HW275956   5.153   4.393   3.296  1.4219 -0.2984  1.2713
24355SOL     OW75957   5.517   2.582   6.836 -0.0602  0.1517  0.7118
24355SOL    HW175958   5.543   2.492   6.856 -0.9400  0.1583  1.9893
24355SOL    HW275959   5.548   2.597   6.747 -0.0458 -1.4714  0.4200
24356SOL     OW75960  10.416   2.650  10.178  0.0954  0.9344  0.2026
24356SOL    HW175961  10.437   2.677  10.089  0.3288 -2.5234 -0.9345
24356SOL    HW275962  10.388   2.731  10.221  0.0571  2.7661 -2.9282
24357SOL     OW75963   0.950   8.808   3.696  0.3770 -0.3975  0.1197
24357SOL    HW175964   0.867   8.850   3.675 -1.1307 -3.6094 -0.8665
24357SOL    HW275965   0.988   8.785   3.611  1.3136 -0.7361  0.6126
24358SOL     OW75966   7.685   3.195   4.467 -0.6908  0.1121 -0.0040
24358SOL    HW175967   7.720   3.117   4.423  1.3753  0.7267  0.4397
24358SOL    HW275968   7.624   3.160   4.532  0.8621 -1.2484  0.8007
24359SOL     OW75969  10.631   4.505   6.893 -0.0168 -0.3888 -0.5576
24359SOL    HW175970  10.570   4.481   6.824 -0.1446 -0.1521 -0.5282
24359SOL    HW275971  10.586   4.574   6.943  0.1478 -0.4290 -0.3500
24360SOL     OW75972   1.311   3.730   8.782 -0.0903 -0.1698  0.5138
24360SOL    HW175973   1.383   3.695   8.834 -0.0600  0.3068  0.7942
24360SOL    HW275974   1.232   3.696   8.824 -0.0782  0.4781  1.0733
24361SOL     OW75975  10.585   3.108   1.776 -0.1402  0.8959 -0.1761
24361SOL    HW175976  10.510   3.138   1.724 -1.5032 -1.2060  0.4723
24361SOL    HW275977  10.624   3.039   1.723  1.4569  2.0170 -0.5403
24362SOL     OW75978   2.686   2.004  10.057 -0.7014  0.7040 -0.6962
24362SOL    HW175979   2.622   1.982  10.126 -0.2336  1.5355  0.0308
24362SOL    HW275980   2.639   2.065  10.000 -1.0639  0.0769 -1.0897
24363SOL     OW75981   2.073  10.496   8.692  0.3791  0.3232 -0.1069
24363SOL    HW175982   2.015  10.421   8.678 -0.4973  1.0758 -0.5771
24363SOL    HW275983   2.025  10.571   8.657 -0.5129  1.8402  3.8871
24364SOL     OW75984   9.624   9.504  10.122  0.1890 -0.0908 -0.3282
24364SOL    HW175985   9.695   9.568  10.128 -0.2534  0.3649  0.1479
24364SOL    HW275986   9.632   9.452  10.201 -0.9843  1.0130  0.5629
24365SOL     OW75987   3.400  10.699   2.604  0.9720  0.2145 -0.6897
24365SOL    HW175988   3.391  10.634   2.673 -0.8251  1.4566  0.3318
24365SOL    HW275989   3.355  10.661   2.529 -0.9576  0.5888  0.1981
24366SOL     OW75990   5.010   4.406   4.682  0.4223 -0.4138  0.0810
24366SOL    HW175991   5.056   4.409   4.765 -1.7877 -1.1368  1.4157
24366SOL    HW275992   4.932   4.460   4.695  0.9183  1.0002 -2.1777
24367SOL     OW75993   9.771   5.643  10.317  0.2864  0.2471 -0.6222
24367SOL    HW175994   9.705   5.576  10.337  1.3753 -0.6429  0.0941
24367SOL    HW275995   9.722   5.711  10.270 -1.3908  0.1917  0.9325
24368SOL     OW75996   5.755   0.621   9.050  0.2166  0.3909 -0.7226
24368SOL    HW175997   5.795   0.668   9.123 -0.0784 -0.1267 -0.2248
24368SOL    HW275998   5.740   0.533   9.083 -0.9860  0.4678 -1.0304
24369SOL     OW75999   2.699   8.428   9.758  0.0581 -0.3152  0.7126
24369SOL    HW176000   2.786   8.466   9.763  0.2108 -0.6290  0.4631
24369SOL    HW276001   2.640   8.502   9.769  0.3531 -0.0575  0.5712
24370SOL     OW76002   1.783   4.082   9.607  0.0220 -0.2750 -0.5059
24370SOL    HW176003   1.838   4.022   9.657  0.1917 -0.0971 -0.4824
24370SOL    HW276004   1.697   4.076   9.650 -0.2014 -1.1702 -1.0405
24371SOL     OW76005   2.940   0.842   1.728  0.1860  0.3965  0.1332
24371SOL    HW176006   3.023   0.799   1.746 -0.8770 -2.1876 -0.7119
24371SOL    HW276007   2.913   0.808   1.642 -3.1391 -1.2944  1.6693
24372SOL     OW76008   0.594   3.791   0.899 -0.1616 -0.6726 -0.5458
24372SOL    HW176009   0.619   3.870   0.947  2.1724 -0.4789 -1.9246
24372SOL    HW276010   0.613   3.719   0.960 -0.5089 -0.2802  0.0352
24373SOL     OW76011   5.621   8.597   8.077  0.0721  0.3851 -0.1886
24373SOL    HW176012   5.704   8.640   8.058  0.3068 -0.1263 -0.3579
24373SOL    HW276013   5.646   8.507   8.101 -0.3882  0.3940  0.3365
24374SOL     OW76014   7.058   0.423   6.098 -0.1721 -0.3108 -0.6902
24374SOL    HW176015   7.100   0.402   6.015 -0.0802 -0.0348 -0.7170
24374SOL    HW276016   7.113   0.492   6.136  1.6814 -2.6158  1.1442
24375SOL     OW76017   4.112   4.627   5.638  0.1317 -0.2861  0.0191
24375SOL    HW176018   4.201   4.592   5.648  0.6393  0.9450 -0.0317
24375SOL    HW276019   4.124   4.722   5.637 -1.1159 -0.1215 -0.7086
24376SOL     OW76020   8.104  10.773   7.518  0.8519 -0.5066  0.1566
24376SOL    HW176021   8.042  10.839   7.547  0.2328 -1.8903  2.2356
24376SOL    HW276022   8.051  10.709   7.470  0.9878 -0.8004  0.3969
24377SOL     OW76023   9.770   8.362   4.198  0.1367  0.0632 -0.2893
24377SOL    HW176024   9.800   8.436   4.145  0.2571  0.0211 -0.2810
24377SOL    HW276025   9.679   8.348   4.171 -0.3977  1.1979  0.8003
24378SOL     OW76026   3.352   6.570   5.611 -0.0340  0.4135  0.3000
24378SOL    HW176027   3.407   6.491   5.606 -3.1973 -1.9410 -0.6960
24378SOL    HW276028   3.311   6.566   5.697  0.5371  1.6389  0.6626
24379SOL     OW76029   0.598   0.341   8.794 -0.4465 -0.3246  0.3031
24379SOL    HW176030   0.615   0.393   8.715 -0.9029 -1.4752 -0.5897
24379SOL    HW276031   0.673   0.359   8.851 -0.1067  0.5386 -0.3797
24380SOL     OW76032   6.949   6.247   6.180  0.0725  0.0879 -0.1762
24380SOL    HW176033   6.903   6.303   6.118 -1.2452  1.1225  1.6530
24380SOL    HW276034   7.006   6.307   6.229  2.1630 -0.9200 -1.2653
24381SOL     OW76035   2.485   0.922  10.350 -0.2449  0.1544 -0.1204
24381SOL    HW176036   2.517   0.836  10.322  1.2471 -0.2018  2.4124
24381SOL    HW276037   2.533   0.985  10.296 -0.7060 -0.5444 -1.3795
24382SOL     OW76038   2.042   4.688   0.449  0.3295  0.4460 -0.4595
24382SOL    HW176039   2.114   4.632   0.420  0.7612 -0.3592  1.9823
24382SOL    HW276040   1.963   4.644   0.415  0.6915 -1.4592  0.9910
24383SOL     OW76041   9.287   8.739   0.579  0.1561  0.1572 -0.1725
24383SOL    HW176042   9.290   8.828   0.616 -0.4523 -0.0337  0.3621
24383SOL    HW276043   9.281   8.682   0.656 -0.8072 -0.2738 -0.5457
24384SOL     OW76044   4.248   9.064   6.578  0.0825  0.3904  0.2665
24384SOL    HW176045   4.304   9.111   6.517 -0.4417 -0.1832 -0.6704
24384SOL    HW276046   4.183   9.128   6.606  0.5234  0.7426  0.4819
24385SOL     OW76047   2.330   9.658   0.084  0.2809 -0.5313  0.4246
24385SOL    HW176048   2.348   9.729   0.146  1.0028 -1.0618  0.8260
24385SOL    HW276049   2.365   9.689   0.001  1.2512 -0.7190  0.7594
24386SOL     OW76050  10.304   3.862   1.061  0.2986 -0.2837  0.3616
24386SOL    HW176051  10.223   3.845   1.014  0.5649 -1.1241  0.1828
24386SOL    HW276052  10.327   3.777   1.099  0.1049  0.3582  1.9850
24387SOL     OW76053   2.863   5.049   6.674  0.4881  0.2462 -0.1702
24387SOL    HW176054   2.953   5.047   6.640  0.4643 -2.7390 -0.4096
24387SOL    HW276055   2.812   5.084   6.601  1.3637  1.4583 -0.2388
24388SOL     OW76056   7.321   0.097   3.714 -0.4841 -0.3355  0.0561
24388SOL    HW176057   7.228   0.094   3.692 -0.9489  3.7220  0.7027
24388SOL    HW276058   7.365   0.098   3.628 -1.4644  2.5476 -0.5268
24389SOL     OW76059   9.004   8.470   8.428 -0.0016  0.0632 -0.3759
24389SOL    HW176060   9.068   8.461   8.358  0.6215 -2.7491  0.4409
24389SOL    HW276061   9.050   8.517   8.497 -0.3855  2.1853 -1.4701
24390SOL     OW76062   9.716   7.935   9.441 -0.1721  0.0429 -0.1894
24390SOL    HW176063   9.802   7.897   9.457  0.0460 -0.0557 -1.4517
24390SOL    HW276064   9.664   7.862   9.407 -0.0507  0.5986 -1.6553
24391SOL     OW76065   5.159   8.065   9.534 -0.1978  0.0137 -0.2573
24391SOL    HW176066   5.230   8.110   9.488  1.0246 -1.9545 -0.4024
24391SOL    HW276067   5.122   8.006   9.468  0.1545 -1.2770  0.6802
24392SOL     OW76068   9.559   0.540   8.178 -0.1856 -0.6207 -0.4021
24392SOL    HW176069   9.563   0.572   8.269  0.1811  2.1753 -1.3104
24392SOL    HW276070   9.466   0.524   8.163 -0.3897  0.0135  0.1201
24393SOL     OW76071   8.740   1.415   4.130 -0.1330  0.9550  0.0712
24393SOL    HW176072   8.735   1.420   4.226 -0.6839 -0.5122  0.1416
24393SOL    HW276073   8.769   1.502   4.103  1.4864  0.9748  1.6668
24394SOL     OW76074   1.365   9.098   4.378  0.2892  0.1436  0.3914
24394SOL    HW176075   1.405   9.173   4.334  0.7725 -0.5747 -0.4386
24394SOL    HW276076   1.331   9.133   4.460  1.6336  1.0039  0.6026
24395SOL     OW76077   0.505   6.162   9.186 -0.4809  0.0637 -0.7843
24395SOL    HW176078   0.495   6.096   9.255  0.7382  0.0218 -0.6197
24395SOL    HW276079   0.586   6.138   9.141  0.2039  1.6464 -0.4764
24396SOL     OW76080   2.735   9.753   4.777 -0.4329 -0.2999  0.5030
24396SOL    HW176081   2.645   9.781   4.757 -0.7083 -0.1619  1.8730
24396SOL    HW276082   2.790   9.817   4.731 -1.0373  0.4161  0.7482
24397SOL     OW76083   0.490  10.392   3.609 -0.1369  0.5683  0.0552
24397SOL    HW176084   0.457  10.328   3.546  0.6778 -0.4037  0.5794
24397SOL    HW276085   0.556  10.442   3.560  0.9438 -0.5933  0.2584
24398SOL     OW76086   1.423   9.905   8.723  0.2006 -0.1636  0.0402
24398SOL    HW176087   1.417   9.883   8.630 -0.3731  0.8779 -0.1900
24398SOL    HW276088   1.344   9.867   8.762  0.3713 -0.4795  0.0852
24399SOL     OW76089   2.325   0.824   0.525  0.2045 -0.6325  0.2699
24399SOL    HW176090   2.360   0.772   0.453 -0.5177 -1.7835  0.7072
24399SOL    HW276091   2.251   0.772   0.558  0.3080  0.0198  1.6083
24400SOL     OW76092   0.619   5.362   2.496  0.5978  0.3454  0.0796
24400SOL    HW176093   0.700   5.325   2.532  0.6660  1.2073  0.8230
24400SOL    HW276094   0.563   5.286   2.483  0.7517 -0.0588  1.5548
24401SOL     OW76095   3.214   9.050   4.577  0.9455  0.4444  0.4015
24401SOL    HW176096   3.177   8.967   4.549  1.2640 -0.2136  1.8517
24401SOL    HW276097   3.236   9.095   4.495 -0.3079 -0.3828 -0.4182
24402SOL     OW76098   5.983   5.534   6.064 -0.5589 -0.1958  0.1807
24402SOL    HW176099   5.889   5.547   6.081 -1.1887 -0.1921 -2.6622
24402SOL    HW276100   6.021   5.621   6.071 -1.4977  0.4671 -1.9822
24403SOL     OW76101  10.610   5.110   0.852 -0.3073 -0.4202 -0.2929
24403SOL    HW176102  10.682   5.062   0.810  0.5865  0.0368  0.6823
24403SOL    HW276103  10.603   5.191   0.801 -1.0836 -1.0658 -1.2526
24404SOL     OW76104   2.042   8.183   4.995  0.0270 -0.0671 -0.4656
24404SOL    HW176105   1.978   8.207   5.062  0.0802  0.0852 -0.4696
24404SOL    HW276106   2.072   8.267   4.959  0.0863 -0.1439 -0.5977
24405SOL     OW76107   4.536   7.514   0.089 -0.2043 -0.1992 -0.5027
24405SOL    HW176108   4.454   7.560   0.109  0.2922 -0.6621  3.4695
24405SOL    HW276109   4.514   7.421   0.101  0.6667 -0.3827 -0.2696
24406SOL     OW76110   5.000   7.702   9.988 -0.0966  0.5433  0.2164
24406SOL    HW176111   5.063   7.707   9.916  1.6315  2.3450  1.7413
24406SOL    HW276112   5.038   7.756  10.057 -3.0300  1.2155  1.4772
24407SOL     OW76113   4.466   2.649   0.622 -0.0684  0.0709 -0.4478
24407SOL    HW176114   4.556   2.661   0.654 -0.8747  1.1683  1.5309
24407SOL    HW276115   4.411   2.694   0.685 -1.9323  0.9290 -2.5504
24408SOL     OW76116   3.129   0.597   3.521 -0.1859  0.0386 -0.7284
24408SOL    HW176117   3.181   0.567   3.595 -1.3891  1.8173  0.9331
24408SOL    HW276118   3.057   0.533   3.515 -2.1194  1.7380  2.0780
24409SOL     OW76119   5.919   5.461   5.205 -0.1849  0.2816 -0.2187
24409SOL    HW176120   5.930   5.370   5.234 -0.8606 -0.5229 -2.2579
24409SOL    HW276121   5.824   5.472   5.201 -0.1217  1.3908  0.7964
24410SOL     OW76122   0.550  10.778   2.468 -0.2607 -0.2453 -0.4342
24410SOL    HW176123   0.589  10.768   2.555  1.2953  0.3765 -1.0102
24410SOL    HW276124   0.593  10.711   2.415  2.0859  2.0208 -1.6882
24411SOL     OW76125  10.752   5.943   4.817  0.1777  0.4981  0.2889
24411SOL    HW176126  10.811   5.869   4.834 -0.1829  0.5462  1.9754
24411SOL    HW276127  10.778   6.009   4.882 -2.0605  0.2882  1.4781
24412SOL     OW76128  10.222   0.767   6.670  0.0099  0.6500 -0.3141
24412SOL    HW176129  10.295   0.782   6.729 -1.2307 -1.0286  1.7748
24412SOL    HW276130  10.162   0.840   6.687 -0.5538 -0.0709  0.9113
24413SOL     OW76131  10.755   2.494   9.087 -0.8026 -0.1536 -0.2934
24413SOL    HW176132  10.836   2.485   9.038  0.0842  0.4853  0.9864
24413SOL    HW276133  10.758   2.583   9.123 -1.1646 -0.7352  1.2974
24414SOL     OW76134   4.592   3.691   0.300  0.1879  0.5474 -0.2961
24414SOL    HW176135   4.556   3.716   0.385  0.4995  0.7140 -0.2121
24414SOL    HW276136   4.578   3.767   0.244  0.6922  0.7324 -0.1754
24415SOL     OW76137  10.567   7.515   4.944  0.2055  0.3860  0.0832
24415SOL    HW176138  10.474   7.531   4.959 -0.2052 -0.5570 -1.2763
24415SOL    HW276139  10.612   7.581   4.997 -1.2156  0.4474  1.2583
24416SOL     OW76140   6.642   5.481   3.969  0.0450 -0.5340 -0.2479
24416SOL    HW176141   6.632   5.569   3.933 -0.5899 -0.9210 -1.0605
24416SOL    HW276142   6.598   5.424   3.906  0.3649 -1.4276  0.3095
24417SOL     OW76143   0.473   8.655   1.946  0.1437  0.1087  0.6714
24417SOL    HW176144   0.412   8.729   1.950  2.0643  1.8788 -0.6232
24417SOL    HW276145   0.430   8.592   1.888 -0.6251  1.1681  0.0459
24418SOL     OW76146   2.432   1.731   3.485 -0.4150  0.1287 -0.5617
24418SOL    HW176147   2.415   1.823   3.466 -0.4263 -0.0316 -1.3797
24418SOL    HW276148   2.522   1.717   3.456 -0.5298 -0.1967 -0.7724
24419SOL     OW76149   4.531   1.287   1.247 -0.0379 -0.6231  0.8038
24419SOL    HW176150   4.501   1.307   1.159  0.4333 -0.4894  0.6705
24419SOL    HW276151   4.615   1.332   1.255  0.2402 -1.1707  1.0840
24420SOL     OW76152   2.671   9.017   2.843  0.1722  0.2690  0.3129
24420SOL    HW176153   2.631   9.080   2.783  1.4751  1.3332  0.5251
24420SOL    HW276154   2.656   8.932   2.801 -2.6124  0.5298  0.5630
24421SOL     OW76155   4.049   6.635   8.465 -0.2734  0.6758 -0.3043
24421SOL    HW176156   3.987   6.568   8.492 -0.2071  1.2745  1.4944
24421SOL    HW276157   4.135   6.598   8.484 -0.1013  0.3141 -1.6762
24422SOL     OW76158   5.348   8.016   0.812 -0.0590 -0.4644 -0.0127
24422SOL    HW176159   5.320   8.056   0.729  1.3637  0.8021  0.0856
24422SOL    HW276160   5.287   8.050   0.877  0.7484  1.0964 -0.0387
24423SOL     OW76161   6.657   1.005   7.709  0.0271  0.2382  0.0650
24423SOL    HW176162   6.730   1.065   7.694  1.2999 -1.3648 -0.4102
24423SOL    HW276163   6.611   1.002   7.625  0.8038 -0.4993 -0.3514
24424SOL     OW76164   6.520   7.047   3.360  0.2804  0.5881  0.2254
24424SOL    HW176165   6.461   7.109   3.404 -2.8093 -4.3428  4.1115
24424SOL    HW276166   6.603   7.055   3.408 -0.4500  0.8590  1.4681
24425SOL     OW76167   2.564  10.200   3.424  0.0229 -0.0580 -0.2293
24425SOL    HW176168   2.555  10.209   3.329 -0.1505  1.1247 -0.1151
24425SOL    HW276169   2.659  10.206   3.440  0.1903 -1.7332 -0.4446
24426SOL     OW76170   2.344  10.581   5.714 -0.3510 -0.1007  0.1038
24426SOL    HW176171   2.399  10.507   5.689 -1.2116 -0.4851 -0.7501
24426SOL    HW276172   2.396  10.659   5.695  1.0521 -0.4602  2.1735
24427SOL     OW76173   9.095   9.613   1.940  0.0715 -0.1854  0.1101
24427SOL    HW176174   9.183   9.638   1.912  0.2839 -1.5205 -0.4455
24427SOL    HW276175   9.106   9.530   1.986 -0.8475 -0.1539  0.4171
24428SOL     OW76176   4.456   5.854   7.506  0.0786  0.1380 -0.6123
24428SOL    HW176177   4.409   5.832   7.587 -0.9303  0.9230 -0.9654
24428SOL    HW276178   4.395   5.833   7.436  0.1992  1.2648 -1.0797
24429SOL     OW76179   9.737   4.480   3.365 -0.6643  0.3120 -0.0205
24429SOL    HW176180   9.804   4.412   3.366 -1.4967 -0.5179  0.0279
24429SOL    HW276181   9.787   4.562   3.368  0.3660 -0.2681 -0.6986
24430SOL     OW76182   9.278   4.926   2.076 -0.3536  0.0521  0.5455
24430SOL    HW176183   9.310   4.836   2.085 -0.8253 -0.2562 -0.5845
24430SOL    HW276184   9.203   4.918   2.017 -1.4375  0.9869  1.7615
24431SOL     OW76185   9.594   3.639   3.970 -0.0423 -0.0875  0.3417
24431SOL    HW176186   9.525   3.683   3.920 -0.3855 -0.1292  0.7840
24431SOL    HW276187   9.665   3.704   3.973 -1.0028  0.9396  2.0500
24432SOL     OW76188   3.299   9.460   5.884 -0.0624  0.0499  0.1582
24432SOL    HW176189   3.212   9.500   5.885  0.6901  1.8929 -1.7586
24432SOL    HW276190   3.313   9.434   5.793  0.5374 -2.3857  0.8457
24433SOL     OW76191   9.226   3.055   9.268  0.0216  0.0402 -0.7928
24433SOL    HW176192   9.280   2.984   9.234  0.5014  0.5764 -1.1780
24433SOL    HW276193   9.221   3.038   9.362  0.5427 -0.2386 -0.8092
24434SOL     OW76194   5.148   6.691   1.228  0.8950 -0.0526  0.1779
24434SOL    HW176195   5.230   6.683   1.178 -0.4176 -1.0718 -1.9425
24434SOL    HW276196   5.110   6.773   1.197  1.0875  0.4240  1.1720
24435SOL     OW76197   8.965   4.661  10.568 -0.1005 -0.1280  0.8666
24435SOL    HW176198   9.011   4.699  10.493 -1.4461 -0.7389 -0.3124
24435SOL    HW276199   8.951   4.569  10.544 -0.2975 -0.4170  2.0004
24436SOL     OW76200   8.356   8.399   6.314 -0.4852  0.1070  0.0537
24436SOL    HW176201   8.421   8.355   6.259 -0.2631 -1.8233  1.7624
24436SOL    HW276202   8.295   8.330   6.338 -0.9831  1.0504  1.6372
24437SOL     OW76203   2.817   6.274   5.418 -0.2344 -0.3485  0.2210
24437SOL    HW176204   2.787   6.365   5.420 -0.7355 -0.5046  0.0970
24437SOL    HW276205   2.907   6.278   5.386 -0.2053  0.1152  0.3604
24438SOL     OW76206   5.664  10.155   7.802 -0.7803 -0.5887  0.0614
24438SOL    HW176207   5.676  10.188   7.891  0.3531 -0.8274  0.0209
24438SOL    HW276208   5.630  10.067   7.814 -2.6846  0.1269  0.1936
24439SOL     OW76209   6.050  10.021   6.121 -0.3461 -0.7691 -0.1178
24439SOL    HW176210   6.014  10.050   6.036  0.2813  0.6750  0.0729
24439SOL    HW276211   5.974   9.989   6.169 -0.9849 -0.1042 -0.6491
24440SOL     OW76212   3.453   1.437   1.600 -0.1012 -0.3381  0.0437
24440SOL    HW176213   3.364   1.415   1.629  0.8836 -1.6769  2.2945
24440SOL    HW276214   3.462   1.391   1.517 -0.9694 -1.6077  0.6125
24441SOL     OW76215  10.698   2.438   0.081  0.3222 -0.2759  0.2927
24441SOL    HW176216  10.705   2.345   0.060  0.6135  0.1249 -1.5081
24441SOL    HW276217  10.745   2.482   0.011  2.2231  1.1496  2.3087
24442SOL     OW76218   9.439   4.288   0.109 -0.2989  0.5278  0.3650
24442SOL    HW176219   9.492   4.266   0.185  0.7519  1.9893  0.0991
24442SOL    HW276220   9.434   4.384   0.110 -0.5531  0.5573 -1.2066
24443SOL     OW76221   5.871   4.647   9.860  0.4152  0.2292 -0.4522
24443SOL    HW176222   5.863   4.694   9.777  1.6203 -0.1345 -0.7809
24443SOL    HW276223   5.943   4.691   9.906  0.9755 -0.7279 -0.3914
24444SOL     OW76224   9.445   1.046   5.140  0.3755 -0.3443  0.4310
24444SOL    HW176225   9.450   1.034   5.235 -1.3320  2.6956  1.0399
24444SOL    HW276226   9.352   1.041   5.120  0.8153 -2.9164 -1.5214
24445SOL     OW76227   4.137  10.294   3.907  0.0170  0.3865  0.2876
24445SOL    HW176228   4.223  10.322   3.939  0.0871  0.9595 -0.3755
24445SOL    HW276229   4.075  10.326   3.972  0.3415 -0.5386  1.0778
24446SOL     OW76230   5.974   7.676   6.616 -0.0983 -0.9586  0.2734
24446SOL    HW176231   5.934   7.695   6.531 -0.8949  0.1607  0.8652
24446SOL    HW276232   5.904   7.693   6.679  0.4457 -1.8847  1.1587
24447SOL     OW76233   4.711   0.346   7.800 -0.7086 -0.0538  0.2391
24447SOL    HW176234   4.744   0.284   7.865 -1.2454 -0.1612  0.4153
24447SOL    HW276235   4.693   0.293   7.723  1.0124  0.2471 -0.4077
24448SOL     OW76236   3.820   7.013   0.571  0.2420  0.2189  0.1700
24448SOL    HW176237   3.853   7.099   0.596 -1.9516  1.6091 -1.3208
24448SOL    HW276238   3.866   6.992   0.490  1.8172 -0.7395  1.2664
24449SOL     OW76239   3.419   0.641   4.871  0.2087  0.0382  0.1642
24449SOL    HW176240   3.416   0.559   4.822 -0.5071  0.9188 -1.3480
24449SOL    HW276241   3.450   0.706   4.807  0.8724  0.9307  1.3592
24450SOL     OW76242   4.539   5.961   9.822 -0.0408 -0.4012  0.1419
24450SOL    HW176243   4.506   5.881   9.864  0.1779 -0.6658 -0.1865
24450SOL    HW276244   4.466   5.992   9.769  0.8759 -2.2275 -2.3959
24451SOL     OW76245   2.308   7.287   9.229 -0.4808  0.1982 -0.0433
24451SOL    HW176246   2.313   7.329   9.143 -1.6429 -0.6950 -0.5829
24451SOL    HW276247   2.368   7.213   9.222 -1.0999 -0.2844 -0.3481
24452SOL     OW76248   6.278   6.656   5.357 -0.1874  0.1566 -0.2376
24452SOL    HW176249   6.185   6.659   5.334  0.1749  0.1092 -1.8202
24452SOL    HW276250   6.299   6.563   5.362  0.4400  0.0754 -2.9760
24453SOL     OW76251   6.488   8.745   2.598 -0.1514  0.0099 -0.0758
24453SOL    HW176252   6.397   8.729   2.573 -0.2568 -0.0841  0.3605
24453SOL    HW276253   6.540   8.690   2.539 -0.2988  1.0684 -1.2171
24454SOL     OW76254   2.998   2.951   8.721 -0.1051  0.0580  0.2361
24454SOL    HW176255   3.031   2.902   8.797 -0.8155  1.1474  1.2781
24454SOL    HW276256   3.063   2.935   8.653  0.4883 -1.0569  1.0304
24455SOL     OW76257   7.539   1.591   5.357 -0.4070 -0.4571 -0.3406
24455SOL    HW176258   7.523   1.655   5.426  0.5036  1.0782 -1.4937
24455SOL    HW276259   7.634   1.581   5.355 -0.4054 -0.3933 -1.4111
24456SOL     OW76260  10.422   4.050   3.638  0.3975  0.9800  0.0845
24456SOL    HW176261  10.417   3.978   3.701  0.1742 -1.0110 -2.0468
24456SOL    HW276262  10.499   4.099   3.664  0.8344 -0.3081  1.3775
24457SOL     OW76263   5.587   9.623   9.508  0.3420 -0.3042  0.3068
24457SOL    HW176264   5.586   9.710   9.468 -0.5175 -0.5787 -0.2812
24457SOL    HW276265   5.555   9.637   9.597  1.8190  0.2356  0.7837
24458SOL     OW76266   5.269   3.423   0.550  0.1945 -0.2697  0.5638
24458SOL    HW176267   5.335   3.354   0.560  0.0155 -0.5052  0.1347
24458SOL    HW276268   5.207   3.389   0.486 -0.0485  0.1766  0.5532
24459SOL     OW76269   5.356  10.696   6.958  0.3021  0.3055  0.3724
24459SOL    HW176270   5.270  10.654   6.963  0.6607 -0.5423 -0.2459
24459SOL    HW276271   5.387  10.701   7.048 -1.1418  2.2719  0.8181
24460SOL     OW76272   1.581   1.315  10.065 -0.4846  0.4305  0.1058
24460SOL    HW176273   1.487   1.325  10.081 -0.6477 -0.6394 -0.0945
24460SOL    HW276274   1.619   1.397  10.096 -1.6020  1.3427 -0.8126
24461SOL     OW76275   5.390   9.956   5.770 -0.4863 -0.2453  0.2230
24461SOL    HW176276   5.445   9.955   5.849  0.4123  1.3527 -0.3429
24461SOL    HW276277   5.314  10.008   5.794 -0.0318  0.5615 -0.0662
24462SOL     OW76278   5.201   5.584   5.423 -0.5741  0.0227  0.2116
24462SOL    HW176279   5.136   5.548   5.363 -0.9817 -0.9306  1.1988
24462SOL    HW276280   5.169   5.561   5.510  0.7081  0.1686  0.7459
24463SOL     OW76281   0.208   8.147   6.894 -0.0397  0.7332 -0.0324
24463SOL    HW176282   0.135   8.144   6.833  0.5467 -0.8580 -0.7036
24463SOL    HW276283   0.229   8.241   6.902 -1.3912  1.1094 -0.7065
24464SOL     OW76284   6.152   6.930   6.260  0.3522 -0.0118 -0.1658
24464SOL    HW176285   6.220   6.996   6.246 -0.9890  1.1125 -1.8593
24464SOL    HW276286   6.087   6.973   6.314 -0.1370 -0.2174 -0.5778
24465SOL     OW76287   6.280   3.489   9.118  0.7729 -0.0784 -0.0416
24465SOL    HW176288   6.187   3.499   9.136  0.8137 -2.2447  1.8624
24465SOL    HW276289   6.320   3.480   9.205  2.8456  1.1399 -0.7892
24466SOL     OW76290   4.114   2.445   8.273 -0.0578  0.0183  0.6985
24466SOL    HW176291   4.208   2.429   8.269 -0.3153 -1.7811  0.8842
24466SOL    HW276292   4.093   2.492   8.192  1.0165  0.6156  0.7585
24467SOL     OW76293   8.320   3.974   1.152  0.6764 -0.4259 -0.0415
24467SOL    HW176294   8.360   3.905   1.206  1.9672  0.5343  0.2773
24467SOL    HW276295   8.368   3.969   1.069 -0.8896 -1.4903 -0.9333
24468SOL     OW76296   7.408   3.698   9.241  0.9854  0.6132  0.1878
24468SOL    HW176297   7.437   3.668   9.327 -1.7231  0.6964  1.2378
24468SOL    HW276298   7.438   3.789   9.236  0.3118  0.9555  1.5628
24469SOL     OW76299   0.090   0.712   3.585  0.1195  0.5342  0.3399
24469SOL    HW176300   0.040   0.706   3.666 -0.8458 -0.2408 -0.2861
24469SOL    HW276301   0.024   0.709   3.516  0.9862  0.2393 -0.5039
24470SOL     OW76302   6.137   8.995   6.949 -0.5456  0.2230 -0.1856
24470SOL    HW176303   6.162   8.904   6.967  0.3699  0.5775  0.4382
24470SOL    HW276304   6.088   9.022   7.026  0.5998  0.7489  0.3870
24471SOL     OW76305   7.116   8.149   7.797 -0.2791  0.3174 -0.2619
24471SOL    HW176306   7.161   8.075   7.838 -1.2642 -0.8925 -1.2593
24471SOL    HW276307   7.117   8.129   7.704 -0.7473  1.4636 -0.5271
24472SOL     OW76308   7.128   0.555   1.239  0.0384  0.3073 -0.2411
24472SOL    HW176309   7.055   0.587   1.187  0.1153  1.6783  0.4449
24472SOL    HW276310   7.099   0.471   1.273 -0.1395 -0.4528 -2.1803
24473SOL     OW76311   2.627   8.724   6.281 -0.2461 -0.0530 -0.3380
24473SOL    HW176312   2.590   8.809   6.303 -1.9868 -0.1184 -2.5894
24473SOL    HW276313   2.552   8.664   6.282  0.4624 -1.0014 -1.3103
24474SOL     OW76314  10.617   4.540   6.070  0.3422 -0.4806  0.0140
24474SOL    HW176315  10.610   4.571   5.980  1.7561 -0.5727 -0.1509
24474SOL    HW276316  10.564   4.460   6.073 -0.7597  0.2117 -0.3791
24475SOL     OW76317   2.249   2.878   7.145 -0.6173  0.2299  0.5128
24475SOL    HW176318   2.168   2.853   7.101  0.3399 -0.8339 -0.7009
24475SOL    HW276319   2.222   2.945   7.208 -2.2963  0.5216 -0.4632
24476SOL     OW76320   6.406   9.922   1.236 -0.6186  0.2245 -0.4518
24476SOL    HW176321   6.433  10.006   1.273  1.1399 -0.7053  0.5012
24476SOL    HW276322   6.343   9.945   1.168  0.6968  2.3844 -1.0165
24477SOL     OW76323   7.233   3.321   1.717  0.1474  0.0529 -0.2531
24477SOL    HW176324   7.153   3.372   1.725 -0.0403  0.1244 -2.1682
24477SOL    HW276325   7.298   3.383   1.684  0.9604 -0.0637  1.0484
24478SOL     OW76326   1.274  10.169   6.802  0.2976  0.5672 -0.0412
24478SOL    HW176327   1.263  10.160   6.897 -0.7191  2.3002  0.0353
24478SOL    HW276328   1.349  10.113   6.782 -1.1786 -2.1526  1.3227
24479SOL     OW76329   9.743   2.362   3.924 -0.0493  0.7305  0.4192
24479SOL    HW176330   9.651   2.371   3.946 -0.5318 -1.3293 -0.4767
24479SOL    HW276331   9.746   2.367   3.828  0.4127 -1.3141  0.2757
24480SOL     OW76332  10.099   2.523   1.789  0.0993  0.1842  0.4237
24480SOL    HW176333  10.033   2.456   1.778  1.6226 -1.1731 -1.0318
24480SOL    HW276334  10.093   2.577   1.710  0.8397 -0.1002  0.1567
24481SOL     OW76335   0.283   5.763  10.070  0.0440 -0.1532  0.0654
24481SOL    HW176336   0.223   5.701  10.112 -0.7143 -0.3946 -1.3154
24481SOL    HW276337   0.253   5.849  10.100 -1.5046 -0.2169 -1.1654
24482SOL     OW76338   3.019   6.909  10.716  0.2846 -0.4499  0.4321
24482SOL    HW176339   2.976   6.841  10.664 -0.0151 -0.4428  0.6743
24482SOL    HW276340   2.954   6.979  10.725  1.2922  0.8629 -1.6802
24483SOL     OW76341   0.897  10.128   7.265  0.0196 -0.0773  0.1836
24483SOL    HW176342   0.982  10.141   7.224 -0.4268 -1.2848 -1.2237
24483SOL    HW276343   0.916  10.079   7.345  0.8118  1.4413  0.9697
24484SOL     OW76344   7.215   2.043   4.807  0.0699  0.2730  0.2388
24484SOL    HW176345   7.193   2.038   4.900 -3.0483 -0.0655 -0.3909
24484SOL    HW276346   7.150   1.986   4.764  0.2298  1.8401 -2.2929
24485SOL     OW76347   9.980   5.899   3.979  0.2010  0.3703  0.1770
24485SOL    HW176348  10.063   5.873   3.940  0.7297  0.4047  1.2258
24485SOL    HW276349   9.928   5.819   3.982 -0.3511  0.6100 -1.7129
24486SOL     OW76350   9.018   5.812   0.572  0.7595  0.2736  0.1515
24486SOL    HW176351   9.033   5.892   0.622  1.0726  0.8870 -0.9048
24486SOL    HW276352   8.990   5.748   0.638 -3.8269  2.3010  0.5183
24487SOL     OW76353   9.922   6.978  10.735  0.1781 -0.5092  0.4405
24487SOL    HW176354   9.976   7.054  10.755 -0.0014 -0.0624 -0.7264
24487SOL    HW276355   9.866   6.968  10.812  1.0416 -0.2190  1.1266
24488SOL     OW76356   5.170   8.772   0.759 -0.6732 -0.6949  0.5951
24488SOL    HW176357   5.186   8.689   0.804  0.3079 -0.4847  0.6479
24488SOL    HW276358   5.245   8.782   0.700 -2.2777 -1.3700 -1.7370
24489SOL     OW76359  10.063   1.539   8.491 -0.0516 -0.1570 -0.2922
24489SOL    HW176360   9.968   1.557   8.494  0.0237  0.2589 -0.2920
24489SOL    HW276361  10.073   1.474   8.422 -0.4672 -1.0387  0.4549
24490SOL     OW76362   9.906   7.260   1.385  0.1626  0.2098  0.4534
24490SOL    HW176363   9.871   7.270   1.297  0.1594 -3.1805 -0.0605
24490SOL    HW276364  10.000   7.272   1.375  0.5451 -2.8245 -0.6985
24491SOL     OW76365   6.182   2.882   2.147 -0.2201  0.0366 -0.5269
24491SOL    HW176366   6.184   2.833   2.065  0.2882  0.3669 -0.7220
24491SOL    HW276367   6.252   2.844   2.200 -1.3070 -0.9628  0.2379
24492SOL     OW76368   1.696   1.451   0.848 -0.3657 -0.0473 -0.0888
24492SOL    HW176369   1.772   1.508   0.853  0.6785 -1.4161  0.5750
24492SOL    HW276370   1.671   1.437   0.940 -0.9853 -0.1714 -0.2693
24493SOL     OW76371   1.549   1.587   4.757  0.3372  0.2331  0.3838
24493SOL    HW176372   1.554   1.554   4.847  1.5064 -1.0364 -0.1076
24493SOL    HW276373   1.616   1.538   4.710 -1.2595 -0.2366 -1.5305
24494SOL     OW76374   9.348   6.202  10.696 -0.2871 -0.1314 -0.5700
24494SOL    HW176375   9.347   6.138  10.768 -1.7596 -0.9196 -1.2599
24494SOL    HW276376   9.371   6.285  10.739 -0.6983 -0.6622  0.7362
24495SOL     OW76377   8.349   3.890   2.707  0.7503 -0.2421 -0.5076
24495SOL    HW176378   8.422   3.925   2.654 -0.1905  0.5341 -1.3367
24495SOL    HW276379   8.276   3.948   2.687 -0.2512 -1.3416 -0.1106
24496SOL     OW76380   8.240   3.281   3.787 -0.1024 -0.0561 -0.0011
24496SOL    HW176381   8.176   3.342   3.825 -0.1897  1.2524 -2.0782
24496SOL    HW276382   8.291   3.335   3.726  0.9179 -1.7305 -0.6935
24497SOL     OW76383  10.166   8.441   9.501 -0.3510  0.2560  0.7018
24497SOL    HW176384  10.124   8.382   9.438  0.8730  0.3356 -0.2318
24497SOL    HW276385  10.095   8.497   9.533 -1.1570 -0.3533  0.0403
24498SOL     OW76386   6.784   8.692   4.452 -0.4731 -0.8294 -0.0474
24498SOL    HW176387   6.781   8.783   4.483  1.6327 -0.4346 -0.8198
24498SOL    HW276388   6.695   8.661   4.462 -1.3438  1.4343 -0.0935
24499SOL     OW76389   4.387   4.608   1.564 -0.0469 -0.1164  0.0250
24499SOL    HW176390   4.471   4.565   1.580  0.6864  1.3205  0.1700
24499SOL    HW276391   4.329   4.571   1.630  1.0734  0.5115  1.4256
24500SOL     OW76392   9.953   6.591   1.115 -0.3462  0.0219 -0.3883
24500SOL    HW176393  10.013   6.546   1.173 -2.1729  0.1526  1.7336
24500SOL    HW276394   9.937   6.676   1.157 -0.8323  0.6201 -1.7043
24501SOL     OW76395   8.461   0.109   8.469  0.1218 -0.4722  0.2955
24501SOL    HW176396   8.452   0.027   8.420  1.1251 -0.4928  0.1253
24501SOL    HW276397   8.552   0.136   8.454 -0.2815  0.8402  0.0858
24502SOL     OW76398  10.741  10.220   3.529 -0.4849 -0.5717  0.6050
24502SOL    HW176399  10.821  10.225   3.581  0.8400  1.9096 -1.4042
24502SOL    HW276400  10.773  10.205   3.439 -2.3567 -0.6763 -0.0739
24503SOL     OW76401   9.232   8.505   0.362 -0.4008  0.1986 -0.2383
24503SOL    HW176402   9.201   8.592   0.339 -1.7918 -0.5828 -1.4402
24503SOL    HW276403   9.325   8.505   0.339 -0.3720  1.3749 -0.1457
24504SOL     OW76404   0.483   6.648   0.199  0.2626  0.4275  0.4101
24504SOL    HW176405   0.555   6.615   0.253 -0.2998  0.2681  1.0746
24504SOL    HW276406   0.500   6.612   0.112 -1.6223 -3.7881  1.5285
24505SOL     OW76407   4.618   7.399   7.766 -0.2123  0.0775  0.0958
24505SOL    HW176408   4.668   7.477   7.741 -0.1667  0.2943  0.8425
24505SOL    HW276409   4.673   7.326   7.738  0.7028  0.3125  1.2111
24506SOL     OW76410   9.689   4.644   9.043  0.2765  0.0711  0.3276
24506SOL    HW176411   9.695   4.697   9.123 -0.2987  1.9543 -0.8065
24506SOL    HW276412   9.627   4.575   9.065  0.0479  0.6191  1.4901
24507SOL     OW76413   0.034   7.094   7.339  0.0222  0.5536  0.6220
24507SOL    HW176414  -0.010   7.123   7.259 -0.9433 -0.3662  0.8015
24507SOL    HW276415   0.046   7.000   7.328 -1.0812  0.2164  1.9723
24508SOL     OW76416   8.072   1.492   1.705  0.5833  0.1696 -0.0329
24508SOL    HW176417   8.086   1.398   1.694 -0.0579  0.2519 -1.7608
24508SOL    HW276418   8.117   1.533   1.631  0.5006  1.2047  0.4618
24509SOL     OW76419   5.936   6.722   6.684  0.1224  0.0858 -0.0694
24509SOL    HW176420   5.963   6.750   6.772  3.0691 -1.2137 -0.4209
24509SOL    HW276421   6.018   6.722   6.634 -1.4509  0.6182 -2.8054
24510SOL     OW76422   8.545   2.276   0.699 -0.6715 -0.4571 -0.6333
24510SOL    HW176423   8.534   2.369   0.679 -2.4475 -0.3676  0.5003
24510SOL    HW276424   8.544   2.232   0.614 -0.9219  0.4634 -1.1161
24511SOL     OW76425   4.373   4.603   0.256 -0.1613 -0.6043  0.0934
24511SOL    HW176426   4.337   4.647   0.179 -2.1413  0.3680  1.4629
24511SOL    HW276427   4.304   4.543   0.283 -0.0977  0.0486  1.8474
24512SOL     OW76428   2.775   1.795   7.592  0.8543 -0.1138 -0.1135
24512SOL    HW176429   2.705   1.733   7.613  2.3191 -1.4056  1.2791
24512SOL    HW276430   2.757   1.871   7.647  1.3469 -1.0742  1.4383
24513SOL     OW76431   8.376   6.978   5.614 -0.2472 -0.4008  0.2244
24513SOL    HW176432   8.311   7.047   5.625 -0.5537 -0.7105  0.3934
24513SOL    HW276433   8.341   6.905   5.665  0.2644 -0.5495  0.3599
24514SOL     OW76434  10.232   2.716   6.993  0.2345 -0.7542  0.0599
24514SOL    HW176435  10.170   2.704   6.922  0.7126  1.3864 -0.8047
24514SOL    HW276436  10.318   2.706   6.952  0.5284  0.8588  0.2036
24515SOL     OW76437   0.175   2.930   2.280 -0.5393 -0.2501  0.0937
24515SOL    HW176438   0.108   2.918   2.213 -0.5709  0.2057  0.0374
24515SOL    HW276439   0.127   2.933   2.363 -0.8270  1.9003 -0.0788
24516SOL     OW76440   8.183   8.944   5.578  0.2769  0.1049  0.2711
24516SOL    HW176441   8.235   8.939   5.658 -1.0529  1.3082  1.2824
24516SOL    HW276442   8.207   9.028   5.539  0.2276 -0.0416 -0.0764
24517SOL     OW76443   3.366   9.797   0.020  0.1884  0.0482 -0.4413
24517SOL    HW176444   3.315   9.779   0.099  1.0302  0.1299  0.1369
24517SOL    HW276445   3.428   9.865   0.046  0.0918  0.4934 -1.3395
24518SOL     OW76446   8.150   3.111   6.876 -0.1825 -0.2880  0.2971
24518SOL    HW176447   8.217   3.092   6.942  2.3915 -1.4872 -2.4156
24518SOL    HW276448   8.195   3.166   6.811 -2.3684  0.3192 -0.8162
24519SOL     OW76449   2.620   3.204   3.495  0.2413 -0.2026 -0.6281
24519SOL    HW176450   2.713   3.219   3.481  0.2659 -1.7038 -2.4536
24519SOL    HW276451   2.611   3.109   3.505 -1.1133 -0.1030 -0.6399
24520SOL     OW76452   1.670   6.043   4.245  0.3700 -0.4837 -0.3883
24520SOL    HW176453   1.581   6.073   4.225 -0.2522 -1.7300  0.3905
24520SOL    HW276454   1.693   6.089   4.326  0.3738 -0.2707 -0.5107
24521SOL     OW76455   8.207   5.730  10.645 -0.4324 -0.2297  0.2369
24521SOL    HW176456   8.246   5.817  10.653 -2.3379  0.6345  0.5542
24521SOL    HW276457   8.114   5.746  10.629 -0.8795 -2.2109  0.5529
24522SOL     OW76458   9.441   3.963   3.086  0.2397 -0.1988  0.0349
24522SOL    HW176459   9.519   3.992   3.038 -0.8210 -0.8767 -2.2788
24522SOL    HW276460   9.369   4.013   3.047 -0.6041 -0.1806  1.5446
24523SOL     OW76461   0.950   2.465   3.379 -0.3585 -0.2653  0.2378
24523SOL    HW176462   0.876   2.406   3.390 -1.1948  0.7415  0.1043
24523SOL    HW276463   0.911   2.549   3.357  0.7982  0.4112  0.6827
24524SOL     OW76464   8.534   5.080   1.020 -0.3024 -0.3199  0.1125
24524SOL    HW176465   8.505   5.080   1.111 -1.9939 -0.3380 -0.4091
24524SOL    HW276466   8.576   5.165   1.008 -0.5036 -0.1277  0.7618
24525SOL     OW76467   5.682   9.618   5.428 -0.0917  0.5799 -0.1138
24525SOL    HW176468   5.759   9.667   5.455 -0.4810  0.3133  1.5730
24525SOL    HW276469   5.709   9.527   5.430 -0.0317  0.5679 -1.0028
24526SOL     OW76470  10.096   0.562   1.166  0.2977 -0.0592 -0.0786
24526SOL    HW176471  10.043   0.588   1.090  0.0214  2.0375  0.7807
24526SOL    HW276472  10.046   0.590   1.242  0.8032 -1.6781  0.9156
24527SOL     OW76473   2.932   4.384   2.615 -0.3083  0.3515 -0.0157
24527SOL    HW176474   2.959   4.351   2.530  2.6495  0.6510  0.7207
24527SOL    HW276475   2.970   4.472   2.621 -1.1809  0.6778  1.2780
24528SOL     OW76476  10.299   5.768   0.901  0.1509  0.2482  0.3412
24528SOL    HW176477  10.356   5.840   0.926  2.9383 -1.4800 -0.6026
24528SOL    HW276478  10.288   5.777   0.806 -1.3640  0.6320  0.5175
24529SOL     OW76479   1.594   9.045  10.109 -0.4226  0.5249 -0.1971
24529SOL    HW176480   1.589   9.135  10.077 -0.4977  0.4172 -0.4925
24529SOL    HW276481   1.513   9.032  10.158 -0.5165  0.5435 -0.3480
24530SOL     OW76482   4.282   0.781   0.274  0.0131  0.5903  0.0964
24530SOL    HW176483   4.265   0.875   0.279 -0.5635  0.5932 -1.3529
24530SOL    HW276484   4.374   0.775   0.247 -0.1612  0.7647 -0.5535
24531SOL     OW76485   3.944   4.736   6.541  0.5628 -0.1447 -0.0705
24531SOL    HW176486   3.864   4.711   6.586  1.0838 -0.1197  0.9034
24531SOL    HW276487   3.991   4.654   6.527  0.9141 -0.0404  0.4570
24532SOL     OW76488   5.145   3.864   2.435  0.2218  0.1302  0.5261
24532SOL    HW176489   5.064   3.814   2.434 -0.5926  1.3941 -1.4593
24532SOL    HW276490   5.126   3.940   2.491  0.0701  0.3442  0.1888
24533SOL     OW76491   0.930   1.017  10.313  0.8090  0.7159 -0.3980
24533SOL    HW176492   1.026   1.016  10.316  0.8512 -1.7603  0.1694
24533SOL    HW276493   0.907   0.940  10.261 -0.8602  0.1640  1.0581
24534SOL     OW76494   5.415   5.652   5.290 -0.6204  0.1092 -0.1938
24534SOL    HW176495   5.364   5.657   5.209 -2.0565 -0.1574  0.6512
24534SOL    HW276496   5.352   5.624   5.357  0.6282 -0.1500  0.9336
24535SOL     OW76497   3.689   5.572   6.284  0.3029  0.2335  0.1657
24535SOL    HW176498   3.736   5.604   6.207 -1.2796 -0.3106 -1.0943
24535SOL    HW276499   3.739   5.604   6.358  1.8764  0.8106 -1.0865
24536SOL     OW76500  10.225   6.733   1.034  0.1475 -0.1605 -0.3737
24536SOL    HW176501  10.278   6.653   1.039 -1.2524 -1.0555  2.0525
24536SOL    HW276502  10.140   6.703   1.003 -0.4050  0.3497  0.5925
24537SOL     OW76503   0.034   6.202   7.724  0.0507 -0.1368  0.0421
24537SOL    HW176504  -0.062   6.192   7.720 -0.1815  1.7896 -0.5332
24537SOL    HW276505   0.068   6.122   7.684 -1.4159  0.0784 -1.7977
24538SOL     OW76506   0.492   2.072   0.085  0.0191 -0.0348  0.1485
24538SOL    HW176507   0.419   2.046   0.029 -1.2650  0.6989  1.4127
24538SOL    HW276508   0.568   2.028   0.047 -0.9966 -0.5199 -1.4387
24539SOL     OW76509   2.398   7.229   6.304  0.4922  0.2406  0.0008
24539SOL    HW176510   2.345   7.307   6.292  1.1985  0.8964  1.0187
24539SOL    HW276511   2.351   7.178   6.370 -0.1869 -0.4292 -0.9597
24540SOL     OW76512   8.422   8.966   2.309 -0.2910  0.0765  0.2657
24540SOL    HW176513   8.481   9.035   2.342  0.7094 -0.8101  0.3851
24540SOL    HW276514   8.387   9.003   2.228  0.3754  0.6670  0.2247
24541SOL     OW76515   8.031   6.210   6.813  0.2181  0.7729 -0.0797
24541SOL    HW176516   8.101   6.267   6.780  0.7246 -0.4587 -1.2074
24541SOL    HW276517   7.951   6.248   6.778  0.4175  1.5949  0.3394
24542SOL     OW76518   1.761   9.708   0.075  0.3841 -0.8264 -0.5109
24542SOL    HW176519   1.806   9.624   0.061  1.2291 -0.4448 -0.1313
24542SOL    HW276520   1.714   9.696   0.158  1.5639 -0.4871  0.2179
24543SOL     OW76521   9.428   9.294   0.706 -0.0515 -0.2498 -0.5191
24543SOL    HW176522   9.511   9.323   0.745 -0.4855  0.5680 -0.1878
24543SOL    HW276523   9.428   9.199   0.720  0.4907 -0.1638  0.1456
24544SOL     OW76524   9.394  10.742   1.824  0.0773 -0.0007  0.7467
24544SOL    HW176525   9.485  10.769   1.825  0.3662 -0.9320  1.1516
24544SOL    HW276526   9.345  10.819   1.796  1.1199  0.1343 -0.8076
24545SOL     OW76527   4.585   4.138   5.268  0.0998 -0.2976 -0.6178
24545SOL    HW176528   4.577   4.228   5.298  1.1463 -0.1987 -0.6134
24545SOL    HW276529   4.667   4.106   5.306 -1.0188 -1.7711  0.6785
24546SOL     OW76530   3.321   4.635   5.776 -0.4190  0.3591 -0.7729
24546SOL    HW176531   3.341   4.579   5.851 -0.2673  0.8973 -0.4058
24546SOL    HW276532   3.271   4.579   5.716 -2.0984  0.3977  0.5141
24547SOL     OW76533   1.578   3.149   7.867  0.8004  0.3300 -0.0641
24547SOL    HW176534   1.520   3.155   7.791 -1.4236  0.1757  1.5261
24547SOL    HW276535   1.595   3.240   7.892  0.5351  0.3671 -0.0215
24548SOL     OW76536   1.302   4.042   5.322 -0.3001 -0.1732  0.2622
24548SOL    HW176537   1.365   4.030   5.250 -0.4719  0.9047 -0.0888
24548SOL    HW276538   1.223   4.074   5.280 -0.4275  0.4027  0.9164
24549SOL     OW76539   0.456   6.225   9.709  0.1243 -0.4942 -0.3293
24549SOL    HW176540   0.497   6.256   9.790 -0.9343 -1.2401  0.5204
24549SOL    HW276541   0.447   6.304   9.655  1.3600 -0.0801  0.0272
24550SOL     OW76542  10.725   8.124   2.951  0.1953  0.1908 -0.1930
24550SOL    HW176543  10.809   8.142   2.994 -0.2218  0.7701  0.4043
24550SOL    HW276544  10.725   8.030   2.937  0.7430  0.1198  0.2470
24551SOL     OW76545   7.172   8.102   5.134 -0.4148 -0.2903  0.2753
24551SOL    HW176546   7.155   8.133   5.223  1.5129  2.3479 -0.1359
24551SOL    HW276547   7.160   8.180   5.079 -0.0474 -1.4670 -1.5721
24552SOL     OW76548   4.759   5.857   8.334  0.3974 -0.2995 -0.5546
24552SOL    HW176549   4.844   5.820   8.359  0.1534  1.0094  2.6781
24552SOL    HW276550   4.743   5.926   8.398 -2.9817 -0.2842 -1.2363
24553SOL     OW76551   2.598   8.399   2.617  0.0641  0.0969 -0.2395
24553SOL    HW176552   2.566   8.443   2.696 -1.9002 -0.0028 -0.9159
24553SOL    HW276553   2.627   8.313   2.648  0.8255  0.6270  0.5875
24554SOL     OW76554   9.118   5.788   9.147  0.4747  0.2742  0.8262
24554SOL    HW176555   9.090   5.759   9.061  2.1749 -0.2340  0.4248
24554SOL    HW276556   9.175   5.863   9.131  1.5322 -0.3705  1.4239
24555SOL     OW76557   3.702   8.636   8.121 -0.3833 -0.0729  0.5604
24555SOL    HW176558   3.751   8.557   8.142  2.5751  1.7728  1.1071
24555SOL    HW276559   3.723   8.654   8.029 -0.4971  0.4449  0.6314
24556SOL     OW76560  10.447   4.247   2.799 -0.6701  0.3712  0.0572
24556SOL    HW176561  10.366   4.234   2.749  0.0587 -0.8987 -0.8780
24556SOL    HW276562  10.442   4.337   2.832 -2.2149  0.4787 -0.4193
24557SOL     OW76563   5.801   3.088   3.057  0.3776  0.5672 -0.1271
24557SOL    HW176564   5.746   3.137   2.995  1.0667  1.8781  0.2764
24557SOL    HW276565   5.802   2.999   3.021 -0.5979  0.9080 -1.0825
24558SOL     OW76566   7.938   0.218   7.644  0.0097 -0.3420  0.1124
24558SOL    HW176567   8.024   0.240   7.680  0.0954  0.2439 -0.4331
24558SOL    HW276568   7.909   0.298   7.600  0.3209 -1.3000 -1.9603
24559SOL     OW76569   5.539   3.783   2.080 -0.3677  0.4247 -0.3970
24559SOL    HW176570   5.605   3.830   2.029  0.5789 -0.8961 -0.4524
24559SOL    HW276571   5.565   3.691   2.074 -0.6662  0.1275  1.8267
24560SOL     OW76572   8.940   7.538   3.936 -0.2737 -0.7223  0.0887
24560SOL    HW176573   8.934   7.442   3.943 -0.3908 -0.6479  1.3384
24560SOL    HW276574   9.024   7.554   3.894 -0.2776 -1.3752 -0.1875
24561SOL     OW76575   6.182  10.139   0.411 -0.2988 -0.0300 -0.1991
24561SOL    HW176576   6.174  10.234   0.403 -0.4666  0.4141  3.3917
24561SOL    HW276577   6.091  10.108   0.410 -0.4720  0.2955  1.7034
24562SOL     OW76578   8.353   0.012   1.914 -0.3019  0.1214  0.2244
24562SOL    HW176579   8.286   0.052   1.860  0.6485 -0.9931 -1.8751
24562SOL    HW276580   8.368   0.076   1.985 -2.9285  0.7383  0.3086
24563SOL     OW76581   6.175   8.165   6.063 -0.2824 -0.8227  0.1762
24563SOL    HW176582   6.169   8.109   6.141 -0.3047 -1.5128 -0.3154
24563SOL    HW276583   6.198   8.252   6.098  1.5978 -1.5287  0.7973
24564SOL     OW76584   0.925   7.068   0.294 -0.3383 -0.6423 -1.0184
24564SOL    HW176585   1.019   7.070   0.275 -0.0637  1.2044  0.2358
24564SOL    HW276586   0.885   7.118   0.222 -0.3502 -1.2198 -1.4210
24565SOL     OW76587   7.780   4.969   3.977 -0.7116 -0.7192 -0.2170
24565SOL    HW176588   7.842   4.907   4.015 -0.6678 -0.3197  0.3695
24565SOL    HW276589   7.696   4.923   3.980 -0.1868 -2.1280 -2.9420
24566SOL     OW76590   7.728   7.821   7.713 -0.1758 -0.4564 -0.1274
24566SOL    HW176591   7.713   7.859   7.626  0.2215  1.1359  0.4552
24566SOL    HW276592   7.664   7.867   7.769  0.0679 -0.9339  0.5471
24567SOL     OW76593   6.690   4.541   5.332  0.0394 -0.1181  0.4382
24567SOL    HW176594   6.777   4.575   5.309 -0.1534  0.0256 -0.1163
24567SOL    HW276595   6.677   4.466   5.274 -0.6396  0.5141 -0.2709
24568SOL     OW76596   0.391   0.667   2.684 -0.0696  0.6214  0.9591
24568SOL    HW176597   0.456   0.678   2.615 -0.4187 -0.1081  0.5006
24568SOL    HW276598   0.438   0.689   2.765  1.0837 -0.8824  0.7622
24569SOL     OW76599   6.785   3.692   1.134  0.2895 -0.1175 -0.2333
24569SOL    HW176600   6.793   3.609   1.181 -0.5793 -1.2306 -1.9390
24569SOL    HW276601   6.874   3.728   1.135  0.9391 -1.6312 -0.4006
24570SOL     OW76602   0.584   9.726   7.137  0.2625 -0.2503  0.0783
24570SOL    HW176603   0.534   9.647   7.160  1.5528 -0.9698  0.5381
24570SOL    HW276604   0.536   9.764   7.063 -0.6868 -1.1719  0.1931
24571SOL     OW76605   9.804   3.547  10.291 -0.1930 -0.3695 -0.0204
24571SOL    HW176606   9.794   3.540  10.386  0.6533 -0.5337  0.0656
24571SOL    HW276607   9.871   3.482  10.269  0.0156  0.0499 -0.6595
24572SOL     OW76608   7.140  10.300   8.155  0.1526  0.2788 -0.1896
24572SOL    HW176609   7.054  10.301   8.114 -0.2145 -0.4786  0.5314
24572SOL    HW276610   7.179  10.385   8.132 -0.5715  0.4185 -0.9451
24573SOL     OW76611   4.980   9.578   3.053  0.2193 -0.7565 -0.3310
24573SOL    HW176612   5.053   9.615   3.102 -0.9652 -0.1590  1.0579
24573SOL    HW276613   4.983   9.623   2.968  0.4807  0.4986  0.3111
24574SOL     OW76614   5.194   8.738   6.797 -0.3509  0.8506  0.1918
24574SOL    HW176615   5.228   8.827   6.787  1.5486  0.0243 -1.6046
24574SOL    HW276616   5.273   8.683   6.802 -1.3770 -0.9943 -2.0245
24575SOL     OW76617  10.609   0.048   6.438  0.0317 -0.1835 -0.1373
24575SOL    HW176618  10.668  -0.026   6.452 -3.0068 -2.6846  0.5165
24575SOL    HW276619  10.582   0.074   6.526 -0.7760  0.0614 -0.4516
24576SOL     OW76620   5.929   4.754   1.155  0.3707 -0.8801 -0.3653
24576SOL    HW176621   5.869   4.701   1.102 -0.9260 -0.1813  0.3614
24576SOL    HW276622   5.904   4.845   1.137 -0.4656 -0.6241  1.7874
24577SOL     OW76623  10.410   5.141   0.039 -0.0820 -0.0075 -0.6952
24577SOL    HW176624  10.434   5.074  -0.025 -1.2402 -1.2221  0.0560
24577SOL    HW276625  10.349   5.096   0.098 -0.2410  1.4929  0.3523
24578SOL     OW76626   6.776   9.415   9.670 -0.2427  0.0402 -0.1257
24578SOL    HW176627   6.704   9.430   9.609 -0.3729  0.7965  0.2011
24578SOL    HW276628   6.782   9.320   9.676 -0.4347 -0.0443 -1.0638
24579SOL     OW76629   9.112   9.442   1.539  0.0513 -0.1182 -0.0187
24579SOL    HW176630   9.048   9.392   1.589  1.3685  0.1126  1.9819
24579SOL    HW276631   9.163   9.489   1.604  2.5965 -0.6557 -1.4929
24580SOL     OW76632   7.596   8.529   5.038 -0.0675 -0.1788 -0.0892
24580SOL    HW176633   7.517   8.565   4.998 -0.9026 -0.1959  1.4767
24580SOL    HW276634   7.565   8.479   5.113  1.4791  0.6623  1.1763
24581SOL     OW76635   4.143   3.637   5.518 -0.0487 -0.4455  0.3452
24581SOL    HW176636   4.172   3.669   5.433  1.0372 -2.3347 -0.0501
24581SOL    HW276637   4.048   3.650   5.517 -0.3794 -2.3230 -2.0474
24582SOL     OW76638   6.862   5.541  10.541 -0.4340 -0.1741 -0.1488
24582SOL    HW176639   6.957   5.544  10.531 -0.5453  0.7229 -1.0946
24582SOL    HW276640   6.832   5.487  10.468 -0.6667 -0.4326  0.1320
24583SOL     OW76641   3.829  10.476   9.685 -0.2967  0.2377  0.1819
24583SOL    HW176642   3.803  10.477   9.593  2.6591 -0.4604 -0.7767
24583SOL    HW276643   3.889  10.402   9.692  1.6491  1.8396  1.9965
24584SOL     OW76644   6.112   3.610   1.360 -0.2089  0.3389  0.0133
24584SOL    HW176645   6.031   3.643   1.323 -0.2267 -0.3131 -0.5405
24584SOL    HW276646   6.145   3.683   1.413 -1.0160  0.6964  0.0402
24585SOL     OW76647   2.229   3.922   5.620 -0.4821 -0.2493  0.3955
24585SOL    HW176648   2.283   3.844   5.607 -1.3375 -0.7111 -0.5221
24585SOL    HW276649   2.147   3.902   5.576 -1.0338  0.8417  0.8953
24586SOL     OW76650   1.053   3.453  10.197 -0.1122  0.2965  0.0125
24586SOL    HW176651   0.958   3.456  10.211 -0.4665 -0.7625 -1.8136
24586SOL    HW276652   1.077   3.543  10.177 -0.7375  0.5790  0.4955
24587SOL     OW76653   9.958   7.790   9.511  0.0926 -0.5162  0.1289
24587SOL    HW176654   9.902   7.723   9.552 -1.1048  0.9442  0.9780
24587SOL    HW276655  10.037   7.791   9.566 -0.1411 -0.7996  0.4768
24588SOL     OW76656   2.268   7.126   6.503  0.1433  0.1670  0.2911
24588SOL    HW176657   2.240   7.179   6.578 -0.9930  0.6910 -0.4857
24588SOL    HW276658   2.287   7.040   6.540 -0.6554  0.3478  1.1517
24589SOL     OW76659  10.463   9.067   4.856  0.2765 -0.4124  0.5153
24589SOL    HW176660  10.510   9.111   4.785 -1.0751 -0.8797 -0.7250
24589SOL    HW276661  10.447   9.136   4.920  0.3602  0.3376 -0.2512
24590SOL     OW76662   8.964   2.812   7.222  0.0768 -0.1048  0.4414
24590SOL    HW176663   8.944   2.729   7.179  2.7622 -0.2301 -0.7150
24590SOL    HW276664   8.935   2.799   7.312 -0.7747 -1.7844 -0.0202
24591SOL     OW76665   0.784   4.187   2.164 -0.2269  0.0228  0.6295
24591SOL    HW176666   0.806   4.221   2.251  0.4335 -1.5363  1.0933
24591SOL    HW276667   0.845   4.231   2.105 -1.8573  2.4873  0.6305
24592SOL     OW76668   4.223   2.516   7.753  0.0456 -0.5766  0.0614
24592SOL    HW176669   4.156   2.542   7.690 -1.0207 -0.1380  1.3217
24592SOL    HW276670   4.255   2.599   7.789  0.5870 -0.8194  0.1467
24593SOL     OW76671   0.730   7.476   8.207  0.3773 -0.2475 -0.2099
24593SOL    HW176672   0.677   7.399   8.187  0.9376 -0.3468 -1.4571
24593SOL    HW276673   0.806   7.441   8.253  2.0570 -0.9323 -3.2211
24594SOL     OW76674   9.670   9.644   2.116  0.0955 -0.0507  0.4919
24594SOL    HW176675   9.749   9.616   2.163  0.4307 -2.6615 -1.3797
24594SOL    HW276676   9.703   9.695   2.043  0.0746 -0.9294 -0.1474
24595SOL     OW76677   2.703  10.038   0.587  0.2880  1.0775  0.3781
24595SOL    HW176678   2.642  10.071   0.652 -0.5825  1.5638 -0.6614
24595SOL    HW276679   2.739   9.959   0.627 -2.3066 -0.2228  0.3582
24596SOL     OW76680   7.102   9.614   6.355  0.1210 -0.2734  0.0431
24596SOL    HW176681   7.105   9.566   6.273 -0.7935 -1.4366  0.6547
24596SOL    HW276682   7.159   9.565   6.414  1.9750  1.3859 -0.2715
24597SOL     OW76683   5.479   4.814   0.636 -0.0338 -0.2485 -0.0201
24597SOL    HW176684   5.564   4.857   0.634 -0.9795  1.7420  0.6487
24597SOL    HW276685   5.451   4.812   0.545 -0.6132  1.9505  0.0743
24598SOL     OW76686   9.366   6.831   0.736  0.4865  0.1142 -0.3896
24598SOL    HW176687   9.391   6.902   0.676 -2.7492  3.2490  1.5928
24598SOL    HW276688   9.305   6.778   0.685  0.7403  0.4020 -1.0188
24599SOL     OW76689   9.144   8.997   7.805  0.2640  0.0276  0.1361
24599SOL    HW176690   9.158   8.967   7.715  1.7619  0.1506  0.3109
24599SOL    HW276691   9.054   8.971   7.825 -0.1273  0.0774 -1.4195
24600SOL     OW76692   2.299   7.372   8.960  0.0291  0.0858  0.1109
24600SOL    HW176693   2.330   7.429   8.889 -0.0847  0.2118  0.1636
24600SOL    HW276694   2.204   7.378   8.956 -0.0655 -1.3405 -0.9194
24601SOL     OW76695   3.281   9.216   1.295  0.2878 -0.0302  0.0384
24601SOL    HW176696   3.231   9.225   1.213  2.5501 -0.2644 -1.4365
24601SOL    HW276697   3.221   9.170   1.354 -2.5921  2.8387 -0.3417
24602SOL     OW76698   3.263   4.819   4.532 -0.0414 -0.2857  0.2975
24602SOL    HW176699   3.289   4.776   4.451  2.4130 -0.3700  1.0395
24602SOL    HW276700   3.214   4.896   4.504  2.4482  0.7973 -1.3926
24603SOL     OW76701   4.635   4.500   1.559  0.9922 -0.4019  0.3697
24603SOL    HW176702   4.693   4.461   1.494  1.6840  0.2914  0.5657
24603SOL    HW276703   4.652   4.451   1.640 -1.6656 -2.9966 -0.4620
24604SOL     OW76704   3.378   3.666   2.174  0.2697  0.2377 -0.6715
24604SOL    HW176705   3.339   3.753   2.161  2.3018  1.1158 -1.4500
24604SOL    HW276706   3.372   3.624   2.088 -4.0508 -2.0524  0.4516
24605SOL     OW76707   8.066   0.773   1.599  0.2067 -0.1952  0.0800
24605SOL    HW176708   8.146   0.740   1.641  0.3577  0.1524  0.0625
24605SOL    HW276709   7.996   0.748   1.659  0.3812 -0.0563  0.3446
24606SOL     OW76710   6.212   0.467   1.440  0.3869 -0.5503  0.0977
24606SOL    HW176711   6.200   0.461   1.345 -0.7856 -0.6543  0.2322
24606SOL    HW276712   6.143   0.527   1.468  1.4147  0.3590  0.7684
24607SOL     OW76713   7.921   5.957   6.716  0.1780 -0.5465 -0.8195
24607SOL    HW176714   8.000   5.903   6.723  0.8758  0.6695  2.8509
24607SOL    HW276715   7.948   6.043   6.749 -2.3951  0.2517 -0.6013
24608SOL     OW76716   6.701   9.527   7.400  0.0080  0.2304 -0.2926
24608SOL    HW176717   6.640   9.457   7.378 -1.4744  1.1332  0.7939
24608SOL    HW276718   6.787   9.493   7.373 -1.1558 -0.1056 -4.2096
24609SOL     OW76719   6.619   8.213   8.722 -0.7962 -0.2895  0.2551
24609SOL    HW176720   6.686   8.145   8.715 -0.2911  0.2357 -0.2225
24609SOL    HW276721   6.590   8.209   8.814 -1.3822 -1.6820  0.0315
24610SOL     OW76722   1.733   0.555   5.392 -0.4197 -0.2031  0.0882
24610SOL    HW176723   1.814   0.516   5.359 -1.7566 -2.8819 -0.2398
24610SOL    HW276724   1.694   0.598   5.316 -0.5668 -1.1892 -0.4068
24611SOL     OW76725   2.734   3.849   7.338 -0.2833  0.3706  0.0064
24611SOL    HW176726   2.797   3.805   7.396  0.0626 -2.2301 -2.1218
24611SOL    HW276727   2.679   3.900   7.396  0.8442 -1.0433  2.4754
24612SOL     OW76728   1.971   6.777   5.091  0.1047 -0.0231 -0.1240
24612SOL    HW176729   2.012   6.800   5.174 -0.4662  0.0168  0.1462
24612SOL    HW276730   1.953   6.861   5.049 -0.8619  0.0131  0.3256
24613SOL     OW76731   4.250   9.930   3.703  0.1387  0.0344  0.0607
24613SOL    HW176732   4.246   9.838   3.730  1.2999 -0.1210 -0.2468
24613SOL    HW276733   4.270   9.927   3.609  0.5185  0.6093  0.1197
24614SOL     OW76734   2.369  10.160   4.364 -0.0280  0.6132  0.0010
24614SOL    HW176735   2.410  10.074   4.362 -0.5485  0.3278  0.9111
24614SOL    HW276736   2.335  10.168   4.453 -0.1047  1.7081 -0.1097
24615SOL     OW76737   5.848   9.331   1.241  0.0803 -0.0121  0.0057
24615SOL    HW176738   5.927   9.328   1.295 -0.3368 -0.9126  0.6031
24615SOL    HW276739   5.776   9.327   1.304 -0.4316 -0.0631 -0.5726
24616SOL     OW76740   4.025   6.071   2.503  0.1430  0.0174  0.2794
24616SOL    HW176741   4.079   6.000   2.536 -0.5312  0.1129  1.6763
24616SOL    HW276742   3.979   6.033   2.428  1.8017 -0.1726 -0.7026
24617SOL     OW76743   2.459   7.284   1.453  0.1400  0.1860 -0.0223
24617SOL    HW176744   2.548   7.295   1.487  0.6419 -0.9862 -0.8972
24617SOL    HW276745   2.467   7.295   1.359 -0.6794  0.2592 -0.0925
24618SOL     OW76746   1.235   2.939   1.147  0.4121 -1.2192  0.3617
24618SOL    HW176747   1.227   2.865   1.088 -1.1128 -2.2390  1.7646
24618SOL    HW276748   1.256   2.900   1.232  2.1098  0.1654  0.6408
24619SOL     OW76749   4.153   6.251   7.409  0.2390 -0.0174  0.2737
24619SOL    HW176750   4.150   6.330   7.356  0.9039 -1.2877 -1.7721
24619SOL    HW276751   4.218   6.270   7.476 -0.9381  1.7866  0.9928
24620SOL     OW76752   2.579   5.979   5.689 -0.2748 -0.1304  0.0275
24620SOL    HW176753   2.582   6.056   5.746 -0.9949 -0.7003  0.8510
24620SOL    HW276754   2.660   5.985   5.638  0.0651  0.7489  0.6350
24621SOL     OW76755  10.740   9.920   7.347 -0.3536  0.0568 -0.2903
24621SOL    HW176756  10.652   9.883   7.334  0.5928 -2.3977 -0.3309
24621SOL    HW276757  10.759   9.904   7.439 -0.2330  1.3324 -0.0807
24622SOL     OW76758   4.963   0.188   7.538 -0.5233  0.1120  0.2700
24622SOL    HW176759   4.892   0.253   7.536 -0.4498  0.2246 -3.0152
24622SOL    HW276760   4.924   0.108   7.503  0.5882 -0.2638 -0.1487
24623SOL     OW76761   0.346   8.452   2.717  0.5079 -0.0462  0.3014
24623SOL    HW176762   0.326   8.388   2.649  1.3172 -0.0829  0.0857
24623SOL    HW276763   0.289   8.526   2.698 -0.5598 -0.7635  0.6546
24624SOL     OW76764   5.695   8.838   9.794  0.3889 -0.0520  0.1268
24624SOL    HW176765   5.604   8.867   9.786  0.0843 -1.2142 -1.0301
24624SOL    HW276766   5.706   8.818   9.887 -0.1524  1.2333  0.4937
24625SOL     OW76767   6.736   7.722   9.649 -0.1396 -0.2710  0.4851
24625SOL    HW176768   6.781   7.686   9.573  2.2736  1.3381  1.0194
24625SOL    HW276769   6.754   7.659   9.719 -2.0552 -1.5681 -0.1243
24626SOL     OW76770   4.217   8.294   0.514  0.2269  0.4014  0.2470
24626SOL    HW176771   4.292   8.350   0.492  0.0542  0.5703  0.0757
24626SOL    HW276772   4.144   8.333   0.465  0.2898 -0.5150 -0.5920
24627SOL     OW76773  10.543   7.771   3.770 -0.3736 -0.1814  0.5419
24627SOL    HW176774  10.559   7.739   3.681  1.6224 -1.8026  1.4160
24627SOL    HW276775  10.528   7.865   3.758  0.8465 -0.1680 -1.4295
24628SOL     OW76776   8.372   5.644   6.601  0.4652 -0.0927  0.1267
24628SOL    HW176777   8.422   5.714   6.643 -0.9499  1.9145 -1.3724
24628SOL    HW276778   8.394   5.651   6.508 -0.7699 -0.7440 -0.2365
24629SOL     OW76779   2.291   8.486   8.658  0.2400  0.2536  0.7416
24629SOL    HW176780   2.262   8.444   8.739 -3.1405  2.7577  1.0323
24629SOL    HW276781   2.275   8.421   8.590 -1.0060 -0.3859  1.6060
24630SOL     OW76782   5.638   1.097   1.670  0.0707  0.2200 -0.0551
24630SOL    HW176783   5.639   1.120   1.763  2.4744  0.3755 -0.0545
24630SOL    HW276784   5.718   1.136   1.635 -1.7151  1.8378 -2.6707
24631SOL     OW76785   0.735   5.156   6.578  0.1734  0.2661 -0.0347
24631SOL    HW176786   0.675   5.098   6.531 -0.9112  0.8811  0.5448
24631SOL    HW276787   0.761   5.106   6.656  0.4276 -0.0001 -0.2867
24632SOL     OW76788   8.029   9.453   2.360  0.8741  0.2146 -0.3665
24632SOL    HW176789   8.115   9.422   2.332  1.7637 -0.5256  2.7920
24632SOL    HW276790   7.981   9.372   2.380 -0.4020  0.6482 -1.4934
24633SOL     OW76791   4.447   5.449   4.284 -0.1857  0.7864  0.3314
24633SOL    HW176792   4.372   5.500   4.255  0.0791  1.2303  0.4205
24633SOL    HW276793   4.419   5.409   4.366  0.0093  1.7544  0.8885
24634SOL     OW76794   7.725   3.332   6.327 -0.1702  0.2185  0.3665
24634SOL    HW176795   7.740   3.255   6.272 -0.2927  0.4000  0.0724
24634SOL    HW276796   7.693   3.398   6.266 -0.9332  0.2274  0.7717
24635SOL     OW76797   6.700   1.830   9.658  0.4760  0.0671  0.0336
24635SOL    HW176798   6.670   1.893   9.593  0.8264  1.8579  1.5290
24635SOL    HW276799   6.626   1.820   9.718  0.3195 -1.2246 -0.3264
24636SOL     OW76800   8.252   5.070   1.990 -0.0945 -0.0599 -0.0148
24636SOL    HW176801   8.272   5.011   2.063 -0.5802  0.1140  0.2628
24636SOL    HW276802   8.235   5.154   2.031  0.8622  0.3494 -0.4328
24637SOL     OW76803   7.644  10.152   6.411  0.4705  0.1636  0.5514
24637SOL    HW176804   7.696  10.231   6.424 -1.1290  1.3575 -0.0792
24637SOL    HW276805   7.566  10.181   6.364 -1.6112 -1.2862  2.8913
24638SOL     OW76806   8.695   0.459   3.240 -0.0764 -0.0968 -0.3962
24638SOL    HW176807   8.635   0.465   3.314  0.9352 -0.1676  0.4443
24638SOL    HW276808   8.644   0.490   3.165 -1.1492 -0.1472  0.3035
24639SOL     OW76809   5.142   9.848   1.418  0.3813 -0.6562  0.9141
24639SOL    HW176810   5.215   9.887   1.370 -0.4475 -1.3766 -1.0058
24639SOL    HW276811   5.158   9.754   1.414  0.3329 -0.7288  2.1550
24640SOL     OW76812   6.225   7.471   9.399  0.0093 -0.3008 -0.0009
24640SOL    HW176813   6.204   7.505   9.486 -0.0077 -0.4003  0.0348
24640SOL    HW276814   6.238   7.377   9.413 -2.1570 -0.7320 -0.4542
24641SOL     OW76815   9.681   3.214   5.187 -1.1190 -0.1835  0.1062
24641SOL    HW176816   9.654   3.269   5.113  0.0312  2.0324  1.2351
24641SOL    HW276817   9.677   3.125   5.153 -0.6407  0.7365 -2.6520
24642SOL     OW76818  10.743   6.927   0.569 -0.3922  0.8594  0.2446
24642SOL    HW176819  10.707   7.014   0.583  1.7757  1.8838 -0.0232
24642SOL    HW276820  10.667   6.869   0.560 -1.9193  2.9443 -1.0333
24643SOL     OW76821   8.202   8.947   7.685  0.2251 -0.0699 -0.0311
24643SOL    HW176822   8.219   8.938   7.779 -0.8978  1.1458  0.3282
24643SOL    HW276823   8.117   8.991   7.681 -1.2205 -2.7616 -1.6409
24644SOL     OW76824  10.079   7.130   0.502 -0.0329  0.2782  0.1221
24644SOL    HW176825   9.987   7.115   0.521  0.0549  0.1484  0.4532
24644SOL    HW276826  10.086   7.224   0.484 -0.8065 -0.1633 -3.1324
24645SOL     OW76827   4.565   2.745   0.147 -0.4493 -0.1082  0.2181
24645SOL    HW176828   4.557   2.650   0.151 -1.8465  0.0324  1.3509
24645SOL    HW276829   4.493   2.773   0.090  0.7112  0.2143 -1.1587
24646SOL     OW76830  10.419  10.129   7.553  0.3464  0.2041 -0.5297
24646SOL    HW176831  10.376  10.069   7.492  1.9341 -0.5287 -0.9822
24646SOL    HW276832  10.512  10.125   7.530  0.6473  2.0343  0.1421
24647SOL     OW76833   1.423   2.672   4.575  0.5228 -0.4917  0.0404
24647SOL    HW176834   1.516   2.691   4.586  0.3168 -0.7775  3.6785
24647SOL    HW276835   1.386   2.682   4.663 -2.9067 -0.4454 -1.2404
24648SOL     OW76836   6.432  10.608   3.525  0.0177 -0.5552  0.2252
24648SOL    HW176837   6.467  10.558   3.451  1.2749 -0.3557  0.6563
24648SOL    HW276838   6.478  10.691   3.521 -0.0656 -0.4622  1.1040
24649SOL     OW76839   3.593   7.278   3.349 -0.0922  0.1546 -0.3152
24649SOL    HW176840   3.597   7.348   3.415  1.3918  1.2478 -1.4842
24649SOL    HW276841   3.548   7.318   3.275  0.2639 -0.3288 -0.7948
24650SOL     OW76842   9.670  10.663   3.138  0.4159  0.2756  0.3495
24650SOL    HW176843   9.675  10.586   3.082 -2.5357 -0.0798  0.4196
24650SOL    HW276844   9.638  10.733   3.079  0.4660  0.7345  0.8633
24651SOL     OW76845   6.317   2.512   3.127  0.0842 -0.0292  0.1896
24651SOL    HW176846   6.290   2.454   3.199  1.2786  0.6227  1.2032
24651SOL    HW276847   6.409   2.490   3.112 -0.2227 -0.3665 -1.3861
24652SOL     OW76848   5.748   3.320   5.404  0.4438 -0.4238 -0.3947
24652SOL    HW176849   5.744   3.415   5.417 -0.4430 -0.4926 -0.0779
24652SOL    HW276850   5.743   3.283   5.492 -0.3894 -0.7809 -0.5803
24653SOL     OW76851   0.775   5.963  10.506 -0.4342 -0.4042 -0.3665
24653SOL    HW176852   0.717   6.036  10.526 -1.8498 -1.5051 -0.3040
24653SOL    HW276853   0.863   5.999  10.518 -1.0856  1.2187 -0.1347
24654SOL     OW76854   3.287   6.341   7.157 -0.1353  0.8519 -0.2368
24654SOL    HW176855   3.236   6.273   7.202 -0.2456  1.4699  0.5932
24654SOL    HW276856   3.267   6.328   7.064 -0.1765 -0.2245 -0.0905
24655SOL     OW76857   0.160   6.351   0.058 -0.6387  0.4847 -0.6189
24655SOL    HW176858   0.102   6.365   0.133 -0.3810  0.0640 -0.3376
24655SOL    HW276859   0.105   6.304  -0.005 -0.8391  0.7898 -0.6740
24656SOL     OW76860  10.087   5.506   8.681 -0.2435  0.2020  0.3422
24656SOL    HW176861  10.106   5.470   8.768 -1.5299 -0.3556  0.4301
24656SOL    HW276862   9.993   5.525   8.684 -0.3627 -0.0662 -1.0075
24657SOL     OW76863   7.625   5.631   3.590  0.4896 -0.2132 -0.1082
24657SOL    HW176864   7.639   5.687   3.514  0.8202  0.2788  0.3009
24657SOL    HW276865   7.601   5.546   3.554 -2.8623  0.8620 -0.7438
24658SOL     OW76866  10.588   5.507   9.188 -0.0679  0.0476 -0.3423
24658SOL    HW176867  10.528   5.469   9.124  0.6486 -1.2966 -0.2680
24658SOL    HW276868  10.608   5.594   9.155 -0.9962 -0.0019 -1.0705
24659SOL     OW76869   9.987   4.671   8.996 -0.2245 -0.1221 -0.9701
24659SOL    HW176870   9.913   4.616   8.973 -0.0422 -0.7673 -0.0581
24659SOL    HW276871  10.037   4.620   9.059 -0.3920  1.3089  0.4042
24660SOL     OW76872   4.955  10.415   0.401  0.3173 -0.7327  0.1300
24660SOL    HW176873   4.921  10.484   0.458  1.2256  0.5882 -0.8558
24660SOL    HW276874   4.903  10.337   0.423 -1.6717  0.5756  0.3477
24661SOL     OW76875   5.029   1.574   8.600 -0.2327 -0.5235 -0.0446
24661SOL    HW176876   5.089   1.547   8.669  1.2171 -0.2573 -1.1660
24661SOL    HW276877   4.958   1.510   8.604  1.1442 -2.1294 -0.0420
24662SOL     OW76878   0.334   0.575   6.438 -0.4725  0.8305 -0.2529
24662SOL    HW176879   0.365   0.621   6.360 -0.7660  1.3407 -0.0806
24662SOL    HW276880   0.346   0.638   6.509 -4.9263  2.4827 -0.6356
24663SOL     OW76881   2.592   1.698   6.183 -0.7139 -0.3467 -0.3266
24663SOL    HW176882   2.619   1.726   6.095  0.2554 -0.9888 -0.2477
24663SOL    HW276883   2.497   1.688   6.176 -0.4679 -2.2993 -1.8959
24664SOL     OW76884   4.115   1.168   0.725 -0.0235 -0.2274 -0.5949
24664SOL    HW176885   4.039   1.167   0.668 -1.4337  0.9391  1.1422
24664SOL    HW276886   4.153   1.256   0.715  0.9024 -0.6727 -1.1693
24665SOL     OW76887   6.609   6.642   1.578 -0.0503  0.7667 -0.5066
24665SOL    HW176888   6.548   6.592   1.632 -1.2240  0.6696 -1.8536
24665SOL    HW276889   6.592   6.612   1.489  2.6652  0.0293 -0.8661
24666SOL     OW76890  10.575   9.081   7.081  0.7463  0.3567 -0.0186
24666SOL    HW176891  10.610   8.993   7.092  1.1229  0.4302 -0.5572
24666SOL    HW276892  10.612   9.111   6.998  1.1864  1.2918  0.4999
24667SOL     OW76893   0.584   8.444   4.380  0.4009  0.4276  0.1616
24667SOL    HW176894   0.548   8.381   4.317  0.8507  0.0415  0.2746
24667SOL    HW276895   0.592   8.526   4.331 -0.4272  0.4644  0.0835
24668SOL     OW76896   5.001   2.336   1.439  0.6371 -0.2003  0.0527
24668SOL    HW176897   5.052   2.390   1.499  0.1647  0.4488 -0.1098
24668SOL    HW276898   5.053   2.333   1.359 -0.2026  1.7058 -0.6359
24669SOL     OW76899   5.284   8.502   1.118  0.4221 -0.5396  0.6051
24669SOL    HW176900   5.293   8.588   1.158 -1.4670  0.0012  0.0084
24669SOL    HW276901   5.278   8.441   1.192 -1.0429  0.2136  1.1516
24670SOL     OW76902   0.735   6.715   1.208 -0.3825 -0.0173 -0.4993
24670SOL    HW176903   0.778   6.669   1.137 -0.1793 -0.3517 -0.1665
24670SOL    HW276904   0.718   6.803   1.174 -2.3845 -0.8293 -1.7843
24671SOL     OW76905  10.354  10.667   5.269 -0.4080  0.3299 -0.7757
24671SOL    HW176906  10.316  10.587   5.306  0.4370  0.2704  0.0017
24671SOL    HW276907  10.279  10.715   5.235 -1.0960 -0.1380  0.0373
24672SOL     OW76908   8.878   4.179   1.325 -0.1877  0.1849 -0.5815
24672SOL    HW176909   8.806   4.237   1.352  0.4057  0.4331  0.5524
24672SOL    HW276910   8.952   4.238   1.311  0.4392 -0.2654  0.6404
24673SOL     OW76911   4.670   6.669   6.277 -0.0559 -0.6343  0.0065
24673SOL    HW176912   4.698   6.601   6.338  0.5253 -0.6993 -0.3224
24673SOL    HW276913   4.702   6.750   6.317 -0.8530 -0.5268  0.4600
24674SOL     OW76914   8.112   5.754   4.460 -0.3417 -0.2884  0.4024
24674SOL    HW176915   8.061   5.695   4.515 -2.7757  2.2337  1.0817
24674SOL    HW276916   8.067   5.754   4.376 -0.2863  0.4611  0.3629
24675SOL     OW76917   6.861   6.294   2.354  0.2761  0.2959  0.4392
24675SOL    HW176918   6.896   6.246   2.429  0.7551  0.4814  0.3399
24675SOL    HW276919   6.767   6.302   2.372  0.3074 -0.0791  0.7827
24676SOL     OW76920   5.819  10.389   0.359  0.4464  0.2312 -0.3934
24676SOL    HW176921   5.818  10.477   0.321 -1.0337  0.3438 -0.1317
24676SOL    HW276922   5.794  10.401   0.450  0.2055 -0.4702 -0.3579
24677SOL     OW76923   7.429   1.701   6.449  0.0332  0.3124 -0.4816
24677SOL    HW176924   7.339   1.729   6.467  1.3458  2.7242  3.5805
24677SOL    HW276925   7.444   1.627   6.507  1.2584  1.3651  0.6045
24678SOL     OW76926   4.082   8.936   1.189  0.0812 -0.6152  0.4891
24678SOL    HW176927   4.177   8.928   1.184  0.0570 -0.7411  0.2212
24678SOL    HW276928   4.048   8.853   1.155 -0.1096 -1.4161  2.4885
24679SOL     OW76929   2.928   1.864   5.108 -0.7719  0.0764 -0.0181
24679SOL    HW176930   2.903   1.811   5.184 -1.0953 -0.4050 -0.4550
24679SOL    HW276931   2.997   1.921   5.141 -0.3634 -0.6653  0.4477
24680SOL     OW76932   6.676   3.498   6.167  0.1740  0.2352  0.5448
24680SOL    HW176933   6.727   3.501   6.248  2.1058 -2.1445 -0.4792
24680SOL    HW276934   6.670   3.405   6.145 -0.0988  0.7980 -2.1639
24681SOL     OW76935   9.553   1.178   9.231 -0.1489 -0.4664  0.1053
24681SOL    HW176936   9.600   1.259   9.250 -0.9271 -0.3304  1.5621
24681SOL    HW276937   9.482   1.205   9.172  0.8935 -0.4854 -1.1885
24682SOL     OW76938   2.731   2.634   8.746  0.0636 -1.0606 -0.0817
24682SOL    HW176939   2.675   2.557   8.760  2.4006 -2.6008  1.3993
24682SOL    HW276940   2.748   2.668   8.834  0.7039 -0.0473 -0.5790
24683SOL     OW76941   3.117   8.133   8.490  0.4931  0.0522 -0.1842
24683SOL    HW176942   3.211   8.113   8.490  0.3676 -0.5774 -0.5829
24683SOL    HW276943   3.090   8.119   8.399  0.2272  1.3284 -0.3212
24684SOL     OW76944   4.762   8.503   5.864 -0.2426  0.9098 -0.6777
24684SOL    HW176945   4.688   8.498   5.803 -2.6942  2.8297  1.8879
24684SOL    HW276946   4.729   8.466   5.945  2.7733 -1.1826 -0.2249
24685SOL     OW76947   5.597   5.302   9.567 -0.1639  0.5477  0.7705
24685SOL    HW176948   5.596   5.216   9.608  2.1642 -0.7582 -1.6069
24685SOL    HW276949   5.509   5.311   9.529 -0.8168 -0.2177  2.0353
24686SOL     OW76950   3.266   1.763  10.093 -0.1068  0.8714 -0.1254
24686SOL    HW176951   3.196   1.825  10.114 -2.1218 -1.2230 -0.2711
24686SOL    HW276952   3.300   1.735  10.177 -0.1647  1.1138 -0.0205
24687SOL     OW76953   6.841   1.294   0.340  0.8891  0.1651 -0.1267
24687SOL    HW176954   6.936   1.301   0.348  1.1629  0.8394 -3.0842
24687SOL    HW276955   6.820   1.335   0.256 -1.8210 -1.5298 -0.4054
24688SOL     OW76956  10.747   0.233   1.815  0.6702  0.1454  0.6418
24688SOL    HW176957  10.678   0.236   1.749  0.9280  0.3808  0.3816
24688SOL    HW276958  10.789   0.148   1.802  0.6393  0.1386  0.5875
24689SOL     OW76959  10.450   4.481   4.582 -0.2940 -0.5344 -0.9773
24689SOL    HW176960  10.480   4.505   4.494  0.8032 -0.7758 -0.6854
24689SOL    HW276961  10.355   4.483   4.576 -0.2355 -0.0463 -2.0352
24690SOL     OW76962  10.423   9.694   5.877  0.2689 -0.2612  0.2141
24690SOL    HW176963  10.356   9.689   5.945  1.8272 -0.5745  1.8250
24690SOL    HW276964  10.375   9.689   5.795 -1.5518 -2.2659  1.2897
24691SOL     OW76965   4.903   7.665   8.914 -0.2264 -0.6879 -0.0314
24691SOL    HW176966   4.838   7.650   8.984  0.7461 -1.3604  0.7508
24691SOL    HW276967   4.969   7.720   8.955 -0.5739  0.4920 -1.0090
24692SOL     OW76968   1.471   9.318   5.053  0.1071 -0.1119  0.1668
24692SOL    HW176969   1.425   9.269   5.121 -0.0473  0.3478  0.4021
24692SOL    HW276970   1.527   9.379   5.102  0.4842 -0.2284 -0.1177
24693SOL     OW76971   0.640   7.136   0.061 -0.4839 -0.0737  0.1674
24693SOL    HW176972   0.722   7.184   0.058 -0.5950  0.3074  2.0322
24693SOL    HW276973   0.665   7.044   0.050  0.0452  0.1340 -0.4271
24694SOL     OW76974   5.228   8.837   4.639 -0.3421 -0.8687 -0.5680
24694SOL    HW176975   5.163   8.900   4.608  0.2657 -0.2603 -0.6050
24694SOL    HW276976   5.198   8.813   4.727  0.0907  0.4212 -0.0476
24695SOL     OW76977   9.457   4.770   5.813  0.3671  0.5239  0.4250
24695SOL    HW176978   9.532   4.726   5.852 -1.1619 -1.9842  0.7281
24695SOL    HW276979   9.388   4.703   5.809 -1.1777  2.0763 -1.8750
24696SOL     OW76980   6.262   3.286   5.457 -0.0991  0.2995 -0.1192
24696SOL    HW176981   6.293   3.342   5.385 -1.3210 -1.4399 -2.1236
24696SOL    HW276982   6.337   3.230   5.477  0.4375  1.1775  0.4166
24697SOL     OW76983   4.317   4.011   7.447  0.0348 -0.9052  0.2693
24697SOL    HW176984   4.235   4.057   7.431  0.0276 -0.6458  1.0000
24697SOL    HW276985   4.354   3.996   7.360 -1.0896 -1.5939 -0.1148
24698SOL     OW76986   5.735   5.414  10.364  0.1883  0.0290 -0.0720
24698SOL    HW176987   5.694   5.453  10.286  1.7129  1.7222 -0.1108
24698SOL    HW276988   5.664   5.368  10.408 -0.8867 -0.3342 -2.0657
24699SOL     OW76989   2.504   4.536   4.022  0.5792  0.5054  0.4833
24699SOL    HW176990   2.446   4.560   3.950 -1.1502 -1.9602  0.9383
24699SOL    HW276991   2.447   4.490   4.084  2.9569 -1.6964  1.1754
24700SOL     OW76992   6.310   4.698   1.681  0.2233  0.2197 -0.1331
24700SOL    HW176993   6.220   4.722   1.659  0.0571 -0.3277 -0.0656
24700SOL    HW276994   6.311   4.690   1.776 -0.2819 -2.1165 -0.2596
24701SOL     OW76995   0.468   5.369   3.082  0.3469 -0.3697 -0.5584
24701SOL    HW176996   0.544   5.366   3.023  0.8104 -1.1369  0.0453
24701SOL    HW276997   0.398   5.328   3.033  0.0543  1.1600 -1.4665
24702SOL     OW76998   3.314   0.170   2.072 -0.0495  0.1381  0.1565
24702SOL    HW176999   3.371   0.158   2.147  1.3406 -1.4971 -1.0626
24702SOL    HW277000   3.263   0.088   2.067 -0.5388  0.4632 -0.3295
24703SOL     OW77001   7.195   3.576   8.671 -0.7637 -0.1374  0.3056
24703SOL    HW177002   7.111   3.533   8.654 -1.3580  0.1923  2.1857
24703SOL    HW277003   7.210   3.564   8.765  1.3315 -0.2035  0.0154
24704SOL     OW77004   4.009   4.559   1.382  0.2732  0.3262 -0.4148
24704SOL    HW177005   4.104   4.555   1.373  0.3812  1.9598 -0.2875
24704SOL    HW277006   3.977   4.583   1.295  0.0401  0.5468 -0.2691
24705SOL     OW77007   6.844   1.256  10.511 -0.6473  0.2178 -0.4582
24705SOL    HW177008   6.794   1.183  10.476  1.3103 -0.1609 -2.7446
24705SOL    HW277009   6.851   1.318  10.438  2.1547  0.2090 -0.3131
24706SOL     OW77010   9.511  10.207   4.301 -0.2504  0.8409  0.3540
24706SOL    HW177011   9.586  10.208   4.360  1.6777 -0.6934 -1.8722
24706SOL    HW277012   9.445  10.155   4.347  1.0374 -0.0038  1.3237
24707SOL     OW77013   0.174   1.491   8.163 -0.4963  0.0331 -0.2823
24707SOL    HW177014   0.225   1.414   8.140  0.0825  0.0190  0.9468
24707SOL    HW277015   0.229   1.537   8.227  0.1433  2.5979 -2.5188
24708SOL     OW77016   0.492   2.255   6.552 -0.0690 -0.1826 -0.2205
24708SOL    HW177017   0.474   2.187   6.487 -0.8355  0.0796 -0.2863
24708SOL    HW277018   0.537   2.209   6.623  0.1436 -0.6009 -0.6227
24709SOL     OW77019   9.638   3.034   6.140  0.1321 -0.4345  0.4130
24709SOL    HW177020   9.591   3.000   6.217 -0.3375 -1.0280 -0.1182
24709SOL    HW277021   9.573   3.031   6.070  0.2012  1.2240  0.2495
24710SOL     OW77022   8.076   8.244   7.274  0.0931  0.9227 -0.9337
24710SOL    HW177023   7.983   8.270   7.277  0.0367  0.6469  0.2976
24710SOL    HW277024   8.111   8.273   7.359  0.9304  0.2667 -1.0487
24711SOL     OW77025  10.069  10.494   9.764  0.0615 -0.7291 -0.1001
24711SOL    HW177026  10.155  10.489   9.806  0.1344 -1.0457 -0.2780
24711SOL    HW277027  10.017  10.549   9.822 -0.0070 -1.5978  0.6959
24712SOL     OW77028   0.881   0.396   3.990  0.3846  0.2954 -0.8077
24712SOL    HW177029   0.951   0.386   3.926  3.4953 -2.3401  2.5837
24712SOL    HW277030   0.910   0.468   4.047 -1.9811  2.1320 -1.7087
24713SOL     OW77031  10.472   5.547  10.181 -0.6098  0.3525  0.4026
24713SOL    HW177032  10.417   5.591  10.116 -0.9923  0.0412  0.5122
24713SOL    HW277033  10.422   5.470  10.208  0.8703 -1.2701 -1.2005
24714SOL     OW77034   0.492   0.181   6.713 -0.4205 -0.2104  0.2499
24714SOL    HW177035   0.497   0.228   6.796 -0.6601  0.6384 -0.2043
24714SOL    HW277036   0.416   0.219   6.669  0.0085 -0.2866 -0.5745
24715SOL     OW77037   2.395   8.294   6.082 -0.0819  0.0785  0.0741
24715SOL    HW177038   2.457   8.280   6.011 -0.9090  0.0850 -0.6764
24715SOL    HW277039   2.327   8.349   6.044  0.2204  1.3678  1.3332
24716SOL     OW77040   5.929   4.413   1.134 -0.5816 -0.0147  0.8142
24716SOL    HW177041   5.877   4.485   1.098  0.7142 -0.1917 -1.5837
24716SOL    HW277042   5.883   4.334   1.106  0.4869 -0.1561 -0.6305
24717SOL     OW77043   5.245   5.062   0.721  0.5007 -0.3098  0.1741
24717SOL    HW177044   5.287   4.997   0.777  3.9077  1.2974 -0.2220
24717SOL    HW277045   5.233   5.017   0.637 -0.2967 -1.3547  0.8281
24718SOL     OW77046   0.071   4.333   6.109 -0.0437  0.2865  0.6759
24718SOL    HW177047  -0.011   4.373   6.080 -1.0289 -1.3279  1.0926
24718SOL    HW277048   0.135   4.359   6.044 -1.3544 -0.1148 -0.8276
24719SOL     OW77049   7.037   4.805   2.497  0.0116 -0.1637  0.0878
24719SOL    HW177050   6.984   4.761   2.563 -1.2086 -0.0875 -0.8007
24719SOL    HW277051   7.063   4.735   2.437  0.3479 -0.0850  0.1386
24720SOL     OW77052   0.287   5.210   0.587  1.2582 -0.2274 -0.6846
24720SOL    HW177053   0.359   5.272   0.592  1.3586 -0.3830 -0.0862
24720SOL    HW277054   0.328   5.124   0.599  1.2162 -0.4868 -2.1797
24721SOL     OW77055   8.296   2.179   9.517 -0.2208  0.4591  0.4576
24721SOL    HW177056   8.316   2.145   9.604  0.2840 -0.0037  0.1685
24721SOL    HW277057   8.207   2.149   9.499  0.0060 -0.2119  0.4480
24722SOL     OW77058   6.553   1.261   2.065 -0.2733 -0.3733  0.1641
24722SOL    HW177059   6.567   1.356   2.073 -0.3484 -0.1423 -2.0147
24722SOL    HW277060   6.496   1.240   2.139 -0.2848  1.2725  0.6795
24723SOL     OW77061   8.773   0.132   2.591 -0.3793  0.0930  0.0108
24723SOL    HW177062   8.786   0.049   2.638  2.6490  1.3699  1.7588
24723SOL    HW277063   8.775   0.198   2.660 -1.6350  1.7171 -1.4366
24724SOL     OW77064   1.995   5.397   2.007 -0.2768  0.3666  0.2806
24724SOL    HW177065   1.902   5.419   2.001 -0.1835  0.7259  0.0737
24724SOL    HW277066   2.016   5.409   2.100 -0.3737  0.5457  0.2804
24725SOL     OW77067   2.975   5.731   2.572 -0.0847 -0.4464 -0.0164
24725SOL    HW177068   3.017   5.702   2.653 -1.1286 -1.1940  0.2695
24725SOL    HW277069   2.956   5.824   2.586  1.0070 -0.2212  0.0404
24726SOL     OW77070   6.982   2.938  10.430  0.1707 -0.4322  0.1012
24726SOL    HW177071   6.998   3.015  10.484 -1.4286 -0.1364  0.2014
24726SOL    HW277072   6.958   2.972  10.345  2.2188 -0.8950 -0.7229
24727SOL     OW77073   1.690   0.153   0.134  0.4522  0.5304  0.1441
24727SOL    HW177074   1.610   0.129   0.086  0.5523  0.7949 -0.1585
24727SOL    HW277075   1.732   0.069   0.153  0.1111  0.3921  0.2861
24728SOL     OW77076   6.077   0.341   7.845  0.4714  0.5327 -0.1212
24728SOL    HW177077   6.144   0.300   7.790 -1.5694  0.3116 -2.6422
24728SOL    HW277078   6.025   0.268   7.879 -0.2246  0.7963 -0.5936
24729SOL     OW77079   4.150   9.828   0.699  0.4403  0.4241  0.1624
24729SOL    HW177080   4.116   9.780   0.624 -0.7654  0.8571  0.4087
24729SOL    HW277081   4.232   9.867   0.668 -0.2088  0.8697 -1.0269
24730SOL     OW77082   6.050   9.918   7.222 -0.1260  1.0925  0.9376
24730SOL    HW177083   6.136   9.887   7.252 -0.1954  0.7186  0.7505
24730SOL    HW277084   5.990   9.847   7.244 -0.5582  1.7484  1.9572
24731SOL     OW77085   2.437  10.665   6.863 -0.3810  0.3296  0.3230
24731SOL    HW177086   2.418  10.610   6.787 -1.2928  1.0635 -0.0177
24731SOL    HW277087   2.480  10.607   6.926  0.1351 -0.3594 -0.6405
24732SOL     OW77088   8.953   1.123   5.824  0.1112 -0.1431 -0.4280
24732SOL    HW177089   8.966   1.059   5.894  1.4248  0.2933 -0.2363
24732SOL    HW277090   8.907   1.195   5.867 -0.7634 -0.6632 -0.4786
24733SOL     OW77091   9.066   9.818   5.401  0.4042  0.3885  0.0791
24733SOL    HW177092   9.085   9.861   5.485 -0.5592  0.0802  0.4793
24733SOL    HW277093   8.980   9.777   5.415 -0.8598  2.2052 -1.7703
24734SOL     OW77094   4.425   6.096   1.982  0.2151 -0.0308 -0.5480
24734SOL    HW177095   4.448   6.129   1.895  1.5293  0.6340  0.0207
24734SOL    HW277096   4.477   6.017   1.992  0.8692  0.4664  0.0341
24735SOL     OW77097   2.165   0.650   9.414 -0.2389 -0.0144  0.3812
24735SOL    HW177098   2.145   0.560   9.442  0.0827  0.0695  0.9100
24735SOL    HW277099   2.140   0.704   9.489 -0.1503  0.3062  0.1809
24736SOL     OW77100   3.375   4.200   8.885 -0.6144 -0.0999  0.0131
24736SOL    HW177101   3.392   4.274   8.827  0.9394 -0.2186  0.2720
24736SOL    HW277102   3.461   4.177   8.920 -1.2163 -1.3987  0.7056
24737SOL     OW77103   3.354   3.335   7.009 -0.2037 -0.1075 -0.0713
24737SOL    HW177104   3.424   3.365   6.951 -1.0850  0.3586 -0.9120
24737SOL    HW277105   3.317   3.258   6.965 -1.2399  0.5739 -0.4341
24738SOL     OW77106   8.354   7.968   7.792  0.0958  0.3348 -0.0588
24738SOL    HW177107   8.289   7.958   7.862  0.2307 -0.6351 -0.0627
24738SOL    HW277108   8.380   8.060   7.798 -2.4583  1.2148 -1.1320
24739SOL     OW77109   2.470   5.239   6.025 -0.1563 -0.6120  0.0331
24739SOL    HW177110   2.432   5.163   6.068 -1.5240  0.1448  0.2289
24739SOL    HW277111   2.408   5.261   5.955  0.6936 -0.2340 -0.6238
24740SOL     OW77112   6.878   9.168   5.790  0.4638  0.2680  0.3082
24740SOL    HW177113   6.916   9.113   5.859  1.2050  0.7726  0.3217
24740SOL    HW277114   6.952   9.221   5.759  0.1812 -0.0864 -1.0167
24741SOL     OW77115   2.538   6.642   2.418 -0.3019  0.0769  0.0782
24741SOL    HW177116   2.524   6.564   2.364 -1.6515  0.5625 -0.3237
24741SOL    HW277117   2.586   6.702   2.361 -1.1111  0.3227 -0.3611
24742SOL     OW77118   4.950   6.835  10.131  0.3005 -0.3838 -0.7534
24742SOL    HW177119   5.018   6.829  10.197 -1.7514 -0.0391  1.5507
24742SOL    HW277120   4.971   6.914  10.081  0.8947  0.4264  0.7319
24743SOL     OW77121   8.160   3.362   7.935 -0.4808 -0.3116  0.4946
24743SOL    HW177122   8.215   3.420   7.882  1.9336 -1.8238  1.2090
24743SOL    HW277123   8.145   3.286   7.880 -3.3918  0.7052 -0.3241
24744SOL     OW77124   6.817  10.230   6.132 -0.0635  0.7115 -0.2853
24744SOL    HW177125   6.760  10.292   6.087  1.1659  2.1612  0.0824
24744SOL    HW277126   6.795  10.239   6.224  2.1373  2.8852  0.1240
24745SOL     OW77127   1.319   9.180   2.321 -0.4537  0.0245  0.1093
24745SOL    HW177128   1.356   9.151   2.404  1.7184  0.7611 -0.5558
24745SOL    HW277129   1.236   9.222   2.345 -0.9363 -1.6888  1.6407
24746SOL     OW77130  10.172   4.943   5.713  0.4198  0.3080 -0.5081
24746SOL    HW177131  10.235   4.942   5.641  0.3939  0.3903 -0.5320
24746SOL    HW277132  10.219   4.980   5.787  0.5137  0.0126 -0.4197
24747SOL     OW77133   1.044   2.344   2.954 -0.4408 -0.2195  0.8351
24747SOL    HW177134   1.125   2.373   2.995  1.1558 -2.2949 -0.5955
24747SOL    HW277135   1.031   2.255   2.987 -1.0957 -0.5789 -0.3158
24748SOL     OW77136   7.187   6.416   1.940  0.0228  0.0228  0.4882
24748SOL    HW177137   7.198   6.323   1.921 -1.3452  0.3346 -2.1287
24748SOL    HW277138   7.139   6.418   2.023 -0.3091 -1.6053  0.3652
24749SOL     OW77139   1.209   6.194   8.129 -0.5234  0.3634  0.2157
24749SOL    HW177140   1.150   6.178   8.202  1.5058  0.8101  2.0632
24749SOL    HW277141   1.200   6.288   8.111 -1.9011  0.0353 -0.9746
24750SOL     OW77142   8.102   7.330   0.619 -0.4344  0.1828 -0.2679
24750SOL    HW177143   8.193   7.354   0.630 -0.9890  2.7227 -0.6822
24750SOL    HW277144   8.078   7.287   0.701  0.6503  1.1171  0.5599
24751SOL     OW77145   1.134   6.172   9.148  0.2172  0.1627  0.6998
24751SOL    HW177146   1.216   6.207   9.112  0.3859  1.0590  1.8716
24751SOL    HW277147   1.159   6.092   9.193  0.1708 -0.4193 -0.2885
24752SOL     OW77148   2.897   1.850   3.404 -0.4481 -0.4546 -0.0224
24752SOL    HW177149   2.859   1.866   3.490  0.2314 -1.2630  0.4348
24752SOL    HW277150   2.891   1.756   3.392 -0.9498 -0.3122 -1.0687
24753SOL     OW77151   9.909   2.611   2.088  0.1195 -0.8593 -0.3331
24753SOL    HW177152   9.941   2.589   2.000 -0.7648 -0.6787 -0.7036
24753SOL    HW277153   9.910   2.706   2.091  0.9174 -0.8720  0.1507
24754SOL     OW77154   7.142   6.851   7.757 -0.1816 -0.2764  0.0397
24754SOL    HW177155   7.233   6.877   7.772  0.1282 -1.4674  0.2927
24754SOL    HW277156   7.115   6.903   7.681  0.5050  0.5462  0.3374
24755SOL     OW77157   0.002  10.195   1.587  0.2047  0.4756  0.7527
24755SOL    HW177158  -0.046  10.121   1.550 -0.0167  1.4305 -0.9942
24755SOL    HW277159   0.031  10.165   1.673 -0.5346 -1.3507  0.4038
24756SOL     OW77160   7.259   1.053   5.356 -0.4715 -0.3187  0.4259
24756SOL    HW177161   7.232   1.030   5.445 -1.0938  0.9253  0.5871
24756SOL    HW277162   7.309   1.134   5.367  3.4175 -2.4838  0.1232
24757SOL     OW77163   2.638   4.551   0.047  0.1535 -0.0668 -0.5028
24757SOL    HW177164   2.651   4.484  -0.021 -0.9867 -0.0528 -0.7599
24757SOL    HW277165   2.693   4.624   0.019 -0.6898  0.1313 -1.7110
24758SOL     OW77166   8.428   5.139   6.505 -0.1588  0.0619 -0.5276
24758SOL    HW177167   8.464   5.197   6.438  1.8534  0.1916  0.5868
24758SOL    HW277168   8.433   5.051   6.467 -0.2624  0.2753 -1.0337
24759SOL     OW77169   9.829   9.931   9.513  0.4465  0.1062  0.4925
24759SOL    HW177170   9.833   9.860   9.577 -1.5471 -0.5744 -0.0813
24759SOL    HW277171   9.764   9.992   9.549 -0.4078 -0.0915 -0.6564
24760SOL     OW77172   1.704   2.228   0.379 -0.2803  0.4594 -0.4599
24760SOL    HW177173   1.707   2.300   0.316  0.7274  0.1806 -0.7483
24760SOL    HW277174   1.634   2.171   0.347  1.5224 -0.7398 -2.5658
24761SOL     OW77175   9.309   4.513   3.499  0.8438 -0.3364 -0.1207
24761SOL    HW177176   9.339   4.589   3.451 -0.8522  1.3301  1.2778
24761SOL    HW277177   9.379   4.495   3.562  1.5420 -0.3688 -0.8929
24762SOL     OW77178   9.567   7.454   6.880 -0.0648 -0.1495  0.2808
24762SOL    HW177179   9.504   7.392   6.915  0.7417 -1.0748  0.1374
24762SOL    HW277180   9.630   7.400   6.832  0.0525  0.8754 -0.7788
24763SOL     OW77181   6.002   8.981   6.703  0.9226  0.3221  0.1654
24763SOL    HW177182   5.930   9.025   6.748 -0.3476 -2.3064  0.9299
24763SOL    HW277183   6.068   8.969   6.771  1.9611  2.3474 -0.4299
24764SOL     OW77184  10.241   5.972   5.251 -0.0017 -0.0132  0.2707
24764SOL    HW177185  10.293   6.048   5.279 -0.0359  0.6629 -1.3964
24764SOL    HW277186  10.160   6.010   5.216  1.2809 -0.4823 -3.5986
24765SOL     OW77187   6.690   9.680   7.865  0.0608  0.0627 -0.6960
24765SOL    HW177188   6.638   9.650   7.790  0.8208 -1.5040 -0.6330
24765SOL    HW277189   6.762   9.729   7.825 -1.3853  2.2223 -0.7844
24766SOL     OW77190  10.555   7.588   1.185 -0.3465  0.0357 -0.1721
24766SOL    HW177191  10.645   7.596   1.155 -0.4247  3.4685  0.0814
24766SOL    HW277192  10.503   7.629   1.115 -1.7167 -1.5940 -0.1736
24767SOL     OW77193   7.158   8.791   3.007  0.4903  0.3670  0.2989
24767SOL    HW177194   7.102   8.774   2.931  0.8684  0.6555 -0.0486
24767SOL    HW277195   7.119   8.867   3.050  0.6471  0.6066  0.0209
24768SOL     OW77196   8.578   9.105  10.457 -0.0183 -0.0325 -0.1257
24768SOL    HW177197   8.644   9.122  10.390 -1.4399 -1.2997 -1.9532
24768SOL    HW277198   8.608   9.025  10.500 -0.5187 -0.8186 -1.2055
24769SOL     OW77199   6.827   0.988   9.507 -0.4968  0.4299  0.1237
24769SOL    HW177200   6.866   1.008   9.422  0.6024  0.7847  0.6967
24769SOL    HW277201   6.736   1.018   9.499 -1.9638 -3.8954 -2.5538
24770SOL     OW77202  10.773   8.164   3.552  0.1814 -0.2576 -0.0116
24770SOL    HW177203  10.855   8.155   3.600  1.2898  0.3883 -1.6949
24770SOL    HW277204  10.756   8.258   3.550 -0.5708 -0.3832  0.2563
24771SOL     OW77205   7.977   2.926   7.682  0.4702  0.2069 -0.1418
24771SOL    HW177206   8.010   2.837   7.666 -0.0413  0.2238 -1.4218
24771SOL    HW277207   7.884   2.914   7.698  0.4304  0.4934 -0.1678
24772SOL     OW77208   9.007  10.360   5.757  0.4209  0.3034  0.3937
24772SOL    HW177209   8.957  10.312   5.822  1.3693  0.5155  1.3029
24772SOL    HW277210   8.976  10.326   5.673 -0.0196 -0.7817  0.9768
24773SOL     OW77211   9.315   5.862   1.985  0.5401  0.6274  0.7452
24773SOL    HW177212   9.333   5.784   1.932 -1.1128 -0.9487  2.3108
24773SOL    HW277213   9.276   5.924   1.924  0.5319 -0.3455 -0.2752
24774SOL     OW77214   5.878   1.353   2.567  0.4110  0.0894 -0.3583
24774SOL    HW177215   5.937   1.378   2.639  0.1503  1.0714 -0.4598
24774SOL    HW277216   5.936   1.317   2.500  0.7811  0.1222 -0.0606
24775SOL     OW77217   3.854   8.507   2.308 -0.3983  0.1381 -0.1603
24775SOL    HW177218   3.870   8.580   2.249  1.6353 -0.5326 -0.5152
24775SOL    HW277219   3.803   8.445   2.255 -2.1656  1.2526  0.1566
24776SOL     OW77220   9.977   4.739   9.420 -0.1055  0.3410 -0.7781
24776SOL    HW177221  10.042   4.799   9.456 -0.2705  1.0345 -1.5906
24776SOL    HW277222  10.025   4.692   9.351 -0.4161  0.7772 -1.3044
24777SOL     OW77223   5.682   6.307   2.939  0.3706  0.0016  0.3603
24777SOL    HW177224   5.614   6.286   2.875 -1.0017  0.7565  1.5109
24777SOL    HW277225   5.699   6.224   2.984  1.0338 -0.4341 -0.6438
24778SOL     OW77226   7.551   1.832   5.012 -0.3857 -0.2932 -0.0221
24778SOL    HW177227   7.576   1.858   4.923  1.4932 -2.0923 -0.0998
24778SOL    HW277228   7.565   1.911   5.065 -0.0019  0.3615 -1.0721
24779SOL     OW77229  10.405   5.225   3.711  0.1572 -0.3431 -0.0636
24779SOL    HW177230  10.380   5.267   3.794 -0.0849 -0.7635  0.0788
24779SOL    HW277231  10.477   5.279   3.678  0.4863 -0.3687  0.5945
24780SOL     OW77232   6.605   1.387   3.982 -0.9626 -0.2044  0.6728
24780SOL    HW177233   6.658   1.330   4.037 -2.3508 -1.4607  0.7891
24780SOL    HW277234   6.574   1.331   3.911  0.0849  1.1778 -0.9605
24781SOL     OW77235   1.311  10.719   2.682 -0.7523  0.3056 -0.5312
24781SOL    HW177236   1.312  10.812   2.662  1.5829  0.1275 -1.5473
24781SOL    HW277237   1.362  10.679   2.611  0.3311 -1.4406  1.1569
24782SOL     OW77238  10.380   3.052   7.065  0.2997  0.2087 -0.3600
24782SOL    HW177239  10.311   3.043   6.999 -1.3305  0.8375  1.1962
24782SOL    HW277240  10.352   2.995   7.137  1.6585  0.1245  0.1360
24783SOL     OW77241   6.668   4.038   5.699  0.0350 -0.1612  0.5922
24783SOL    HW177242   6.701   3.987   5.773 -0.8922 -2.4365 -0.4438
24783SOL    HW277243   6.591   3.988   5.669 -0.0506  1.0785 -1.4266
24784SOL     OW77244   0.801   6.685   0.053 -0.5475  0.6998 -0.3560
24784SOL    HW177245   0.769   6.756  -0.003 -1.3615 -0.6046 -1.6052
24784SOL    HW277246   0.738   6.614   0.040 -0.8109  0.3396  2.2911
24785SOL     OW77247   7.328   4.134   8.523  0.2670  0.2196  0.5087
24785SOL    HW177248   7.238   4.165   8.520 -0.0175 -0.5851  0.3889
24785SOL    HW277249   7.374   4.197   8.579 -0.1701  1.1189 -0.1194
24786SOL     OW77250   8.574   0.172   3.321  0.1261  0.6941  0.4635
24786SOL    HW177251   8.554   0.260   3.350 -2.0297  1.0472 -1.7858
24786SOL    HW277252   8.546   0.115   3.393 -0.2884  1.7268  1.1328
24787SOL     OW77253   1.405   3.310   6.502  0.2326 -0.3219 -0.5769
24787SOL    HW177254   1.478   3.370   6.519 -1.7269  1.7977  1.1942
24787SOL    HW277255   1.424   3.233   6.555  1.4580 -0.0568 -0.6049
24788SOL     OW77256   9.078   8.237   5.166 -0.2941 -0.2743  0.3134
24788SOL    HW177257   9.018   8.186   5.112  1.1967 -3.3585  1.3255
24788SOL    HW277258   9.032   8.250   5.249  0.0423 -1.8775  0.7821
24789SOL     OW77259   8.104   5.439   8.991  0.5990  0.4032 -0.5993
24789SOL    HW177260   8.169   5.507   9.009  3.6199 -1.6982 -2.6424
24789SOL    HW277261   8.123   5.370   9.054 -0.3898  0.1384 -0.5673
24790SOL     OW77262   1.928   0.385   5.304 -0.6818 -0.1679  0.0328
24790SOL    HW177263   1.962   0.329   5.374  1.4332  0.5619 -0.3494
24790SOL    HW277264   1.988   0.371   5.231 -0.4300  2.1497 -0.2759
24791SOL     OW77265  10.061   7.370   3.753  0.1720 -0.7644 -0.2436
24791SOL    HW177266  10.106   7.316   3.817 -0.7196  0.5993  1.6287
24791SOL    HW277267   9.988   7.409   3.802  0.4578  1.6877 -1.6202
24792SOL     OW77268   2.037   5.519   7.142  0.1650 -0.3781  0.3732
24792SOL    HW177269   1.988   5.599   7.159 -1.6579 -1.5315  0.8290
24792SOL    HW277270   2.020   5.500   7.050  0.3007 -0.4385  0.3603
24793SOL     OW77271   2.943   4.605   7.242  0.1219 -0.1480  0.3849
24793SOL    HW177272   2.974   4.604   7.152 -1.2779  0.8280 -0.1416
24793SOL    HW277273   3.005   4.550   7.290  1.1929 -0.2370 -1.0611
24794SOL     OW77274   8.595   8.667  10.091 -0.0100  0.2182 -0.6224
24794SOL    HW177275   8.513   8.647  10.046 -0.2944 -1.4350  0.5191
24794SOL    HW277276   8.635   8.582  10.107  2.4392  1.0206 -1.9771
24795SOL     OW77277   3.374   2.559   5.512  0.1175  0.3090  0.3452
24795SOL    HW177278   3.463   2.591   5.527  0.3608 -0.5429  0.8194
24795SOL    HW277279   3.367   2.481   5.567  0.0455 -1.2817 -1.7636
24796SOL     OW77280   4.778   9.798   6.905  0.0081 -0.2641 -0.4391
24796SOL    HW177281   4.697   9.842   6.930  0.8011  0.6820  0.5688
24796SOL    HW277282   4.836   9.869   6.878  1.7667 -0.4684  2.4401
24797SOL     OW77283   7.876   0.250   2.049 -0.2933 -0.2762 -0.5463
24797SOL    HW177284   7.827   0.332   2.056  1.3894  0.7035  0.5448
24797SOL    HW277285   7.852   0.214   1.963 -1.7056  0.9155 -0.6815
24798SOL     OW77286   6.766   1.637   7.237  0.0527  0.0390  0.3179
24798SOL    HW177287   6.777   1.683   7.153  0.5494  0.9470  0.8682
24798SOL    HW277288   6.815   1.555   7.225  2.6494  1.4166  0.6652
24799SOL     OW77289  10.685   3.599   3.021  0.2421  0.4901  0.6079
24799SOL    HW177290  10.685   3.581   2.927  2.0867  0.6974  0.5316
24799SOL    HW277291  10.595   3.625   3.040 -0.4361 -0.5540 -0.8889
24800SOL     OW77292   2.345   1.538   1.357 -0.4630  0.4123 -0.3789
24800SOL    HW177293   2.335   1.577   1.270 -1.4242  0.7898 -0.1088
24800SOL    HW277294   2.438   1.547   1.377 -0.4920  1.6936 -0.7338
24801SOL     OW77295   7.248   0.399   0.982 -0.0528  0.2345 -0.1374
24801SOL    HW177296   7.303   0.346   0.923  1.0191  1.7688 -0.5805
24801SOL    HW277297   7.169   0.347   0.994  0.8687 -1.3815 -0.6965
24802SOL     OW77298   7.568   5.316   1.946  0.7885 -0.3757 -0.5093
24802SOL    HW177299   7.475   5.319   1.924 -0.0425 -2.7500  2.0832
24802SOL    HW277300   7.581   5.388   2.008  0.5268 -0.3814 -0.4481
24803SOL     OW77301   1.793   8.291   3.712 -0.4599 -0.3381 -0.2093
24803SOL    HW177302   1.793   8.228   3.784  0.3218  1.5558  1.5439
24803SOL    HW277303   1.881   8.284   3.674 -0.6099 -0.7910 -0.4748
24804SOL     OW77304   1.086   0.460   9.208  0.1183 -0.2394 -0.1066
24804SOL    HW177305   1.137   0.412   9.143 -1.5282  0.1018 -1.7483
24804SOL    HW277306   1.060   0.541   9.163  2.8417  2.3800  2.5540
24805SOL     OW77307   4.309   0.246   2.019  0.4902  0.0137  0.0140
24805SOL    HW177308   4.312   0.177   2.085 -1.6107 -0.8684 -0.6904
24805SOL    HW277309   4.261   0.318   2.061 -0.7041 -0.4862 -0.4277
24806SOL     OW77310   9.985   1.819   0.492  0.1863 -0.1088 -0.0156
24806SOL    HW177311   9.942   1.742   0.530  1.2264 -0.5074  0.3820
24806SOL    HW277312   9.983   1.884   0.562 -0.1839  0.0401 -0.1603
24807SOL     OW77313   7.143   0.960   1.857  0.7576 -0.3219 -0.2175
24807SOL    HW177314   7.089   0.903   1.912  1.7800 -1.2588 -0.1411
24807SOL    HW277315   7.114   0.941   1.768  0.3093 -0.1119 -0.1180
24808SOL     OW77316   2.770  10.052   2.148 -0.2528  0.3068  0.0229
24808SOL    HW177317   2.681  10.087   2.147 -0.4742  0.2805  3.6956
24808SOL    HW277318   2.825  10.126   2.124 -1.1733  0.3218 -2.3131
24809SOL     OW77319   7.665   0.062   6.184 -0.1835  0.3006  0.0984
24809SOL    HW177320   7.611   0.039   6.108 -0.7520 -0.1407  0.6319
24809SOL    HW277321   7.753   0.034   6.158 -0.3688  0.1629 -0.4087
24810SOL     OW77322   6.654  10.388   1.291 -0.2571 -0.5468  0.1500
24810SOL    HW177323   6.620  10.477   1.297  1.7759  0.4117 -1.2773
24810SOL    HW277324   6.740  10.398   1.250 -0.3296 -3.2626 -0.8535
24811SOL     OW77325   0.240  10.137   5.277  0.3541  0.6977  0.6824
24811SOL    HW177326   0.185  10.185   5.338  1.1521 -1.0032  2.8563
24811SOL    HW277327   0.265  10.202   5.211 -1.2121  2.4007  1.6855
24812SOL     OW77328   7.002   5.764   6.094 -0.4373  0.0495 -0.0882
24812SOL    HW177329   7.026   5.856   6.099 -0.4044  0.1774 -1.7605
24812SOL    HW277330   7.069   5.725   6.038 -0.8174 -0.8512  0.0644
24813SOL     OW77331   1.737   6.135   8.704  0.6211 -0.0318  0.0976
24813SOL    HW177332   1.686   6.054   8.706  2.9150 -1.5616  1.9935
24813SOL    HW277333   1.800   6.121   8.632  1.1580 -0.0594  0.5655
24814SOL     OW77334   5.313   5.377   7.915  0.2037  0.2268  0.2266
24814SOL    HW177335   5.231   5.417   7.887 -0.3475 -0.1566  1.2709
24814SOL    HW277336   5.377   5.407   7.850 -1.1232 -1.0925 -1.7957
24815SOL     OW77337   4.137   5.720   1.298  0.3631 -0.1002 -0.1507
24815SOL    HW177338   4.109   5.647   1.353  0.9495 -0.0535  0.2243
24815SOL    HW277339   4.071   5.788   1.312 -0.4921 -0.7458 -0.9309
24816SOL     OW77340   2.795   1.440   1.599 -0.0369  0.1118  0.7083
24816SOL    HW177341   2.821   1.348   1.610  2.8696  0.5948 -1.0380
24816SOL    HW277342   2.738   1.440   1.523 -1.9641 -0.4453  2.0708
24817SOL     OW77343   3.508   6.244   9.704  0.5214  0.2257  0.2847
24817SOL    HW177344   3.573   6.209   9.643  0.1887 -0.1929  0.1583
24817SOL    HW277345   3.431   6.188   9.690  0.5700 -0.1209  1.3643
24818SOL     OW77346   6.429   8.228   6.604 -0.6195 -0.1820 -0.0843
24818SOL    HW177347   6.423   8.291   6.676 -1.5971 -0.6135  0.2328
24818SOL    HW277348   6.416   8.143   6.645 -2.5895 -0.3350 -0.9158
24819SOL     OW77349   3.233   0.270   9.878  0.6959 -0.7306 -0.1845
24819SOL    HW177350   3.224   0.306   9.790 -1.6892 -0.8305 -0.0632
24819SOL    HW277351   3.327   0.268   9.894  1.3485 -2.1615 -3.3255
24820SOL     OW77352   6.998   4.210   9.553 -0.0252  0.4328 -0.8823
24820SOL    HW177353   7.006   4.302   9.577  1.2928  0.5397 -1.6252
24820SOL    HW277354   7.079   4.190   9.505  0.2077 -1.3857  0.1483
24821SOL     OW77355   7.866   6.550   1.981  0.1230  0.1589 -0.7241
24821SOL    HW177356   7.811   6.622   1.949  0.9578 -0.1270 -2.9089
24821SOL    HW277357   7.804   6.479   1.998 -0.8058  1.4574  2.0498
24822SOL     OW77358   4.019   9.151   0.743 -0.2990 -0.6308  0.1641
24822SOL    HW177359   4.002   9.060   0.720 -1.1972 -0.1500 -1.1384
24822SOL    HW277360   3.945   9.199   0.708  0.7837  0.7657 -0.2936
24823SOL     OW77361   0.794   9.223   3.409  0.4136  0.4071 -0.4431
24823SOL    HW177362   0.756   9.279   3.341 -0.2377  0.4463 -0.0523
24823SOL    HW277363   0.880   9.262   3.426  0.0843  1.1262 -0.3812
24824SOL     OW77364   7.676   5.594   0.778  0.2222 -0.4667  0.7133
24824SOL    HW177365   7.762   5.634   0.767 -0.4870  1.3543  1.5251
24824SOL    HW277366   7.665   5.585   0.873 -0.1762 -1.4530  0.5941
24825SOL     OW77367   4.646   8.465   4.829 -0.4454  0.3189  0.5707
24825SOL    HW177368   4.701   8.496   4.757 -0.8634  0.8127  0.4522
24825SOL    HW277369   4.707   8.440   4.897  0.3094 -4.6095 -1.5167
24826SOL     OW77370   8.374   3.041   6.068 -0.2026  0.4412 -0.3950
24826SOL    HW177371   8.285   3.049   6.103  0.3007 -0.5570  1.2245
24826SOL    HW277372   8.402   2.953   6.094  1.2047  0.6693 -1.0282
24827SOL     OW77373   7.550   2.523   1.296  0.4407 -0.3924  1.2490
24827SOL    HW177374   7.484   2.516   1.226 -0.0330  2.1964  1.3224
24827SOL    HW277375   7.633   2.505   1.253  0.2356  1.8233 -0.2615
24828SOL     OW77376  10.577   0.547   5.101  0.1590 -0.5989  0.0326
24828SOL    HW177377  10.523   0.489   5.047 -0.0811 -0.1504 -0.2161
24828SOL    HW277378  10.592   0.623   5.045 -0.1281 -0.1100  0.6134
24829SOL     OW77379   5.788   3.698  10.359  0.1388 -0.4308 -0.0054
24829SOL    HW177380   5.696   3.700  10.335 -0.1270  0.5656  1.0390
24829SOL    HW277381   5.822   3.619  10.316 -1.0476 -0.4836 -0.8943
24830SOL     OW77382   7.500   7.950   7.129  0.4127 -0.3286 -0.3280
24830SOL    HW177383   7.592   7.929   7.113  0.5776  0.8574 -1.0204
24830SOL    HW277384   7.460   7.949   7.042  0.0614  0.5112 -0.1778
24831SOL     OW77385   4.362   1.476   8.340 -0.0219 -0.5492  0.0003
24831SOL    HW177386   4.317   1.397   8.311 -2.1861  1.2494 -1.9032
24831SOL    HW277387   4.308   1.510   8.411  0.9337 -0.7847  0.8581
24832SOL     OW77388   0.050   0.533   0.562 -0.1661  0.6525  0.1683
24832SOL    HW177389   0.038   0.622   0.594  0.8390  1.1808 -0.8793
24832SOL    HW277390  -0.018   0.483   0.607 -0.4555  1.8443  1.1256
24833SOL     OW77391   0.844   2.468   5.846 -0.0288 -0.1538  0.0092
24833SOL    HW177392   0.834   2.388   5.897  1.3978 -0.8129 -0.7146
24833SOL    HW277393   0.880   2.531   5.909  0.9043 -0.7141  0.0563
24834SOL     OW77394   6.904   1.733   9.343 -0.3238  0.4529 -0.1040
24834SOL    HW177395   6.819   1.692   9.327  0.0553  0.2068 -1.6761
24834SOL    HW277396   6.896   1.773   9.430 -2.2016  0.8497 -0.4255
24835SOL     OW77397   2.924   8.293   5.043  0.4893  0.0400 -0.1598
24835SOL    HW177398   2.842   8.323   5.081  0.6012  0.7893 -0.5005
24835SOL    HW277399   2.962   8.236   5.110 -0.2266 -0.1853  0.0618
24836SOL     OW77400   8.726   5.214   0.429  0.6561  0.3833  0.1452
24836SOL    HW177401   8.706   5.177   0.515  0.8574  0.2815  0.1484
24836SOL    HW277402   8.666   5.169   0.369 -1.4009  2.3581  0.5915
24837SOL     OW77403   4.451   1.798   0.258 -0.3879 -0.3184 -0.1114
24837SOL    HW177404   4.499   1.778   0.338  0.0461 -0.9598 -0.5256
24837SOL    HW277405   4.479   1.887   0.235 -1.2527  0.2525  0.9642
24838SOL     OW77406   3.439   5.750   5.487 -0.3585 -0.2661  0.5706
24838SOL    HW177407   3.440   5.804   5.566 -2.5773  0.4148  0.1963
24838SOL    HW277408   3.465   5.809   5.416 -1.7301  0.0636  0.3194
24839SOL     OW77409   9.574  10.732   2.196 -0.6956 -0.9810  0.2665
24839SOL    HW177410   9.632  10.698   2.264 -0.7833 -1.2981  0.1880
24839SOL    HW277411   9.496  10.762   2.242 -0.4875 -0.5869  0.3690
24840SOL     OW77412  10.551   9.686   6.386  0.5536  0.0835  0.3065
24840SOL    HW177413  10.631   9.643   6.356  0.9129  1.5840 -1.0489
24840SOL    HW277414  10.577   9.778   6.397 -0.8217  0.4655  0.4934
24841SOL     OW77415   6.034   6.927   0.483 -0.0898 -0.0787  0.0506
24841SOL    HW177416   6.105   6.983   0.451  0.0524 -0.0198  0.4686
24841SOL    HW277417   6.078   6.854   0.527 -0.2526 -0.9985 -1.2561
24842SOL     OW77418   7.290   5.310   1.951 -0.1704 -0.4320  0.4982
24842SOL    HW177419   7.239   5.287   2.029  1.3406 -0.2347  1.5885
24842SOL    HW277420   7.244   5.386   1.915  0.7018  1.3973  2.9331
24843SOL     OW77421  10.200   6.806  10.081  0.1661 -0.2028 -0.4779
24843SOL    HW177422  10.194   6.746  10.007 -1.6838 -1.3105  0.4937
24843SOL    HW277423  10.270   6.770  10.136  1.7634  0.8001 -1.7636
24844SOL     OW77424   9.922   4.773   6.145 -0.2398 -0.2303  0.7294
24844SOL    HW177425  10.001   4.742   6.100  0.1876  0.2889  1.0945
24844SOL    HW277426   9.944   4.863   6.172 -0.5788 -0.4270  1.7225
24845SOL     OW77427   6.795   3.606   8.101 -0.5444  0.1082 -0.2039
24845SOL    HW177428   6.851   3.529   8.089 -0.4650 -0.1837  1.6985
24845SOL    HW277429   6.706   3.573   8.097 -0.5076 -0.1908  1.0057
24846SOL     OW77430   9.808   0.145   6.312  0.1156 -0.1308 -0.3627
24846SOL    HW177431   9.830   0.226   6.267 -0.8660  1.0376  1.1434
24846SOL    HW277432   9.723   0.163   6.353  0.5718 -1.3880  1.2278
24847SOL     OW77433   4.293   1.989   0.543  0.1608 -0.0567 -0.3994
24847SOL    HW177434   4.277   1.903   0.505  0.7174 -0.7283  0.8225
24847SOL    HW277435   4.387   1.990   0.561 -0.0708  0.2413  0.8878
24848SOL     OW77436   7.213   0.126   1.303 -0.0486 -0.1139 -0.1574
24848SOL    HW177437   7.188   0.050   1.356 -1.9159 -0.8198 -1.9572
24848SOL    HW277438   7.149   0.193   1.326 -0.6308 -0.2990 -1.2280
24849SOL     OW77439   4.570   3.228   0.149 -0.0509 -0.4634 -0.7569
24849SOL    HW177440   4.550   3.299   0.210  0.6198  0.5048 -1.6343
24849SOL    HW277441   4.489   3.215   0.099 -0.1497 -0.2705 -0.6456
24850SOL     OW77442  10.330  10.139   9.892 -0.0145 -0.3624 -0.3037
24850SOL    HW177443  10.365  10.168   9.807 -1.5658 -1.0437 -1.2098
24850SOL    HW277444  10.236  10.136   9.880 -0.1774 -1.7762  1.0416
24851SOL     OW77445   1.839   5.086   9.757 -0.5341  0.3236  0.1901
24851SOL    HW177446   1.839   5.010   9.699  1.3617  1.4292 -1.3858
24851SOL    HW277447   1.789   5.153   9.710  0.1723  0.9227  0.2671
24852SOL     OW77448   5.217   8.344   5.890 -0.2802 -0.1576 -0.5018
24852SOL    HW177449   5.167   8.285   5.947  0.2755 -2.3665 -2.1344
24852SOL    HW277450   5.154   8.411   5.863 -0.7851  0.4208  1.9153
24853SOL     OW77451   9.987   9.127   5.903 -0.6534 -0.2038  0.1257
24853SOL    HW177452  10.022   9.105   5.989  0.6468  0.1332 -0.2952
24853SOL    HW277453  10.053   9.183   5.863  0.3472 -2.8209 -2.2927
24854SOL     OW77454   2.804   5.616   7.027 -0.6032  0.5001 -0.0484
24854SOL    HW177455   2.895   5.610   6.998 -1.1863  0.1769 -1.9126
24854SOL    HW277456   2.784   5.530   7.062 -0.0313  0.7612  0.9898
24855SOL     OW77457   6.947   5.504   5.784  0.6629 -0.3152 -0.1394
24855SOL    HW177458   6.987   5.431   5.833 -0.3963 -0.5317  0.4401
24855SOL    HW277459   6.857   5.475   5.767 -0.5011  1.6908  2.0119
24856SOL     OW77460   8.435   0.637   4.230 -0.4659  0.3968 -0.2005
24856SOL    HW177461   8.515   0.641   4.282 -0.1051  0.4223 -0.7542
24856SOL    HW277462   8.378   0.703   4.269 -0.8460 -0.6998  1.2165
24857SOL     OW77463   4.487   1.325   4.710 -0.5060  0.2938  0.0502
24857SOL    HW177464   4.548   1.344   4.782 -0.1946 -0.1680 -0.0863
24857SOL    HW277465   4.480   1.407   4.662 -0.0161  0.3646  0.0920
24858SOL     OW77466   9.503   8.937   0.019 -0.0303 -0.5859  0.1431
24858SOL    HW177467   9.590   8.970  -0.005 -0.5309 -0.2225 -1.2860
24858SOL    HW277468   9.520   8.850   0.056  1.0134 -0.1301  0.7847
24859SOL     OW77469   2.755   8.945   0.279  0.0544  0.0143  0.4765
24859SOL    HW177470   2.770   9.033   0.314  1.2223 -0.0219  0.1198
24859SOL    HW277471   2.828   8.931   0.219 -2.5843  0.6303 -3.1811
24860SOL     OW77472   4.746   4.747   1.655 -0.2728 -0.0391  0.7933
24860SOL    HW177473   4.787   4.720   1.737  1.4225 -3.0718 -0.8519
24860SOL    HW277474   4.721   4.665   1.613  0.8093  1.1738 -2.5958
24861SOL     OW77475   3.434   0.510   8.595  0.3288 -0.0687  0.0923
24861SOL    HW177476   3.443   0.592   8.546 -0.3886 -0.9288 -1.5654
24861SOL    HW277477   3.389   0.451   8.535  1.9031 -2.0869  0.7600
24862SOL     OW77478   8.188   0.901   5.845 -0.4267  0.5257 -0.2032
24862SOL    HW177479   8.201   0.809   5.870 -0.1171 -0.0950 -2.4070
24862SOL    HW277480   8.273   0.928   5.809 -0.2464  1.9889  1.2025
24863SOL     OW77481   8.473   4.020   6.794  0.1931 -0.2620  0.2273
24863SOL    HW177482   8.383   4.053   6.801  0.5112  0.7082 -0.0848
24863SOL    HW277483   8.520   4.068   6.863  0.6106 -0.2683 -0.0565
24864SOL     OW77484   6.036   9.315   6.216  0.1139 -0.2098 -0.1495
24864SOL    HW177485   5.998   9.261   6.285 -0.6472 -1.9279 -1.8380
24864SOL    HW277486   5.987   9.397   6.220 -0.7099 -0.7259  0.6049
24865SOL     OW77487   5.050   5.432   5.602 -0.4705 -0.5098 -0.1959
24865SOL    HW177488   5.066   5.349   5.558 -0.9867  0.3642 -2.1529
24865SOL    HW277489   4.960   5.425   5.635 -0.2343 -1.0094  0.3532
24866SOL     OW77490   0.418   5.046   4.710 -0.0869  0.1113  0.4147
24866SOL    HW177491   0.508   5.015   4.714  0.3619  1.2411 -0.4350
24866SOL    HW277492   0.424   5.137   4.683 -1.5365 -0.2601 -1.4175
24867SOL     OW77493   4.766   9.418   2.772  0.3583 -1.0195 -0.4727
24867SOL    HW177494   4.694   9.480   2.778  1.3453  0.2947 -1.4576
24867SOL    HW277495   4.774   9.381   2.859 -0.2602  0.2689  0.1578
24868SOL     OW77496   5.494   9.425   5.820 -0.4752 -0.6526  0.2879
24868SOL    HW177497   5.523   9.369   5.748  1.4112 -0.0181  0.5051
24868SOL    HW277498   5.571   9.477   5.842 -1.5278  0.4014  1.6152
24869SOL     OW77499   9.990   5.887   7.371  0.3148 -0.8212 -0.4201
24869SOL    HW177500   9.969   5.975   7.402 -1.1296 -0.6991 -1.6246
24869SOL    HW277501   9.949   5.829   7.436  1.4179 -0.6286  0.4694
24870SOL     OW77502   3.534   4.840   9.410  0.0973  0.2254 -0.2573
24870SOL    HW177503   3.458   4.786   9.391 -0.5467 -0.4443  3.4732
24870SOL    HW277504   3.609   4.789   9.376 -0.6742 -2.0569  1.2333
24871SOL     OW77505   4.989   7.852   1.202 -0.0835 -0.6965  0.2137
24871SOL    HW177506   5.018   7.863   1.292 -0.0964  1.9079 -0.0291
24871SOL    HW277507   4.926   7.780   1.206 -0.7809 -0.0466  2.4635
24872SOL     OW77508   3.283   7.375   2.956  0.2176 -0.7364  0.0574
24872SOL    HW177509   3.290   7.282   2.978 -0.7774 -1.4993 -2.4453
24872SOL    HW277510   3.192   7.396   2.976  0.6185 -0.0689  1.2666
24873SOL     OW77511   8.325   0.452  10.147  0.0474 -0.0443 -0.1364
24873SOL    HW177512   8.322   0.495  10.062 -0.6218  2.6314  1.1410
24873SOL    HW277513   8.410   0.476  10.184  0.2013 -0.9063  0.0880
24874SOL     OW77514   9.465   6.112   1.667  0.3483 -0.0381  0.7115
24874SOL    HW177515   9.516   6.104   1.747 -0.3983  0.4027  1.2500
24874SOL    HW277516   9.406   6.185   1.684 -0.0326 -0.1427 -0.1245
24875SOL     OW77517   6.519   9.964   6.696  0.4483  0.0011 -0.3229
24875SOL    HW177518   6.585   9.905   6.734  0.7701 -0.0551 -0.9493
24875SOL    HW277519   6.566  10.010   6.626 -0.1468  0.0512 -0.6966
24876SOL     OW77520   8.378   5.637   1.454  0.9902  0.0681  0.7365
24876SOL    HW177521   8.401   5.545   1.441 -0.1239 -0.0100 -0.9459
24876SOL    HW277522   8.411   5.682   1.376  0.7224  0.9281  1.1028
24877SOL     OW77523   1.082   2.478   7.972 -0.7406 -0.0620  0.5167
24877SOL    HW177524   1.061   2.541   7.903 -1.5686 -0.6970  0.1720
24877SOL    HW277525   0.998   2.458   8.012 -0.6754 -1.7785 -0.1049
24878SOL     OW77526   4.691  10.456   0.105 -0.7534  0.2043  0.2720
24878SOL    HW177527   4.672  10.462   0.199  0.3835  2.1369  0.4467
24878SOL    HW277528   4.617  10.408   0.068  0.4875 -4.1607  2.6208
24879SOL     OW77529   8.431   7.819  10.723  0.1140 -0.1333 -0.2891
24879SOL    HW177530   8.489   7.866  10.784 -1.6905  0.4492  1.0740
24879SOL    HW277531   8.443   7.864  10.640  0.0369  1.4033  0.4896
24880SOL     OW77532   8.868   0.712   8.654 -0.3037  0.4988 -0.1911
24880SOL    HW177533   8.911   0.709   8.568 -0.6925  0.2277 -0.3804
24880SOL    HW277534   8.786   0.663   8.641  0.5079 -1.2406  0.8193
24881SOL     OW77535   6.103   7.628   1.074 -0.1411  0.2417  0.0880
24881SOL    HW177536   6.051   7.599   1.149 -1.2448  0.6446 -0.5016
24881SOL    HW277537   6.192   7.636   1.108 -0.7405  1.0945  1.5409
24882SOL     OW77538   6.505   8.132   5.006 -0.8687  0.6686 -0.2004
24882SOL    HW177539   6.540   8.205   5.058  1.6098 -0.2023 -0.5452
24882SOL    HW277540   6.571   8.116   4.939 -2.5083 -0.3373 -1.6644
24883SOL     OW77541   5.503   2.849   2.092  0.4516  0.8174  0.3292
24883SOL    HW177542   5.550   2.896   2.024  0.2266  1.1053  0.3702
24883SOL    HW277543   5.569   2.793   2.133  0.8526  1.5438  0.6812
24884SOL     OW77544   0.801   8.034   1.498  0.4401 -0.5913  0.2747
24884SOL    HW177545   0.837   7.954   1.459 -2.0437 -1.6663  0.0173
24884SOL    HW277546   0.801   8.018   1.592  0.7240 -0.5440  0.2823
24885SOL     OW77547   1.316   3.499   0.217  0.2017 -0.2517 -0.0058
24885SOL    HW177548   1.403   3.482   0.252  0.2042 -1.3110 -0.5040
24885SOL    HW277549   1.294   3.421   0.167 -1.6282 -0.6428  1.2836
24886SOL     OW77550   6.621   2.059   4.737  0.1126  0.3285 -0.6063
24886SOL    HW177551   6.613   1.964   4.738 -0.3868  0.3451 -1.4634
24886SOL    HW277552   6.690   2.077   4.672 -0.5415  0.5715 -1.2567
24887SOL     OW77553   4.629   1.710   1.997  0.3546  0.0832  0.1036
24887SOL    HW177554   4.682   1.750   2.066 -0.4780  0.3444  0.5965
24887SOL    HW277555   4.627   1.617   2.020 -1.1909  0.3759  1.3233
24888SOL     OW77556   4.007   0.860   8.040 -0.0384  0.3092 -0.2938
24888SOL    HW177557   4.065   0.930   8.071 -0.3886  0.7293 -0.5690
24888SOL    HW277558   4.047   0.779   8.072 -0.1084  0.6888  0.7902
24889SOL     OW77559   6.052   4.396   3.628  0.9957 -0.6074  0.0015
24889SOL    HW177560   6.017   4.316   3.590 -0.1035 -0.3017  0.3345
24889SOL    HW277561   6.034   4.388   3.722  2.9748 -1.0018  0.3989
24890SOL     OW77562   5.780  10.179   3.117  0.0113  0.6193  0.3115
24890SOL    HW177563   5.760  10.131   3.198 -0.5213  1.1352  0.4931
24890SOL    HW277564   5.701  10.230   3.100 -0.3385 -0.3389 -1.1642
24891SOL     OW77565   7.423   4.940   0.087  0.0188  0.3860  0.0169
24891SOL    HW177566   7.359   4.900   0.147 -0.4689  1.8379  0.5163
24891SOL    HW277567   7.497   4.880   0.088 -0.2232  0.0555  1.6327
24892SOL     OW77568   1.721   1.779   4.058  0.4150 -0.1494  0.2139
24892SOL    HW177569   1.629   1.766   4.034 -0.0763  1.0035  1.3775
24892SOL    HW277570   1.757   1.691   4.064 -1.0352 -0.7038  1.3346
24893SOL     OW77571   7.827   6.970   4.348 -0.5757 -0.4720 -0.2119
24893SOL    HW177572   7.852   6.881   4.324 -0.7450 -0.5748 -0.0081
24893SOL    HW277573   7.787   7.006   4.268 -0.9074 -0.7286 -0.1643
24894SOL     OW77574   4.878   3.610   5.811  0.4608 -0.0344  0.2418
24894SOL    HW177575   4.851   3.606   5.720 -0.4001 -3.0137  0.5184
24894SOL    HW277576   4.815   3.669   5.853  0.0560  0.2992 -0.8250
24895SOL     OW77577   5.020  10.621   0.835  0.5010  0.1202 -0.2083
24895SOL    HW177578   5.000  10.705   0.793 -0.7886 -1.3521 -2.7705
24895SOL    HW277579   4.935  10.584   0.856  1.0768 -0.3291  1.5292
24896SOL     OW77580   0.760   7.208   3.218 -0.1777 -0.0129  0.1109
24896SOL    HW177581   0.712   7.131   3.247 -0.5597 -0.4836 -1.6469
24896SOL    HW277582   0.852   7.187   3.236 -0.4323 -0.0059  1.5105
24897SOL     OW77583   9.281   9.385   4.497  0.1122 -0.2458  0.0645
24897SOL    HW177584   9.269   9.462   4.443 -1.0352  0.1883  0.8942
24897SOL    HW277585   9.365   9.399   4.541  0.3193  0.1200 -0.4500
24898SOL     OW77586   6.356   7.113   3.674 -0.2792 -0.4110 -0.1539
24898SOL    HW177587   6.411   7.168   3.729 -1.0740  0.1961  0.0551
24898SOL    HW277588   6.354   7.159   3.590  0.7519 -1.2193 -0.6445
24899SOL     OW77589   5.054   9.021   5.426 -0.0014 -0.2023  0.1089
24899SOL    HW177590   4.978   8.963   5.435 -0.6357  0.5359 -0.4262
24899SOL    HW277591   5.051   9.077   5.503  0.1041 -0.2762  0.1688
24900SOL     OW77592   3.800   4.847   7.653  0.1447 -0.1591 -0.2280
24900SOL    HW177593   3.790   4.942   7.642 -2.6134 -0.4848 -1.3823
24900SOL    HW277594   3.802   4.812   7.564  0.2321 -1.2339  0.1815
24901SOL     OW77595   7.548   2.122  10.401 -0.2188 -0.5575 -0.4087
24901SOL    HW177596   7.501   2.046  10.366  2.3029 -2.5140  0.1552
24901SOL    HW277597   7.616   2.084  10.456  0.5648  2.2034  0.6473
24902SOL     OW77598   2.324   3.027   3.883 -0.5946 -1.0628 -0.2624
24902SOL    HW177599   2.350   2.965   3.815  3.8597  0.9196 -0.7119
24902SOL    HW277600   2.365   2.994   3.963  1.5241  0.9133 -0.4357
24903SOL     OW77601  10.683   9.114  10.032 -0.0192 -0.1307  0.1680
24903SOL    HW177602  10.735   9.040   9.999  0.8708  0.6760 -0.2661
24903SOL    HW277603  10.747   9.181  10.054 -0.7971  0.4065  0.8678
24904SOL     OW77604   0.906   0.469   5.869  0.3746 -0.2296 -0.8184
24904SOL    HW177605   0.976   0.474   5.804 -1.6524 -1.0280 -3.1956
24904SOL    HW277606   0.859   0.389   5.848 -1.4975  0.4630  0.4699
24905SOL     OW77607  10.020   7.650   7.971  0.4810 -0.0743 -0.3508
24905SOL    HW177608   9.931   7.618   7.988  0.0121  0.8903 -0.9272
24905SOL    HW277609  10.025   7.657   7.876  0.9676  0.4687 -0.2890
24906SOL     OW77610   7.483   1.968   0.711 -0.2085  0.5096 -0.2673
24906SOL    HW177611   7.483   1.883   0.756 -1.6121  0.1463 -0.8868
24906SOL    HW277612   7.558   2.015   0.748  0.7285 -1.0709 -0.0651
24907SOL     OW77613   7.612   4.245   4.049 -0.6990  0.5913 -0.3888
24907SOL    HW177614   7.629   4.152   4.032 -1.9112  0.2987 -0.1360
24907SOL    HW277615   7.656   4.291   3.978 -0.4015 -0.2053 -0.7359
24908SOL     OW77616   1.409   8.967   5.156  0.0454 -0.3752 -0.3018
24908SOL    HW177617   1.373   8.961   5.068 -0.5284 -1.4616 -0.0119
24908SOL    HW277618   1.333   8.980   5.212  0.0208 -2.6842  0.3207
24909SOL     OW77619   5.516   2.882   3.382 -0.0235 -0.3019 -0.3152
24909SOL    HW177620   5.498   2.924   3.297  0.3656  0.0700 -0.2168
24909SOL    HW277621   5.578   2.941   3.425 -0.5308 -0.2771  0.4002
24910SOL     OW77622   9.131   8.033   6.026 -0.3909  0.2576 -0.5251
24910SOL    HW177623   9.148   8.088   5.950 -0.3478 -0.0061 -0.7080
24910SOL    HW277624   9.174   7.950   6.006  1.9384  1.0293  0.9318
24911SOL     OW77625   8.161   3.579   8.967 -0.3139  0.3040 -0.2507
24911SOL    HW177626   8.124   3.667   8.974  0.3503  0.6202 -0.6176
24911SOL    HW277627   8.131   3.534   9.046 -2.2926  0.2246 -0.9848
24912SOL     OW77628   7.078   2.534   9.625  0.3173  0.6338 -0.5509
24912SOL    HW177629   7.093   2.621   9.661  0.9633  0.0010  0.7539
24912SOL    HW277630   6.999   2.503   9.669  0.1199  0.5284 -0.9741
24913SOL     OW77631   9.823   8.297   5.963  0.0506 -0.3353 -0.2697
24913SOL    HW177632   9.856   8.265   6.047  3.8733  1.3861 -0.9002
24913SOL    HW277633   9.823   8.220   5.906 -1.4765 -1.2815  0.9385
24914SOL     OW77634   5.642   4.648   6.955 -0.1838 -0.0545  0.0595
24914SOL    HW177635   5.605   4.721   7.005 -0.0371 -0.6357  1.0530
24914SOL    HW277636   5.727   4.633   6.997 -0.5439 -1.2926  0.3750
24915SOL     OW77637   5.860   4.566   1.820  0.4478  0.0873 -0.3167
24915SOL    HW177638   5.921   4.548   1.749  0.6278 -1.3073  0.1680
24915SOL    HW277639   5.909   4.546   1.900 -0.1020  0.5865  0.1589
24916SOL     OW77640   7.835   4.672   1.329 -0.0397 -0.1741  0.1115
24916SOL    HW177641   7.817   4.650   1.421  0.3421  0.4361  0.3383
24916SOL    HW277642   7.796   4.759   1.318  0.0103 -0.2022 -0.2760
24917SOL     OW77643   8.684   3.374   2.973  0.3004  0.2071 -0.2622
24917SOL    HW177644   8.741   3.397   3.047  1.4109  1.1422 -1.3575
24917SOL    HW277645   8.735   3.312   2.922 -0.5131 -0.5307 -0.1950
24918SOL     OW77646   2.015   3.804   8.966  0.3819 -0.5520 -0.0808
24918SOL    HW177647   1.989   3.865   9.034 -0.3496 -1.3334  0.3599
24918SOL    HW277648   1.963   3.726   8.982 -0.2022 -0.5823 -1.8303
24919SOL     OW77649   3.940   0.739   2.642  0.3342 -0.0287  0.2621
24919SOL    HW177650   3.931   0.771   2.732 -3.2207 -0.0525  0.0292
24919SOL    HW277651   3.910   0.648   2.647 -1.1977  0.3715 -1.1464
24920SOL     OW77652   9.591   1.961   7.939  0.4811  0.4932  0.3057
24920SOL    HW177653   9.592   1.928   7.849 -1.6143 -1.7371  0.9927
24920SOL    HW277654   9.671   1.926   7.978  0.6499  0.1820 -0.3032
24921SOL     OW77655   3.631   3.959   2.012  0.2905 -0.2359  0.0805
24921SOL    HW177656   3.577   3.925   2.083  0.1279 -0.4341 -0.1336
24921SOL    HW277657   3.635   4.053   2.028 -1.7091  0.0783 -0.9322
24922SOL     OW77658   5.901   3.133   0.850  0.1331 -0.2946  0.3100
24922SOL    HW177659   5.880   3.040   0.843 -1.1918  0.0486 -0.6554
24922SOL    HW277660   5.960   3.138   0.925 -1.0749 -1.7198  1.4299
24923SOL     OW77661   3.768   0.728   4.540  0.0900 -0.2108  0.1804
24923SOL    HW177662   3.835   0.660   4.535  0.0350 -0.3884  1.5839
24923SOL    HW277663   3.810   0.801   4.585 -0.2134  0.2411 -0.2525
24924SOL     OW77664   1.485   1.869   0.283  0.2295 -1.1404 -0.3584
24924SOL    HW177665   1.564   1.845   0.332  0.6412 -0.2829 -0.5760
24924SOL    HW277666   1.413   1.850   0.343  0.7697  0.8956  1.0343
24925SOL     OW77667   8.755   5.013   3.549  0.1325  0.2472 -0.4358
24925SOL    HW177668   8.724   4.962   3.624  0.9436 -0.4728 -0.5622
24925SOL    HW277669   8.793   4.947   3.491 -0.1871  0.8406 -1.3267
24926SOL     OW77670   8.115   9.474   5.828 -0.7402  0.2357 -0.4072
24926SOL    HW177671   8.061   9.516   5.894 -0.8863  1.6627 -1.3943
24926SOL    HW277672   8.070   9.492   5.745  0.5434  0.2929 -1.1099
24927SOL     OW77673   8.231   0.744  10.608  0.4475  0.2332 -0.6077
24927SOL    HW177674   8.305   0.751  10.548  0.8948 -0.2986 -0.1197
24927SOL    HW277675   8.163   0.700  10.557 -0.1715  2.2268 -1.6306
24928SOL     OW77676   5.050   1.078   7.241  0.1939 -0.6941 -0.3262
24928SOL    HW177677   5.086   1.024   7.171 -0.6935 -1.9972  0.1803
24928SOL    HW277678   5.122   1.136   7.266  1.4066 -2.0796 -0.4652
24929SOL     OW77679   4.019   5.574   5.555 -0.2702 -0.1168  0.7301
24929SOL    HW177680   3.997   5.666   5.564 -1.5771 -0.3642  0.4016
24929SOL    HW277681   3.958   5.529   5.613 -1.0341 -0.8900 -0.6130
24930SOL     OW77682   4.371   3.527   9.015 -0.2378 -0.2416 -0.9886
24930SOL    HW177683   4.372   3.561   8.926 -2.0137 -0.4401 -1.1161
24930SOL    HW277684   4.287   3.555   9.051  1.1694  1.3865  1.2776
24931SOL     OW77685   3.369   6.259   6.188  0.8097  0.5064 -1.3436
24931SOL    HW177686   3.331   6.224   6.269 -2.4906 -0.1348 -3.0240
24931SOL    HW277687   3.449   6.208   6.176  1.7679  1.0238  1.7322
24932SOL     OW77688   8.760   8.447  10.117 -0.3205  0.4161 -0.0476
24932SOL    HW177689   8.804   8.474  10.036  0.8775  0.4679  0.5875
24932SOL    HW277690   8.832   8.432  10.179 -1.2422  1.5678  1.3717
24933SOL     OW77691   2.987   3.416   4.311 -0.4337 -0.8091  0.1359
24933SOL    HW177692   2.995   3.354   4.239 -0.9873 -1.0110  0.2443
24933SOL    HW277693   2.980   3.362   4.390 -1.6049 -0.6392  0.1685
24934SOL     OW77694   1.239   2.450   9.336 -0.3018 -0.0971 -0.1677
24934SOL    HW177695   1.183   2.494   9.400 -1.4043  0.1364 -1.2444
24934SOL    HW277696   1.205   2.360   9.333 -0.5021 -0.0081 -0.6818
24935SOL     OW77697   5.780   8.262   4.920  0.4680 -0.3947  0.7495
24935SOL    HW177698   5.706   8.204   4.936  1.2879 -1.0854  2.1865
24935SOL    HW277699   5.776   8.326   4.992  0.3465  0.5351 -0.0674
24936SOL     OW77700   6.502   5.598   0.575  0.3901 -0.5072 -0.3204
24936SOL    HW177701   6.526   5.549   0.654 -0.3223 -0.5164 -0.1020
24936SOL    HW277702   6.586   5.614   0.531  0.8329 -0.2788  0.5666
24937SOL     OW77703   2.911   7.546   3.505 -0.0649  0.0212  0.9272
24937SOL    HW177704   2.878   7.461   3.477  2.0545 -1.2810  2.0910
24937SOL    HW277705   2.973   7.572   3.437 -0.8496  0.7400  0.4800
24938SOL     OW77706   5.284   2.933   6.973  0.5200 -0.4136  0.0879
24938SOL    HW177707   5.355   2.982   7.014  1.3538  0.9458 -2.7709
24938SOL    HW277708   5.312   2.919   6.883 -1.8244 -1.9489 -0.5154
24939SOL     OW77709   3.066   2.992   5.163 -0.6162  0.0909  0.0381
24939SOL    HW177710   2.985   2.967   5.207 -0.9655 -0.0305 -0.6504
24939SOL    HW277711   3.049   3.081   5.131 -0.0486  0.5126  0.8945
24940SOL     OW77712  10.751   4.062   4.856  0.3509 -0.3876 -0.0299
24940SOL    HW177713  10.777   4.077   4.765  1.4326 -0.8133  0.1983
24940SOL    HW277714  10.656   4.077   4.856  0.4422  0.3186 -1.0757
24941SOL     OW77715   3.150   6.054   7.834 -0.5262 -0.6483  0.1643
24941SOL    HW177716   3.196   6.136   7.819 -0.7794 -0.1121  2.0678
24941SOL    HW277717   3.152   6.042   7.929 -2.1856 -1.8625  0.0987
24942SOL     OW77718   8.296   2.246   5.423 -0.1130 -0.3462  0.4883
24942SOL    HW177719   8.265   2.262   5.334 -1.5806  1.0686  1.2007
24942SOL    HW277720   8.360   2.315   5.439 -0.6800  0.0834  0.9118
24943SOL     OW77721   2.164   5.140   4.750 -0.2416 -0.6793 -0.3489
24943SOL    HW177722   2.125   5.227   4.761  1.3677  0.1319 -0.7511
24943SOL    HW277723   2.259   5.156   4.753  0.0765 -2.4593 -0.2032
24944SOL     OW77724   2.252  10.230   9.304 -0.0961  0.6411 -0.5480
24944SOL    HW177725   2.219  10.249   9.392  1.4442  1.8118 -0.1756
24944SOL    HW277726   2.229  10.307   9.253 -1.4473 -0.2547 -1.3474
24945SOL     OW77727   8.013   6.001  10.785  0.2748 -0.2753 -0.4404
24945SOL    HW177728   7.944   5.962  10.838 -0.3243 -0.6123 -1.4329
24945SOL    HW277729   8.087   6.013  10.845 -0.1916 -1.1547  0.3239
24946SOL     OW77730   7.676   5.728   7.806  0.3904  0.0314  0.1288
24946SOL    HW177731   7.716   5.796   7.752  0.1457 -0.9009 -1.2817
24946SOL    HW277732   7.589   5.763   7.828  0.8539  0.8232  0.7481
24947SOL     OW77733   2.145   3.977   1.706  0.6128  0.3589  0.2481
24947SOL    HW177734   2.113   4.050   1.759 -0.1368  0.4397 -0.3022
24947SOL    HW277735   2.138   4.008   1.615 -0.3998 -0.6501 -0.0406
24948SOL     OW77736   1.801   6.890  10.000  0.1742 -0.1425  0.8156
24948SOL    HW177737   1.786   6.814   9.944  0.7633  1.2140 -1.3111
24948SOL    HW277738   1.719   6.899  10.050 -2.1045  0.8118 -2.7079
24949SOL     OW77739   5.828   3.111   2.295 -0.4738 -0.9448  0.1501
24949SOL    HW177740   5.876   3.099   2.213 -0.9084  0.2548 -0.3113
24949SOL    HW277741   5.775   3.189   2.280 -2.4059 -2.0874  0.7405
24950SOL     OW77742   5.086   5.738   7.420 -0.0865 -0.5916 -0.2259
24950SOL    HW177743   5.041   5.770   7.498  0.8711 -1.7647  0.8684
24950SOL    HW277744   5.103   5.816   7.368  1.0681  0.5432  1.7236
24951SOL     OW77745   0.103   9.102   8.384  0.4218 -0.0949  0.5929
24951SOL    HW177746   0.155   9.171   8.344 -1.1295  0.1796 -1.0888
24951SOL    HW277747   0.056   9.062   8.311 -0.2637 -1.5951  1.7886
24952SOL     OW77748   5.061   1.966   5.206 -0.4702 -0.1650  0.1717
24952SOL    HW177749   5.102   2.049   5.231 -0.4839 -0.2568  0.5072
24952SOL    HW277750   4.972   1.972   5.242 -0.3830 -0.4375  0.4394
24953SOL     OW77751   3.821   0.015   4.150 -0.2938 -0.2102 -0.3908
24953SOL    HW177752   3.873   0.073   4.095 -1.7917  0.7336 -0.8812
24953SOL    HW277753   3.779  -0.045   4.088  1.6286 -2.2197  0.1464
24954SOL     OW77754   2.597   6.375   8.029  0.3184 -0.0913 -0.5531
24954SOL    HW177755   2.519   6.427   8.009  0.1978 -0.3013 -0.6321
24954SOL    HW277756   2.564   6.299   8.076  0.5329  0.0763 -0.1208
24955SOL     OW77757  10.033   0.157   3.096 -0.1174 -0.1443 -0.0022
24955SOL    HW177758   9.989   0.072   3.106  0.8305 -0.8428 -1.3974
24955SOL    HW277759   9.976   0.219   3.140 -2.0033 -1.1586 -0.9069
24956SOL     OW77760   3.197   6.459   0.473 -0.1923 -0.5217 -0.4856
24956SOL    HW177761   3.111   6.477   0.512  0.0699 -1.1311  0.4000
24956SOL    HW277762   3.195   6.366   0.454  0.2656 -0.5259 -0.5036
24957SOL     OW77763   2.904   4.912   7.681 -0.4662 -0.2205 -0.3198
24957SOL    HW177764   2.874   4.832   7.724 -0.9545  0.2028  0.1403
24957SOL    HW277765   2.955   4.881   7.606  1.5710 -0.9959  1.3061
24958SOL     OW77766   9.772   9.340   4.192  0.2020  0.1935 -0.0574
24958SOL    HW177767   9.765   9.402   4.119 -0.7599 -0.5868 -0.6349
24958SOL    HW277768   9.693   9.354   4.243 -0.1246 -0.7111 -0.3089
24959SOL     OW77769   4.905   0.837   6.352 -0.8015  0.6845 -0.1239
24959SOL    HW177770   4.981   0.781   6.373 -0.5645  1.3435  0.8172
24959SOL    HW277771   4.845   0.825   6.425 -1.4208  0.5175 -0.6487
24960SOL     OW77772   4.763  10.041  10.087  0.6479  0.0425 -0.0128
24960SOL    HW177773   4.830   9.992  10.041  1.9900  1.6781  0.1105
24960SOL    HW277774   4.809  10.116  10.125 -1.1929  1.0897  0.3041
24961SOL     OW77775   0.327   3.115   1.190 -0.0570  0.1689 -0.2401
24961SOL    HW177776   0.233   3.123   1.206  0.2259 -1.3693  2.9549
24961SOL    HW277777   0.338   3.032   1.144 -0.2478  0.5310 -0.9571
24962SOL     OW77778  10.614   3.551   1.909 -0.8013  0.3356 -0.4794
24962SOL    HW177779  10.528   3.516   1.886 -1.4407 -0.0918  2.1862
24962SOL    HW277780  10.672   3.475   1.906 -0.1729  0.8313 -3.4201
24963SOL     OW77781   2.152   0.957   1.626  0.0236 -0.2009 -0.5171
24963SOL    HW177782   2.193   1.041   1.644 -0.7442  0.2647 -0.9097
24963SOL    HW277783   2.206   0.893   1.673  1.2086  0.3844 -1.0327
24964SOL     OW77784   0.625   0.905   5.672 -0.0003  0.4401 -0.0359
24964SOL    HW177785   0.662   0.932   5.755 -0.1717 -1.9856  0.9212
24964SOL    HW277786   0.530   0.902   5.688 -0.1391  1.1039 -0.6956
24965SOL     OW77787   8.137   2.850   3.865  0.1299  0.8016 -0.6221
24965SOL    HW177788   8.199   2.910   3.907 -0.0676  1.3887 -1.1450
24965SOL    HW277789   8.110   2.896   3.785  0.1719 -0.1008 -1.1708
24966SOL     OW77790   9.449   8.662   9.921  0.3488  0.2838  0.2607
24966SOL    HW177791   9.391   8.654   9.997 -0.4766 -1.5186 -0.5014
24966SOL    HW277792   9.390   8.675   9.847  1.0993  1.1796 -0.2027
24967SOL     OW77793   5.961   9.222   8.522 -0.5258  0.0930  0.3323
24967SOL    HW177794   5.897   9.151   8.517 -1.3537  0.7772  1.0744
24967SOL    HW277795   5.984   9.228   8.615  1.3890 -0.7932 -0.0217
24968SOL     OW77796   3.339   9.524   4.656  0.0073 -0.4163  0.1330
24968SOL    HW177797   3.400   9.540   4.728 -1.3906  0.3293  1.1917
24968SOL    HW277798   3.300   9.439   4.677  1.1796 -1.2726 -0.9546
24969SOL     OW77799   1.481   8.455   4.447 -0.2058 -0.1507  0.6056
24969SOL    HW177800   1.514   8.367   4.429 -0.6479 -0.2780  0.4081
24969SOL    HW277801   1.443   8.484   4.364 -0.4893  0.0366  0.7971
24970SOL     OW77802   6.310   5.662   2.186  0.3983 -0.1964 -0.2806
24970SOL    HW177803   6.247   5.661   2.258  1.3471 -0.2812  0.5634
24970SOL    HW277804   6.379   5.603   2.213  0.7782 -0.2255 -1.2676
24971SOL     OW77805  10.110   5.031   1.264  0.2652  0.2755 -0.0525
24971SOL    HW177806  10.117   4.983   1.346 -0.2326  0.7116  0.2527
24971SOL    HW277807  10.195   5.073   1.253  0.8906 -1.0807 -0.5949
24972SOL     OW77808   9.340   5.695   9.617  1.2268  0.9809 -0.3347
24972SOL    HW177809   9.335   5.679   9.523 -0.5922  3.0102 -0.6675
24972SOL    HW277810   9.334   5.607   9.656  4.4893 -0.1551 -2.0363
24973SOL     OW77811   5.779   2.125   3.755 -0.1020  0.4871  0.3754
24973SOL    HW177812   5.867   2.152   3.729  0.3371 -2.3299 -1.4435
24973SOL    HW277813   5.729   2.118   3.674 -0.8970 -1.4328  0.9445
24974SOL     OW77814   6.615   3.192   8.903 -0.2925 -0.5490  0.0530
24974SOL    HW177815   6.562   3.241   8.966  0.6704  0.6167 -0.0096
24974SOL    HW277816   6.688   3.251   8.882  0.1220 -1.4453 -1.1337
24975SOL     OW77817   2.977   0.203   0.611 -0.4549  0.1148  0.4319
24975SOL    HW177818   3.008   0.292   0.629 -1.0950  0.0684  1.9998
24975SOL    HW277819   3.035   0.170   0.542 -0.6408  1.9763 -0.6831
24976SOL     OW77820   0.815   1.505   2.128  0.5116  0.1649 -0.0287
24976SOL    HW177821   0.845   1.435   2.186 -1.7781 -0.0717  1.0004
24976SOL    HW277822   0.720   1.504   2.138  0.3267  2.6051 -0.9606
24977SOL     OW77823   3.525   2.496   3.186 -0.0011 -0.3923 -0.1425
24977SOL    HW177824   3.508   2.438   3.261  1.3940 -2.4694 -1.3210
24977SOL    HW277825   3.445   2.548   3.178 -0.3880 -0.4390  2.4602
24978SOL     OW77826   9.601  10.440   6.489  0.3362 -0.3649  0.2119
24978SOL    HW177827   9.557  10.356   6.503 -0.4697 -0.0562 -0.3883
24978SOL    HW277828   9.531  10.505   6.494  0.7757  0.1718 -0.3766
24979SOL     OW77829   6.476   1.205   9.642  0.6365 -0.0492  0.1265
24979SOL    HW177830   6.424   1.165   9.572  1.3330  0.0891 -0.4873
24979SOL    HW277831   6.485   1.136   9.708  0.2062 -0.2762 -0.0505
24980SOL     OW77832   3.399   3.349   6.500  0.3139 -0.1149  0.6645
24980SOL    HW177833   3.321   3.374   6.549 -0.5637 -1.0338 -0.2020
24980SOL    HW277834   3.417   3.259   6.527  0.6134 -0.1686  0.2945
24981SOL     OW77835   3.507   0.470   1.274  0.2977  0.3247 -0.5726
24981SOL    HW177836   3.495   0.426   1.358  2.8189 -1.5081 -1.0337
24981SOL    HW277837   3.569   0.414   1.227  1.4832  2.9494 -2.3715
24982SOL     OW77838   6.684  10.595   2.788  0.0583 -0.5086  0.2441
24982SOL    HW177839   6.700  10.637   2.873 -2.6000 -0.6171  0.8911
24982SOL    HW277840   6.750  10.526   2.782  1.2903  0.5036  1.4839
24983SOL     OW77841  10.300   9.975   1.844 -0.3315 -0.0631 -1.0830
24983SOL    HW177842  10.354  10.043   1.804  0.6920 -0.3588 -0.2496
24983SOL    HW277843  10.331   9.969   1.935 -1.4735 -0.5523 -0.7041
24984SOL     OW77844   0.244   3.147   4.439  0.1102  0.2461  0.4112
24984SOL    HW177845   0.198   3.201   4.374 -1.9804  0.1404  1.7377
24984SOL    HW277846   0.321   3.199   4.463  2.5358 -0.8058 -3.9628
24985SOL     OW77847   0.880   5.144  10.327  0.0851 -0.4828  0.3607
24985SOL    HW177848   0.855   5.116  10.240  0.3904 -2.0669  0.7498
24985SOL    HW277849   0.972   5.120  10.335  0.1197 -0.1722  1.0583
24986SOL     OW77850   7.584   0.589   9.285  0.6367  0.2045 -0.1089
24986SOL    HW177851   7.530   0.663   9.312  0.7010  0.5734 -0.9620
24986SOL    HW277852   7.660   0.629   9.243  0.2293 -0.3386 -1.4245
24987SOL     OW77853   3.617   7.790   6.900  1.2411 -0.0518  0.7391
24987SOL    HW177854   3.604   7.722   6.966 -0.1010 -0.9706 -0.4175
24987SOL    HW277855   3.621   7.743   6.817 -0.4306  1.3141 -0.1746
24988SOL     OW77856   7.650   0.901  10.593  0.3259  0.4985 -0.1440
24988SOL    HW177857   7.662   0.808  10.576  3.8629  0.5176  1.4220
24988SOL    HW277858   7.620   0.906  10.684  1.0525  0.8729  0.0859
24989SOL     OW77859   2.120   1.085   3.536 -0.3967  0.2699  0.3374
24989SOL    HW177860   2.042   1.030   3.545  1.4601 -2.7782 -0.6846
24989SOL    HW277861   2.154   1.093   3.625 -0.0594 -1.3430  0.3858
24990SOL     OW77862   3.867   6.883   0.208 -0.3864 -0.5909 -0.2277
24990SOL    HW177863   3.886   6.820   0.139 -0.6697  0.7947 -1.6113
24990SOL    HW277864   3.788   6.849   0.250  0.3366 -1.9502  0.0852
24991SOL     OW77865   5.130   9.481   7.452  0.6186  0.1429 -0.0816
24991SOL    HW177866   5.043   9.480   7.412 -0.1773 -0.2490  1.5541
24991SOL    HW277867   5.122   9.420   7.525  1.9672  0.9118  0.7295
24992SOL     OW77868   1.161   8.920   2.328 -0.3743  0.2691 -0.2143
24992SOL    HW177869   1.246   8.905   2.370 -0.8132  1.5496  1.2308
24992SOL    HW277870   1.156   9.014   2.315 -1.9103  0.3476  0.5813
24993SOL     OW77871   5.235   9.585   1.429  0.3686  0.2678 -0.2020
24993SOL    HW177872   5.318   9.559   1.389 -0.0302 -0.0466 -0.8420
24993SOL    HW277873   5.208   9.507   1.478  0.0800  0.1087 -0.6133
24994SOL     OW77874   4.484   7.600   5.530  0.2317  0.6031 -0.1993
24994SOL    HW177875   4.502   7.661   5.601  1.5958 -0.1517  0.1437
24994SOL    HW277876   4.498   7.651   5.450 -0.7555  1.3012  0.0495
24995SOL     OW77877   8.285   9.317   2.329 -0.1316 -0.5507  0.3209
24995SOL    HW177878   8.324   9.395   2.291 -1.3250 -0.6973 -1.2654
24995SOL    HW277879   8.344   9.294   2.401  0.2998  1.7233  0.7626
24996SOL     OW77880   1.535   8.630   4.827 -0.2425 -0.1523  0.1996
24996SOL    HW177881   1.453   8.588   4.850  0.5630 -2.2003 -0.4526
24996SOL    HW277882   1.592   8.616   4.903  0.6243 -1.9704 -0.7292
24997SOL     OW77883  10.711   1.542   0.345  0.2043  0.1528 -0.6457
24997SOL    HW177884  10.704   1.635   0.366  0.7319  0.3072 -1.1330
24997SOL    HW277885  10.749   1.540   0.257  0.2103 -0.5237 -0.6304
24998SOL     OW77886   2.973  10.666   2.020 -0.3341 -0.3636 -0.5847
24998SOL    HW177887   2.915  10.665   2.096 -0.1800 -0.0031 -0.4575
24998SOL    HW277888   2.929  10.612   1.955 -0.2173 -1.1110 -0.0579
24999SOL     OW77889  10.461   8.528   2.157 -0.1254 -0.0153 -0.1134
24999SOL    HW177890  10.426   8.471   2.225 -1.1773 -0.0094 -0.6260
24999SOL    HW277891  10.392   8.592   2.141  1.1510  1.6025  0.6531
25000SOL     OW77892   3.513   4.852   6.586  0.5483 -0.6414 -0.4283
25000SOL    HW177893   3.431   4.844   6.635  0.8805  2.1668  0.7557
25000SOL    HW277894   3.577   4.806   6.640  0.6677  1.4047  1.3166
25001SOL     OW77895  10.508   5.219   4.048 -0.0182 -0.2807 -0.0383
25001SOL    HW177896  10.479   5.177   4.129  1.3289 -1.8681 -0.3445
25001SOL    HW277897  10.451   5.296   4.040  0.4336  0.4788  2.9121
25002SOL     OW77898   9.155   6.948   9.602 -0.1968  0.3392  0.1482
25002SOL    HW177899   9.239   6.928   9.643 -0.3693  0.0988  0.3856
25002SOL    HW277900   9.155   7.044   9.593  1.2514  0.1942 -2.3058
25003SOL     OW77901   7.485   2.231  10.686  0.4122 -0.0195  0.2790
25003SOL    HW177902   7.537   2.309  10.663  1.9807 -0.7608  1.1350
25003SOL    HW277903   7.426   2.261  10.755  0.3948  0.6160 -0.0062
25004SOL     OW77904   1.608   6.450  10.420  0.6303 -0.0549 -0.2744
25004SOL    HW177905   1.572   6.371  10.378 -0.3768 -0.6067  1.5420
25004SOL    HW277906   1.613   6.428  10.513  2.7115  1.1706 -0.0394
25005SOL     OW77907   0.512   2.900   0.843  0.1633 -0.3261  0.1178
25005SOL    HW177908   0.588   2.853   0.876  0.3742  0.6807  1.1254
25005SOL    HW277909   0.448   2.896   0.914 -0.7867 -1.2397 -0.7471
25006SOL     OW77910   7.756   6.931   0.555  0.4937  0.1303 -0.0522
25006SOL    HW177911   7.773   6.959   0.465 -0.2106 -1.0307 -0.5657
25006SOL    HW277912   7.728   7.010   0.600 -0.8072  0.4096 -1.2935
25007SOL     OW77913   7.692   8.801   5.040 -0.6295 -0.3117  0.3574
25007SOL    HW177914   7.657   8.713   5.055 -0.1954 -0.3884  0.9346
25007SOL    HW277915   7.736   8.824   5.122  0.2330 -0.0091 -0.1812
25008SOL     OW77916   6.107   0.822   5.098  0.0066  0.2838 -0.1373
25008SOL    HW177917   6.178   0.759   5.086  1.2130  1.7249 -0.7541
25008SOL    HW277918   6.031   0.778   5.058  0.4533 -1.3580  0.7118
25009SOL     OW77919   5.456   2.540   2.845 -0.2880 -0.2301  0.1523
25009SOL    HW177920   5.530   2.566   2.790 -0.1284  1.3256  1.0498
25009SOL    HW277921   5.396   2.497   2.785  0.3043  0.5841 -1.0687
25010SOL     OW77922   5.704   7.300  10.096  0.6954 -0.2906 -0.0442
25010SOL    HW177923   5.658   7.294  10.180 -1.2877  2.2860 -0.7895
25010SOL    HW277924   5.669   7.228  10.044 -0.7068  0.1497  0.2495
25011SOL     OW77925   9.084   3.113   4.443 -0.0276 -0.6220  0.0206
25011SOL    HW177926   9.125   3.095   4.527 -0.0798 -2.8230 -0.3635
25011SOL    HW277927   9.153   3.152   4.390  0.8203 -1.8056  0.2265
25012SOL     OW77928   8.940   2.527   0.438 -0.8530 -0.1753  0.1504
25012SOL    HW177929   8.945   2.459   0.505 -0.8075 -0.4568 -0.1381
25012SOL    HW277930   8.941   2.609   0.488  1.3790 -0.3096  0.4251
25013SOL     OW77931   9.521   7.698   0.180  0.2542 -0.4129 -0.1674
25013SOL    HW177932   9.580   7.674   0.251 -1.7676  0.3668  1.9172
25013SOL    HW277933   9.561   7.774   0.140  0.2119  0.8083  1.9409
25014SOL     OW77934   4.696   4.485   9.248 -0.0639  0.5507 -0.0384
25014SOL    HW177935   4.677   4.435   9.327  1.6881  0.6854  0.5061
25014SOL    HW277936   4.768   4.438   9.207 -0.1856  1.1418 -0.9520
25015SOL     OW77937   9.871   9.308   1.505 -0.2753  0.4796  0.5707
25015SOL    HW177938   9.841   9.243   1.568  0.0305  0.8931  1.1544
25015SOL    HW277939   9.835   9.279   1.421  0.9453 -1.1882  0.5717
25016SOL     OW77940   4.095   4.644   0.025  0.0866  0.1866  0.5085
25016SOL    HW177941   4.105   4.734   0.054  1.2990  0.0439  0.5995
25016SOL    HW277942   4.022   4.609   0.077 -0.9150  1.3199 -0.0960
25017SOL     OW77943  10.308   7.289   5.219 -0.3136  0.4741  0.0785
25017SOL    HW177944  10.310   7.210   5.164  0.4674  1.1018 -0.8322
25017SOL    HW277945  10.238   7.342   5.181  0.4958  1.0883 -0.5969
25018SOL     OW77946   5.905   1.680   2.552  0.2785 -0.3506  0.4613
25018SOL    HW177947   5.832   1.619   2.562 -0.6786  0.6616 -0.1056
25018SOL    HW277948   5.957   1.643   2.480 -0.9462  0.0833 -0.6930
25019SOL     OW77949  10.282   4.245   1.573  0.2740  0.1374 -0.5867
25019SOL    HW177950  10.353   4.286   1.524  0.9414  0.7461  0.8234
25019SOL    HW277951  10.218   4.315   1.587  0.4686  0.1907  0.0821
25020SOL     OW77952   7.262   0.853   2.479  0.7228 -0.2621 -0.3028
25020SOL    HW177953   7.283   0.893   2.563  0.4526 -0.6463 -0.0445
25020SOL    HW277954   7.228   0.766   2.502  0.9554 -0.4973 -0.8265
25021SOL     OW77955   3.025   8.954   9.265 -0.5596 -0.3167  0.0057
25021SOL    HW177956   2.986   9.040   9.280  1.3405  0.5081  0.4459
25021SOL    HW277957   3.094   8.947   9.330  1.4043 -0.8219 -2.0260
25022SOL     OW77958   2.831   6.111   7.836  0.6474 -0.4040 -0.1484
25022SOL    HW177959   2.863   6.194   7.870  0.0088 -0.0690 -0.3404
25022SOL    HW277960   2.810   6.059   7.914 -0.3139  0.1664 -0.0041
25023SOL     OW77961   9.132   0.569   7.950 -0.2556  0.3016 -0.4717
25023SOL    HW177962   9.121   0.583   7.856 -0.0324  2.0194 -0.2753
25023SOL    HW277963   9.042   0.557   7.983 -0.2342 -1.9456 -1.0882
25024SOL     OW77964   4.344   1.744   2.338 -0.2933  0.2905 -0.2501
25024SOL    HW177965   4.385   1.676   2.286 -0.5825  0.1015 -0.2324
25024SOL    HW277966   4.359   1.717   2.429  0.1363  0.5756 -0.2305
25025SOL     OW77967   3.726   2.513   0.293 -0.7445  0.2240  0.4278
25025SOL    HW177968   3.670   2.557   0.229 -0.8375  0.4778  0.6830
25025SOL    HW277969   3.774   2.448   0.241 -0.8392  0.4061  0.1048
25026SOL     OW77970   8.223   6.840   6.707  0.3337 -0.4503  0.2139
25026SOL    HW177971   8.195   6.765   6.655  0.2049 -1.8041  2.1118
25026SOL    HW277972   8.163   6.840   6.782  0.7458  1.1729  0.5836
25027SOL     OW77973   4.570  10.169   9.026  0.0780  0.6232  0.2315
25027SOL    HW177974   4.531  10.239   8.973  0.2327  2.6063  2.5567
25027SOL    HW277975   4.496  10.129   9.071  0.0373 -0.4815 -0.7804
25028SOL     OW77976   2.281   5.958   0.656 -0.1456  0.7000  0.3531
25028SOL    HW177977   2.362   5.911   0.634 -0.7746 -1.0820  1.5892
25028SOL    HW277978   2.249   5.914   0.735 -3.0114  0.4768 -0.8146
25029SOL     OW77979   4.021   9.662   5.570 -0.3887 -0.4341  0.2703
25029SOL    HW177980   3.950   9.655   5.634  0.1930  0.4084  1.0391
25029SOL    HW277981   4.061   9.747   5.589  2.1182 -1.7339  1.2087
25030SOL     OW77982   9.785   5.572   7.298 -0.2512  0.0872  0.2122
25030SOL    HW177983   9.844   5.608   7.365  1.2688  1.5804 -1.7772
25030SOL    HW277984   9.700   5.611   7.317 -0.2384 -0.7193  2.1251
25031SOL     OW77985   5.687   6.723   5.270  0.0385  0.4723 -0.1406
25031SOL    HW177986   5.697   6.664   5.344  1.0441 -1.0621 -1.4183
25031SOL    HW277987   5.639   6.672   5.205 -0.3282  1.5791 -0.7656
25032SOL     OW77988   4.843   7.422   4.720 -0.1573 -0.4520 -0.5106
25032SOL    HW177989   4.774   7.361   4.748  0.4379  0.5271  3.8941
25032SOL    HW277990   4.922   7.369   4.717 -0.1980 -0.5584  0.0765
25033SOL     OW77991   3.444   6.559   6.163 -0.0364  0.6186 -0.0744
25033SOL    HW177992   3.465   6.481   6.215 -1.4391  0.4121  0.2182
25033SOL    HW277993   3.494   6.629   6.204  0.6251  0.0261  0.1496
25034SOL     OW77994   5.153  10.040   3.327 -0.0889 -0.0962  0.1635
25034SOL    HW177995   5.244  10.065   3.315 -0.1596 -0.0202 -0.2091
25034SOL    HW277996   5.156   9.970   3.392  0.3895 -1.2257 -1.0325
25035SOL     OW77997   8.072   8.067   4.473 -0.2092  0.2761  0.4250
25035SOL    HW177998   8.118   7.983   4.467 -0.5372 -0.0031  1.5516
25035SOL    HW277999   8.094   8.100   4.560 -1.5559  0.4705  0.7115
25036SOL     OW78000   2.022   3.594   5.079  0.0351  0.1076 -0.6000
25036SOL    HW178001   1.938   3.549   5.076  1.0829 -1.9662 -1.1551
25036SOL    HW278002   2.086   3.525   5.063  1.8900  1.5225  0.3252
25037SOL     OW78003   0.466   0.121   8.049 -0.0086  0.3394 -0.2333
25037SOL    HW178004   0.418   0.203   8.046 -0.1730  0.2538  0.0740
25037SOL    HW278005   0.415   0.061   7.995 -0.8822 -0.0858  1.0300
25038SOL     OW78006   1.163   3.780   0.943  0.2364 -0.1618 -0.2394
25038SOL    HW178007   1.209   3.716   0.997 -1.3191 -1.2127 -0.0917
25038SOL    HW278008   1.225   3.852   0.933  1.9670 -1.5850 -0.2286
25039SOL     OW78009   1.575   6.869   1.876 -0.0022  0.0835 -0.2139
25039SOL    HW178010   1.603   6.800   1.816  0.3375  0.2306 -0.2299
25039SOL    HW278011   1.483   6.882   1.857 -0.3148 -1.0006  0.4155
25040SOL     OW78012   0.604   6.666  10.476 -0.5408 -0.1801  0.1992
25040SOL    HW178013   0.553   6.741  10.447  1.1341  0.5604 -0.9681
25040SOL    HW278014   0.611   6.611  10.398  0.4030 -0.2852  0.3500
25041SOL     OW78015   3.821   9.535   7.263  0.4415  0.1194 -0.5442
25041SOL    HW178016   3.802   9.629   7.257 -1.1012 -0.1245  0.2422
25041SOL    HW278017   3.796   9.501   7.177 -0.4248  0.2043 -0.3355
25042SOL     OW78018   6.372   5.693   7.184 -0.6796 -0.3481  0.1427
25042SOL    HW178019   6.338   5.654   7.265 -1.2152 -0.3536 -0.0844
25042SOL    HW278020   6.421   5.622   7.142 -2.7998 -1.2561 -0.9622
25043SOL     OW78021   0.192   8.727   6.782 -0.0445  0.2830 -0.1485
25043SOL    HW178022   0.117   8.667   6.774 -0.4875  0.5171  1.7299
25043SOL    HW278023   0.190   8.755   6.874  2.4983  0.1324  0.0082
25044SOL     OW78024  10.018   8.955   1.023  0.4842 -0.6582 -0.3201
25044SOL    HW178025  10.077   8.882   1.009  1.4201  0.1332 -0.6014
25044SOL    HW278026  10.073   9.023   1.062 -0.6598 -0.5704  1.2568
25045SOL     OW78027   3.716   0.020   1.089  0.1119  0.2346 -0.0835
25045SOL    HW178028   3.796   0.057   1.054  0.0065 -0.0255 -0.6173
25045SOL    HW278029   3.741  -0.016   1.174  0.7312 -0.4801 -0.5532
25046SOL     OW78030   9.078   4.369   1.371  0.2569 -0.3511 -0.1636
25046SOL    HW178031   9.154   4.386   1.315  1.6955  0.5614  1.9061
25046SOL    HW278032   9.027   4.450   1.367  0.9809  0.1667  0.7086
25047SOL     OW78033   6.323   8.981   5.796  0.3387 -0.1298 -0.0220
25047SOL    HW178034   6.342   8.887   5.791  0.8746 -0.2260  2.4938
25047SOL    HW278035   6.408   9.023   5.787  0.0335  0.2088 -1.7366
25048SOL     OW78036   2.851   6.659   0.058  0.0862  0.4407 -0.2810
25048SOL    HW178037   2.908   6.635   0.131 -0.3469 -1.2357 -0.4486
25048SOL    HW278038   2.763   6.664   0.096 -0.0311  0.3251 -0.5267
25049SOL     OW78039   6.484   2.977   6.037  0.0316 -0.6717 -0.3819
25049SOL    HW178040   6.522   3.051   5.989  1.4702 -0.8094  0.4833
25049SOL    HW278041   6.560   2.934   6.077 -1.0620 -0.8731  1.5645
25050SOL     OW78042   2.781   7.647   0.462  0.1676  0.0096 -1.0103
25050SOL    HW178043   2.845   7.584   0.429  0.8362  0.4294 -0.5386
25050SOL    HW278044   2.756   7.613   0.548  1.2458  0.8613 -0.3336
25051SOL     OW78045   3.040   6.901   1.111  0.4814  0.7305 -0.4420
25051SOL    HW178046   3.086   6.907   1.194  0.7726  2.4849 -0.6824
25051SOL    HW278047   3.100   6.854   1.053  0.9083  0.8015 -0.0620
25052SOL     OW78048   2.450   7.669   4.551 -0.1302 -0.1492 -0.7120
25052SOL    HW178049   2.520   7.655   4.488 -0.8213 -2.1834 -1.1037
25052SOL    HW278050   2.377   7.616   4.519 -1.2042  0.3806  0.7073
25053SOL     OW78051   9.954   0.239   2.588  0.4102 -0.0671  0.0720
25053SOL    HW178052  10.039   0.206   2.559  0.0529 -0.9518 -0.0178
25053SOL    HW278053   9.957   0.333   2.569 -0.1705 -0.6579 -3.9609
25054SOL     OW78054   6.762   3.772  10.638  0.3385 -0.0693 -0.0918
25054SOL    HW178055   6.809   3.854  10.655 -0.5184  0.1714  1.2191
25054SOL    HW278056   6.700   3.764  10.710 -1.6116 -0.4187 -1.7145
25055SOL     OW78057   5.773   6.640   8.596 -0.1629  0.3454  0.1249
25055SOL    HW178058   5.695   6.586   8.593  0.1942 -0.1563 -0.2457
25055SOL    HW278059   5.828   6.608   8.525 -0.2030  1.6022 -0.4930
25056SOL     OW78060   0.959   0.822   9.730 -0.4662 -0.3482  0.3460
25056SOL    HW178061   0.982   0.899   9.679 -1.1017 -0.4316 -0.0723
25056SOL    HW278062   0.866   0.834   9.751 -0.6136 -1.0847  0.1297
25057SOL     OW78063   6.922   9.601   3.079  1.0013  0.5165  0.2786
25057SOL    HW178064   6.959   9.521   3.117  0.8480 -0.0430 -0.7260
25057SOL    HW278065   6.920   9.663   3.152  1.3313 -0.3196  1.0193
25058SOL     OW78066   1.707   4.378   1.878  0.6961 -0.3269 -0.4345
25058SOL    HW178067   1.735   4.413   1.962 -0.4119 -1.5379  0.4843
25058SOL    HW278068   1.636   4.436   1.850  1.0063  0.0246 -0.5036
25059SOL     OW78069   4.407   6.256   5.358 -0.1237  0.0962 -0.0779
25059SOL    HW178070   4.390   6.164   5.338 -0.5913 -0.0117  0.7770
25059SOL    HW278071   4.470   6.283   5.291 -0.2336 -0.7487 -0.5443
25060SOL     OW78072   2.411   4.981   5.616 -0.3125 -0.6704  0.2648
25060SOL    HW178073   2.330   4.964   5.569  1.0006 -2.7326 -1.4809
25060SOL    HW278074   2.472   5.012   5.549  0.7047 -0.4234  1.2602
25061SOL     OW78075   0.090   4.763   6.388 -0.2448 -0.4785 -0.9683
25061SOL    HW178076   0.020   4.802   6.336 -0.6578 -3.8559 -3.2349
25061SOL    HW278077   0.167   4.815   6.368 -1.3036  0.9451 -1.4958
25062SOL     OW78078   7.547   7.824   4.752  0.0308  0.0462 -0.0813
25062SOL    HW178079   7.495   7.904   4.754  0.5545  0.4025 -0.6329
25062SOL    HW278080   7.491   7.758   4.794  0.2393  1.0723  1.9432
25063SOL     OW78081   8.546   3.813   4.776 -0.3665 -0.0563  0.0150
25063SOL    HW178082   8.471   3.761   4.806 -0.7381  1.1098  1.1707
25063SOL    HW278083   8.566   3.871   4.849  2.1447 -0.8155  0.0221
25064SOL     OW78084   7.691   6.899   8.267  0.3022  0.9082  0.1474
25064SOL    HW178085   7.692   6.978   8.213 -2.0136  1.2434  0.4892
25064SOL    HW278086   7.641   6.835   8.216  1.9362 -0.3124 -0.0165
25065SOL     OW78087   8.531  10.245   5.892 -0.0048 -0.5989 -0.0554
25065SOL    HW178088   8.505  10.208   5.808 -3.4741  0.8990  0.1777
25065SOL    HW278089   8.502  10.180   5.956  1.1742 -0.9986  0.1046
25066SOL     OW78090   8.425   2.806   0.104  0.6244  0.6245 -0.9087
25066SOL    HW178091   8.455   2.750   0.175  0.4189  0.6026 -0.8390
25066SOL    HW278092   8.439   2.755   0.025 -0.4414  0.0957 -0.7716
25067SOL     OW78093   9.481   1.990   3.552  0.4229 -0.4405 -0.8730
25067SOL    HW178094   9.575   1.976   3.560  0.9107  0.8913 -3.3212
25067SOL    HW278095   9.455   2.025   3.637  1.4366 -3.7911  0.9940
25068SOL     OW78096  10.301   9.426   1.736  0.6382  0.5492 -0.2629
25068SOL    HW178097  10.390   9.398   1.758  0.9713  0.0117 -2.1191
25068SOL    HW278098  10.301   9.520   1.752  1.0342  0.3207  1.2620
25069SOL     OW78099   4.622   6.707   8.471  0.1516 -0.2712 -0.2918
25069SOL    HW178100   4.689   6.689   8.536 -1.1476  0.8674  1.4611
25069SOL    HW278101   4.664   6.765   8.408  1.3869 -1.2688 -0.4376
25070SOL     OW78102   3.560   4.307   9.241 -0.3018  0.3927  0.8664
25070SOL    HW178103   3.500   4.237   9.268 -1.7228  1.8856  1.7844
25070SOL    HW278104   3.646   4.265   9.236 -1.6974 -2.7651 -3.8945
25071SOL     OW78105   1.662   4.391   0.007  0.4285  0.4008  0.2728
25071SOL    HW178106   1.577   4.360   0.038  0.4169  0.4932  0.3350
25071SOL    HW278107   1.655   4.390  -0.088  0.4125  0.2560  0.2750
25072SOL     OW78108   7.222   4.816   9.547  0.2525  0.5476  0.0379
25072SOL    HW178109   7.259   4.737   9.508  2.2904  1.7940 -0.7185
25072SOL    HW278110   7.140   4.829   9.500  0.5800 -0.3436 -0.8264
25073SOL     OW78111   1.980   1.979  10.725 -1.0074 -0.6509 -0.2417
25073SOL    HW178112   2.003   1.899  10.772 -0.6414 -0.7576 -0.6057
25073SOL    HW278113   1.988   2.048  10.791 -1.1817 -0.8888  0.0337
25074SOL     OW78114   4.332   5.207   9.339  0.0621 -0.3581  0.4556
25074SOL    HW178115   4.360   5.245   9.422  1.4740 -0.8879  0.2628
25074SOL    HW278116   4.237   5.212   9.341  0.0429 -0.6687  2.2514
25075SOL     OW78117   9.720   6.438   9.041 -0.6528  0.4695 -0.3687
25075SOL    HW178118   9.674   6.501   9.097 -1.3087 -0.3328  0.0242
25075SOL    HW278119   9.789   6.489   8.999 -0.6855  1.2738  0.5244
25076SOL     OW78120   1.850   5.786   9.973  0.0849  0.1595 -0.0238
25076SOL    HW178121   1.780   5.736   9.930  1.5978 -1.0327 -1.2498
25076SOL    HW278122   1.825   5.877   9.960 -1.6316 -0.2160  0.2918
25077SOL     OW78123   6.921   1.393   5.497  0.0789  0.3511 -0.6327
25077SOL    HW178124   6.849   1.455   5.488  0.7143  1.2481  0.2640
25077SOL    HW278125   6.938   1.363   5.408  0.7442  2.6162 -1.3409
25078SOL     OW78126  10.209   1.322   2.210 -0.0946 -0.1682  0.3795
25078SOL    HW178127  10.185   1.232   2.229  0.6404 -0.3044  0.6685
25078SOL    HW278128  10.304   1.323   2.213  0.0815 -0.0402 -2.5537
25079SOL     OW78129   1.163   8.844   2.738  0.0499  0.2778 -0.5255
25079SOL    HW178130   1.197   8.794   2.812 -1.5721 -0.5157 -0.2722
25079SOL    HW278131   1.227   8.831   2.668  0.8017 -0.2630  0.2402
25080SOL     OW78132   0.749   1.885   5.084  0.1951 -0.1082 -0.5759
25080SOL    HW178133   0.827   1.902   5.137  0.4592  1.7218 -1.4752
25080SOL    HW278134   0.758   1.794   5.056  1.6132 -0.1556 -0.0357
25081SOL     OW78135   9.224   4.130   1.155  0.0359 -0.5137 -0.5052
25081SOL    HW178136   9.318   4.134   1.175 -0.2560  0.1163  0.8762
25081SOL    HW278137   9.198   4.222   1.147 -0.8032 -0.5887  0.9512
25082SOL     OW78138   2.109   0.871   7.959 -0.0614  0.1340  0.1671
25082SOL    HW178139   2.152   0.957   7.958 -1.4341  0.8664 -0.6195
25082SOL    HW278140   2.136   0.830   7.877  0.0160  0.1298  0.1950
25083SOL     OW78141   8.709   3.050   0.148 -0.3163 -0.0172 -0.6420
25083SOL    HW178142   8.674   3.082   0.232 -0.3768 -0.0073 -0.6710
25083SOL    HW278143   8.774   2.985   0.173 -0.7436 -0.4331 -0.5946
25084SOL     OW78144   0.527   5.452   4.083 -0.2485 -0.1182  0.3288
25084SOL    HW178145   0.576   5.403   4.148 -2.3266 -3.1207 -0.1963
25084SOL    HW278146   0.479   5.518   4.133  1.1505  0.2242  1.2782
25085SOL     OW78147   6.119   1.019   2.516  0.3375  0.8790  0.4066
25085SOL    HW178148   6.072   0.951   2.467  1.0855  0.7784 -0.1841
25085SOL    HW278149   6.088   1.101   2.477  1.3490  0.7858 -0.6609
25086SOL     OW78150   0.069   1.329   3.409  0.0704 -0.2683  0.0485
25086SOL    HW178151   0.042   1.386   3.482 -0.6479 -1.4415  0.7290
25086SOL    HW278152   0.093   1.390   3.339 -2.1199  0.9200  0.2183
25087SOL     OW78153   2.748   9.118   8.451 -0.4794  0.5538  0.2620
25087SOL    HW178154   2.825   9.156   8.409  0.7357 -1.3020  0.6833
25087SOL    HW278155   2.773   9.108   8.543  0.2741 -3.3365 -0.1898
25088SOL     OW78156   9.757   8.053   5.771 -0.1250  0.5706 -0.4333
25088SOL    HW178157   9.769   8.020   5.860 -2.2559 -1.2518 -0.7323
25088SOL    HW278158   9.791   7.984   5.714 -1.7845  0.1954 -1.0367
25089SOL     OW78159   7.907  10.251  10.187  0.1037  0.9459 -0.0918
25089SOL    HW178160   7.868  10.321  10.134 -1.8034  1.3012  1.6454
25089SOL    HW278161   7.979  10.294  10.234  1.7525  0.6502 -2.1934
25090SOL     OW78162   0.314   1.790   6.227 -0.3965 -0.0516  0.0921
25090SOL    HW178163   0.285   1.733   6.299  0.4991 -0.9048 -0.2030
25090SOL    HW278164   0.402   1.760   6.207  0.1907  1.6042  0.0640
25091SOL     OW78165   3.269   5.361   8.295  0.2602 -0.0460 -0.3056
25091SOL    HW178166   3.307   5.371   8.382  0.9983 -1.3912 -0.4476
25091SOL    HW278167   3.178   5.389   8.305  0.8949  1.9593  0.3600
25092SOL     OW78168   7.013   9.352   3.104  0.5479 -0.0258 -0.1106
25092SOL    HW178169   7.065   9.303   3.168 -0.8142 -2.5562 -0.7923
25092SOL    HW278170   7.034   9.311   3.020 -0.8374  0.4082 -0.6940
25093SOL     OW78171   4.815   1.863  10.523  0.7307 -0.6878 -0.1955
25093SOL    HW178172   4.883   1.923  10.493  1.8191 -0.8282  1.8367
25093SOL    HW278173   4.811   1.795  10.456  2.2913 -0.4496 -0.5675
25094SOL     OW78174   4.210   1.571   9.810 -0.1652  0.0771 -0.3494
25094SOL    HW178175   4.136   1.541   9.862  1.4083  1.2938  2.8829
25094SOL    HW278176   4.261   1.492   9.793 -1.1207 -0.4568 -0.8124
25095SOL     OW78177   8.904   0.397   9.571  0.2659 -0.1945 -0.2690
25095SOL    HW178178   8.964   0.339   9.522  0.6887  2.0903 -2.6623
25095SOL    HW278179   8.861   0.338   9.633  1.5655 -2.8387 -1.6598
25096SOL     OW78180   1.908   4.644   2.903  0.0010  0.0977  0.5799
25096SOL    HW178181   1.878   4.649   2.812 -0.2441 -0.1810  0.6415
25096SOL    HW278182   1.836   4.601   2.949  0.2677 -0.0793  0.8382
25097SOL     OW78183  10.620   5.994   2.211 -0.0964  0.2823  0.2259
25097SOL    HW178184  10.595   6.028   2.125  0.3319 -0.7966 -0.3497
25097SOL    HW278185  10.549   5.934   2.235  0.8878 -1.2803 -0.5218
25098SOL     OW78186   4.901   7.071   6.106  0.2479  0.7618 -0.2609
25098SOL    HW178187   4.893   7.009   6.034  0.9498 -0.3897  0.6218
25098SOL    HW278188   4.995   7.076   6.123  0.2441  2.3388 -0.5190
25099SOL     OW78189   8.904  10.381   3.323  0.5577  0.0981  0.5056
25099SOL    HW178190   8.866  10.435   3.254  1.3290  0.7465  0.5831
25099SOL    HW278191   8.852  10.402   3.400 -1.0760 -1.4887 -0.0869
25100SOL     OW78192   7.147   7.499   3.647 -0.8139  0.0322 -0.2148
25100SOL    HW178193   7.187   7.572   3.599 -3.4592  1.2435 -0.7604
25100SOL    HW278194   7.217   7.469   3.706  0.7495  2.2371 -0.7860
25101SOL     OW78195   2.787   2.748   7.384  0.4127 -0.1685 -0.1237
25101SOL    HW178196   2.812   2.685   7.452 -1.6349  2.0505  2.9628
25101SOL    HW278197   2.851   2.818   7.391  0.6536 -0.2796 -1.1000
25102SOL     OW78198   1.869   3.847   6.219  0.4460 -0.2123  0.1032
25102SOL    HW178199   1.817   3.924   6.243  1.4680  0.1687  1.2113
25102SOL    HW278200   1.841   3.825   6.131 -1.5420  0.0168  0.6387
25103SOL     OW78201   1.930   3.960   1.308 -0.0815 -0.2180 -0.0506
25103SOL    HW178202   1.865   4.002   1.252  1.5005  0.7499 -1.2351
25103SOL    HW278203   1.888   3.956   1.394 -0.7798  2.8386 -0.1254
25104SOL     OW78204   3.104   9.426   2.412  0.1484  0.1405  0.6364
25104SOL    HW178205   3.180   9.383   2.451  0.7585 -0.4835 -1.1422
25104SOL    HW278206   3.032   9.364   2.425  0.3036  0.0206  0.9254
25105SOL     OW78207   1.801   4.497   2.106 -0.0174  0.0581  0.0442
25105SOL    HW178208   1.791   4.589   2.132  1.0254 -0.1442  1.2643
25105SOL    HW278209   1.890   4.475   2.130 -1.0214 -2.0237  2.2415
25106SOL     OW78210   8.236   6.767   0.605 -0.1449  0.2634  0.2879
25106SOL    HW178211   8.256   6.850   0.648  0.3669 -0.2149  1.0232
25106SOL    HW278212   8.191   6.716   0.672 -2.6833  0.7959 -0.9091
25107SOL     OW78213   3.640   3.370   4.110 -0.2400  0.0942 -0.6726
25107SOL    HW178214   3.735   3.358   4.118 -0.4585 -1.6118 -0.3432
25107SOL    HW278215   3.625   3.379   4.016  0.0294 -1.9288 -0.9408
25108SOL     OW78216   3.745   5.866   2.383 -0.2015  0.3874 -0.3993
25108SOL    HW178217   3.703   5.782   2.404 -0.0989  0.4821  0.1925
25108SOL    HW278218   3.834   5.843   2.358  0.1495  0.4130  0.8053
25109SOL     OW78219   8.296   7.333   8.414  0.2421  0.1723  0.1632
25109SOL    HW178220   8.256   7.274   8.478 -1.3148  0.9912  0.0016
25109SOL    HW278221   8.263   7.420   8.438  3.6272  1.2867  1.3134
25110SOL     OW78222   9.392   0.901   1.227 -0.0485 -0.1021  0.7359
25110SOL    HW178223   9.316   0.878   1.280 -0.6617  2.2814  1.0110
25110SOL    HW278224   9.422   0.984   1.263 -1.0322  2.1360 -3.0735
25111SOL     OW78225   8.965   4.413   1.683 -0.0807 -0.0184  0.0253
25111SOL    HW178226   8.886   4.442   1.637 -0.4881  0.9773  1.3230
25111SOL    HW278227   9.011   4.359   1.618 -1.0967  0.5668 -1.2325
25112SOL     OW78228   6.189   0.422  10.398 -0.5206  0.3050  0.0058
25112SOL    HW178229   6.095   0.412  10.389 -0.5773  1.0147 -0.2449
25112SOL    HW278230   6.225   0.336  10.373 -1.1355 -0.2588  0.9966
25113SOL     OW78231   8.319   6.249   2.990 -0.5057 -0.1735 -0.1890
25113SOL    HW178232   8.248   6.250   2.926 -1.2404  2.7580  0.5250
25113SOL    HW278233   8.398   6.267   2.939 -0.7560 -0.0982 -0.5530
25114SOL     OW78234   6.419  10.211   9.149  0.5568 -0.0115  0.4415
25114SOL    HW178235   6.343  10.154   9.163  1.1312 -0.5936  1.3542
25114SOL    HW278236   6.398  10.262   9.071 -0.6556 -0.3483  0.5366
25115SOL     OW78237   2.320  10.013   9.139  0.0344  0.2368 -0.6794
25115SOL    HW178238   2.307  10.079   9.207  2.5050 -0.2523  0.3944
25115SOL    HW278239   2.400  10.040   9.094  0.9546 -1.7702 -0.4031
25116SOL     OW78240   8.834   4.263   9.302  0.3758 -0.0552 -0.0582
25116SOL    HW178241   8.759   4.226   9.256  0.1922  0.9293 -0.5827
25116SOL    HW278242   8.910   4.224   9.260  0.1868  0.2267 -0.6759
25117SOL     OW78243   7.931   8.367   7.987  0.0624  0.5000 -0.0349
25117SOL    HW178244   7.968   8.356   8.074 -0.0729  1.9181  0.2204
25117SOL    HW278245   7.940   8.460   7.968 -2.4768  0.7601 -0.3573
25118SOL     OW78246  10.276   4.591   6.010 -0.4953  0.2663  0.2615
25118SOL    HW178247  10.281   4.677   6.051 -0.4149  0.4687 -0.1707
25118SOL    HW278248  10.339   4.538   6.059  2.1075  1.3561 -1.6375
25119SOL     OW78249  10.482   4.915  10.646 -0.3403  0.5776 -0.1602
25119SOL    HW178250  10.493   4.823  10.671  0.9629  0.7533 -0.0079
25119SOL    HW278251  10.437   4.912  10.561 -0.2310 -0.1998 -0.1952
25120SOL     OW78252   6.591   1.074   9.349  0.1789 -0.1829 -0.2026
25120SOL    HW178253   6.570   0.987   9.316 -1.3619  0.2645 -0.5077
25120SOL    HW278254   6.513   1.100   9.399 -0.1917  1.7492 -1.6714
25121SOL     OW78255   9.306   1.981   5.427  0.4994  0.3372  0.5081
25121SOL    HW178256   9.365   1.954   5.356  0.4952 -0.9062  0.9611
25121SOL    HW278257   9.333   2.071   5.447 -0.4971  1.3080 -2.0767
25122SOL     OW78258   2.473   7.537   0.611 -0.3828  0.0056 -0.1903
25122SOL    HW178259   2.504   7.529   0.521 -0.5830 -1.1570 -0.1755
25122SOL    HW278260   2.483   7.630   0.632  3.2126 -0.2561 -0.1449
25123SOL     OW78261   8.438   6.582   8.596  0.6219  0.0391 -0.5158
25123SOL    HW178262   8.384   6.661   8.588 -0.3346 -0.6901 -1.6619
25123SOL    HW278263   8.457   6.556   8.506  0.3658 -1.3914 -0.1871
25124SOL     OW78264   0.311   7.565   8.953 -0.0025  0.1417  0.3955
25124SOL    HW178265   0.283   7.563   8.861 -0.3177 -0.9111  0.5057
25124SOL    HW278266   0.240   7.523   9.001  1.0866 -1.2358  0.8532
25125SOL     OW78267   4.419   4.970  10.069 -0.0186 -0.1972 -0.1130
25125SOL    HW178268   4.412   4.957  10.164  0.3708 -2.1167 -0.3109
25125SOL    HW278269   4.331   4.953  10.036 -0.2408  0.8385 -0.0692
25126SOL     OW78270   1.942  10.400  10.618 -0.5962 -0.3612 -0.6515
25126SOL    HW178271   2.029  10.399  10.578 -1.2685 -0.1626 -2.2069
25126SOL    HW278272   1.914  10.491  10.612 -0.5427 -0.2348  0.7369
25127SOL     OW78273   9.078   1.529   8.088 -0.2641  0.0670  0.0605
25127SOL    HW178274   9.092   1.488   8.173 -0.6868  0.0329  0.1158
25127SOL    HW278275   8.992   1.571   8.095 -0.8491 -0.9357 -0.7306
25128SOL     OW78276   7.713   0.374   6.515 -0.0790 -0.0331  0.2795
25128SOL    HW178277   7.779   0.394   6.448 -0.1505  0.9984  0.5094
25128SOL    HW278278   7.731   0.436   6.586 -0.3417 -0.7611  0.9971
25129SOL     OW78279   4.332   2.038   7.483 -0.0106 -0.0756  0.3585
25129SOL    HW178280   4.346   2.129   7.455  0.1369 -0.5940 -1.3954
25129SOL    HW278281   4.237   2.029   7.488 -0.0601 -0.0494 -0.3593
25130SOL     OW78282   9.180   4.057   6.071  0.6895 -0.0276  0.2703
25130SOL    HW178283   9.239   4.116   6.118 -0.6491  1.9220 -0.3914
25130SOL    HW278284   9.107   4.042   6.132  1.2382 -1.4550  0.6225
25131SOL     OW78285   8.194   0.383   1.927  0.3026  0.6827 -0.1827
25131SOL    HW178286   8.178   0.347   2.014 -0.9197 -2.3602 -1.5272
25131SOL    HW278287   8.289   0.377   1.915  0.6489  2.3149  1.3264
25132SOL     OW78288   7.235   3.870   3.090  0.6481 -0.5783  0.2695
25132SOL    HW178289   7.296   3.928   3.044 -0.4260  0.9664  0.7185
25132SOL    HW278290   7.228   3.793   3.033  0.8594  0.4432 -1.2014
25133SOL     OW78291   6.658   0.967   6.889  0.8305  0.2638  0.3395
25133SOL    HW178292   6.597   0.968   6.815  0.5027  1.4095  0.6016
25133SOL    HW278293   6.609   1.009   6.960  0.7839 -1.6884  1.5240
25134SOL     OW78294   9.289   0.003   7.450 -0.4805  0.2485  0.4316
25134SOL    HW178295   9.376  -0.030   7.425 -0.1390  0.2400  1.5602
25134SOL    HW278296   9.299   0.030   7.541 -2.1343 -1.4876  1.1991
25135SOL     OW78297   5.260   1.252   9.924  0.3148 -0.4744  0.7301
25135SOL    HW178298   5.206   1.323   9.961 -0.9583  0.5691 -2.7365
25135SOL    HW278299   5.197   1.188   9.892  1.4011 -1.9181  1.3587
25136SOL     OW78300   3.761   6.700   6.131 -0.4744  0.0629  0.8286
25136SOL    HW178301   3.771   6.629   6.067 -0.1396  1.4096 -0.6611
25136SOL    HW278302   3.788   6.660   6.214  1.1532 -1.1786 -0.2119
25137SOL     OW78303   9.089   3.658   6.411 -0.0112  0.7770  0.5929
25137SOL    HW178304   9.155   3.621   6.353 -1.7150 -3.7675  1.1849
25137SOL    HW278305   9.137   3.676   6.493  0.8311 -1.2029  0.5966
25138SOL     OW78306  10.292   7.488   1.413  0.0533 -0.0970 -0.2397
25138SOL    HW178307  10.297   7.427   1.487 -0.4267  0.4593  0.2658
25138SOL    HW278308  10.363   7.550   1.428  1.1030 -1.0197 -1.2250
25139SOL     OW78309   9.403   1.315   5.037 -0.2888  0.0954  0.1718
25139SOL    HW178310   9.419   1.222   5.054 -0.5151  0.0177 -0.0297
25139SOL    HW278311   9.311   1.328   5.059  0.2814  0.7903  2.4052
25140SOL     OW78312   7.958   2.696   7.918 -0.4874 -0.3450 -0.0155
25140SOL    HW178313   7.936   2.789   7.907 -1.2572 -0.2886  1.7430
25140SOL    HW278314   7.933   2.676   8.008  0.9036 -1.9353  0.0557
25141SOL     OW78315   1.246   4.492   9.625  0.4029  0.1709 -0.6393
25141SOL    HW178316   1.256   4.429   9.552  2.3752  0.4660 -0.6997
25141SOL    HW278317   1.183   4.451   9.683  1.4606 -1.8343 -0.7866
25142SOL     OW78318   2.314   6.837   1.220  0.2702  0.2536 -0.1896
25142SOL    HW178319   2.223   6.830   1.251  0.3416 -1.0769 -0.2387
25142SOL    HW278320   2.362   6.871   1.295  0.1990 -1.6421  0.7524
25143SOL     OW78321   1.067  10.083   2.520 -0.0409 -0.3838  0.8531
25143SOL    HW178322   1.081  10.152   2.584  0.6923 -0.5006  0.8348
25143SOL    HW278323   0.987  10.108   2.474 -0.2372  0.0161  1.4001
25144SOL     OW78324   4.191   8.946   7.560  0.5301 -0.0631  0.1683
25144SOL    HW178325   4.192   8.850   7.560 -0.3828 -0.1079  1.6525
25144SOL    HW278326   4.122   8.969   7.623 -0.7369  1.5765 -1.6831
25145SOL     OW78327   5.038   9.918   5.954 -0.4922 -0.5021 -0.5984
25145SOL    HW178328   5.016   9.938   5.863  0.1202 -0.4323 -0.7356
25145SOL    HW278329   5.030   9.823   5.960 -1.2645 -0.4374 -0.5239
25146SOL     OW78330   4.638   0.384   0.635 -0.4826 -0.5241  0.0945
25146SOL    HW178331   4.649   0.477   0.617  0.0149 -0.6104 -0.0793
25146SOL    HW278332   4.560   0.379   0.691  0.3838  0.1489  1.4250
25147SOL     OW78333   5.526   2.028   6.488  0.0781  0.1803  0.1075
25147SOL    HW178334   5.430   2.032   6.494 -0.0609 -2.1559  0.6524
25147SOL    HW278335   5.552   2.117   6.465 -2.1918  0.9685  0.2509
25148SOL     OW78336   2.672   0.427   3.873 -0.8915 -0.3688 -0.3222
25148SOL    HW178337   2.629   0.386   3.798 -0.9518  0.1875 -0.5912
25148SOL    HW278338   2.702   0.512   3.841 -4.0983  1.5220  1.2085
25149SOL     OW78339   8.004   4.413   2.561  0.0968  0.5579 -0.1451
25149SOL    HW178340   7.927   4.366   2.591  0.4719 -1.2295 -1.7857
25149SOL    HW278341   8.078   4.367   2.602  0.4012  0.8266 -0.3875
25150SOL     OW78342   3.807   2.226   7.202 -0.1440  0.2068 -0.0225
25150SOL    HW178343   3.825   2.220   7.295  0.0169  0.1647 -0.0552
25150SOL    HW278344   3.890   2.254   7.163 -0.7839  2.4875  0.0861
25151SOL     OW78345   7.077   2.175   6.841 -0.0183 -0.0511  0.1831
25151SOL    HW178346   7.135   2.145   6.771  1.6375  0.2604  1.3823
25151SOL    HW278347   7.111   2.134   6.920 -0.8882  0.8672  1.0605
25152SOL     OW78348   2.324   4.094   3.297 -0.4577 -0.2534  0.0405
25152SOL    HW178349   2.268   4.148   3.351 -1.2178 -2.2041  1.2862
25152SOL    HW278350   2.273   4.015   3.279  0.8684 -0.9164 -1.0772
25153SOL     OW78351   2.090   5.046   7.832 -0.6060 -0.6101 -0.1077
25153SOL    HW178352   2.087   5.095   7.749  1.5501 -0.2954 -0.0560
25153SOL    HW278353   2.070   4.956   7.806 -0.4788 -0.4253 -0.9023
25154SOL     OW78354   1.070   0.753   9.992 -0.0547  0.1847 -0.1239
25154SOL    HW178355   1.144   0.813   9.999 -0.5307  1.0967 -2.1947
25154SOL    HW278356   1.023   0.781   9.913 -3.0837  0.1403  1.5057
25155SOL     OW78357   8.613   8.336   9.086 -0.0838 -0.5734  0.2428
25155SOL    HW178358   8.688   8.320   9.143 -0.4332 -2.2975  0.2691
25155SOL    HW278359   8.635   8.416   9.039  0.1849  0.9537  2.8100
25156SOL     OW78360   7.656   1.508   9.984  0.0369  0.1276  0.1988
25156SOL    HW178361   7.671   1.459   9.903  1.5266 -0.5941  0.8850
25156SOL    HW278362   7.570   1.549   9.971  0.0194 -0.3733 -1.5350
25157SOL     OW78363   2.304   3.781   5.989  0.0543  0.3593 -0.1048
25157SOL    HW178364   2.266   3.854   5.939  0.2285  0.8461  0.4653
25157SOL    HW278365   2.319   3.817   6.076 -0.4225 -0.5425  0.3607
25158SOL     OW78366   1.043   3.378   8.423  0.0081  0.4926 -0.1110
25158SOL    HW178367   1.113   3.367   8.487  1.1596  0.2005 -1.3480
25158SOL    HW278368   1.084   3.429   8.353 -1.0320  0.3235 -0.8622
25159SOL     OW78369  10.216   5.842   3.876 -0.0551 -0.3895 -0.0785
25159SOL    HW178370  10.248   5.799   3.797 -1.1620  0.4191 -1.0149
25159SOL    HW278371  10.274   5.812   3.946  1.0219 -1.0374 -1.2171
25160SOL     OW78372   3.536   9.474   9.803 -0.7211 -0.2389  0.2184
25160SOL    HW178373   3.546   9.385   9.771  0.4941  0.3272 -1.1177
25160SOL    HW278374   3.605   9.484   9.868 -1.2178 -0.4486  0.7755
25161SOL     OW78375   0.679   2.704  10.695  0.0940  0.4253 -0.2620
25161SOL    HW178376   0.624   2.647  10.641  0.7521  0.1987 -0.7121
25161SOL    HW278377   0.747   2.735  10.634  0.3993  0.7782  0.2567
25162SOL     OW78378   8.063  10.720   5.649  0.1625  0.2072  0.0542
25162SOL    HW178379   8.071  10.811   5.676 -0.8211  0.1790  0.4874
25162SOL    HW278380   8.109  10.670   5.717 -0.9439  0.2562  0.8760
25163SOL     OW78381   0.774   6.423   4.481 -0.1252 -0.2821 -1.0118
25163SOL    HW178382   0.722   6.350   4.447 -0.4683 -0.3735 -0.2993
25163SOL    HW278383   0.712   6.476   4.531  0.1974  0.3117 -1.2291
25164SOL     OW78384   2.190   6.573  10.339 -0.1512 -0.2932  0.7547
25164SOL    HW178385   2.096   6.566  10.321 -0.2598 -1.4075  1.6531
25164SOL    HW278386   2.208   6.667  10.336 -1.0438 -0.1383 -0.6162
25165SOL     OW78387   4.849   5.049   6.680 -0.1842 -0.2449  0.4469
25165SOL    HW178388   4.891   5.130   6.649 -2.1945  0.1211 -1.5639
25165SOL    HW278389   4.891   4.980   6.629  1.2868 -0.5133  1.9180
25166SOL     OW78390   3.586   9.693   3.524  0.1615 -0.0569 -0.5767
25166SOL    HW178391   3.589   9.717   3.617  1.5634  0.3615 -0.7009
25166SOL    HW278392   3.563   9.775   3.479  0.4722 -0.0128 -0.6609
25167SOL     OW78393   9.380   9.054   8.127  0.6423 -0.3009  0.0665
25167SOL    HW178394   9.427   8.983   8.083 -0.1056 -0.2510 -0.8488
25167SOL    HW278395   9.447   9.101   8.175  1.2142 -1.4130  0.3947
25168SOL     OW78396   9.771   8.278   5.591 -0.0846 -0.1052  0.1869
25168SOL    HW178397   9.745   8.240   5.507 -2.0601 -0.4141  0.8816
25168SOL    HW278398   9.779   8.202   5.650  1.2632  0.1069  0.3142
25169SOL     OW78399   2.669  10.117   6.705 -0.2626 -0.9113  0.6866
25169SOL    HW178400   2.588  10.118   6.654 -0.4253 -0.8963  0.9451
25169SOL    HW278401   2.699  10.027   6.700  0.9661 -0.4607 -1.3884
25170SOL     OW78402   1.297   3.967   1.218  0.3288  0.5612  0.2120
25170SOL    HW178403   1.219   4.022   1.214 -0.2835 -0.3172 -0.2757
25170SOL    HW278404   1.313   3.942   1.127 -0.0147 -0.8791  0.5104
25171SOL     OW78405   6.908   2.163   3.081  0.3623 -0.4788 -0.1622
25171SOL    HW178406   6.899   2.130   3.171 -1.9416 -2.7665 -1.1161
25171SOL    HW278407   6.993   2.132   3.052  1.2990  0.5942  1.3011
25172SOL     OW78408   8.263   7.400   0.877  0.1064  0.2411  0.0746
25172SOL    HW178409   8.314   7.322   0.856 -0.0708  0.3277 -0.6979
25172SOL    HW278410   8.305   7.435   0.956  3.0804  1.8583 -2.0298
25173SOL     OW78411   9.189   0.904   4.006 -0.7472  0.0995  0.4119
25173SOL    HW178412   9.167   0.865   3.921  0.5165 -0.1985  0.1966
25173SOL    HW278413   9.212   0.995   3.986  0.8636 -0.3103  0.1854
25174SOL     OW78414   7.182   8.952   3.409  0.1160  0.1479 -0.3480
25174SOL    HW178415   7.126   8.887   3.365  0.9495 -0.0182 -1.1855
25174SOL    HW278416   7.266   8.946   3.364  0.8065  0.4448  0.8456
25175SOL     OW78417  10.189   7.579   0.617  0.7459 -0.5358 -1.0587
25175SOL    HW178418  10.200   7.548   0.526  1.7890 -0.1177 -1.0861
25175SOL    HW278419  10.271   7.624   0.637  0.7153 -1.0394  0.2665
25176SOL     OW78420   8.201   3.463   4.262 -0.8356 -0.2562  0.1293
25176SOL    HW178421   8.211   3.545   4.214  0.1984 -0.3613  0.1551
25176SOL    HW278422   8.281   3.414   4.244  0.1543  0.1823  2.8810
25177SOL     OW78423   5.725   3.654   4.603 -0.0482 -0.0956 -0.1086
25177SOL    HW178424   5.790   3.646   4.672  0.4600 -0.9471 -0.6660
25177SOL    HW278425   5.663   3.719   4.636 -0.1053 -0.8528  1.3747
25178SOL     OW78426   3.218   8.025   0.374 -0.7386 -0.0132 -0.3944
25178SOL    HW178427   3.260   8.033   0.460 -2.9078 -0.9491  0.8326
25178SOL    HW278428   3.187   8.114   0.354  1.5247  0.6471 -1.2346
25179SOL     OW78429   2.417   9.619   5.370 -0.3294 -0.1983 -0.0976
25179SOL    HW178430   2.474   9.695   5.363  0.8669 -0.8262  2.1175
25179SOL    HW278431   2.352   9.644   5.435 -1.0084 -0.4554 -0.6647
25180SOL     OW78432   4.152   3.463   0.156  0.5101 -0.0766  0.4233
25180SOL    HW178433   4.246   3.460   0.141  1.0275  0.1786  3.1430
25180SOL    HW278434   4.133   3.382   0.203 -0.4460  0.3198  0.7445
25181SOL     OW78435   0.590   0.023   1.865  0.2285 -0.0275 -0.2065
25181SOL    HW178436   0.641   0.081   1.922  1.0579 -2.7036  2.0442
25181SOL    HW278437   0.649   0.002   1.793  0.3572  0.9209 -0.3933
25182SOL     OW78438   0.886   8.891   6.594  0.2710 -0.3746 -0.4361
25182SOL    HW178439   0.858   8.800   6.589 -1.4442  0.0568  0.5403
25182SOL    HW278440   0.811   8.938   6.631  1.4792  1.2688  0.0740
25183SOL     OW78441   0.969   6.825   0.542 -0.4328 -0.1071  0.2103
25183SOL    HW178442   0.994   6.825   0.450 -2.2418  0.1463 -0.3221
25183SOL    HW278443   0.874   6.840   0.541 -0.2521  1.6968  2.1749
25184SOL     OW78444   0.954   5.332   9.628  0.5486 -0.1770 -0.1269
25184SOL    HW178445   0.961   5.238   9.644 -1.5869 -0.3028  0.4930
25184SOL    HW278446   1.044   5.362   9.621  1.2943 -2.2276 -0.1192
25185SOL     OW78447   9.722   4.309   9.696  0.1639  0.3048 -0.4390
25185SOL    HW178448   9.648   4.349   9.740  0.3816  0.3713 -0.1276
25185SOL    HW278449   9.791   4.375   9.700  0.8393 -0.4209  0.9334
25186SOL     OW78450   5.630   9.686   1.143 -0.1972  0.1935  0.0271
25186SOL    HW178451   5.554   9.630   1.130  0.1205 -0.3121  0.3201
25186SOL    HW278452   5.679   9.645   1.215 -0.3103  1.2113  0.7123
25187SOL     OW78453   8.967   7.932   9.036  0.1312  0.1361  0.0047
25187SOL    HW178454   8.917   7.963   8.960  1.2810 -0.2303 -0.9322
25187SOL    HW278455   9.007   8.010   9.072  1.5649  0.0303 -1.2695
25188SOL     OW78456   5.397   4.795   7.731  0.0769  0.3674  0.0626
25188SOL    HW178457   5.430   4.708   7.707 -1.2329  0.0647 -0.7519
25188SOL    HW278458   5.425   4.808   7.821  2.3826  0.1440 -0.5595
25189SOL     OW78459   4.096   3.834   1.064 -0.0413 -0.2996  0.7618
25189SOL    HW178460   4.042   3.857   1.139 -0.8867 -0.4006  0.1943
25189SOL    HW278461   4.167   3.782   1.101 -0.9951 -1.2028  1.3749
25190SOL     OW78462   8.512   0.304   7.658  0.4531 -0.5833  0.0029
25190SOL    HW178463   8.550   0.245   7.593 -0.1017 -3.5502  2.1651
25190SOL    HW278464   8.565   0.291   7.736 -1.1189  0.0039  1.2175
25191SOL     OW78465   0.183   1.558   9.742 -0.4523  0.7153  0.2732
25191SOL    HW178466   0.166   1.533   9.833  0.5704 -0.3875  0.1941
25191SOL    HW278467   0.247   1.630   9.749  0.6534 -0.2431  0.4407
25192SOL     OW78468   4.963   3.132   7.498 -0.6978 -1.0100 -0.3832
25192SOL    HW178469   4.880   3.092   7.525 -1.4125  0.3048 -0.5816
25192SOL    HW278470   4.953   3.225   7.518  1.3660 -1.0484  1.1146
25193SOL     OW78471   5.961   9.780  10.692  0.1490 -0.0830  0.2962
25193SOL    HW178472   5.885   9.738  10.651 -0.3614  0.9862  0.1027
25193SOL    HW278473   5.924   9.829  10.765  0.9627 -1.4302  1.6660
25194SOL     OW78474   6.808   6.622   2.088 -0.7165 -0.1956 -0.0021
25194SOL    HW178475   6.760   6.599   2.168 -0.2216 -0.2511  0.2844
25194SOL    HW278476   6.891   6.575   2.096  0.7864  2.4676  1.1118
25195SOL     OW78477   8.719   0.270   8.393  0.1335  0.0254 -0.3557
25195SOL    HW178478   8.778   0.255   8.466  0.4098 -1.8343 -0.8927
25195SOL    HW278479   8.757   0.345   8.346  0.6040  0.4762  0.7150
25196SOL     OW78480   7.192   0.570   0.593  0.2071 -0.7323  0.3178
25196SOL    HW178481   7.212   0.476   0.601 -0.6160 -1.0190 -0.6937
25196SOL    HW278482   7.096   0.573   0.592  0.2040  0.2547  1.5912
25197SOL     OW78483  10.126   2.154   5.246  0.0150 -0.3613  0.0743
25197SOL    HW178484  10.030   2.160   5.252  0.1293  0.7866  1.3403
25197SOL    HW278485  10.155   2.245   5.239  1.0844 -0.5781  1.3169
25198SOL     OW78486   2.411   2.941   4.126  0.1906  0.3538  0.0100
25198SOL    HW178487   2.382   2.887   4.200 -1.6179 -0.5419 -1.3000
25198SOL    HW278488   2.500   2.912   4.109 -0.2039 -1.1127  0.3447
25199SOL     OW78489   1.612   6.231   2.265 -0.1852 -0.2734  0.4689
25199SOL    HW178490   1.664   6.158   2.299 -1.8350 -0.9397  1.7142
25199SOL    HW278491   1.538   6.237   2.326 -1.6770  0.4831 -1.3362
25200SOL     OW78492   2.710   3.035   5.678 -0.2795  0.1287 -0.5111
25200SOL    HW178493   2.698   2.944   5.649  1.5542 -0.0373 -0.8687
25200SOL    HW278494   2.800   3.039   5.708 -0.8600  1.4224  1.1770
25201SOL     OW78495   5.828   3.634   3.103 -0.1288 -0.9850 -0.2453
25201SOL    HW178496   5.832   3.610   3.196  0.4801 -0.5492 -0.1535
25201SOL    HW278497   5.758   3.580   3.068  1.1156 -2.8545 -0.0221
25202SOL     OW78498   6.337   6.829   8.835  0.0087 -0.4830 -0.1017
25202SOL    HW178499   6.341   6.819   8.930  1.6074  1.0256  0.0521
25202SOL    HW278500   6.381   6.751   8.801  0.3721 -0.5258  0.4524
25203SOL     OW78501   1.510   4.170   9.139 -0.3378 -0.3706  0.3202
25203SOL    HW178502   1.421   4.162   9.103  0.2663 -2.0734 -0.9146
25203SOL    HW278503   1.568   4.152   9.065  1.0216 -0.6059  1.4065
25204SOL     OW78504   9.708   0.791   6.102  0.2148 -0.0727 -0.6379
25204SOL    HW178505   9.801   0.787   6.125  0.6531 -0.1169 -2.2890
25204SOL    HW278506   9.680   0.879   6.129  0.7039 -0.1129  0.0008
25205SOL     OW78507   3.637   1.898   0.493  0.1263  0.4407  0.3064
25205SOL    HW178508   3.574   1.883   0.423 -0.9775 -0.6618  1.4688
25205SOL    HW278509   3.613   1.983   0.530 -0.4321  0.2160  0.4749
25206SOL     OW78510   5.353   5.664  10.616  0.1433 -0.1326 -0.0533
25206SOL    HW178511   5.327   5.703  10.699 -1.5958 -0.2317 -0.4929
25206SOL    HW278512   5.368   5.572  10.636  2.4240  0.3304  0.6291
25207SOL     OW78513   3.177   6.223  10.188  0.2442  0.3700  0.2470
25207SOL    HW178514   3.219   6.155  10.136  1.1042 -0.5927  2.0993
25207SOL    HW278515   3.249   6.268  10.231 -0.4817  0.0044  1.9282
25208SOL     OW78516   7.121   2.957   2.142  0.1230  0.5857 -0.3497
25208SOL    HW178517   7.172   2.989   2.067 -0.2275  2.4711  0.1486
25208SOL    HW278518   7.079   3.036   2.177 -1.2386 -0.5583  0.6852
25209SOL     OW78519   7.280  10.429   3.278 -0.3836  0.0431 -0.3584
25209SOL    HW178520   7.294  10.470   3.193  0.5824  0.7290  0.1133
25209SOL    HW278521   7.353  10.368   3.288 -0.3253  0.1815  0.0971
25210SOL     OW78522  10.132   9.484   2.790 -0.1024  0.0762 -0.5400
25210SOL    HW178523  10.175   9.560   2.828  1.5041 -1.1093  0.1019
25210SOL    HW278524  10.179   9.468   2.708 -0.8072  0.1000 -0.9566
25211SOL     OW78525   5.220   3.411   8.120 -0.3796  0.0286  0.2496
25211SOL    HW178526   5.181   3.436   8.204  0.6521 -0.6886  0.9745
25211SOL    HW278527   5.261   3.491   8.088 -0.1401  0.1365  0.8059
25212SOL     OW78528   6.544   7.919   9.681 -0.1667 -0.6053  0.1781
25212SOL    HW178529   6.623   7.867   9.668  1.1549  1.7101 -2.0073
25212SOL    HW278530   6.495   7.910   9.599 -0.6509  0.3346  0.3446
25213SOL     OW78531   2.797   7.578   7.621 -0.6171  0.2415 -0.1018
25213SOL    HW178532   2.760   7.645   7.679  0.5029  1.6176 -0.8932
25213SOL    HW278533   2.725   7.519   7.601 -1.8277  1.6213  0.0827
25214SOL     OW78534   2.588   8.462   2.064  0.6546 -0.8896  0.2918
25214SOL    HW178535   2.540   8.542   2.081 -0.7662 -1.7932  0.6654
25214SOL    HW278536   2.657   8.488   2.002 -1.7033  0.0531 -2.1397
25215SOL     OW78537   1.381   2.980   4.646  0.3726  0.2960  0.2612
25215SOL    HW178538   1.461   2.994   4.595  0.1074 -1.4932 -0.7217
25215SOL    HW278539   1.342   3.067   4.655  1.1239  0.8422 -1.4372
25216SOL     OW78540   4.968   3.209   0.122  0.4166  0.1890 -0.1780
25216SOL    HW178541   4.924   3.138   0.074  0.1024  0.4298 -0.2474
25216SOL    HW278542   4.909   3.284   0.113 -0.1989 -0.0653  1.5289
25217SOL     OW78543   3.696  10.316   2.980  0.2729 -0.0372  0.2292
25217SOL    HW178544   3.748  10.317   2.899 -0.8955  0.8790 -0.5483
25217SOL    HW278545   3.727  10.393   3.028  1.2174 -0.7825  0.8354
25218SOL     OW78546   0.208  10.502   9.462 -0.0534  0.2970  0.0733
25218SOL    HW178547   0.182  10.410   9.469  0.8832  0.1274  2.7014
25218SOL    HW278548   0.136  10.550   9.502 -0.2794  0.6664 -0.7636
25219SOL     OW78549   0.186   8.975  10.041  0.3530 -0.4748  0.2413
25219SOL    HW178550   0.233   8.976   9.957 -0.4699  1.1836 -0.2506
25219SOL    HW278551   0.166   8.883  10.056  0.5599 -0.8199 -1.3809
25220SOL     OW78552   1.447   5.237   2.223  0.1478  0.1775 -0.3567
25220SOL    HW178553   1.438   5.332   2.216 -0.0417  0.1073 -1.1535
25220SOL    HW278554   1.430   5.205   2.134 -0.4503 -0.6507  0.0483
25221SOL     OW78555   4.168   0.235   0.129 -0.1795  0.1605  0.4119
25221SOL    HW178556   4.169   0.247   0.224  2.2390  0.3216  0.4208
25221SOL    HW278557   4.121   0.311   0.096 -1.6963 -0.2464  1.4595
25222SOL     OW78558   8.205   3.164   4.033 -0.3707 -0.5629 -0.4714
25222SOL    HW178559   8.273   3.217   4.073 -0.4946  0.8034 -1.9617
25222SOL    HW278560   8.218   3.175   3.939 -1.5931 -1.6638 -0.8023
25223SOL     OW78561   0.974   8.813   5.074  0.3927 -0.6744  0.0125
25223SOL    HW178562   1.028   8.788   5.000  2.2213 -1.1851  1.4468
25223SOL    HW278563   1.016   8.892   5.109 -0.5075 -0.3720  0.4410
25224SOL     OW78564   9.412   0.961   0.386 -0.4687 -0.1269 -0.3023
25224SOL    HW178565   9.483   0.904   0.355  0.9862  0.6413  1.4753
25224SOL    HW278566   9.421   1.040   0.333 -0.7935 -0.4851 -0.9113
25225SOL     OW78567   9.177   3.286   8.908  0.6194  0.4024 -0.1945
25225SOL    HW178568   9.091   3.242   8.904  0.3836  0.9150 -0.9202
25225SOL    HW278569   9.239   3.219   8.880  0.2292  0.5799 -1.5756
25226SOL     OW78570   2.216   9.831   9.761  0.1243 -0.7755 -0.1076
25226SOL    HW178571   2.193   9.881   9.840  0.6614 -1.2684  0.3704
25226SOL    HW278572   2.218   9.740   9.790  0.4609 -0.9467 -0.6575
25227SOL     OW78573  10.492  10.150   5.084  0.1218  0.1210  0.7222
25227SOL    HW178574  10.561  10.089   5.111  0.0465 -0.4620 -0.3396
25227SOL    HW278575  10.521  10.235   5.116  2.0512  0.1333 -0.8774
25228SOL     OW78576   5.874   2.676   7.741  0.7014  0.1509 -0.0893
25228SOL    HW178577   5.870   2.762   7.699  0.4418  0.0700 -0.2338
25228SOL    HW278578   5.783   2.646   7.742  1.0273 -1.0953 -2.0697
25229SOL     OW78579   9.815   2.452   6.561  0.2355  0.0505 -0.8713
25229SOL    HW178580   9.793   2.366   6.525  2.4095 -0.6740 -0.6549
25229SOL    HW278581   9.765   2.514   6.508  0.9612 -1.1773 -3.1395
25230SOL     OW78582   4.789   4.982   5.887  0.1916 -0.1018 -0.1390
25230SOL    HW178583   4.749   5.069   5.891  1.4795  0.5607 -0.8557
25230SOL    HW278584   4.839   4.974   5.968 -0.2702 -0.3537  0.1221
25231SOL     OW78585  10.214   1.228   9.832 -0.0832 -0.2821  0.0660
25231SOL    HW178586  10.275   1.181   9.775 -0.0668  1.9024 -1.8480
25231SOL    HW278587  10.135   1.240   9.780 -1.3614 -1.0779  1.7211
25232SOL     OW78588   7.475   9.672   0.274  0.0255  0.0623  0.2541
25232SOL    HW178589   7.451   9.587   0.238  0.1243 -0.1087  0.5868
25232SOL    HW278590   7.525   9.714   0.204  1.6620 -0.9343  0.7518
25233SOL     OW78591   9.147   9.403   7.970 -0.1143  0.0429  0.6814
25233SOL    HW178592   9.168   9.484   7.925 -0.7238 -0.1279  0.0875
25233SOL    HW278593   9.197   9.336   7.924 -1.1662 -0.2155 -0.1085
25234SOL     OW78594   3.998  10.658   7.664 -0.0434  0.0963 -0.0805
25234SOL    HW178595   4.092  10.673   7.676 -0.4176  1.9125  0.8930
25234SOL    HW278596   3.960  10.673   7.751 -1.2463 -0.7255 -0.4302
25235SOL     OW78597   7.455   3.825   8.570 -0.0449  0.4187  0.1888
25235SOL    HW178598   7.472   3.791   8.657 -1.7996 -1.3819 -0.1079
25235SOL    HW278599   7.516   3.778   8.513  1.9015  2.3964  0.4772
25236SOL     OW78600   6.077   7.174   1.206 -0.8589  0.2241 -0.6359
25236SOL    HW178601   5.989   7.205   1.183 -0.4130  0.9436 -1.4144
25236SOL    HW278602   6.121   7.164   1.122 -0.3835 -0.7314 -0.2868
25237SOL     OW78603   7.328   9.177   4.522 -0.5968 -0.3356 -0.0698
25237SOL    HW178604   7.313   9.156   4.614 -1.6284 -0.0211 -0.1418
25237SOL    HW278605   7.404   9.125   4.497 -0.0040 -0.0558  1.0852
25238SOL     OW78606   8.671   4.010   8.491  0.3953  0.3231 -0.2674
25238SOL    HW178607   8.630   4.050   8.568 -0.7639 -0.5471 -0.3999
25238SOL    HW278608   8.715   4.083   8.447 -1.0427  1.3358 -0.1164
25239SOL     OW78609   2.432   0.121   6.704  0.1636 -0.2281  0.4587
25239SOL    HW178610   2.383   0.044   6.675  0.9762  0.2306 -2.4264
25239SOL    HW278611   2.518   0.111   6.663  1.4325  0.6271  2.7264
25240SOL     OW78612   8.610   5.363  10.453 -0.7775 -0.0820  0.4828
25240SOL    HW178613   8.635   5.271  10.450 -1.8818 -0.3671 -0.6774
25240SOL    HW278614   8.615   5.392  10.362 -1.0196  0.8482  0.7519
25241SOL     OW78615   7.214   8.727   4.776  0.6765 -0.6227  0.6176
25241SOL    HW178616   7.188   8.763   4.692  0.3338  1.0683  1.4114
25241SOL    HW278617   7.140   8.742   4.834  1.5833 -0.0651  1.6858
25242SOL     OW78618   0.347   1.745  10.065  0.2842  0.7604 -0.2677
25242SOL    HW178619   0.285   1.761  10.136  1.0987  0.2117  0.5947
25242SOL    HW278620   0.294   1.748   9.986 -0.9763 -0.3176  0.4900
25243SOL     OW78621   8.073   4.330   4.018 -0.2019 -0.0972  0.6611
25243SOL    HW178622   8.073   4.256   3.957  0.7867  1.4359 -1.3176
25243SOL    HW278623   8.056   4.406   3.963 -0.3407  1.2770  2.5045
25244SOL     OW78624   6.072   8.466   7.011  0.3823  0.1642  0.0950
25244SOL    HW178625   6.046   8.553   6.981  0.0364  0.0796  0.1423
25244SOL    HW278626   6.007   8.443   7.078  0.8728  0.1548  0.5699
25245SOL     OW78627   5.760   8.739   3.681  0.0670  0.3492  0.5578
25245SOL    HW178628   5.835   8.682   3.701  0.9299  1.1177 -0.3384
25245SOL    HW278629   5.686   8.680   3.671  0.7491 -0.5250  0.5816
25246SOL     OW78630   5.067   7.531  10.300 -0.3244 -0.2439 -0.1790
25246SOL    HW178631   5.001   7.563  10.362 -1.6575 -1.2863 -0.9799
25246SOL    HW278632   5.027   7.452  10.263  0.9259 -0.2747 -1.5248
25247SOL     OW78633  10.577   7.566  10.065 -0.2433 -0.0243 -0.1860
25247SOL    HW178634  10.583   7.618   9.984 -1.7424  1.0179  0.3343
25247SOL    HW278635  10.573   7.475  10.035 -2.1467  0.4032 -1.4100
25248SOL     OW78636   4.946   9.981   5.682 -0.1023 -0.1641  0.3145
25248SOL    HW178637   4.887   9.915   5.645 -0.3996 -0.7644  1.7970
25248SOL    HW278638   5.016   9.989   5.618 -0.5403 -1.2517 -0.3222
25249SOL     OW78639   8.043   0.117   6.799  0.1679 -0.2471  0.5349
25249SOL    HW178640   8.078   0.205   6.807  0.2203 -0.3563  1.6671
25249SOL    HW278641   7.955   0.123   6.836 -0.2612 -0.4226 -0.4368
25250SOL     OW78642   7.270   7.558  10.080 -0.0564 -0.3557  0.0189
25250SOL    HW178643   7.232   7.640  10.048  0.7637 -0.2614 -0.7535
25250SOL    HW278644   7.218   7.490  10.037 -1.1911 -0.2721  1.1996
25251SOL     OW78645  10.037   0.707   1.520  0.6612 -0.5175  0.8692
25251SOL    HW178646  10.025   0.682   1.611 -0.3226 -0.4602  0.7654
25251SOL    HW278647   9.991   0.639   1.470 -1.3709  0.9807  0.5593
25252SOL     OW78648   7.148   7.041  10.752  0.3046 -0.5003  0.3809
25252SOL    HW178649   7.096   7.100  10.805 -0.5169 -1.6248  0.8696
25252SOL    HW278650   7.209   7.098  10.704  0.0332  0.6526  1.3692
25253SOL     OW78651   0.085   8.309   3.811 -0.1293 -0.0126  0.0533
25253SOL    HW178652   0.166   8.324   3.762 -0.2826 -0.1129 -0.2291
25253SOL    HW278653   0.107   8.237   3.871  0.1052  0.2194  0.2514
25254SOL     OW78654   0.547   1.966   3.476 -0.1174  0.0927 -0.1072
25254SOL    HW178655   0.462   1.938   3.511 -0.9694 -1.7432 -3.3124
25254SOL    HW278656   0.601   1.887   3.478 -0.0660  0.0122 -2.3250
25255SOL     OW78657   4.945   8.521   4.190 -0.5363  0.3330  0.0759
25255SOL    HW178658   5.015   8.562   4.141  0.2613  2.1726  2.5250
25255SOL    HW278659   4.941   8.431   4.157  3.5122 -0.1128  0.2774
25256SOL     OW78660  10.382   1.418   4.588 -0.6235  0.2596 -0.3717
25256SOL    HW178661  10.442   1.377   4.526 -1.0829 -1.2731  0.1526
25256SOL    HW278662  10.310   1.356   4.596 -2.7921  2.4127 -1.6532
25257SOL     OW78663   0.321  10.213   4.786  0.0172 -0.0927 -0.2116
25257SOL    HW178664   0.252  10.272   4.756  0.1554 -0.2498 -0.8610
25257SOL    HW278665   0.380  10.205   4.710  1.5690  1.2302  0.7848
25258SOL     OW78666  10.150   9.232   4.863 -0.0228  0.1011 -0.5714
25258SOL    HW178667  10.145   9.307   4.804 -2.2391  2.1379  1.9263
25258SOL    HW278668  10.073   9.180   4.841  1.3827 -1.4350 -2.1375
25259SOL     OW78669   1.324   8.946   7.818  0.0924  0.3750  0.5092
25259SOL    HW178670   1.249   8.899   7.854  0.0463  0.3898  0.4338
25259SOL    HW278671   1.303   8.956   7.725  0.7935 -0.8028  0.2012
25260SOL     OW78672   0.975   3.443   5.749 -0.2717  0.1197  0.5620
25260SOL    HW178673   0.915   3.382   5.792 -1.0121  1.0288  0.8327
25260SOL    HW278674   0.959   3.527   5.792 -0.4278  0.8691 -0.9104
25261SOL     OW78675   2.593   5.621   8.299  0.2653 -0.1642 -0.5655
25261SOL    HW178676   2.530   5.692   8.312 -0.5391 -0.9330 -0.1101
25261SOL    HW278677   2.544   5.553   8.253  0.7462 -0.7959 -0.1732
25262SOL     OW78678  10.452   0.776   3.906 -0.2241 -0.1951  0.0902
25262SOL    HW178679  10.369   0.776   3.858  0.4063  0.3436 -1.0524
25262SOL    HW278680  10.433   0.824   3.987 -1.5893 -2.0765  0.9613
25263SOL     OW78681   8.286   9.868   5.615  0.4922  0.2468 -0.1612
25263SOL    HW178682   8.316   9.885   5.525  0.5431 -2.5000 -0.7406
25263SOL    HW278683   8.198   9.905   5.619 -0.5725 -1.8167 -2.2451
25264SOL     OW78684   8.235   1.187   4.899  0.2939  0.5708 -0.3935
25264SOL    HW178685   8.168   1.144   4.952  1.0524  1.5828  1.5107
25264SOL    HW278686   8.258   1.265   4.949  1.0180  1.6521 -2.3137
25265SOL     OW78687   7.093   4.392   6.573  0.2729 -0.7972  0.4329
25265SOL    HW178688   7.022   4.329   6.576  0.3075 -0.7998  1.5848
25265SOL    HW278689   7.062   4.461   6.514 -0.5721 -0.9253  0.7175
25266SOL     OW78690   8.501   4.911   6.386 -0.3489  0.2676  0.2023
25266SOL    HW178691   8.539   4.966   6.317 -0.5296 -1.2344 -1.1450
25266SOL    HW278692   8.561   4.837   6.394 -0.0671  0.6453  2.0461
25267SOL     OW78693   1.529   4.787   1.876 -0.4058 -0.0732  0.1716
25267SOL    HW178694   1.576   4.828   1.949  0.0477 -1.3507  0.6265
25267SOL    HW278695   1.575   4.816   1.798  0.1221  0.0115  0.5072
25268SOL     OW78696   6.764   4.171  10.714 -0.0095  0.7470 -0.4059
25268SOL    HW178697   6.766   4.254  10.761 -1.1771  0.6739 -0.1894
25268SOL    HW278698   6.775   4.105  10.781  2.7607  0.7163 -0.7722
25269SOL     OW78699   8.411   2.450   9.468  0.6964 -0.1867 -0.1690
25269SOL    HW178700   8.421   2.356   9.482  2.0212 -0.0861 -0.3550
25269SOL    HW278701   8.316   2.465   9.471  0.5354 -1.0696  2.9017
25270SOL     OW78702   7.380   6.023   3.124 -0.0607  0.5485 -0.3388
25270SOL    HW178703   7.332   6.031   3.206 -0.9839 -0.8771 -0.6958
25270SOL    HW278704   7.469   6.001   3.149 -0.7631 -1.8709  0.3170
25271SOL     OW78705   2.416   3.302  10.697  0.0332  0.3053 -0.2940
25271SOL    HW178706   2.438   3.370  10.760  2.1231 -0.0226 -0.5899
25271SOL    HW278707   2.353   3.246  10.742  0.0820  1.1155  0.8053
25272SOL     OW78708   0.943  10.279   1.973 -0.0361 -0.4835  0.0628
25272SOL    HW178709   0.922  10.188   1.957  1.9607 -0.8502 -0.8541
25272SOL    HW278710   1.034  10.278   2.004 -0.7481  1.0136  2.5265
25273SOL     OW78711   5.400   8.833   2.218 -0.2394 -0.4602  0.0134
25273SOL    HW178712   5.406   8.760   2.157  0.3089 -1.5593  1.3435
25273SOL    HW278713   5.334   8.806   2.282  1.7665 -0.9850  1.9949
25274SOL     OW78714   5.550   9.402   0.572  0.0967  0.1729 -0.1414
25274SOL    HW178715   5.573   9.403   0.479 -0.3551 -1.4315 -0.3105
25274SOL    HW278716   5.494   9.324   0.582 -0.4781  0.7307  1.3329
25275SOL     OW78717   5.571   3.135   9.725 -0.8145 -0.0589  0.3424
25275SOL    HW178718   5.617   3.137   9.641 -0.3142 -1.0289  0.5736
25275SOL    HW278719   5.615   3.066   9.774 -0.7142  0.8921  1.6365
25276SOL     OW78720   8.890   6.105   1.418 -0.4678  0.0358  0.0240
25276SOL    HW178721   8.971   6.060   1.445 -0.3272  0.5309  0.4628
25276SOL    HW278722   8.918   6.168   1.351 -0.2357  1.1581  1.1243
25277SOL     OW78723   7.746   8.784   7.308  0.4656  0.0105 -0.1672
25277SOL    HW178724   7.779   8.870   7.332  0.5908 -0.1161  0.1221
25277SOL    HW278725   7.730   8.741   7.392  0.2495 -0.1882 -0.3102
25278SOL     OW78726   9.669   1.180   0.993 -0.0280  0.5282 -0.2561
25278SOL    HW178727   9.719   1.144   1.067 -0.5628  0.2698 -0.0207
25278SOL    HW278728   9.702   1.270   0.984  0.6573  0.2813 -0.2655
25279SOL     OW78729   8.564   8.027   4.077  0.1489 -0.2727 -0.0830
25279SOL    HW178730   8.604   7.972   4.010 -0.2552  0.5329 -1.0101
25279SOL    HW278731   8.487   7.978   4.107  0.2765 -0.5907 -0.2793
25280SOL     OW78732   9.162   6.696   0.615  0.1286  0.0705 -0.7170
25280SOL    HW178733   9.136   6.740   0.534  0.7729  1.0871 -0.3891
25280SOL    HW278734   9.140   6.604   0.600 -0.0297  0.2875 -1.9308
25281SOL     OW78735   2.734   4.974   2.668 -0.3729 -0.5953 -0.6139
25281SOL    HW178736   2.783   4.915   2.725 -0.1071 -1.7353 -1.9602
25281SOL    HW278737   2.801   5.031   2.630 -0.7492  1.5130  1.6078
25282SOL     OW78738   0.922   6.347   2.295 -0.1803  0.1430 -0.3437
25282SOL    HW178739   0.838   6.365   2.337 -0.3342 -0.7411 -0.2498
25282SOL    HW278740   0.980   6.321   2.367 -0.2635 -0.7394 -0.5794
25283SOL     OW78741   0.476   5.949   9.352 -0.7631 -0.2257  0.5064
25283SOL    HW178742   0.410   5.887   9.322 -0.4802 -0.5442  0.5346
25283SOL    HW278743   0.466   5.951   9.447 -2.4174  1.6314  0.3734
25284SOL     OW78744   8.212   1.699   0.926 -0.7594 -0.0621  0.4050
25284SOL    HW178745   8.156   1.774   0.909 -1.4019 -0.5225  0.4285
25284SOL    HW278746   8.234   1.666   0.839  2.8158  2.4579  0.1867
25285SOL     OW78747   7.445   6.024   4.750  0.0991  0.0033 -0.0106
25285SOL    HW178748   7.444   6.118   4.765  2.1033  0.2905 -1.2384
25285SOL    HW278749   7.525   5.993   4.793 -0.4016 -1.1017  0.1646
25286SOL     OW78750  10.542   0.791   8.234  0.0197 -0.0835  0.2719
25286SOL    HW178751  10.510   0.879   8.214 -2.2378 -1.0311 -0.5734
25286SOL    HW278752  10.627   0.786   8.190 -1.4074  0.5195 -2.8439
25287SOL     OW78753   7.154   6.462   0.552  0.2998  0.1118  0.0945
25287SOL    HW178754   7.160   6.371   0.579  1.4261 -0.4347 -1.7911
25287SOL    HW278755   7.226   6.505   0.599  0.0664 -0.0669  0.6199
25288SOL     OW78756   8.762   5.673   8.876  0.3817  0.0358 -0.4771
25288SOL    HW178757   8.696   5.720   8.927  1.0534  0.1544  0.3089
25288SOL    HW278758   8.804   5.740   8.822 -1.5840 -0.3589 -2.6702
25289SOL     OW78759   5.216   9.551   0.867  0.4446  0.2494 -0.2202
25289SOL    HW178760   5.287   9.488   0.879  0.9183  0.6015 -1.0517
25289SOL    HW278761   5.179   9.563   0.955  0.0155 -1.5410 -0.1096
25290SOL     OW78762   6.001   8.595   3.796  0.4587 -0.3668  0.2351
25290SOL    HW178763   6.043   8.513   3.770 -0.6652 -1.2585  1.1121
25290SOL    HW278764   6.049   8.623   3.874 -0.0616 -0.9721  0.7829
25291SOL     OW78765   9.921   6.118   7.485  0.0136 -0.0770  0.3541
25291SOL    HW178766   9.855   6.171   7.441  0.1092 -1.2066 -1.2152
25291SOL    HW278767   9.971   6.181   7.536 -3.0113  0.6919  2.6844
25292SOL     OW78768   1.053   9.256   4.089  0.4525  0.1658 -0.7613
25292SOL    HW178769   1.075   9.258   4.183  1.5465 -0.9606 -0.9840
25292SOL    HW278770   0.973   9.310   4.083 -2.3341 -3.2232  1.5316
25293SOL     OW78771  10.505   8.707   4.480  0.2356  0.3783  0.4478
25293SOL    HW178772  10.424   8.659   4.464 -0.0174  0.7340  0.6687
25293SOL    HW278773  10.481   8.777   4.540  0.6453  0.6781  0.2684
25294SOL     OW78774   6.998   1.566   4.996 -0.1024  0.3312  0.2148
25294SOL    HW178775   6.908   1.590   5.018 -1.0170 -2.5719  0.0749
25294SOL    HW278776   7.042   1.558   5.081 -0.8580 -1.1230  0.5074
25295SOL     OW78777   8.627   5.814   5.345 -0.0346  0.6069  0.1128
25295SOL    HW178778   8.611   5.896   5.391  1.1214 -0.6679  3.0067
25295SOL    HW278779   8.721   5.816   5.325 -0.1382  0.2738 -0.4237
25296SOL     OW78780   0.499   5.259   9.014  0.1073  0.6180 -0.2536
25296SOL    HW178781   0.553   5.337   9.020  2.2583 -0.8895  2.6699
25296SOL    HW278782   0.542   5.205   8.947  0.3867  0.7200 -0.1583
25297SOL     OW78783   1.279   9.251   5.562 -0.4504  0.0489  0.0813
25297SOL    HW178784   1.367   9.215   5.550 -0.6282 -0.3323 -0.0832
25297SOL    HW278785   1.284   9.299   5.645 -0.5548 -1.4286  0.9613
25298SOL     OW78786   4.901   9.049   3.684  0.1756  0.1035 -0.2422
25298SOL    HW178787   4.878   8.957   3.675 -1.6343  0.5116 -0.2677
25298SOL    HW278788   4.990   9.049   3.719 -0.0531 -1.6556  0.4237
25299SOL     OW78789   2.235   0.111  10.721  0.4119 -0.6911  0.2800
25299SOL    HW178790   2.151   0.075  10.693  1.4785 -2.4851 -0.8023
25299SOL    HW278791   2.262   0.166  10.648  0.1335  0.0245  0.7011
25300SOL     OW78792  10.166   5.081   0.949 -0.3270 -0.4407 -0.2548
25300SOL    HW178793  10.124   5.107   1.031 -2.4396  0.8945 -1.6447
25300SOL    HW278794  10.136   4.991   0.934 -0.4406 -0.4702  0.1420
25301SOL     OW78795   8.935   8.102   5.739 -0.1112 -0.1269 -0.1779
25301SOL    HW178796   8.988   8.112   5.818  1.5413  0.0698 -1.2622
25301SOL    HW278797   8.962   8.017   5.703  0.4266  0.5474 -1.4104
25302SOL     OW78798   9.749   2.421   4.249  0.2359 -0.0904  0.3826
25302SOL    HW178799   9.692   2.464   4.185  1.0618 -0.8496 -0.9026
25302SOL    HW278800   9.749   2.480   4.325 -2.9223 -0.4460  0.8235
25303SOL     OW78801   8.955   4.286   6.979  0.7189 -0.0148 -0.0314
25303SOL    HW178802   8.975   4.368   6.935 -1.2054 -0.1769 -1.3070
25303SOL    HW278803   9.001   4.219   6.928  0.2100  0.0241 -0.5519
25304SOL     OW78804   2.120   4.232   9.117 -0.3137 -0.0061  0.3894
25304SOL    HW178805   2.025   4.220   9.128 -0.1635 -1.5253  0.1230
25304SOL    HW278806   2.127   4.303   9.053 -1.2398  1.2146  1.5493
25305SOL     OW78807   5.688   7.732   0.554 -0.3480 -0.0018 -0.0714
25305SOL    HW178808   5.593   7.738   0.557 -0.3111  0.1365  1.4187
25305SOL    HW278809   5.706   7.673   0.481 -1.4842  1.4818 -1.6242
25306SOL     OW78810   8.206  10.294   9.526 -0.5806 -0.1425 -0.1670
25306SOL    HW178811   8.250  10.372   9.491 -0.9365  2.1189  3.8052
25306SOL    HW278812   8.274  10.227   9.528 -0.0269  0.2090 -2.9094
25307SOL     OW78813   9.575   5.810   5.071 -0.6783  0.1853 -0.2903
25307SOL    HW178814   9.609   5.858   5.146  1.4984 -1.4080 -0.1228
25307SOL    HW278815   9.653   5.770   5.031 -1.7412  0.8797 -3.3631
25308SOL     OW78816   3.429   0.788   6.135  0.5760 -0.1620 -0.0223
25308SOL    HW178817   3.392   0.702   6.154  2.0910 -1.1341 -1.1739
25308SOL    HW278818   3.382   0.848   6.193  0.7199 -2.0121  2.1687
25309SOL     OW78819   5.124   7.706   6.599 -0.3061 -0.1778 -0.3944
25309SOL    HW178820   5.209   7.668   6.578  0.2142  0.8277 -0.1453
25309SOL    HW278821   5.090   7.648   6.668  0.5414 -0.1215  0.0925
25310SOL     OW78822   6.820   4.097   1.549  0.0510 -0.3378  0.1723
25310SOL    HW178823   6.776   4.031   1.496  0.5355 -1.5074  1.1878
25310SOL    HW278824   6.843   4.052   1.630  1.0421  0.8764  0.6007
25311SOL     OW78825   7.611   9.009   8.814 -0.8379 -0.8702  0.0657
25311SOL    HW178826   7.545   8.945   8.840 -1.0065 -0.8232 -0.2505
25311SOL    HW278827   7.633   8.986   8.724 -0.7425 -0.6149  0.0243
25312SOL     OW78828   4.190   3.733   8.141 -0.5556 -0.0161 -0.3815
25312SOL    HW178829   4.231   3.647   8.143  0.0003  0.2578  0.6521
25312SOL    HW278830   4.228   3.777   8.065  0.4971 -0.0526  0.1090
25313SOL     OW78831   9.002   8.562   4.777  0.2463  0.2987 -0.7469
25313SOL    HW178832   8.971   8.627   4.713 -0.2378  0.3407 -0.4720
25313SOL    HW278833   9.098   8.565   4.769  0.4018  2.8636  1.0088
25314SOL     OW78834   3.287   5.730   8.694  0.0191 -0.1550 -0.3464
25314SOL    HW178835   3.275   5.721   8.600 -0.4571 -0.0933 -0.2942
25314SOL    HW278836   3.382   5.736   8.706  0.0933 -0.3816 -0.8001
25315SOL     OW78837   1.211   7.790   2.074 -0.1475  0.4427 -0.5415
25315SOL    HW178838   1.275   7.742   2.021  1.4137  1.3391  0.4496
25315SOL    HW278839   1.257   7.808   2.156 -2.2511 -0.2914  0.8787
25316SOL     OW78840   0.268   3.170   2.179 -0.2233  0.1736  0.7633
25316SOL    HW178841   0.231   3.091   2.218 -0.8047  0.7290  1.3618
25316SOL    HW278842   0.329   3.202   2.246 -0.1714  0.3616  0.6234
25317SOL     OW78843   5.749   7.915   6.482  0.1827 -0.1289  0.4790
25317SOL    HW178844   5.678   7.896   6.542 -0.0949 -0.1541  0.1497
25317SOL    HW278845   5.761   7.834   6.432 -1.7556  0.7868 -1.6936
25318SOL     OW78846   0.888   1.787   4.752 -0.0718  0.1024 -0.3126
25318SOL    HW178847   0.956   1.810   4.816  0.1926  0.2395 -0.6391
25318SOL    HW278848   0.928   1.717   4.700 -0.7822 -0.9544  0.5293
25319SOL     OW78849  10.533   0.143   8.669 -0.7447  0.1533 -0.2366
25319SOL    HW178850  10.499   0.230   8.687 -1.1729 -0.3380  1.4679
25319SOL    HW278851  10.456   0.086   8.669 -0.5437 -0.1805 -1.8965
25320SOL     OW78852   0.305  10.722   4.574  0.5011 -0.5427 -0.0721
25320SOL    HW178853   0.311  10.716   4.669  0.0671 -1.8796 -0.1022
25320SOL    HW278854   0.340  10.808   4.553  3.2890 -1.2726  1.0690
25321SOL     OW78855   1.367  10.599   9.839 -0.6012 -0.4284  0.2577
25321SOL    HW178856   1.317  10.531   9.885 -1.1802  0.0660  0.3674
25321SOL    HW278857   1.409  10.649   9.908  0.9362 -1.4877  0.1384
25322SOL     OW78858   7.014   5.524   9.994  0.3066 -0.2319 -0.5788
25322SOL    HW178859   6.940   5.484  10.039 -0.3821  1.5017 -0.1028
25322SOL    HW278860   6.976   5.595   9.942  1.7813  2.1014  1.3079
25323SOL     OW78861   1.814   8.005   1.444  0.4221  0.2137  0.1775
25323SOL    HW178862   1.829   7.924   1.396 -1.2310 -0.8801  1.4021
25323SOL    HW278863   1.844   7.987   1.533 -0.2338  0.8164  0.5342
25324SOL     OW78864   4.921  10.100   2.736 -0.2660 -0.4064  0.9394
25324SOL    HW178865   4.937  10.141   2.821 -0.1130  0.8085  0.3441
25324SOL    HW278866   4.843  10.046   2.750 -0.2026 -0.2882  1.8597
25325SOL     OW78867   6.106   4.930   5.065  0.3485  0.9144  0.0628
25325SOL    HW178868   6.134   4.868   4.998  1.4845 -1.6542  2.6972
25325SOL    HW278869   6.183   4.943   5.120 -1.2803  0.3819  2.6448
25326SOL     OW78870   5.206   5.049   3.546  0.1038  0.3844 -0.3097
25326SOL    HW178871   5.216   4.989   3.472 -0.9570  0.1555 -0.2810
25326SOL    HW278872   5.229   4.997   3.622 -0.3556  0.1382 -0.3325
25327SOL     OW78873   4.677   5.917   7.282 -0.2667 -0.2097  0.3187
25327SOL    HW178874   4.608   5.969   7.241  1.4562  1.9693  0.0186
25327SOL    HW278875   4.700   5.966   7.361  0.9467 -0.8990  0.4096
25328SOL     OW78876   3.638   1.858   9.084 -0.1367  0.2761 -0.1777
25328SOL    HW178877   3.724   1.815   9.082 -0.1816  0.2198 -1.9327
25328SOL    HW278878   3.659   1.952   9.082 -0.0594  0.4509  3.0649
25329SOL     OW78879   6.757   7.713   4.324 -0.0788 -0.2068 -0.2356
25329SOL    HW178880   6.816   7.783   4.352 -2.2674  1.7221 -0.1685
25329SOL    HW278881   6.704   7.695   4.401 -3.1158  1.9612 -1.6151
25330SOL     OW78882   6.796   9.489   2.453 -0.1820 -0.0417  0.2247
25330SOL    HW178883   6.747   9.492   2.535  1.0399 -0.1652  0.9850
25330SOL    HW278884   6.741   9.535   2.390 -0.7046  0.9165  1.3480
25331SOL     OW78885   4.111   2.109   1.826 -0.5185 -0.1252  0.5070
25331SOL    HW178886   4.190   2.080   1.781 -0.1601 -0.4948  1.3421
25331SOL    HW278887   4.040   2.062   1.783 -0.9362  3.3225 -3.1804
25332SOL     OW78888   3.322   5.417   5.016 -0.2934 -0.0696  0.1729
25332SOL    HW178889   3.303   5.485   4.951 -1.1037 -0.0889  0.3756
25332SOL    HW278890   3.237   5.378   5.036 -0.2135  0.5271  1.8756
25333SOL     OW78891   5.791   8.781   2.324 -0.2793 -0.6821 -0.1928
25333SOL    HW178892   5.767   8.871   2.301 -0.0435 -0.8874 -1.3336
25333SOL    HW278893   5.769   8.730   2.245 -0.7498 -1.6832  0.5680
25334SOL     OW78894   9.080   3.708   0.715 -0.1261  0.7859 -0.2704
25334SOL    HW178895   9.038   3.735   0.797  0.6806  1.0800  0.0614
25334SOL    HW278896   9.163   3.756   0.714  2.3622 -3.0003  1.3611
25335SOL     OW78897   6.986   9.390   8.243 -0.0431  0.3931  0.5684
25335SOL    HW178898   7.067   9.408   8.291  0.1241  2.2894 -0.3428
25335SOL    HW278899   7.015   9.336   8.169  0.4908  1.4449 -0.0096
25336SOL     OW78900   5.516  10.351   6.517  0.0995  0.0018 -0.1167
25336SOL    HW178901   5.422  10.342   6.502 -1.1149  2.6858  4.0886
25336SOL    HW278902   5.546  10.262   6.535 -2.1009 -0.7183  0.3359
25337SOL     OW78903   1.133   0.227   2.973 -0.1116  0.1783  0.3380
25337SOL    HW178904   1.166   0.228   2.883  2.0020  0.9190  1.0575
25337SOL    HW278905   1.178   0.300   3.016 -1.3461  0.0752  1.9272
25338SOL     OW78906   1.339  10.382   3.847  0.2115 -0.1455 -0.0358
25338SOL    HW178907   1.250  10.353   3.867  0.8072 -1.4510  0.8906
25338SOL    HW278908   1.348  10.467   3.890 -0.7039  0.1842 -0.4788
25339SOL     OW78909   0.707   5.781   1.167 -0.0453 -0.3996 -0.1043
25339SOL    HW178910   0.678   5.733   1.089  1.7890  0.7368 -1.5730
25339SOL    HW278911   0.713   5.872   1.138  2.5616 -0.2198  0.7220
25340SOL     OW78912   8.941   8.880   3.770 -0.2948  0.5755 -0.2975
25340SOL    HW178913   9.028   8.911   3.798  0.1682 -0.5406 -0.4425
25340SOL    HW278914   8.899   8.853   3.852  0.7041 -1.8014 -0.4799
25341SOL     OW78915   4.288   0.294   4.639 -0.0474 -0.6232 -0.0148
25341SOL    HW178916   4.289   0.330   4.551  0.5714  0.8290  0.5613
25341SOL    HW278917   4.292   0.199   4.626  0.6077 -0.4155 -1.5213
25342SOL     OW78918   0.884  10.174   3.469  0.2889  0.0590 -0.0805
25342SOL    HW178919   0.940  10.191   3.544 -0.4488 -0.1115  0.5210
25342SOL    HW278920   0.936  10.117   3.413  0.6432 -0.2553  0.5563
25343SOL     OW78921   1.459   9.239   2.074 -0.4220 -0.0828  0.4587
25343SOL    HW178922   1.416   9.199   2.149 -1.1680  2.0047  1.2043
25343SOL    HW278923   1.388   9.278   2.023  0.2004 -0.3753 -0.6801
25344SOL     OW78924   2.810   9.199   0.412  0.2073  0.1335  0.3635
25344SOL    HW178925   2.777   9.225   0.327  0.8615 -2.4471 -0.7615
25344SOL    HW278926   2.868   9.271   0.438  1.6505  0.0715 -2.3711
25345SOL     OW78927   4.984   2.818   5.969  0.0486  0.3056  0.1927
25345SOL    HW178928   4.991   2.776   6.054 -0.1075 -0.1143  0.0032
25345SOL    HW278929   4.932   2.756   5.916 -0.8004  1.0580  0.1221
25346SOL     OW78930   9.340   6.153   3.157 -0.1402  0.4153  0.5813
25346SOL    HW178931   9.329   6.093   3.231 -0.5438  0.9380  0.9557
25346SOL    HW278932   9.250   6.177   3.132  0.0239  1.7999  1.2288
25347SOL     OW78933   8.543   4.827   2.510  0.0244  0.8491 -0.1817
25347SOL    HW178934   8.485   4.825   2.586  0.6842  2.8366  0.4346
25347SOL    HW278935   8.569   4.736   2.497 -2.3031  0.0785  0.2173
25348SOL     OW78936   2.388   8.917   7.305  0.3561 -0.0610 -0.3357
25348SOL    HW178937   2.393   8.826   7.334  1.1615  0.4992  1.3766
25348SOL    HW278938   2.337   8.961   7.372  0.5718  0.9047 -0.7868
25349SOL     OW78939   7.144   6.465   8.896 -0.0215  0.0599  0.1600
25349SOL    HW178940   7.059   6.443   8.935 -0.3690 -0.8723 -1.0651
25349SOL    HW278941   7.197   6.495   8.970 -0.4718 -2.1439  1.4881
25350SOL     OW78942   7.449   5.461   8.291 -0.2837 -0.1921  0.0233
25350SOL    HW178943   7.506   5.523   8.336  1.2660 -0.1575 -1.8346
25350SOL    HW278944   7.415   5.404   8.360  3.6349 -1.5319  1.1163
25351SOL     OW78945   0.546   0.892   6.913 -0.4501  0.1259  0.3242
25351SOL    HW178946   0.559   0.813   6.965  0.5883  0.0479 -0.0351
25351SOL    HW278947   0.536   0.963   6.977 -0.1468 -0.1152  0.6384
25352SOL     OW78948   4.385   5.370   3.764  0.0745 -0.5657  0.1546
25352SOL    HW178949   4.410   5.346   3.675 -0.9400 -1.9625  0.2234
25352SOL    HW278950   4.461   5.346   3.818  2.0492  3.1655 -0.5998
25353SOL     OW78951   5.714  10.154   9.937  0.0761 -0.3894  0.2441
25353SOL    HW178952   5.698  10.107  10.019 -0.6017  2.7702  2.0906
25353SOL    HW278953   5.808  10.173   9.939  0.3588 -1.6079 -0.5232
25354SOL     OW78954   0.636   4.074   9.696 -0.2244 -0.6115  0.2179
25354SOL    HW178955   0.599   4.163   9.691 -1.5033 -1.1748 -1.1072
25354SOL    HW278956   0.729   4.086   9.679 -0.1419  0.6014  1.3163
25355SOL     OW78957   3.379   7.892   0.915  0.0352  0.0882 -0.4028
25355SOL    HW178958   3.337   7.949   0.851 -1.5197 -1.3756 -0.7640
25355SOL    HW278959   3.313   7.878   0.982 -0.0983 -2.1896 -0.9274
25356SOL     OW78960   8.273   9.382   9.553 -0.7268  0.1427  0.4730
25356SOL    HW178961   8.231   9.453   9.504  0.8134 -0.4993 -1.9676
25356SOL    HW278962   8.256   9.304   9.500  0.9685 -0.6168  0.9750
25357SOL     OW78963   8.086   8.326   6.079 -0.0573  0.4582  0.2733
25357SOL    HW178964   8.156   8.391   6.071 -0.3136  0.7678  0.5172
25357SOL    HW278965   8.132   8.242   6.078  0.2268  0.6124 -0.6831
25358SOL     OW78966   2.104  10.791  10.310 -0.1335 -0.3488  0.6390
25358SOL    HW178967   2.196  10.818  10.317 -0.0491 -0.7039  0.9174
25358SOL    HW278968   2.072  10.794  10.400  0.4436 -3.1711  1.0291
25359SOL     OW78969   1.962   8.851   0.800  0.4664 -0.7748 -0.3855
25359SOL    HW178970   2.014   8.786   0.753  1.8381 -0.6132  0.8224
25359SOL    HW278971   2.019   8.879   0.872  0.5750  2.9434 -1.7405
25360SOL     OW78972   5.215   2.449   6.102 -0.3555 -0.6815 -0.1335
25360SOL    HW178973   5.183   2.397   6.028 -1.6102 -2.6288  1.6544
25360SOL    HW278974   5.307   2.425   6.111  0.0701  0.2965 -1.5813
25361SOL     OW78975   6.464   6.264   5.417 -0.0573 -0.3325 -0.2108
25361SOL    HW178976   6.499   6.235   5.333  1.2280  0.3279  0.0780
25361SOL    HW278977   6.483   6.192   5.478  0.5361 -0.1008 -0.1202
25362SOL     OW78978   3.847   9.863   2.961 -0.4753 -0.1158 -0.0146
25362SOL    HW178979   3.754   9.884   2.962 -0.6924 -0.9343 -1.0104
25362SOL    HW278980   3.882   9.912   2.887 -0.8142 -2.3798 -1.7797
25363SOL     OW78981   9.522   3.134   4.346 -0.3278  0.4147 -0.2016
25363SOL    HW178982   9.595   3.195   4.341  1.2115 -1.4771 -2.1761
25363SOL    HW278983   9.454   3.172   4.290 -0.5841  1.7334  0.9489
25364SOL     OW78984   6.664   3.790   7.176  0.5396  0.2191 -0.0909
25364SOL    HW178985   6.591   3.831   7.222  2.4553  2.7963  0.9340
25364SOL    HW278986   6.732   3.781   7.243  0.9678 -2.8508 -0.8058
25365SOL     OW78987   8.425   9.678   8.712  0.3136  0.0428 -0.1457
25365SOL    HW178988   8.341   9.721   8.728 -0.1888 -0.1527 -2.1033
25365SOL    HW278989   8.434   9.616   8.785 -1.4204 -0.2105 -0.1197
25366SOL     OW78990   2.447   2.107   0.964 -0.3221 -0.4411  0.1706
25366SOL    HW178991   2.532   2.064   0.954 -0.2505 -0.3186  0.2463
25366SOL    HW278992   2.468   2.200   0.967 -0.4167 -0.4322  0.6234
25367SOL     OW78993   2.571   3.252   9.942 -0.3691  0.0551 -0.0689
25367SOL    HW178994   2.504   3.205   9.893 -0.5085  0.1198  0.0609
25367SOL    HW278995   2.527   3.282  10.021 -0.2855  0.4269 -0.1628
25368SOL     OW78996   0.266   7.934   2.113  0.0963 -0.3902 -0.0843
25368SOL    HW178997   0.200   7.883   2.160  1.8189 -1.5104  1.2723
25368SOL    HW278998   0.306   7.871   2.052 -1.8167  0.9268 -2.9515
25369SOL     OW78999   0.314   2.130   1.561  0.4122  0.5146  0.3279
25369SOL    HW179000   0.305   2.053   1.505  1.2565 -0.5711  1.6498
25369SOL    HW279001   0.245   2.121   1.626 -1.0812  2.1838 -0.9197
25370SOL     OW79002   1.744   5.969   7.219  0.1641 -0.0685 -0.3220
25370SOL    HW179003   1.653   5.966   7.249  0.6376  0.0472  1.2413
25370SOL    HW279004   1.742   6.024   7.141 -1.3509 -1.4474 -1.3190
25371SOL     OW79005   5.004   8.774   5.134  0.3224 -0.6932 -0.3091
25371SOL    HW179006   4.999   8.732   5.220  0.2481  0.1176  0.0937
25371SOL    HW279007   4.913   8.779   5.105 -0.0363  1.8348  0.9810
25372SOL     OW79008   2.991   2.271   8.167 -0.0934  0.0358 -0.1265
25372SOL    HW179009   3.030   2.184   8.176 -1.3660 -0.4848  0.6009
25372SOL    HW279010   3.043   2.327   8.224 -0.1510 -0.5528  0.5111
25373SOL     OW79011   3.091   7.658   9.061 -0.2630 -0.0412 -0.6718
25373SOL    HW179012   3.001   7.690   9.064 -0.6945 -1.2313 -0.6971
25373SOL    HW279013   3.138   7.726   9.012 -0.6630  1.6687  1.1818
25374SOL     OW79014   2.959   9.838   3.803 -0.3710 -0.1037 -0.0192
25374SOL    HW179015   2.936   9.850   3.895  2.2565  0.7216  0.6375
25374SOL    HW279016   3.001   9.752   3.800  0.2600  0.2001 -0.2486
25375SOL     OW79017   4.349   2.434   9.520  0.2852 -0.3398 -0.1158
25375SOL    HW179018   4.344   2.416   9.426  0.6975  0.0572 -0.2121
25375SOL    HW279019   4.440   2.456   9.536 -0.2412  2.1177 -0.0841
25376SOL     OW79020   3.992   3.077   1.840 -0.0615 -0.0293  0.2414
25376SOL    HW179021   3.903   3.109   1.858  0.2353  0.9512 -0.0221
25376SOL    HW279022   4.026   3.053   1.926 -0.8047 -1.0282  0.2759
25377SOL     OW79023   3.005   0.628   9.760  0.2689 -0.1552 -0.2663
25377SOL    HW179024   3.031   0.557   9.819  0.3159  0.6126  0.6739
25377SOL    HW279025   3.012   0.707   9.814 -0.2142  0.5142 -1.1575
25378SOL     OW79026   8.716   1.404   1.856 -0.4201  0.0522  0.4652
25378SOL    HW179027   8.692   1.312   1.846  1.1591 -0.3590  0.0665
25378SOL    HW279028   8.726   1.436   1.766 -0.0249  0.3313  0.6046
25379SOL     OW79029  10.689   6.036   9.509 -0.2680 -0.7308 -0.8240
25379SOL    HW179030  10.702   5.941   9.519  0.8610 -0.6691 -1.4542
25379SOL    HW279031  10.772   6.067   9.471  0.2558  0.8485  1.4111
25380SOL     OW79032   0.143   9.384   7.588  0.2794 -0.1682  0.0852
25380SOL    HW179033   0.178   9.473   7.591 -1.7876  0.7660 -1.2189
25380SOL    HW279034   0.177   9.348   7.507  1.0795 -0.5517  0.5906
25381SOL     OW79035   6.613   7.235   5.826 -0.1980 -0.2405  0.0626
25381SOL    HW179036   6.644   7.185   5.902 -1.3120 -0.4567  0.3968
25381SOL    HW279037   6.554   7.175   5.781  1.0701 -0.4004 -1.4561
25382SOL     OW79038  10.314   3.707   7.451  0.3125 -0.1977  0.2708
25382SOL    HW179039  10.394   3.666   7.418 -0.1782 -1.1541  0.2316
25382SOL    HW279040  10.330   3.720   7.544  0.4447 -0.5703  0.3016
25383SOL     OW79041   4.487   9.339   3.329 -0.2157 -0.0611  0.3535
25383SOL    HW179042   4.478   9.410   3.392  1.3438  1.2459 -0.7834
25383SOL    HW279043   4.467   9.379   3.244  2.2299 -0.4606 -0.5152
25384SOL     OW79044   9.091   1.155   1.450 -0.0622 -0.4070 -0.4849
25384SOL    HW179045   9.166   1.184   1.501 -0.7564  0.9426 -0.1994
25384SOL    HW279046   9.082   1.062   1.471  0.7741 -0.2958  0.4133
25385SOL     OW79047   5.559  10.039   4.614  0.6061 -0.4952 -0.1713
25385SOL    HW179048   5.506   9.970   4.575  1.6562 -0.9647 -0.8108
25385SOL    HW279049   5.625  10.059   4.548  1.6762 -0.4355  0.8703
25386SOL     OW79050   7.763   5.544   8.437  0.0163 -0.7735 -0.1105
25386SOL    HW179051   7.743   5.477   8.502 -0.4120 -0.1706  0.3981
25386SOL    HW279052   7.789   5.621   8.489  1.8178 -0.9333 -0.7059
25387SOL     OW79053   8.486   4.140  10.000 -0.1930  0.4949  0.0580
25387SOL    HW179054   8.517   4.209   9.942 -0.7361  1.0986  0.4691
25387SOL    HW279055   8.540   4.064   9.978  0.2221  0.9671 -0.5948
25388SOL     OW79056   5.841   9.870   6.188 -1.0046 -0.5080  0.2255
25388SOL    HW179057   5.797   9.828   6.115 -0.4309 -0.2998 -0.2463
25388SOL    HW279058   5.890   9.800   6.231 -1.7198 -0.7235  0.7016
25389SOL     OW79059   8.357  10.076   4.617  0.1839  0.0294  0.6354
25389SOL    HW179060   8.333  10.163   4.584  1.6434  0.8100  1.5141
25389SOL    HW279061   8.385  10.027   4.539 -0.9691  0.2252  0.0894
25390SOL     OW79062   0.131   1.775   6.650  0.6304 -0.2632 -0.2253
25390SOL    HW179063   0.193   1.837   6.687 -0.1404  0.1295  0.4413
25390SOL    HW279064   0.153   1.691   6.691  1.3296 -0.3351 -0.7290
25391SOL     OW79065   5.031   7.447   8.333 -0.5415 -0.0697  0.2758
25391SOL    HW179066   4.948   7.400   8.338 -1.6150  1.6960 -0.3766
25391SOL    HW279067   5.041   7.490   8.418 -1.0095  0.8605 -0.1310
25392SOL     OW79068  10.226   1.887  10.685  0.4755  0.1121  0.2134
25392SOL    HW179069  10.255   1.796  10.674 -0.2371 -0.3787  2.0404
25392SOL    HW279070  10.169   1.885  10.762 -1.8984  1.5899 -1.3778
25393SOL     OW79071   2.009   2.476   7.242  0.8154 -0.0721  0.0021
25393SOL    HW179072   1.985   2.553   7.294 -0.9434  0.7587 -1.9008
25393SOL    HW279073   2.089   2.503   7.196  1.0328  0.0680  0.4605
25394SOL     OW79074   7.295   5.293   1.585  0.0407  0.5093 -0.3516
25394SOL    HW179075   7.373   5.244   1.610  0.1583  0.6177 -0.5042
25394SOL    HW279076   7.312   5.382   1.617 -0.5525  0.2594  0.7323
25395SOL     OW79077   9.744   9.920   8.510 -0.1991  0.0098  0.6824
25395SOL    HW179078   9.815   9.872   8.553  0.4601 -0.8933 -1.3066
25395SOL    HW279079   9.787   9.997   8.472 -0.5465  0.1790  0.6276
25396SOL     OW79080   1.071   5.025   8.741  0.4416  0.0866 -0.5783
25396SOL    HW179081   1.064   4.931   8.728 -0.0848  0.4460 -3.5152
25396SOL    HW279082   1.141   5.052   8.681  0.3664  1.6153 -0.0135
25397SOL     OW79083  10.272   0.909   7.578  0.4638  0.0640 -0.0707
25397SOL    HW179084  10.336   0.840   7.596  1.8236  1.6735  1.5349
25397SOL    HW279085  10.284   0.929   7.485  2.7793  0.7491  0.3188
25398SOL     OW79086   4.766   5.827  10.461  0.2805 -0.3045 -0.3693
25398SOL    HW179087   4.853   5.836  10.499 -0.2817 -1.0751  1.2095
25398SOL    HW279088   4.743   5.914  10.431  0.9463  0.2564  0.7037
25399SOL     OW79089  10.431  10.369   8.071 -0.1423  0.0151  0.6952
25399SOL    HW179090  10.475  10.438   8.021  0.8668 -2.1537 -1.5930
25399SOL    HW279091  10.502  10.316   8.106 -0.6419 -3.2628 -2.6469
25400SOL     OW79092   8.086   0.448   4.948  0.3628 -0.6236 -0.0041
25400SOL    HW179093   8.140   0.440   4.869 -0.9635 -0.1209 -1.0017
25400SOL    HW279094   8.056   0.358   4.965 -1.9511 -0.3374 -2.0333
25401SOL     OW79095   4.681   2.445   3.935 -0.3082  0.4395 -0.9068
25401SOL    HW179096   4.724   2.361   3.923 -0.3116  0.2575  0.2187
25401SOL    HW279097   4.729   2.487   4.006 -0.8278  1.0326 -0.8959
25402SOL     OW79098   5.743   8.198   7.065  0.3152 -0.0111 -0.5075
25402SOL    HW179099   5.773   8.288   7.082 -1.8003  0.6248  0.2465
25402SOL    HW279100   5.735   8.193   6.970 -1.3354  1.2960 -0.4879
25403SOL     OW79101   5.083   1.477   3.795  0.3026  0.6615 -0.4504
25403SOL    HW179102   5.004   1.475   3.742 -1.5135  0.6816  2.0870
25403SOL    HW279103   5.133   1.551   3.762 -1.4753  1.6050 -1.1108
25404SOL     OW79104   7.584   2.921   7.420 -0.0255  0.7794  0.1474
25404SOL    HW179105   7.519   2.991   7.418  0.8611  1.6032 -0.8589
25404SOL    HW279106   7.582   2.883   7.332 -1.2514 -1.2240  0.9547
25405SOL     OW79107   4.652   9.152   6.722 -1.0367 -0.1483 -0.4486
25405SOL    HW179108   4.568   9.195   6.707 -1.8504 -0.7209  2.0041
25405SOL    HW279109   4.630   9.070   6.765  0.7816 -0.1404  0.5986
25406SOL     OW79110   5.661   1.586  10.072  0.1894  0.1836 -0.1146
25406SOL    HW179111   5.594   1.654  10.070  0.7082  0.7280  0.4172
25406SOL    HW279112   5.709   1.602  10.153 -0.6928 -1.8188  0.8645
25407SOL     OW79113   4.872   8.927   4.610 -0.5441 -0.5468 -0.1545
25407SOL    HW179114   4.899   9.002   4.662 -1.7022 -0.1593 -0.0830
25407SOL    HW279115   4.845   8.862   4.675 -0.5526 -0.6278 -0.2389
25408SOL     OW79116   5.287   4.788   9.294  0.1546 -0.0276  0.3374
25408SOL    HW179117   5.352   4.858   9.293  0.1520 -0.0259  0.2066
25408SOL    HW279118   5.333   4.712   9.257 -0.0035  0.0547 -0.0371
25409SOL     OW79119   7.085   7.368   9.998 -0.1764 -0.2002 -0.2603
25409SOL    HW179120   7.079   7.322  10.081 -1.9794  0.4867  0.0430
25409SOL    HW279121   7.016   7.330   9.944  0.5636 -0.2048 -1.2446
25410SOL     OW79122   7.530   1.668   1.838 -0.1805 -0.6907 -0.0933
25410SOL    HW179123   7.546   1.692   1.929 -2.1148 -0.3071  0.1756
25410SOL    HW279124   7.614   1.681   1.794  0.9997 -1.6288  1.7722
25411SOL     OW79125   9.110   1.542   8.678 -0.3336  0.3476 -0.0242
25411SOL    HW179126   9.124   1.476   8.746 -0.4403 -0.5559 -0.8697
25411SOL    HW279127   9.015   1.552   8.673 -0.2942  1.4934  0.9561
25412SOL     OW79128   8.175   9.550   9.177  0.0100 -0.0533 -0.1180
25412SOL    HW179129   8.125   9.567   9.257  0.8709  3.4794 -0.1601
25412SOL    HW279130   8.116   9.499   9.122 -2.1642  0.8594  1.2344
25413SOL     OW79131   0.986  10.699   8.608  1.0960 -0.0016  0.3340
25413SOL    HW179132   0.910  10.699   8.549  0.8509  2.3195  0.5760
25413SOL    HW279133   0.960  10.640   8.679 -0.9446  1.4720  0.9207
25414SOL     OW79134   2.860   8.358   9.459 -0.1377 -0.1685 -0.4347
25414SOL    HW179135   2.863   8.286   9.522 -0.8473 -0.9271 -1.2387
25414SOL    HW279136   2.766   8.378   9.451 -0.1273 -0.5697 -1.7733
25415SOL     OW79137   6.123   7.267   0.017 -0.0768 -0.3189  0.1127
25415SOL    HW179138   6.102   7.274  -0.076  1.6242  0.6416 -0.2333
25415SOL    HW279139   6.146   7.357   0.042  1.6489 -0.9569  0.9045
25416SOL     OW79140   4.946   4.762   3.685  0.2646  0.0098 -0.0817
25416SOL    HW179141   4.985   4.683   3.648 -1.1482 -1.1096  0.7060
25416SOL    HW279142   4.864   4.773   3.637  0.8619  1.5715 -0.8178
25417SOL     OW79143   9.744   9.964   6.637  0.2834  0.2154 -0.0037
25417SOL    HW179144   9.684  10.038   6.628 -0.0514 -0.1728 -1.1518
25417SOL    HW279145   9.809   9.978   6.568 -0.1403 -0.8796 -0.6500
25418SOL     OW79146   3.489   4.484   7.428 -0.3548  0.1810  0.3811
25418SOL    HW179147   3.582   4.482   7.409 -0.7356  2.3627 -2.5070
25418SOL    HW279148   3.463   4.392   7.434  1.4888 -0.5703 -1.7776
25419SOL     OW79149   3.065   8.960   0.485  0.6735  0.1228 -0.1492
25419SOL    HW179150   3.133   8.902   0.452  1.2830  0.3903  0.6137
25419SOL    HW279151   3.098   9.048   0.467 -1.1076  0.3178 -3.1018
25420SOL     OW79152   1.072   2.115   2.556 -0.3104  0.1213  0.3191
25420SOL    HW179153   0.980   2.119   2.582 -0.8365  2.1437 -1.5457
25420SOL    HW279154   1.069   2.101   2.461  1.2158  1.8852 -0.0546
25421SOL     OW79155   6.371   7.305   7.662 -0.1421  0.1879  0.1453
25421SOL    HW179156   6.398   7.227   7.710 -1.9653 -0.3958  0.3009
25421SOL    HW279157   6.285   7.327   7.698  0.1299  2.0127 -0.2112
25422SOL     OW79158   0.160   7.524   3.462 -0.0470  0.0500 -0.4764
25422SOL    HW179159   0.077   7.504   3.504  0.5264 -0.5951  0.4015
25422SOL    HW279160   0.156   7.480   3.377 -0.7891  0.4514 -0.6573
25423SOL     OW79161   5.396   8.003   5.026  0.5908 -0.7260  0.2975
25423SOL    HW179162   5.482   7.971   4.997  1.6336  1.0200  1.3373
25423SOL    HW279163   5.357   7.928   5.071  1.2966 -1.7319 -0.7105
25424SOL     OW79164   3.947   2.711   0.871  0.0300 -0.0952  0.1644
25424SOL    HW179165   4.011   2.746   0.933  0.6832 -0.9939  0.0161
25424SOL    HW279166   3.985   2.728   0.785  0.0956 -0.6435  0.0768
25425SOL     OW79167   1.914   9.152   9.832  0.0770  0.1403 -0.0738
25425SOL    HW179168   1.947   9.224   9.779 -1.2885  1.3674  0.6805
25425SOL    HW279169   1.838   9.119   9.784  1.9926 -2.4911 -1.6560
25426SOL     OW79170   4.083   2.648   6.244 -0.8141 -0.4824 -0.0389
25426SOL    HW179171   4.038   2.662   6.160  1.9836  1.1770 -1.3930
25426SOL    HW279172   4.085   2.734   6.284  0.9657 -0.5465  0.0531
25427SOL     OW79173   0.779   1.860   2.526  0.1725  0.0140 -0.1541
25427SOL    HW179174   0.704   1.810   2.557 -1.7524  3.1089  0.5974
25427SOL    HW279175   0.814   1.903   2.604  2.5033 -0.9638 -0.5725
25428SOL     OW79176   2.075   1.030   2.001  0.6561 -0.3929 -0.4582
25428SOL    HW179177   2.123   1.113   1.998 -0.6608  0.3605 -1.3474
25428SOL    HW279178   2.012   1.036   1.930  0.3188 -2.0439 -0.3351
25429SOL     OW79179  10.228   0.978   1.128 -0.3766  0.0487 -0.4045
25429SOL    HW179180  10.306   0.923   1.123 -1.3968 -1.5778  0.6112
25429SOL    HW279181  10.256   1.063   1.093  1.5636 -0.7647 -0.9573
25430SOL     OW79182   8.128   8.064   3.432 -0.3467  0.3263 -0.2785
25430SOL    HW179183   8.132   7.988   3.489 -2.3592  0.6470  0.3471
25430SOL    HW279184   8.204   8.055   3.374 -0.9455 -2.5513 -0.7326
25431SOL     OW79185   5.463   6.014   2.626  0.6154  0.0271  0.3348
25431SOL    HW179186   5.507   5.989   2.544  1.7703 -1.1401  1.2602
25431SOL    HW279187   5.424   5.932   2.657 -0.2772  0.5768  0.6856
25432SOL     OW79188  10.484   2.576   4.674  0.6998  0.6691 -0.3852
25432SOL    HW179189  10.468   2.523   4.753  0.0408 -0.7900 -1.4573
25432SOL    HW279190  10.487   2.666   4.706  1.0397  0.0660  1.3942
25433SOL     OW79191   2.541   1.136   2.842 -0.1005  0.6879 -0.1366
25433SOL    HW179192   2.617   1.088   2.809  0.8095  1.1449  1.2257
25433SOL    HW279193   2.499   1.171   2.763  0.7923 -0.0127 -0.9461
25434SOL     OW79194  10.178   3.734   9.086  0.7726  0.3974  1.3163
25434SOL    HW179195  10.083   3.736   9.097  0.6513  2.5171  0.2866
25434SOL    HW279196  10.197   3.643   9.062 -1.3096  0.4387 -0.8604
25435SOL     OW79197   5.944   2.534   6.787 -0.5324 -0.3574  0.1522
25435SOL    HW179198   5.970   2.565   6.700 -0.1569 -1.0819 -0.0088
25435SOL    HW279199   5.977   2.600   6.847  1.1582 -0.9041 -0.0939
25436SOL     OW79200   2.130   2.329   6.523  0.4032  0.1871 -0.1919
25436SOL    HW179201   2.180   2.357   6.447  1.0904  1.0996  0.5710
25436SOL    HW279202   2.182   2.258   6.561 -0.2125 -0.6431 -0.8561
25437SOL     OW79203   3.893   1.780   9.152 -0.3103  0.1473  0.3170
25437SOL    HW179204   3.928   1.742   9.233 -0.8809 -0.5310  0.2574
25437SOL    HW279205   3.928   1.723   9.082  1.9329  1.9542 -0.1506
25438SOL     OW79206   2.894   2.159   1.915 -0.2124  1.5119  0.7123
25438SOL    HW179207   2.895   2.255   1.913  1.1313  1.5849  2.6175
25438SOL    HW279208   2.976   2.133   1.873 -0.5247  1.1780  0.2938
25439SOL     OW79209   6.370   5.388   8.938 -0.4078  0.0239 -0.1151
25439SOL    HW179210   6.278   5.365   8.928 -0.6933  1.3346 -0.6601
25439SOL    HW279211   6.406   5.384   8.850 -0.6889  2.4558 -0.3938
25440SOL     OW79212   1.984   2.678   9.341  0.2939  0.1959 -0.0651
25440SOL    HW179213   1.982   2.741   9.269  1.8027 -0.3615 -0.6353
25440SOL    HW279214   1.897   2.638   9.340  0.3487  0.0160 -1.7740
25441SOL     OW79215   1.329   9.023   4.915 -0.3241 -0.1463  0.0157
25441SOL    HW179216   1.358   9.097   4.863 -1.5197  1.7000  1.8103
25441SOL    HW279217   1.233   9.025   4.909 -0.4509 -0.3925  1.5503
25442SOL     OW79218   8.013   9.227   7.787  0.3768  0.4568  0.4839
25442SOL    HW179219   7.957   9.299   7.759  1.4598  1.5146  0.9720
25442SOL    HW279220   8.077   9.267   7.846  2.4259 -0.4759 -0.9865
25443SOL     OW79221   4.804   4.831   0.208  0.0445 -0.3446 -0.0104
25443SOL    HW179222   4.878   4.886   0.182 -0.8437  0.3224 -1.2177
25443SOL    HW279223   4.839   4.742   0.210  1.0128  0.0253 -0.0164
25444SOL     OW79224   6.095  10.211   7.262  0.3744  0.0131 -0.2467
25444SOL    HW179225   6.102  10.122   7.225 -1.2731  0.1017 -0.8390
25444SOL    HW279226   6.051  10.199   7.346  1.3147  0.1491  0.2749
25445SOL     OW79227   4.425   2.696   8.424 -0.5368  0.2096  0.4552
25445SOL    HW179228   4.344   2.746   8.426 -0.4877  0.2674  1.1900
25445SOL    HW279229   4.494   2.762   8.429 -0.3801  0.2892 -1.8347
25446SOL     OW79230  10.353   2.909  10.271  0.1948  0.4817  0.3847
25446SOL    HW179231  10.394   2.961  10.340  0.8777 -0.2263  0.5186
25446SOL    HW279232  10.261   2.905  10.296  0.3614  0.5925  1.0340
25447SOL     OW79233   3.813   8.770   4.842  0.0982 -0.8038  0.1669
25447SOL    HW179234   3.802   8.787   4.748 -0.5279 -0.4752  0.2988
25447SOL    HW279235   3.751   8.829   4.885 -1.6216 -2.8835  0.6725
25448SOL     OW79236   5.591   0.728   4.751 -0.0837 -0.0012 -0.2705
25448SOL    HW179237   5.559   0.733   4.661 -0.4651  0.0882 -0.1307
25448SOL    HW279238   5.643   0.808   4.762 -0.1458  0.0536 -0.3708
25449SOL     OW79239   4.803   0.002   4.734  0.3168 -0.0913  0.1810
25449SOL    HW179240   4.896  -0.015   4.723  0.6777  0.8929  1.4225
25449SOL    HW279241   4.766  -0.082   4.762  0.7419 -0.5734 -0.6549
25450SOL     OW79242  10.789   4.429   8.248  0.6222 -0.1755  0.2289
25450SOL    HW179243  10.760   4.412   8.158 -0.9564  0.1504  0.6439
25450SOL    HW279244  10.733   4.372   8.301  1.0559  0.1587  1.0525
25451SOL     OW79245   0.520   9.973  10.205 -0.1194  0.3633 -0.0191
25451SOL    HW179246   0.517   9.878  10.195  0.1600  0.4852 -1.5895
25451SOL    HW279247   0.609   9.997  10.180 -0.2822  1.0641  0.0335
25452SOL     OW79248   7.794  10.359   5.388 -0.1663 -0.4820  0.1016
25452SOL    HW179249   7.747  10.304   5.451 -0.6993 -0.5834 -0.3679
25452SOL    HW279250   7.732  10.369   5.315 -0.1032  0.7894  0.1972
25453SOL     OW79251   4.476   0.294   6.039  0.7601  0.2491 -0.7018
25453SOL    HW179252   4.501   0.225   5.978 -0.1741  0.0122 -0.8396
25453SOL    HW279253   4.408   0.344   5.992  0.2094  0.2127  0.0451
25454SOL     OW79254   9.598   9.942   3.638  0.3658  0.4631  0.1673
25454SOL    HW179255   9.674   9.888   3.617 -0.2516 -0.9160  1.2884
25454SOL    HW279256   9.523   9.892   3.608 -0.2429  0.5359  1.4758
25455SOL     OW79257   5.085   1.991  10.511  0.5649  0.7283  0.1336
25455SOL    HW179258   5.056   2.079  10.488 -0.5528  0.8489  1.8022
25455SOL    HW279259   5.170   2.003  10.552  0.1707  1.1219  0.8572
25456SOL     OW79260   0.880   8.064   0.716 -0.4693  0.2102 -0.0548
25456SOL    HW179261   0.912   8.143   0.759 -0.8612 -0.5310  1.7051
25456SOL    HW279262   0.880   7.998   0.785 -0.6712 -1.1940 -1.3461
25457SOL     OW79263   3.585   6.140   7.963 -0.6745 -0.1835 -0.2916
25457SOL    HW179264   3.507   6.168   7.915 -1.9847 -1.2205  1.1198
25457SOL    HW279265   3.573   6.177   8.051 -0.7042 -2.1527  0.5781
25458SOL     OW79266   2.842   1.693  10.628  0.0356 -0.2777 -0.2392
25458SOL    HW179267   2.752   1.686  10.660  0.3336 -0.8927  0.4798
25458SOL    HW279268   2.861   1.787  10.632 -1.3503  0.2011 -2.6146
25459SOL     OW79269   3.840  10.186   0.945  0.2224  0.2481  0.5730
25459SOL    HW179270   3.910  10.158   0.886 -0.5672  0.7684 -0.6535
25459SOL    HW279271   3.800  10.105   0.974  0.3888 -0.0062  0.1015
25460SOL     OW79272   3.176   0.974   6.680 -0.4316  0.0364  0.3126
25460SOL    HW179273   3.098   1.002   6.728 -0.7504  0.7634 -0.5988
25460SOL    HW279274   3.212   0.902   6.732 -0.5492  1.0380  1.8212
25461SOL     OW79275   7.828   5.372   2.549 -0.1557 -0.5423 -0.0570
25461SOL    HW179276   7.864   5.458   2.530  1.2445 -1.1331 -0.1747
25461SOL    HW279277   7.897   5.311   2.525  0.0884 -1.5628  2.8148
25462SOL     OW79278  10.464   4.142   6.624 -0.6619  0.1218 -0.4322
25462SOL    HW179279  10.407   4.184   6.689 -0.1805  0.0642  0.0302
25462SOL    HW279280  10.477   4.054   6.658 -0.6822 -0.0161 -0.7826
25463SOL     OW79281   5.194   7.143   7.715  0.0040  0.3331  0.1257
25463SOL    HW179282   5.246   7.185   7.784 -0.2314  1.2731 -0.2512
25463SOL    HW279283   5.249   7.072   7.682  0.8832  1.0653  0.0064
25464SOL     OW79284  10.467   5.304   8.516  0.4023  0.5342 -0.8764
25464SOL    HW179285  10.555   5.303   8.555  0.5414  2.8480 -0.9837
25464SOL    HW279286  10.430   5.387   8.544 -1.5469 -0.1208 -1.3663
25465SOL     OW79287   1.659   7.549   7.867  1.0427  0.2346  0.5891
25465SOL    HW179288   1.610   7.576   7.790  2.0824  1.9603  0.4736
25465SOL    HW279289   1.605   7.576   7.941  0.6947 -0.1267  0.4683
25466SOL     OW79290   9.555   6.270   3.969 -0.1282 -0.2812  0.5415
25466SOL    HW179291   9.647   6.293   3.955  0.3610 -1.9129  0.7928
25466SOL    HW279292   9.506   6.342   3.931  1.2578  0.8360  0.7862
25467SOL     OW79293   2.003   1.578   1.845 -1.1144  0.0213  0.4066
25467SOL    HW179294   2.041   1.546   1.927 -1.0763  0.6387  0.6371
25467SOL    HW279295   1.955   1.657   1.870 -0.5755  0.5739 -0.2581
25468SOL     OW79296   6.834   2.297  10.794 -0.1603  0.4721  0.5360
25468SOL    HW179297   6.841   2.294  10.889  0.8106 -0.5631  0.4487
25468SOL    HW279298   6.914   2.342  10.765 -0.5829  1.0364  0.2068
25469SOL     OW79299   9.602   5.619   8.492 -0.1079  0.5229  0.1426
25469SOL    HW179300   9.684   5.667   8.475  1.0121 -1.7382 -1.5052
25469SOL    HW279301   9.631   5.534   8.526 -1.6340 -0.8752 -1.8208
25470SOL     OW79302   8.938   5.585  10.198 -0.4020 -0.4657 -0.1192
25470SOL    HW179303   8.914   5.676  10.213 -0.4650 -0.1548 -1.8779
25470SOL    HW279304   8.916   5.570  10.106  0.7373 -1.9026 -0.1791
25471SOL     OW79305   1.836   1.815   8.602  0.9943 -0.2589  0.3312
25471SOL    HW179306   1.847   1.910   8.606  1.6271 -0.2641 -0.8754
25471SOL    HW279307   1.899   1.780   8.665  2.4674  0.0435 -0.9317
25472SOL     OW79308   4.814  10.795   1.692 -0.7093 -0.1257  0.2557
25472SOL    HW179309   4.890  10.845   1.723 -0.1557 -1.2720  0.8145
25472SOL    HW279310   4.739  10.844   1.724 -0.2025  0.7166  0.1929
25473SOL     OW79311   3.096  10.188   1.077  0.3011  0.5476  0.1080
25473SOL    HW179312   3.099  10.110   1.132  2.7433 -0.8436 -1.7773
25473SOL    HW279313   3.004  10.198   1.055 -0.3162 -0.6582  1.9111
25474SOL     OW79314   7.816   4.657   0.845  0.1512 -0.0410  0.0105
25474SOL    HW179315   7.755   4.726   0.818  2.3946  1.7270 -0.8753
25474SOL    HW279316   7.886   4.660   0.779  1.2713 -1.8988  1.0352
25475SOL     OW79317   4.861   9.606   5.490  0.8743  0.1366 -0.4029
25475SOL    HW179318   4.898   9.573   5.408  2.7626  0.1408  0.4084
25475SOL    HW279319   4.913   9.565   5.558 -0.0327  0.9017  0.7825
25476SOL     OW79320   2.357   4.407   3.536 -0.6742  0.3686 -0.0787
25476SOL    HW179321   2.276   4.355   3.533  0.6940 -1.8974 -1.3434
25476SOL    HW279322   2.370   4.435   3.445  0.6726 -0.5648 -0.2032
25477SOL     OW79323   1.852   1.130   3.030  0.4167 -0.3788 -0.0001
25477SOL    HW179324   1.884   1.177   2.953  1.2438 -2.9145 -1.3350
25477SOL    HW279325   1.890   1.042   3.022 -3.5553 -2.3657  0.5497
25478SOL     OW79326   5.085   3.939   4.457  0.0912  0.0941  0.2827
25478SOL    HW179327   5.129   3.910   4.377  0.0480 -2.6165  1.1583
25478SOL    HW279328   5.124   4.025   4.476  2.7667 -0.8192 -0.6894
25479SOL     OW79329   4.885   4.821  10.054 -0.2677 -0.4730  0.8312
25479SOL    HW179330   4.845   4.868   9.980  0.9520  0.7382  0.9135
25479SOL    HW279331   4.880   4.882  10.127  2.8635  0.3196  0.5260
25480SOL     OW79332   0.026   8.344   7.642  0.3256 -0.0799  0.6035
25480SOL    HW179333   0.024   8.303   7.729 -0.7519 -3.7432 -0.9597
25480SOL    HW279334  -0.066   8.344   7.614  0.7256  0.4996 -0.7727
25481SOL     OW79335   3.078   4.995   5.750  0.0842 -0.2261 -0.2643
25481SOL    HW179336   2.993   4.978   5.711  0.0467 -0.9257  0.0995
25481SOL    HW279337   3.060   5.008   5.843  0.5611 -2.4211  0.1939
25482SOL     OW79338   4.227   9.310   0.887  0.6060  0.7371 -0.2049
25482SOL    HW179339   4.154   9.357   0.926  0.7369 -0.7115  1.9690
25482SOL    HW279340   4.194   9.279   0.803 -0.9693  0.9118  0.3186
25483SOL     OW79341   0.875   8.382   0.482  0.0021  0.2739  0.0953
25483SOL    HW179342   0.818   8.458   0.482 -0.9996 -0.4347 -1.0551
25483SOL    HW279343   0.944   8.403   0.544 -1.9206  0.8366  2.1578
25484SOL     OW79344   7.171   6.623   2.741  0.4114  0.2878 -0.1498
25484SOL    HW179345   7.191   6.664   2.825  2.2274 -0.4998 -0.1529
25484SOL    HW279346   7.254   6.623   2.694 -0.5014  0.4447 -1.8530
25485SOL     OW79347   3.168   3.303   7.234 -0.0092 -0.0299 -0.3261
25485SOL    HW179348   3.238   3.313   7.299 -1.4424 -0.9222  1.4652
25485SOL    HW279349   3.213   3.304   7.149  1.6448  4.1923  0.4011
25486SOL     OW79350   6.276   5.269   2.623 -0.0890 -0.1794 -0.2327
25486SOL    HW179351   6.263   5.262   2.528 -1.1544  1.8016 -0.2984
25486SOL    HW279352   6.361   5.312   2.632 -0.0645 -0.2134 -0.2974
25487SOL     OW79353   1.367   9.355   1.771 -0.6877  0.0670  0.6023
25487SOL    HW179354   1.291   9.319   1.723 -0.3982 -0.4810  0.5522
25487SOL    HW279355   1.357   9.450   1.761 -1.3460  0.0050  0.5566
25488SOL     OW79356   8.315   2.884   4.078 -0.4182 -0.2029  0.2356
25488SOL    HW179357   8.367   2.807   4.055  0.1839  0.6457 -1.3750
25488SOL    HW279358   8.360   2.921   4.155  1.4048  0.5033 -1.1035
25489SOL     OW79359   5.703   8.223   2.742  0.2078 -0.0186 -0.1483
25489SOL    HW179360   5.660   8.157   2.687  3.0326 -0.8906 -1.5146
25489SOL    HW279361   5.727   8.293   2.681 -0.5216  1.1006  0.8288
25490SOL     OW79362   4.097   6.945   6.367  0.4885 -0.4519  0.1694
25490SOL    HW179363   4.034   6.922   6.435  0.3853 -0.3104  0.1220
25490SOL    HW279364   4.166   6.992   6.413 -0.1713  0.7154 -0.0032
25491SOL     OW79365   8.099   7.087   0.991 -0.2547  0.0332  0.1589
25491SOL    HW179366   8.050   7.168   1.008  1.8450  1.4721 -0.2332
25491SOL    HW279367   8.147   7.071   1.073 -1.8725 -1.7934  0.8188
25492SOL     OW79368   7.706   8.528   1.597  0.3596  0.1143 -0.2533
25492SOL    HW179369   7.643   8.524   1.669 -1.1481  2.0390 -1.3592
25492SOL    HW279370   7.785   8.565   1.637 -0.2276  0.5173  0.5702
25493SOL     OW79371   5.036   6.423   4.513 -0.3538 -0.5048  0.6206
25493SOL    HW179372   4.997   6.456   4.594  0.3552 -1.9579  1.5857
25493SOL    HW279373   4.962   6.387   4.463 -0.8597  0.8229  0.3772
25494SOL     OW79374   3.429   8.916   4.744 -0.4297 -0.5113  0.1091
25494SOL    HW179375   3.359   8.930   4.681 -0.7098  0.4227  0.6196
25494SOL    HW279376   3.389   8.935   4.829  0.9987  2.2464  0.2460
25495SOL     OW79377   5.963   6.879   0.095  0.1362  0.7604  0.0487
25495SOL    HW179378   5.899   6.842   0.033  1.0348 -2.2058  0.7260
25495SOL    HW279379   6.041   6.894   0.042  0.4830 -0.5520  0.1399
25496SOL     OW79380   7.652   4.420   2.049 -0.2994  0.0541 -0.1854
25496SOL    HW179381   7.747   4.414   2.043 -0.2907  1.0660 -1.6108
25496SOL    HW279382   7.619   4.363   1.979 -0.7365 -0.1962  0.2182
25497SOL     OW79383  10.359   2.688   9.009 -0.0900  0.0858  0.6602
25497SOL    HW179384  10.282   2.733   9.042 -0.8033  0.0388 -0.8581
25497SOL    HW279385  10.427   2.755   9.006 -1.2447  1.3032 -1.9764
25498SOL     OW79386   5.065   0.068   4.638 -0.5852 -0.0700 -0.0962
25498SOL    HW179387   5.065   0.132   4.710 -2.2474  0.9798 -0.9638
25498SOL    HW279388   5.062   0.122   4.559  1.9433 -1.1708 -1.0545
25499SOL     OW79389   7.125   3.387   3.058 -0.0155 -0.1496 -0.3747
25499SOL    HW179390   7.111   3.306   3.008  0.1131  1.1904 -2.7455
25499SOL    HW279391   7.220   3.393   3.065 -0.0484 -0.8776  1.0768
25500SOL     OW79392   4.764   2.762   6.358  0.3091  0.5271  0.1888
25500SOL    HW179393   4.815   2.841   6.377 -1.0704  0.9751  2.3490
25500SOL    HW279394   4.721   2.781   6.274 -0.9211  2.6318  1.2082
25501SOL     OW79395   5.609   0.406   9.542  0.1597  0.6499 -0.2059
25501SOL    HW179396   5.697   0.370   9.528 -0.2790 -0.5238 -0.0954
25501SOL    HW279397   5.612   0.440   9.632  0.5272  0.6758 -0.2257
25502SOL     OW79398   1.706   9.992   0.084  0.4516  0.2429  0.1546
25502SOL    HW179399   1.633   9.949   0.040  1.1044  0.0118 -0.7285
25502SOL    HW279400   1.751   9.922   0.131 -0.5185  0.5632  1.6332
25503SOL     OW79401   6.365   7.942   8.200 -0.1368 -0.0516  0.8081
25503SOL    HW179402   6.348   8.019   8.255 -0.7621 -0.0312  0.5900
25503SOL    HW279403   6.307   7.952   8.125 -1.0210 -1.2493  1.2789
25504SOL     OW79404   7.636   0.942   6.739  0.2934  0.3310  0.7233
25504SOL    HW179405   7.659   0.869   6.682 -2.4255  0.3740 -0.5744
25504SOL    HW279406   7.714   0.954   6.794  1.0806 -3.1484  0.6395
25505SOL     OW79407   8.740   6.925   4.352  0.1872 -0.2831  0.6378
25505SOL    HW179408   8.807   6.983   4.388  0.0561 -0.3832  1.0551
25505SOL    HW279409   8.725   6.860   4.421  1.4955 -1.8103 -0.4459
25506SOL     OW79410   9.852   1.482   3.609  0.2647 -0.0061 -0.2686
25506SOL    HW179411   9.847   1.400   3.659 -2.0566  0.6253  0.6783
25506SOL    HW279412   9.764   1.492   3.572  0.6230  1.8398 -0.7140
25507SOL     OW79413   8.435   0.937   5.710  0.2815  0.3393  0.0858
25507SOL    HW179414   8.457   1.013   5.763 -0.6829 -0.8264  2.2885
25507SOL    HW279415   8.503   0.873   5.729  0.7056  0.3755 -1.2133
25508SOL     OW79416   3.097   3.285   0.623 -0.3652  0.2359 -0.2895
25508SOL    HW179417   3.015   3.238   0.633 -2.3371  2.9740 -1.9722
25508SOL    HW279418   3.082   3.343   0.547  3.3772  0.3951 -1.0890
25509SOL     OW79419   7.990   9.248   6.816  0.2657 -0.0361 -0.4934
25509SOL    HW179420   8.042   9.229   6.737 -0.7691 -0.5603 -1.0644
25509SOL    HW279421   7.904   9.272   6.782  0.3863  1.7994  0.3949
25510SOL     OW79422   2.172   9.431  10.473 -0.0262 -0.0061  0.1884
25510SOL    HW179423   2.204   9.437  10.563 -0.2495  1.1547  0.2101
25510SOL    HW279424   2.202   9.346  10.442 -0.3014 -0.6045  1.4936
25511SOL     OW79425   5.851   3.389   1.241  0.9049 -0.2030 -0.4866
25511SOL    HW179426   5.868   3.482   1.226 -0.8897  0.3671  0.8047
25511SOL    HW279427   5.886   3.346   1.163 -2.4550  1.9924 -3.5047
25512SOL     OW79428   8.222   9.684   3.940  0.3381  0.0406  0.2562
25512SOL    HW179429   8.193   9.633   4.016  1.4498 -0.5538  0.3106
25512SOL    HW279430   8.151   9.746   3.924  0.5786  0.9982  2.5245
25513SOL     OW79431   6.080   5.737   9.947  0.0536  0.0328 -0.3802
25513SOL    HW179432   5.988   5.718   9.967  0.6439 -0.9549  1.6490
25513SOL    HW279433   6.101   5.813  10.002  0.6432 -0.1757 -0.3163
25514SOL     OW79434   8.189   5.406   4.144  0.5040  0.2858 -0.0383
25514SOL    HW179435   8.258   5.465   4.175  0.2871  1.0604 -0.9830
25514SOL    HW279436   8.113   5.427   4.198  0.2176  1.4125 -0.8274
25515SOL     OW79437   7.736   3.563   2.449  0.5843 -0.3731  0.5638
25515SOL    HW179438   7.682   3.597   2.520  1.7314  1.0698  0.7850
25515SOL    HW279439   7.807   3.627   2.440 -0.8746  0.9778 -3.6247
25516SOL     OW79440   4.984   2.683  10.360  0.1449 -0.0167  0.0185
25516SOL    HW179441   4.963   2.612  10.421  0.0373 -0.1008 -0.1156
25516SOL    HW279442   5.072   2.662  10.328  0.5648  0.4866  0.7963
25517SOL     OW79443  10.090   0.967   1.366  0.2177 -0.5417  0.3643
25517SOL    HW179444  10.099   0.885   1.414 -0.5869 -1.9750 -1.7704
25517SOL    HW279445  10.153   0.959   1.294  1.3053  1.4794  1.0053
25518SOL     OW79446   6.467   7.958   0.426  0.2777 -0.1345  1.0502
25518SOL    HW179447   6.442   8.045   0.395 -1.1526 -0.3463  1.5311
25518SOL    HW279448   6.562   7.960   0.430  0.3824  0.7939 -0.7406
25519SOL     OW79449   7.290   6.486   5.672 -0.2488  0.1794  0.1490
25519SOL    HW179450   7.329   6.566   5.708  1.2300  0.1933 -1.3386
25519SOL    HW279451   7.256   6.439   5.748  2.1226  0.4913  1.5069
25520SOL     OW79452   7.515   0.862   7.254 -0.1658  0.6199 -0.0351
25520SOL    HW179453   7.600   0.877   7.295  0.0658 -0.8598  0.0750
25520SOL    HW279454   7.452   0.891   7.320  0.2319 -0.2294  0.7442
25521SOL     OW79455   6.492   4.202   7.178  0.1929 -0.3506  0.2748
25521SOL    HW179456   6.452   4.120   7.151 -0.4842  0.1001 -0.1071
25521SOL    HW279457   6.467   4.212   7.270  1.1061 -1.0524  0.6159
25522SOL     OW79458   8.142   8.223  10.388 -0.1716 -0.8738 -0.0624
25522SOL    HW179459   8.206   8.251  10.453 -0.1252  0.6562 -0.7359
25522SOL    HW279460   8.192   8.173  10.324  0.6461  1.2838 -1.2133
25523SOL     OW79461   1.156   3.136   0.959 -0.4136  0.4098  0.1599
25523SOL    HW179462   1.188   3.088   1.035 -3.0602 -0.3134  0.9579
25523SOL    HW279463   1.075   3.090   0.934 -0.8437  1.9990 -1.6658
25524SOL     OW79464   7.884  10.395   4.017 -0.3601 -0.0814  0.0594
25524SOL    HW179465   7.939  10.473   4.026  0.0008 -0.3969  0.7172
25524SOL    HW279466   7.850  10.379   4.106 -0.4650 -0.6433 -0.0756
25525SOL     OW79467   5.980   6.444   6.795  0.5645  0.5420 -0.0306
25525SOL    HW179468   5.954   6.533   6.772  1.2691  0.4709 -1.1331
25525SOL    HW279469   6.042   6.455   6.868  0.6920  0.9577 -0.2025
25526SOL     OW79470   2.130   6.713   3.436 -0.0688 -0.1275  0.5705
25526SOL    HW179471   2.201   6.771   3.411  0.7070 -1.3195 -0.1193
25526SOL    HW279472   2.125   6.720   3.532  0.1409  0.8936  0.5142
25527SOL     OW79473   6.493   3.484   7.116 -0.1987 -0.6220  0.1459
25527SOL    HW179474   6.494   3.398   7.074 -1.3114 -0.6103  0.0659
25527SOL    HW279475   6.559   3.478   7.185  0.1955 -1.3213 -0.2860
25528SOL     OW79476   0.894   2.853   8.809  0.4536  0.2090 -0.0009
25528SOL    HW179477   0.842   2.856   8.889  1.4039  2.6195  0.6083
25528SOL    HW279478   0.913   2.945   8.789  2.0620 -0.4407 -1.8008
25529SOL     OW79479   8.789   4.168  10.525 -0.4751 -0.0019 -0.2086
25529SOL    HW179480   8.819   4.077  10.515  0.7847  0.6027 -3.4246
25529SOL    HW279481   8.712   4.162  10.581  1.7514 -2.5024  2.9370
25530SOL     OW79482  10.474   3.876   7.050 -0.5795  0.3340  0.2601
25530SOL    HW179483  10.393   3.927   7.055 -0.5874  0.5910 -1.6599
25530SOL    HW279484  10.505   3.871   7.140 -2.6150  0.4121  1.0236
25531SOL     OW79485  10.423   4.415   6.731 -0.3894 -0.1584  0.7438
25531SOL    HW179486  10.457   4.345   6.676 -0.7481 -0.0874  0.4276
25531SOL    HW279487  10.345   4.378   6.772 -1.0606  0.3109 -0.0662
25532SOL     OW79488   9.154   6.572   5.280 -0.0947  0.4624 -0.8066
25532SOL    HW179489   9.110   6.634   5.222  0.2129  0.7965 -0.6892
25532SOL    HW279490   9.247   6.595   5.274 -0.0816  0.6449 -0.0125
25533SOL     OW79491   6.611   3.602   8.400 -0.1461 -0.7260 -0.1564
25533SOL    HW179492   6.584   3.511   8.414  0.4891 -0.9908 -0.6032
25533SOL    HW279493   6.699   3.607   8.437 -0.4327 -0.1129  0.4636
25534SOL     OW79494   7.489   8.996   9.294 -0.1744 -0.2179 -0.1836
25534SOL    HW179495   7.429   9.063   9.261  0.0678  0.6167  1.0101
25534SOL    HW279496   7.443   8.956   9.367 -1.7169 -3.6953 -2.7659
25535SOL     OW79497   5.030   2.066   8.379  0.2307 -0.5364  0.1403
25535SOL    HW179498   4.998   2.031   8.462 -0.7969 -1.2691 -0.5340
25535SOL    HW279499   4.958   2.049   8.317  0.2914  1.4870 -0.5391
25536SOL     OW79500   8.043   5.825   0.575  0.1194  0.2243 -0.3264
25536SOL    HW179501   8.102   5.776   0.517  0.0437 -0.9600  0.5744
25536SOL    HW279502   8.033   5.769   0.652 -0.9337  1.1241  0.2094
25537SOL     OW79503   5.833   4.588   2.875 -0.3613  0.3159  0.5095
25537SOL    HW179504   5.871   4.512   2.919  1.6403  0.7177 -0.4145
25537SOL    HW279505   5.859   4.663   2.929 -0.4542  0.5488  0.2320
25538SOL     OW79506  10.306   8.598   7.675 -0.3003 -0.1399 -0.8640
25538SOL    HW179507  10.296   8.614   7.769 -2.4921  2.4199 -1.4077
25538SOL    HW279508  10.236   8.535   7.654 -1.2794  0.9792 -1.0796
25539SOL     OW79509   5.639   9.653   3.152  0.5132  0.3523 -0.1530
25539SOL    HW179510   5.649   9.658   3.057 -0.5150  1.1081 -0.2411
25539SOL    HW279511   5.699   9.584   3.179  1.7401  0.9727 -1.2006
25540SOL     OW79512   0.352   4.781   7.758 -0.1961  0.8638 -0.3332
25540SOL    HW179513   0.371   4.791   7.665  3.2424 -1.3707 -0.0541
25540SOL    HW279514   0.287   4.711   7.762  1.3304 -0.6728 -1.0875
25541SOL     OW79515   6.212   3.623   6.470 -0.0651  0.5359 -0.5095
25541SOL    HW179516   6.306   3.608   6.464 -0.0828 -0.0225  0.4556
25541SOL    HW279517   6.173   3.559   6.411  0.1105 -0.0313 -0.0215
25542SOL     OW79518   8.740   7.871   9.963 -0.2082 -0.4819  0.2187
25542SOL    HW179519   8.796   7.882  10.040  0.8346  0.8160 -0.6801
25542SOL    HW279520   8.757   7.781   9.934  0.6926 -0.4187  0.5239
25543SOL     OW79521   8.243   9.902   2.161  0.3867  0.1142 -0.0521
25543SOL    HW179522   8.183   9.916   2.234  0.6986  0.8131  0.0861
25543SOL    HW279523   8.229   9.811   2.135 -0.3000  0.0948  0.3592
25544SOL     OW79524   1.608   4.993   8.462  0.0688 -0.0387  0.2021
25544SOL    HW179525   1.698   4.977   8.433 -0.2617 -3.2870  0.6048
25544SOL    HW279526   1.615   5.015   8.555  0.4542  0.1994  0.1176
25545SOL     OW79527   6.080   5.387   7.312  0.1226 -0.2232  0.9805
25545SOL    HW179528   6.023   5.440   7.256 -1.5549 -0.4686  2.3478
25545SOL    HW279529   6.144   5.449   7.346  0.2614  0.2148 -0.0373
25546SOL     OW79530   0.335   3.160   4.966  0.2725 -0.6857 -0.2928
25546SOL    HW179531   0.315   3.133   5.055  0.6420 -0.3736 -0.1129
25546SOL    HW279532   0.370   3.081   4.924 -1.0315 -1.1556 -0.5230
25547SOL     OW79533   2.697   9.494   8.384 -0.2583 -0.0695 -0.0637
25547SOL    HW179534   2.653   9.409   8.376  4.1839 -2.5508 -1.6300
25547SOL    HW279535   2.698   9.528   8.294 -0.1942  0.6523  0.2075
25548SOL     OW79536   2.052   7.356   0.495  0.1102  0.6108 -0.5568
25548SOL    HW179537   2.064   7.261   0.486 -3.2334  0.0351 -0.3170
25548SOL    HW279538   2.129   7.385   0.543  1.6534 -1.8234 -1.3515
25549SOL     OW79539   0.906   9.821   5.254  0.3078 -0.7289  0.0881
25549SOL    HW179540   0.964   9.894   5.233 -0.1569 -0.3505  0.1184
25549SOL    HW279541   0.849   9.812   5.177  2.4168 -3.1253 -1.3466
25550SOL     OW79542  10.746   9.557   4.962  0.0416  0.4153  0.2283
25550SOL    HW179543  10.813   9.588   4.901 -1.5043 -0.7901 -2.2459
25550SOL    HW279544  10.700   9.488   4.915 -1.5367 -0.3374  2.6559
25551SOL     OW79545   1.877  10.535   4.263  0.5256  0.3726 -1.0170
25551SOL    HW179546   1.873  10.471   4.192 -1.0120  0.5447 -1.1330
25551SOL    HW279547   1.921  10.611   4.224  1.4191 -0.2155 -1.1877
25552SOL     OW79548   9.395   6.489   2.132 -0.5781 -0.2549  0.2971
25552SOL    HW179549   9.327   6.542   2.090 -0.5458  0.3883  1.0165
25552SOL    HW279550   9.364   6.399   2.123 -0.5977 -0.1346 -1.0117
25553SOL     OW79551   5.219   8.766   2.451  0.0508 -0.4898  0.4526
25553SOL    HW179552   5.187   8.681   2.481 -0.3231 -0.0582  1.2884
25553SOL    HW279553   5.263   8.804   2.527  0.3319  0.0151  0.0478
25554SOL     OW79554   7.208   9.095   1.918 -0.3070  0.0881 -0.4996
25554SOL    HW179555   7.115   9.071   1.914 -0.4874  0.7088 -0.0141
25554SOL    HW279556   7.213   9.178   1.870 -0.0414  0.1823 -0.3063
25555SOL     OW79557   5.267   7.048  10.593 -0.0725  0.3897 -0.2862
25555SOL    HW179558   5.225   7.095  10.521 -0.6608  0.1944 -0.0733
25555SOL    HW279559   5.315   6.977  10.551  0.8567  1.1783 -0.6201
25556SOL     OW79560   2.928   0.846   9.920  0.1804  0.2307 -0.7625
25556SOL    HW179561   2.847   0.893   9.903 -0.9973 -1.3215  0.2151
25556SOL    HW279562   2.982   0.907   9.969 -0.4787  1.2071 -1.2168
25557SOL     OW79563   8.793   8.636   7.050  0.0232 -0.3633 -0.2250
25557SOL    HW179564   8.766   8.568   6.988  1.4172 -1.0531 -0.1167
25557SOL    HW279565   8.778   8.597   7.136  0.1299 -0.2361 -0.1490
25558SOL     OW79566   6.295   9.131  10.440 -0.1222  0.1197 -0.0378
25558SOL    HW179567   6.242   9.075  10.497  0.4926 -0.6850 -0.2483
25558SOL    HW279568   6.256   9.123  10.354 -0.1245  0.1229 -0.0374
25559SOL     OW79569   8.161   1.910   9.029  0.2132  0.3010 -0.2516
25559SOL    HW179570   8.112   1.910   9.111  2.1872  2.1793  1.0387
25559SOL    HW279571   8.121   1.980   8.977 -0.1814  0.0151 -0.3345
25560SOL     OW79572   0.559   8.311   6.791 -0.0758  0.3182 -0.0180
25560SOL    HW179573   0.594   8.242   6.847  0.7997  0.2749 -0.6055
25560SOL    HW279574   0.611   8.388   6.813  0.1041  0.3613 -0.5958
25561SOL     OW79575   2.598   7.597   5.533  0.5045 -0.3871 -0.0351
25561SOL    HW179576   2.676   7.639   5.495  1.7608 -1.2928  1.4556
25561SOL    HW279577   2.632   7.543   5.604 -1.6118  0.0212  1.3689
25562SOL     OW79578   6.869   2.219   4.869  0.0661 -0.0321  0.2371
25562SOL    HW179579   6.937   2.244   4.807 -1.4203 -0.8024 -1.8471
25562SOL    HW279580   6.789   2.258   4.833 -1.0669 -1.6026  0.9498
25563SOL     OW79581   3.164   0.364   1.198  0.0741 -0.3767 -0.2897
25563SOL    HW179582   3.251   0.399   1.220  0.6035 -1.3896 -0.6937
25563SOL    HW279583   3.175   0.269   1.204 -0.2412 -0.6667 -3.0106
25564SOL     OW79584   9.999   9.056   5.101 -0.1811 -0.0636 -0.3699
25564SOL    HW179585   9.976   8.972   5.141 -0.8411 -0.0571 -0.7184
25564SOL    HW279586  10.088   9.044   5.068 -0.1283 -0.4967 -0.0736
25565SOL     OW79587   5.041   1.470   7.497 -0.1205  0.3512  0.2267
25565SOL    HW179588   5.094   1.393   7.520 -2.1538 -0.4183  2.9552
25565SOL    HW279589   4.966   1.465   7.556 -2.2411  2.4569 -2.0437
25566SOL     OW79590   7.943   1.544   0.221  0.4994  0.4728 -0.0674
25566SOL    HW179591   7.976   1.455   0.219 -1.1559 -0.1812 -1.0607
25566SOL    HW279592   7.956   1.577   0.132  1.0186  1.1963  0.2665
25567SOL     OW79593   6.132   6.354   0.158 -0.2418  0.0677  0.9365
25567SOL    HW179594   6.038   6.343   0.174 -0.0487 -1.2643  1.2875
25567SOL    HW279595   6.173   6.291   0.217  0.8333 -0.0419  0.0902
25568SOL     OW79596   6.894   5.757   4.845  0.1942 -0.1908 -0.2644
25568SOL    HW179597   6.860   5.668   4.858 -0.2280 -0.1467 -0.9953
25568SOL    HW279598   6.817   5.809   4.823 -0.1467  1.1191  3.3513
25569SOL     OW79599   3.823   0.097   3.480 -0.8898  0.3293 -0.0623
25569SOL    HW179600   3.729   0.112   3.480 -0.7823  1.0661 -0.8418
25569SOL    HW279601   3.852   0.124   3.393  0.3159  1.9300  0.7861
25570SOL     OW79602   9.558   3.907   1.654  0.6259  0.3924  0.2820
25570SOL    HW179603   9.543   3.958   1.575  0.9197 -0.1378 -0.1167
25570SOL    HW279604   9.532   3.966   1.725 -2.3898 -0.0695 -0.2830
25571SOL     OW79605   5.042   4.991   8.492  0.0446 -0.1342  0.3113
25571SOL    HW179606   5.029   4.999   8.397  0.9555  1.2308  0.2728
25571SOL    HW279607   5.037   5.081   8.524 -2.2143 -0.7190  1.8641
25572SOL     OW79608   5.101   3.158   6.987 -0.5042 -0.6458 -0.1110
25572SOL    HW179609   5.151   3.077   6.997 -0.8001 -1.2330 -2.6137
25572SOL    HW279610   5.044   3.141   6.912 -0.7038  1.8140 -0.5998
25573SOL     OW79611   4.244   0.231   9.102  0.2345  0.4772  0.5826
25573SOL    HW179612   4.292   0.179   9.167  0.2608 -0.9973 -0.5633
25573SOL    HW279613   4.158   0.245   9.141  0.3085 -0.2472  1.0177
25574SOL     OW79614   1.389   6.756   6.901 -0.2750  0.2661  0.4565
25574SOL    HW179615   1.471   6.803   6.912 -1.1678  2.2233 -0.7997
25574SOL    HW279616   1.410   6.684   6.842  0.8393 -0.2404  1.4232
25575SOL     OW79617   1.425   1.030   2.783  0.3013  0.3057  0.4931
25575SOL    HW179618   1.392   0.942   2.805 -0.6231  0.9883  1.9617
25575SOL    HW279619   1.503   1.041   2.837  0.7848  0.1667 -0.1598
25576SOL     OW79620   1.863   8.058   7.262 -0.9923  0.0998 -0.5038
25576SOL    HW179621   1.821   8.006   7.332 -0.9821 -0.3602 -0.8364
25576SOL    HW279622   1.886   7.994   7.195 -1.7742  0.6501 -1.3152
25577SOL     OW79623   3.879   9.536   0.761  0.3486  0.4970  0.0821
25577SOL    HW179624   3.783   9.535   0.758  0.3275  0.0749  0.7977
25577SOL    HW279625   3.902   9.460   0.813  1.0260  1.5191  1.3187
25578SOL     OW79626   7.021  10.084   5.543 -0.3197 -0.1564 -0.6421
25578SOL    HW179627   7.011   9.989   5.537 -1.0947 -0.1720  0.5972
25578SOL    HW279628   7.114  10.100   5.524  0.1706 -1.3086  0.6327
25579SOL     OW79629   6.397   7.396   2.095 -0.2560  0.7040  0.3780
25579SOL    HW179630   6.420   7.357   2.011 -1.9837 -1.7403  0.9342
25579SOL    HW279631   6.480   7.428   2.131  0.9349 -0.6059 -1.0936
25580SOL     OW79632   5.730   2.970   0.316  0.4645 -0.5057  0.0654
25580SOL    HW179633   5.682   2.924   0.247 -0.2348  0.7181 -0.2836
25580SOL    HW279634   5.672   2.968   0.392  0.1932  0.2370 -0.1091
25581SOL     OW79635   3.780   2.887   3.262 -0.6395  0.1360  0.4015
25581SOL    HW179636   3.765   2.805   3.214 -0.7898 -0.2103  1.0285
25581SOL    HW279637   3.852   2.929   3.215 -0.9738 -0.0602 -0.2941
25582SOL     OW79638   6.330   0.496   2.990 -0.5242  0.5865  0.1676
25582SOL    HW179639   6.354   0.585   3.013  1.1188  0.2037  0.0315
25582SOL    HW279640   6.355   0.487   2.899  3.2106 -1.1914  1.1853
25583SOL     OW79641   7.378   5.104   1.809  0.0871  0.5393 -0.3422
25583SOL    HW179642   7.331   5.164   1.866 -1.5063 -0.6556 -0.3479
25583SOL    HW279643   7.444   5.064   1.866  0.0399  1.0376  0.0719
25584SOL     OW79644   5.244   4.391   9.573 -0.3803  0.4995  0.2987
25584SOL    HW179645   5.280   4.367   9.658  0.6277  0.6114 -0.0756
25584SOL    HW279646   5.289   4.472   9.550 -0.3943  0.3025 -0.4746
25585SOL     OW79647   4.120   3.666   6.003 -0.3098  0.0552  0.4238
25585SOL    HW179648   4.185   3.697   5.940 -0.8405  1.5913  0.5681
25585SOL    HW279649   4.063   3.742   6.017 -1.9103 -1.1188  0.5881
25586SOL     OW79650   6.641   0.437   9.717  0.1043 -0.1935  0.2869
25586SOL    HW179651   6.663   0.529   9.727 -0.5191 -0.1363  1.1893
25586SOL    HW279652   6.595   0.414   9.797 -0.4138 -1.0985 -0.2542
25587SOL     OW79653   1.239   0.892   9.597 -0.2291  0.8421  0.2767
25587SOL    HW179654   1.248   0.900   9.692 -1.1975  1.8443  0.2906
25587SOL    HW279655   1.151   0.858   9.584 -0.1979  0.9705 -0.2864
25588SOL     OW79656   8.724   1.106   4.724 -0.2288 -0.2481  0.1318
25588SOL    HW179657   8.671   1.111   4.645 -1.6591 -1.1501  1.0117
25588SOL    HW279658   8.802   1.159   4.704 -1.2033  0.6699 -1.3639
25589SOL     OW79659   4.401   9.365   2.227  0.5666 -0.2897  0.5194
25589SOL    HW179660   4.363   9.297   2.284 -1.3244  0.5215  0.2885
25589SOL    HW279661   4.387   9.332   2.138 -3.0896  1.6006  0.2311
25590SOL     OW79662   1.808   5.707   8.484  0.4840  0.1359  0.5733
25590SOL    HW179663   1.884   5.763   8.468  0.0407  1.1287  1.7602
25590SOL    HW279664   1.845   5.622   8.506  1.2045  0.2432 -0.1477
25591SOL     OW79665   4.602   9.764   7.456  0.5425 -0.0647 -0.1745
25591SOL    HW179666   4.576   9.850   7.423 -1.5470 -0.9157 -0.9487
25591SOL    HW279667   4.607   9.775   7.551 -0.2572  0.8002 -0.2108
25592SOL     OW79668   6.080   0.746   4.032 -0.0463  0.5181  0.4940
25592SOL    HW179669   6.162   0.736   4.080 -0.0612  2.2670  0.9485
25592SOL    HW279670   6.107   0.769   3.943 -0.0575 -0.1544  0.3056
25593SOL     OW79671  10.202   1.352   3.721  1.2410  0.1219  0.1723
25593SOL    HW179672  10.254   1.287   3.768  0.1184 -0.6284  0.4073
25593SOL    HW279673  10.114   1.343   3.756  1.1030  1.9532  0.3822
25594SOL     OW79674   2.181   6.188   5.122 -0.0893 -0.1116  0.3959
25594SOL    HW179675   2.191   6.114   5.183  1.1203  0.4712  0.9440
25594SOL    HW279676   2.136   6.255   5.174  2.3306  0.9752  1.2479
25595SOL     OW79677   8.419   7.349   3.170 -0.6525  0.3816  0.1991
25595SOL    HW179678   8.474   7.348   3.248 -0.8764  1.0630  0.3778
25595SOL    HW279679   8.330   7.357   3.204 -0.5980  4.0077 -0.1094
25596SOL     OW79680   8.455   4.221   7.112 -0.0432 -1.2146  0.3603
25596SOL    HW179681   8.372   4.175   7.126 -0.9492 -0.4845 -2.1605
25596SOL    HW279682   8.433   4.314   7.121  0.3890 -0.9974 -0.6627
25597SOL     OW79683   8.523   9.738   6.140 -0.1651  0.0947  0.5550
25597SOL    HW179684   8.602   9.700   6.103  0.7190  0.0493  2.3844
25597SOL    HW279685   8.544   9.752   6.232 -1.6212  1.9283  0.6593
25598SOL     OW79686   7.205   2.978   8.323  0.6057  0.6883  0.5466
25598SOL    HW179687   7.153   3.035   8.380 -1.3513  0.0248 -0.4947
25598SOL    HW279688   7.167   2.891   8.335  1.5216  0.1734 -0.2066
25599SOL     OW79689   8.607  10.608   9.888 -0.5310 -0.5544  0.0531
25599SOL    HW179690   8.662  10.552   9.942 -0.5494 -0.3363  0.2971
25599SOL    HW279691   8.641  10.697   9.902  0.5478 -0.6638 -1.5612
25600SOL     OW79692   8.528   0.121   1.631 -0.4999  0.1070  1.0483
25600SOL    HW179693   8.435   0.145   1.627 -0.0416  1.9929  0.8369
25600SOL    HW279694   8.572   0.185   1.576  0.8853 -1.1499  0.6201
25601SOL     OW79695   2.869   7.065   8.597  0.3983 -0.0585 -0.5705
25601SOL    HW179696   2.802   7.075   8.529  0.6420  0.6707 -0.7146
25601SOL    HW279697   2.889   6.972   8.598 -0.6267 -0.2916 -0.5220
25602SOL     OW79698   8.819   4.267   4.759 -0.3879  0.1119  0.1748
25602SOL    HW179699   8.805   4.173   4.766 -0.6711 -0.0114 -1.5666
25602SOL    HW279700   8.914   4.278   4.764 -0.4175 -0.1359  1.4945
25603SOL     OW79701  10.646   4.197   3.709 -0.3380  0.7656  0.5517
25603SOL    HW179702  10.706   4.217   3.638 -0.6858  2.6153  0.7413
25603SOL    HW279703  10.694   4.221   3.788 -0.5108  0.1474  0.8519
25604SOL     OW79704   9.028   2.160   1.355 -0.6724 -0.0634 -0.3510
25604SOL    HW179705   9.020   2.255   1.362 -1.5514 -0.1501 -0.0414
25604SOL    HW279706   8.938   2.128   1.348 -0.3367 -0.6955 -3.3064
25605SOL     OW79707   0.940   1.472   1.472 -0.7084  0.5671 -0.2947
25605SOL    HW179708   0.857   1.443   1.510  0.9472 -2.0819  1.6199
25605SOL    HW279709   0.984   1.520   1.543  1.1967 -1.9310  0.3511
25606SOL     OW79710   1.564  10.296   4.594 -0.4823 -0.1147 -0.4660
25606SOL    HW179711   1.542  10.250   4.513 -0.0017 -0.1339 -0.5907
25606SOL    HW279712   1.644  10.345   4.573  0.0199 -0.6356  0.1835
25607SOL     OW79713   5.309   8.600   7.722  0.2968  0.0847 -0.1242
25607SOL    HW179714   5.226   8.559   7.697 -0.5578  1.3824  0.4719
25607SOL    HW279715   5.318   8.580   7.815 -0.4451  1.7306  0.3233
25608SOL     OW79716   9.289   9.758   5.963 -0.2112 -0.0522  0.4721
25608SOL    HW179717   9.294   9.726   5.873 -0.2252  0.9767  0.0879
25608SOL    HW279718   9.266   9.681   6.015  0.6240 -0.8379 -0.2876
25609SOL     OW79719   0.932  10.465   4.767  0.3752  0.0933 -0.2642
25609SOL    HW179720   0.970  10.401   4.707  1.3544 -0.9538  1.4057
25609SOL    HW279721   1.006  10.518   4.796 -0.0291  0.3810  0.2549
25610SOL     OW79722   0.862   2.554  10.233 -0.0055 -0.1927 -0.1921
25610SOL    HW179723   0.801   2.628  10.227  1.8282  1.4386  0.1270
25610SOL    HW279724   0.942   2.592  10.268  0.9329 -2.4308  0.2795
25611SOL     OW79725   6.648   3.114   0.803  0.4434  0.6754 -0.0612
25611SOL    HW179726   6.689   3.079   0.882 -0.4022 -0.5635 -0.1337
25611SOL    HW279727   6.717   3.109   0.736  0.3899 -0.7847 -0.0335
25612SOL     OW79728   5.575  10.697   3.583  0.1673 -0.2524  0.0548
25612SOL    HW179729   5.635  10.647   3.638 -0.0088 -1.6493 -0.9835
25612SOL    HW279730   5.600  10.789   3.598  1.1329 -0.6812  1.2535
25613SOL     OW79731   1.559   1.053   4.467  0.4012 -0.0297 -0.3023
25613SOL    HW179732   1.554   1.002   4.547  0.1657 -0.5327 -0.6348
25613SOL    HW279733   1.606   0.997   4.405 -0.4822 -0.1406 -0.8889
25614SOL     OW79734   1.268   7.834   0.418 -0.2960  0.5908 -0.2086
25614SOL    HW179735   1.253   7.763   0.480  1.6775  0.3627  0.0555
25614SOL    HW279736   1.197   7.897   0.436 -0.7796 -0.2704  1.0534
25615SOL     OW79737   7.664   0.616   1.541 -0.8569 -0.0233 -0.2828
25615SOL    HW179738   7.579   0.621   1.497 -0.7247  0.5220 -0.4807
25615SOL    HW279739   7.693   0.526   1.527 -1.6576 -0.3879  0.2638
25616SOL     OW79740   9.137   8.961   7.487 -0.1262  0.4543  0.2013
25616SOL    HW179741   9.067   9.008   7.533 -0.6138 -0.7787  0.7615
25616SOL    HW279742   9.207   9.025   7.478 -0.7939  1.3032  0.8914
25617SOL     OW79743   8.710   9.784   4.054 -0.3684  0.7517 -0.0229
25617SOL    HW179744   8.624   9.798   4.014  0.3377  4.0419 -0.6207
25617SOL    HW279745   8.705   9.831   4.138  0.4650 -0.1110  0.5295
25618SOL     OW79746  10.314   0.108   7.296 -0.3533  0.5447  0.1486
25618SOL    HW179747  10.344   0.049   7.227 -0.3751  0.1292  0.4875
25618SOL    HW279748  10.360   0.190   7.280 -0.0340  0.3176 -0.1047
25619SOL     OW79749   1.093  10.052   3.323 -0.6258  0.5007 -0.3334
25619SOL    HW179750   1.093   9.956   3.329 -0.8679  0.5667  1.2972
25619SOL    HW279751   1.093  10.070   3.229  0.4810 -1.0886 -0.6962
25620SOL     OW79752   6.732   9.524   5.221 -0.1580  0.2170 -0.4547
25620SOL    HW179753   6.701   9.522   5.312 -0.1431 -0.7041 -0.4566
25620SOL    HW279754   6.809   9.580   5.224  1.0740 -1.4379  0.5355
25621SOL     OW79755   3.064  10.743   8.983  0.3121 -0.5940 -0.6676
25621SOL    HW179756   3.047  10.680   8.913  1.0817  0.4320 -1.8086
25621SOL    HW279757   3.073  10.827   8.938  0.1548  0.2068  0.7426
25622SOL     OW79758   7.519  10.237   8.157  0.3204  0.8001 -0.0902
25622SOL    HW179759   7.547  10.146   8.152  1.6057  1.1978 -0.3536
25622SOL    HW279760   7.434  10.233   8.202  0.3814 -0.5091 -0.0516
25623SOL     OW79761   9.448   0.301   5.118  0.4279  0.2237 -0.4673
25623SOL    HW179762   9.527   0.284   5.067  0.8845 -2.7831  1.0436
25623SOL    HW279763   9.377   0.264   5.066  0.5492 -0.5316 -0.1031
25624SOL     OW79764   2.035   1.562   9.856 -0.2875  0.1376  0.2408
25624SOL    HW179765   2.046   1.528   9.767 -1.1273  1.0902 -0.2457
25624SOL    HW279766   2.066   1.491   9.912  2.4473  0.3520 -0.8152
25625SOL     OW79767   4.267   8.844   2.668  0.2266  0.0900  0.6203
25625SOL    HW179768   4.204   8.854   2.739  1.4055  1.5944  1.5080
25625SOL    HW279769   4.253   8.754   2.637 -3.4721  0.8387 -0.3799
25626SOL     OW79770   7.186  10.188   0.691 -0.3613 -0.6205 -0.6441
25626SOL    HW179771   7.096  10.210   0.713 -0.3492 -1.3349  0.1286
25626SOL    HW279772   7.234  10.193   0.774  0.7394  1.6547 -1.3016
25627SOL     OW79773   2.889   1.454   8.811  0.0243  0.2031 -0.5272
25627SOL    HW179774   2.822   1.509   8.772  0.0953  0.7474  0.0968
25627SOL    HW279775   2.885   1.372   8.762 -0.5537  0.5162 -1.0109
25628SOL     OW79776   1.924   4.142   4.486  0.1077  0.3300 -0.4521
25628SOL    HW179777   1.925   4.207   4.416 -1.2790  1.2690  0.3364
25628SOL    HW279778   1.949   4.060   4.444 -1.7176  0.6361 -2.3064
25629SOL     OW79779   5.956   4.850   7.239  0.2041  0.1887 -0.1783
25629SOL    HW179780   5.918   4.928   7.279 -1.7772 -0.6983 -0.2385
25629SOL    HW279781   6.026   4.884   7.183  0.9924  1.6940  1.6054
25630SOL     OW79782   1.493  10.679   2.476 -0.0999  0.0823  0.2487
25630SOL    HW179783   1.535  10.605   2.433  0.3596  0.2139  0.4597
25630SOL    HW279784   1.554  10.752   2.463 -0.0329  0.1608  0.9813
25631SOL     OW79785   4.606   7.077  10.570 -0.4631 -0.5880 -0.2289
25631SOL    HW179786   4.581   6.993  10.532 -1.7127 -0.4624  0.2713
25631SOL    HW279787   4.558   7.082  10.652  0.2192  0.2742  0.1427
25632SOL     OW79788   3.999   5.668   1.802 -0.0785 -0.2037 -0.2325
25632SOL    HW179789   3.921   5.655   1.748 -0.4790  0.4804  0.1698
25632SOL    HW279790   4.001   5.762   1.818  0.7346 -0.2417 -0.0864
25633SOL     OW79791   0.315   7.979  10.112  0.0521  0.3125  0.0309
25633SOL    HW179792   0.337   8.049  10.050  1.4606 -0.6011 -0.5630
25633SOL    HW279793   0.400   7.945  10.141 -0.5896 -1.2797  0.1429
25634SOL     OW79794   2.906   9.569   4.660 -0.8818 -0.0973 -0.2807
25634SOL    HW179795   2.902   9.491   4.714  0.3348  0.2956  0.4407
25634SOL    HW279796   2.874   9.639   4.716 -0.1583  0.2234 -0.2582
25635SOL     OW79797   5.474   6.326   7.477 -0.6318  0.5807  0.0911
25635SOL    HW179798   5.505   6.391   7.415 -1.7314  0.6563 -0.4095
25635SOL    HW279799   5.552   6.298   7.524  0.2239  0.5418 -1.3053
25636SOL     OW79800   0.806   8.088   2.170  0.1393  0.4934 -0.0424
25636SOL    HW179801   0.733   8.122   2.222  1.2798  2.0000  0.6246
25636SOL    HW279802   0.859   8.038   2.232 -1.0679 -1.9452 -0.8393
25637SOL     OW79803   7.893   3.878   8.286  0.4979 -0.2376 -0.1564
25637SOL    HW179804   7.805   3.898   8.319  0.5476  0.5314 -0.4694
25637SOL    HW279805   7.885   3.792   8.246 -0.3691  0.2556 -1.0799
25638SOL     OW79806   0.184   1.296   0.446  0.0309  0.3639 -0.2871
25638SOL    HW179807   0.102   1.248   0.454 -0.3421  0.7636 -1.5528
25638SOL    HW279808   0.223   1.291   0.533 -0.7257 -0.9216  0.0009
25639SOL     OW79809   5.665   7.386   4.476  0.7413  0.5181  0.4035
25639SOL    HW179810   5.744   7.440   4.482  2.7661 -2.2180  0.3448
25639SOL    HW279811   5.637   7.375   4.567  1.0284  0.7184  0.5166
25640SOL     OW79812   4.886   0.004   4.082  0.7649  0.0212 -0.3281
25640SOL    HW179813   4.894  -0.076   4.029  0.1931 -0.7992  0.7765
25640SOL    HW279814   4.974   0.018   4.117  0.5820 -0.9601  0.5947
25641SOL     OW79815   3.466   7.195   5.717  0.5790  0.7915  0.1890
25641SOL    HW179816   3.392   7.141   5.743  1.8550 -2.2250 -1.8619
25641SOL    HW279817   3.446   7.282   5.752 -3.4766 -0.0468  0.4097
25642SOL     OW79818  10.677   3.499   3.294  0.1794 -0.3110 -0.5118
25642SOL    HW179819  10.649   3.413   3.263  2.4418 -0.4799 -2.3934
25642SOL    HW279820  10.700   3.547   3.214  0.5058  1.4562  0.5934
25643SOL     OW79821   0.498   9.080   0.667  0.1300 -0.6015  0.4091
25643SOL    HW179822   0.566   9.148   0.668  1.7347 -2.1315 -0.5280
25643SOL    HW279823   0.442   9.102   0.742  2.2834  0.0773  1.9058
25644SOL     OW79824   7.428   4.050   3.826  0.4091  0.5332  0.2976
25644SOL    HW179825   7.375   4.129   3.816  1.4393  1.2549  0.3716
25644SOL    HW279826   7.425   4.007   3.741  1.2299  1.5631 -0.2798
25645SOL     OW79827   2.118   4.521   4.288  0.2624 -0.2252 -0.0524
25645SOL    HW179828   2.045   4.465   4.315  1.4149 -1.6723  0.2048
25645SOL    HW279829   2.078   4.606   4.270 -1.4086 -0.8509  0.5167
25646SOL     OW79830   2.378   0.205   7.184 -0.3580 -0.7367 -0.2827
25646SOL    HW179831   2.413   0.148   7.116  0.0609  0.4901 -1.1353
25646SOL    HW279832   2.391   0.157   7.265  0.7481 -1.4969 -0.8892
25647SOL     OW79833   7.468   1.699   7.903  0.2679  0.1235  0.5870
25647SOL    HW179834   7.439   1.767   7.841 -0.6036 -1.2271 -0.5698
25647SOL    HW279835   7.562   1.714   7.913  0.7992 -0.5189 -2.3579
25648SOL     OW79836   5.370   7.035   6.276 -0.1285  0.2206  0.2932
25648SOL    HW179837   5.355   6.966   6.211  1.9727  0.8054 -0.8947
25648SOL    HW279838   5.434   6.998   6.337 -0.7934  0.3007  1.0711
25649SOL     OW79839   5.416   6.641   8.796  0.4135 -0.1110  0.4911
25649SOL    HW179840   5.449   6.729   8.774 -1.5559  0.6497  0.3993
25649SOL    HW279841   5.321   6.650   8.796  0.0447 -2.7409 -1.5725
25650SOL     OW79842   1.276  10.473   4.565 -0.0596 -0.3218  0.1174
25650SOL    HW179843   1.285  10.563   4.535  1.0016 -1.2975 -2.9206
25650SOL    HW279844   1.366  10.443   4.576 -0.3910 -1.1491  0.6706
25651SOL     OW79845   1.087   2.460   8.536 -0.2692  0.1336  0.1380
25651SOL    HW179846   1.153   2.395   8.510 -1.3609 -1.0778  0.2595
25651SOL    HW279847   1.064   2.435   8.626 -0.6866  0.7219  0.1981
25652SOL     OW79848   8.890   6.853   6.471  0.4725  0.2321 -0.2210
25652SOL    HW179849   8.956   6.787   6.448 -1.5272 -1.0488 -2.7348
25652SOL    HW279850   8.840   6.813   6.542 -0.5441 -0.9499 -1.5358
25653SOL     OW79851   0.266   0.123   9.012  0.4748 -0.3486 -0.2498
25653SOL    HW179852   0.211   0.047   9.031 -0.3767  0.1357 -0.7242
25653SOL    HW279853   0.206   0.197   9.014  1.4881  0.4893  1.4150
25654SOL     OW79854   7.271   1.212  10.057 -0.0946 -0.6307 -0.2164
25654SOL    HW179855   7.188   1.212  10.104 -1.5927  0.3839 -2.6429
25654SOL    HW279856   7.337   1.225  10.124 -1.7186 -2.7639  1.9932
25655SOL     OW79857   3.108   5.686   9.621 -0.0978 -0.2806  0.1266
25655SOL    HW179858   3.013   5.688   9.620 -0.1412  0.9781  2.0833
25655SOL    HW279859   3.130   5.620   9.686  0.3700 -0.4534 -0.2013
25656SOL     OW79860  10.536   5.547   4.197 -0.0814 -0.2619 -0.1315
25656SOL    HW179861  10.534   5.486   4.271  2.2836 -0.6143 -0.2700
25656SOL    HW279862  10.601   5.509   4.138 -0.8365  0.8080 -1.6987
25657SOL     OW79863   0.706   2.658   5.391 -0.7421  0.1598  0.2623
25657SOL    HW179864   0.623   2.701   5.368 -0.9005 -0.7499 -0.9332
25657SOL    HW279865   0.694   2.632   5.483 -1.5924  0.4550  0.2452
25658SOL     OW79866   7.981   8.559  10.562 -0.8737 -0.2362  0.1945
25658SOL    HW179867   7.938   8.600  10.487  1.5453 -0.1786 -1.2467
25658SOL    HW279868   8.039   8.627  10.597 -2.5979  0.0687  2.8101
25659SOL     OW79869   0.663   4.160   7.477 -0.0228 -0.1714 -0.1458
25659SOL    HW179870   0.606   4.191   7.406  0.9260 -0.2390 -0.9558
25659SOL    HW279871   0.741   4.215   7.471  0.6141 -1.0251  0.0127
25660SOL     OW79872   4.952   3.215   9.165  0.4485  0.2667 -0.1159
25660SOL    HW179873   4.945   3.120   9.162 -0.2167  0.2201  1.7605
25660SOL    HW279874   5.040   3.232   9.198  0.0873  0.2582  0.8697
25661SOL     OW79875   9.811   2.996   9.238  0.0263 -0.0228 -0.2294
25661SOL    HW179876   9.719   3.012   9.259  0.2098  2.7183 -1.1364
25661SOL    HW279877   9.808   2.931   9.167 -1.1206 -0.7251  0.4350
25662SOL     OW79878   5.041   4.629  10.348  0.2253 -0.1265 -0.3795
25662SOL    HW179879   5.027   4.535  10.358  0.6475 -0.0929  0.5885
25662SOL    HW279880   5.121   4.637  10.295  1.0872 -0.3238  0.8638
25663SOL     OW79881   2.580   0.583   8.613 -0.1772  0.0457  0.0877
25663SOL    HW179882   2.593   0.678   8.616 -2.2313  0.4415 -1.5128
25663SOL    HW279883   2.512   0.567   8.679  1.3779 -0.6168  1.6011
25664SOL     OW79884   7.473   9.027   1.915 -0.0781  0.2747  0.4711
25664SOL    HW179885   7.386   9.065   1.922 -0.4668 -0.8446  2.6011
25664SOL    HW279886   7.458   8.934   1.896  0.6794  0.2355 -0.0111
25665SOL     OW79887   0.535   0.610   5.870 -0.1166 -0.2013 -0.9673
25665SOL    HW179888   0.563   0.579   5.784 -0.5214  0.1671 -1.2360
25665SOL    HW279889   0.469   0.677   5.851 -0.6887 -0.5827 -0.3564
25666SOL     OW79890   0.902   5.536   1.238  0.1092 -0.1831 -0.4891
25666SOL    HW179891   0.929   5.622   1.270 -0.8145  0.3527 -1.0997
25666SOL    HW279892   0.890   5.483   1.317 -0.9173  0.7469  0.0051
25667SOL     OW79893   8.273   8.426   9.016 -0.0030  0.9369  0.3217
25667SOL    HW179894   8.317   8.406   9.098 -0.6893  0.0755  0.4886
25667SOL    HW279895   8.205   8.489   9.039 -1.9141 -1.2031  0.9323
25668SOL     OW79896   4.886   2.173   6.849 -0.1250 -0.2101 -0.0665
25668SOL    HW179897   4.945   2.153   6.922  0.6322 -2.0834 -1.1242
25668SOL    HW279898   4.800   2.182   6.890  0.6980  1.6623  1.3931
25669SOL     OW79899   4.023   7.521   0.280 -0.5221  0.7903  0.0682
25669SOL    HW179900   3.988   7.550   0.364 -0.3339 -0.8896  0.7654
25669SOL    HW279901   4.118   7.530   0.289 -0.5334  1.2416 -0.2234
25670SOL     OW79902   3.929   2.719   2.051  0.0417  0.0017  0.0085
25670SOL    HW179903   3.890   2.632   2.057 -2.1593  0.7993 -1.7275
25670SOL    HW279904   3.941   2.734   1.958  0.1877  1.6654  0.2684
25671SOL     OW79905   4.066   1.504   4.808 -0.4848  0.1582 -0.2071
25671SOL    HW179906   4.011   1.516   4.730 -0.2716  0.6643 -0.2847
25671SOL    HW279907   4.027   1.560   4.874 -1.0568 -0.7778  0.2658
25672SOL     OW79908   5.518  10.613   7.212 -0.2297 -0.2181  0.1940
25672SOL    HW179909   5.479  10.685   7.261  1.2850 -0.4584  1.8988
25672SOL    HW279910   5.605  10.645   7.188  0.4753 -1.4416  1.0013
25673SOL     OW79911   1.940   2.883   4.344 -0.4026  0.2419  0.1116
25673SOL    HW179912   1.942   2.942   4.419 -0.2880 -0.2271  0.4756
25673SOL    HW279913   2.019   2.829   4.353 -0.5804 -0.0655 -0.1432
25674SOL     OW79914   1.851   3.629   4.821  0.2258  0.1523  0.1913
25674SOL    HW179915   1.914   3.557   4.814  0.7688  0.6743 -0.4375
25674SOL    HW279916   1.898   3.705   4.787 -1.0164  0.3979 -1.0889
25675SOL     OW79917   0.950   1.257   9.919 -0.3986 -0.2814 -0.2020
25675SOL    HW179918   0.965   1.293   9.832  0.9337 -1.4462 -0.4891
25675SOL    HW279919   0.872   1.303   9.951 -0.2260  0.9955 -1.5260
25676SOL     OW79920   1.833   7.579   9.736  0.2815 -0.0164  0.1686
25676SOL    HW179921   1.759   7.533   9.697 -1.9079  1.3923  2.3776
25676SOL    HW279922   1.813   7.672   9.722  1.9136  0.3992  0.3902
25677SOL     OW79923  10.132   7.844   3.845 -0.0958  0.0066  0.1378
25677SOL    HW179924  10.185   7.769   3.816 -0.8245 -0.4190 -0.1168
25677SOL    HW279925  10.108   7.822   3.935 -0.9749 -0.4510 -0.1996
25678SOL     OW79926   0.492   9.619   4.269  0.1576  0.7469  0.2757
25678SOL    HW179927   0.520   9.709   4.258  0.5324  0.6821  0.6406
25678SOL    HW279928   0.436   9.620   4.347 -2.1942  1.1480 -1.3281
25679SOL     OW79929   2.111   0.858   0.684  0.0647 -0.1986 -0.0605
25679SOL    HW179930   2.141   0.894   0.601 -0.2625 -0.7853 -0.4326
25679SOL    HW279931   2.174   0.892   0.748  1.6857 -1.5571 -0.8406
25680SOL     OW79932   5.444   1.545   8.774  0.1925 -0.4107 -0.0834
25680SOL    HW179933   5.503   1.573   8.844  1.4267  0.4521 -1.3922
25680SOL    HW279934   5.495   1.481   8.724 -0.1965 -0.1229 -0.8705
25681SOL     OW79935   3.381  10.328   6.539 -0.2134  0.4524 -0.1670
25681SOL    HW179936   3.345  10.335   6.627  0.2899 -1.0216  0.1903
25681SOL    HW279937   3.305  10.320   6.482 -0.5674 -2.4512  0.5571
25682SOL     OW79938   0.112   9.219   1.794 -0.2848  0.2063 -0.4547
25682SOL    HW179939   0.123   9.307   1.829 -0.3099  0.5414 -1.2797
25682SOL    HW279940   0.200   9.181   1.798 -0.5012 -0.2084  1.1087
25683SOL     OW79941   8.352  10.395   3.771 -0.2249 -0.0699  0.1596
25683SOL    HW179942   8.397  10.353   3.699 -1.5832 -1.3802  0.0184
25683SOL    HW279943   8.420  10.413   3.836  0.9087  0.5620 -1.1605
25684SOL     OW79944   5.852   2.835   5.804  0.2390 -0.0257 -0.3342
25684SOL    HW179945   5.927   2.812   5.858 -0.1370 -1.1171 -0.2589
25684SOL    HW279946   5.890   2.881   5.729  0.9329 -0.1529 -0.0648
25685SOL     OW79947   4.971   6.010   8.680 -0.4159  0.4061  0.0339
25685SOL    HW179948   4.969   5.981   8.771 -0.5277  0.1644 -0.0447
25685SOL    HW279949   4.889   5.978   8.642 -0.6774  1.0782  0.0215
25686SOL     OW79950   1.872   4.813   3.438 -0.1420 -0.0532  0.5425
25686SOL    HW179951   1.807   4.883   3.430  1.2113  1.2497  0.4280
25686SOL    HW279952   1.821   4.734   3.457 -1.6925  1.0190  1.0011
25687SOL     OW79953   8.590   9.552   2.701  0.0713 -0.1310  0.0775
25687SOL    HW179954   8.549   9.571   2.786  0.2527  1.0613 -0.0816
25687SOL    HW279955   8.682   9.535   2.722 -0.6674 -4.4062  0.6337
25688SOL     OW79956   9.588   8.371  10.649 -0.2478 -0.2737 -0.6904
25688SOL    HW179957   9.554   8.456  10.621  1.3061  0.7929  0.4932
25688SOL    HW279958   9.536   8.349  10.727  1.1980  1.0409  0.7286
25689SOL     OW79959   6.597   9.500   1.719  0.1096  0.1099  1.2956
25689SOL    HW179960   6.507   9.496   1.686  0.2600 -0.6069  0.9478
25689SOL    HW279961   6.652   9.493   1.641  0.4661 -0.8554  1.6227
25690SOL     OW79962   2.029   8.631   0.643  0.8139 -0.1708  1.1550
25690SOL    HW179963   1.995   8.542   0.635  0.2050  0.2557 -2.2430
25690SOL    HW279964   2.123   8.623   0.628  1.0383 -0.3657  2.4892
25691SOL     OW79965   1.584   8.853   1.358 -0.2326 -0.9020 -0.5782
25691SOL    HW179966   1.650   8.837   1.425  0.9477  1.2382 -1.1369
25691SOL    HW279967   1.504   8.869   1.407  0.7527  1.3481  0.4392
25692SOL     OW79968   4.498   3.206   7.679  0.1619 -0.0358 -0.3693
25692SOL    HW179969   4.532   3.143   7.741 -0.0874 -0.4190 -0.6166
25692SOL    HW279970   4.547   3.190   7.598  0.9634  0.9085 -0.0939
25693SOL     OW79971   3.662   4.733   5.299 -0.6133  0.4556  0.3151
25693SOL    HW179972   3.735   4.794   5.296 -0.8996  0.8772  1.5739
25693SOL    HW279973   3.609   4.761   5.373 -1.4728 -0.5095  0.0999
25694SOL     OW79974   3.911   3.746   6.589 -0.1647  0.0570 -0.1327
25694SOL    HW179975   3.919   3.832   6.631  2.4087 -0.1918  0.0073
25694SOL    HW279976   3.987   3.739   6.533 -0.6973 -1.8664 -0.6933
25695SOL     OW79977   2.028   2.001   9.526 -0.4574  0.1127  0.3757
25695SOL    HW179978   1.960   2.018   9.590 -1.1656 -1.5683  0.1095
25695SOL    HW279979   2.063   1.915   9.548  0.8051  0.4406 -0.1863
25696SOL     OW79980   4.618   1.574   8.748 -0.3832  0.0029  0.1409
25696SOL    HW179981   4.617   1.482   8.777  0.8153 -0.1227 -0.1455
25696SOL    HW279982   4.652   1.570   8.659  0.2315  0.7823  0.3325
25697SOL     OW79983   9.903   1.778   9.928  0.4816 -0.1612  0.1050
25697SOL    HW179984   9.957   1.854   9.908  1.5825 -1.0933 -0.5539
25697SOL    HW279985   9.921   1.759  10.020  1.7039 -0.7538 -0.2289
25698SOL     OW79986   0.569   4.841   2.881  0.2070  0.0206 -0.7891
25698SOL    HW179987   0.588   4.758   2.926  1.1458  0.9480  0.6128
25698SOL    HW279988   0.555   4.816   2.790  3.2892 -1.4211 -1.0069
25699SOL     OW79989   7.855   1.703   3.807 -0.1316 -0.1948  0.5145
25699SOL    HW179990   7.889   1.760   3.738 -1.0229 -0.3180 -0.0449
25699SOL    HW279991   7.835   1.762   3.879  2.0090 -0.2065  1.2037
25700SOL     OW79992   3.836   9.533   1.242 -0.2366  0.1173 -0.6420
25700SOL    HW179993   3.759   9.540   1.298  0.6096 -1.2402  0.7699
25700SOL    HW279994   3.812   9.580   1.162 -1.7106  1.6065  0.6050
25701SOL     OW79995   5.545   3.042   7.369  0.3834  0.3169 -0.1907
25701SOL    HW179996   5.629   3.024   7.410  0.7608  2.0636 -0.1265
25701SOL    HW279997   5.511   3.119   7.416 -0.3729  0.7729 -1.4318
25702SOL     OW79998   0.244   5.224   8.475 -0.8096  0.3820  0.3545
25702SOL    HW179999   0.161   5.235   8.428 -0.9802 -2.6274 -0.2541
25702SOL    HW280000   0.307   5.201   8.407 -0.6201 -2.0821  1.2775
25703SOL     OW80001   2.038   2.261  10.441 -0.1159 -0.3367  0.4451
25703SOL    HW180002   2.127   2.235  10.416  0.7425  0.9450  1.9510
25703SOL    HW280003   1.981   2.196  10.400  1.5544 -1.5108 -0.1151
25704SOL     OW80004   3.319   9.732   3.927  0.0933 -0.1874 -0.1271
25704SOL    HW180005   3.240   9.703   3.881  0.8906 -0.4031 -1.3995
25704SOL    HW280006   3.311   9.693   4.014 -1.6896  0.6342  0.1318
25705SOL     OW80007   9.155   6.424   3.164  0.2413  0.8603  0.0853
25705SOL    HW180008   9.221   6.455   3.225  0.6254 -0.2956  0.2677
25705SOL    HW280009   9.074   6.421   3.216  0.2628  1.2631  0.1446
25706SOL     OW80010   5.227   3.507   3.318  1.3517 -0.2808 -0.3061
25706SOL    HW180011   5.269   3.430   3.356  3.9859  0.8474 -0.7492
25706SOL    HW280012   5.244   3.499   3.224  2.2030  1.1107 -0.2916
25707SOL     OW80013   8.541   7.368   0.250  0.3824  0.0449  0.3894
25707SOL    HW180014   8.480   7.418   0.195  0.8279 -1.3695 -1.4889
25707SOL    HW280015   8.495   7.359   0.334 -1.4184  0.1521 -0.5409
25708SOL     OW80016   9.963   8.211   7.060  0.2161 -0.0151  0.2656
25708SOL    HW180017   9.886   8.203   7.004  0.1855  0.5097  0.2318
25708SOL    HW280018  10.032   8.240   7.002  0.3530 -0.1361  0.3674
25709SOL     OW80019   4.940   4.224   7.022  0.0184 -0.3090 -0.4732
25709SOL    HW180020   4.984   4.176   6.952  1.4694  0.6883 -0.2914
25709SOL    HW280021   4.958   4.316   7.004 -0.3799  0.0234  0.6888
25710SOL     OW80022   7.384   8.697   5.758 -0.2046  0.0641 -0.5218
25710SOL    HW180023   7.336   8.710   5.676 -3.0531  1.2002  1.1643
25710SOL    HW280024   7.437   8.775   5.769 -1.1341  0.7149 -0.5243
25711SOL     OW80025   2.652   1.271   6.215  0.0714 -0.1053 -0.2940
25711SOL    HW180026   2.648   1.176   6.226  2.8296 -0.2357  0.3174
25711SOL    HW280027   2.586   1.305   6.275 -1.8103 -1.6106 -1.3806
25712SOL     OW80028   5.275   4.359   7.628  0.2844 -0.1890  0.3040
25712SOL    HW180029   5.263   4.436   7.572  1.8073 -0.9440 -1.1719
25712SOL    HW280030   5.209   4.296   7.597 -0.2360  0.1250  0.7674
25713SOL     OW80031   8.976   2.852   8.837  1.2004 -0.0962  0.2631
25713SOL    HW180032   8.915   2.782   8.814  0.5711  0.6378 -0.3984
25713SOL    HW280033   9.052   2.808   8.873  1.3073 -1.1860 -1.2259
25714SOL     OW80034  10.209   8.150   1.791 -0.2693 -0.2223 -0.0726
25714SOL    HW180035  10.131   8.098   1.808 -0.3515 -0.2795 -0.6137
25714SOL    HW280036  10.176   8.230   1.751  0.0059 -0.5832 -1.0450
25715SOL     OW80037   5.481   4.116  10.002 -0.1362  0.2091  0.1402
25715SOL    HW180038   5.550   4.058  10.035  0.8326  1.2886  0.0980
25715SOL    HW280039   5.405   4.097  10.057  0.1778 -1.0062  0.1964
25716SOL     OW80040   8.171   1.830   3.862 -0.1421  0.5875  0.1772
25716SOL    HW180041   8.157   1.924   3.876  0.6090  0.4874  1.8894
25716SOL    HW280042   8.127   1.788   3.937  0.2660 -0.3699 -0.1078
25717SOL     OW80043   8.378   9.343   0.922 -0.2475 -0.1943 -0.2443
25717SOL    HW180044   8.424   9.286   0.861  1.6678  0.1340  0.8062
25717SOL    HW280045   8.429   9.424   0.923 -1.7751  0.7950 -0.2111
25718SOL     OW80046  10.080  10.197   6.935  0.4854 -0.1152  0.3257
25718SOL    HW180047  10.097  10.272   6.991  1.4434  0.2944 -0.4625
25718SOL    HW280048  10.001  10.156   6.970  0.4000  0.8105  1.2295
25719SOL     OW80049   6.776   0.102   4.633 -0.0314  0.0302  0.2971
25719SOL    HW180050   6.682   0.086   4.639 -0.1276 -0.7863 -2.1247
25719SOL    HW280051   6.784   0.198   4.635 -0.6633  0.0984  2.4619
25720SOL     OW80052   2.875   8.489   6.702  0.0734  0.3411 -0.2333
25720SOL    HW180053   2.905   8.505   6.613 -0.8698  0.0554 -0.6114
25720SOL    HW280054   2.871   8.575   6.743 -2.9583  0.9648 -1.5931
25721SOL     OW80055   7.377   0.566   2.771 -0.0455  0.3892 -0.4172
25721SOL    HW180056   7.442   0.634   2.751  0.9094 -0.4421 -0.1853
25721SOL    HW280057   7.408   0.525   2.851 -1.3215  0.5310  0.1720
25722SOL     OW80058   6.559   2.672   0.424  0.1155  0.3373  0.2166
25722SOL    HW180059   6.521   2.691   0.510  1.2550  0.4702  0.6969
25722SOL    HW280060   6.625   2.605   0.441 -1.2200 -1.3555 -0.9070
25723SOL     OW80061   6.690   5.001   3.012 -0.0544 -0.1832  0.4122
25723SOL    HW180062   6.763   4.953   3.052  0.2761  0.7255  0.9252
25723SOL    HW280063   6.612   4.950   3.034  0.3680 -0.8987  0.2831
25724SOL     OW80064   5.148   8.288   1.275  0.3383  0.2900 -0.4901
25724SOL    HW180065   5.110   8.354   1.216  1.1199  0.8216 -0.4175
25724SOL    HW280066   5.190   8.339   1.344 -2.1965 -0.3427  1.6427
25725SOL     OW80067   6.166   4.936   9.121 -0.0001  0.3836 -0.0989
25725SOL    HW180068   6.231   5.001   9.149  0.0780  0.1141  0.3649
25725SOL    HW280069   6.209   4.852   9.137 -1.2326  0.1244  2.2468
25726SOL     OW80070   4.198   0.801  10.578  0.3936  0.5882  0.6253
25726SOL    HW180071   4.279   0.828  10.536  1.1755 -0.3503  1.4781
25726SOL    HW280072   4.183   0.867  10.645  0.7111  0.5160  0.7698
25727SOL     OW80073   6.061   8.386   8.170 -0.4757  0.7439 -0.0993
25727SOL    HW180074   6.073   8.454   8.235 -0.8114 -0.8632  1.7230
25727SOL    HW280075   6.134   8.398   8.108  0.4457  1.6853  1.1344
25728SOL     OW80076   1.336   9.352   4.259  0.3294 -0.0171  0.0914
25728SOL    HW180077   1.377   9.436   4.279 -0.3305  0.0346  1.2949
25728SOL    HW280078   1.276   9.336   4.332 -1.4895 -0.2874 -1.4032
25729SOL     OW80079   4.281   3.828   3.703 -0.0190 -0.7080 -0.0340
25729SOL    HW180080   4.243   3.741   3.692  0.0011 -0.7872  0.4810
25729SOL    HW280081   4.232   3.867   3.775 -3.3714  1.6198 -3.2349
25730SOL     OW80082   2.739   3.686   6.006 -0.2561  0.0684 -0.4633
25730SOL    HW180083   2.770   3.766   5.964  0.6728  0.0971  0.2530
25730SOL    HW280084   2.702   3.633   5.935 -0.5809  0.9839 -0.9898
25731SOL     OW80085   4.409   2.503  10.215 -0.2928 -0.2082  0.4428
25731SOL    HW180086   4.476   2.571  10.218  0.6296 -1.0106 -0.7452
25731SOL    HW280087   4.430   2.453  10.136 -1.4267 -1.3819  0.8540
25732SOL     OW80088   5.878   0.695   3.225 -0.4460 -0.2150 -0.0498
25732SOL    HW180089   5.952   0.708   3.165  0.9632 -0.5179  1.5537
25732SOL    HW280090   5.870   0.600   3.232  0.5890 -0.2298  1.5625
25733SOL     OW80091   3.680   9.158   0.054 -0.2529 -0.1550  0.2023
25733SOL    HW180092   3.677   9.245   0.094 -0.6017 -0.0772  0.0129
25733SOL    HW280093   3.737   9.169  -0.022 -2.6313  0.6663 -1.5769
25734SOL     OW80094   8.097   4.115   8.625  0.2713  0.5012  0.6649
25734SOL    HW180095   8.081   4.095   8.533 -2.2889  0.6884  0.9943
25734SOL    HW280096   8.162   4.185   8.623  2.9862 -1.8498 -0.7969
25735SOL     OW80097   1.183   2.915   2.911  0.1439  0.1520  0.1926
25735SOL    HW180098   1.206   3.008   2.918  0.5447  0.0969 -0.3658
25735SOL    HW280099   1.130   2.910   2.831 -0.3666 -0.0117  0.5328
25736SOL     OW80100   8.410   0.428   7.956  0.9432  0.1908 -0.2969
25736SOL    HW180101   8.490   0.377   7.954  1.3128  0.5369  2.3453
25736SOL    HW280102   8.433   0.511   7.914  1.6531 -0.0861 -0.4595
25737SOL     OW80103   7.129   9.484   5.843  0.2050 -0.0820 -0.1589
25737SOL    HW180104   7.177   9.443   5.915  1.0288 -0.0760 -0.6876
25737SOL    HW280105   7.138   9.578   5.858  0.3278 -0.0813 -0.2352
25738SOL     OW80106   9.152   1.629   4.587 -0.8679  0.1637  0.4178
25738SOL    HW180107   9.166   1.716   4.626  2.0959  0.5778 -1.2839
25738SOL    HW280108   9.168   1.568   4.658  0.5442  0.9722  0.8208
25739SOL     OW80109   4.199   2.387  10.011 -0.1980  0.2651  0.2580
25739SOL    HW180110   4.174   2.475  10.041 -0.3843  0.1754  0.3660
25739SOL    HW280111   4.119   2.351   9.974 -0.0902  0.1858  0.1052
25740SOL     OW80112   0.501   3.289   5.748 -0.1040 -0.5977 -0.2793
25740SOL    HW180113   0.538   3.369   5.784 -0.9245 -0.9635  1.4753
25740SOL    HW280114   0.410   3.312   5.728  0.0305 -0.7236 -1.0614
25741SOL     OW80115   4.057   9.021   5.252  0.8655  0.1963  0.1224
25741SOL    HW180116   3.988   8.991   5.192  1.3647 -1.3210  0.2709
25741SOL    HW280117   4.073   9.111   5.226 -0.6807  0.3577 -0.3793
25742SOL     OW80118   4.948   8.196   0.715  0.1067 -0.0629 -0.4278
25742SOL    HW180119   4.988   8.196   0.628  1.1811  2.1089  0.0238
25742SOL    HW280120   5.019   8.172   0.775 -0.1033  0.5292  0.0633
25743SOL     OW80121   4.234   6.020   5.918 -0.3076 -0.1502  0.8470
25743SOL    HW180122   4.279   5.975   5.846 -0.3385  0.5220  0.3930
25743SOL    HW280123   4.146   5.982   5.919 -0.5166  0.2863  0.0940
25744SOL     OW80124   2.501   3.200   6.424 -0.1716  0.0712 -0.1487
25744SOL    HW180125   2.437   3.199   6.353  1.6413  1.8792 -1.9717
25744SOL    HW280126   2.577   3.153   6.388  0.3135 -0.1724  1.1347
25745SOL     OW80127   0.824   3.468   6.972  0.6523 -0.1853  0.1971
25745SOL    HW180128   0.869   3.535   6.920 -0.5311  0.1865 -0.3724
25745SOL    HW280129   0.733   3.474   6.946  0.5278 -2.1111  0.0369
25746SOL     OW80130   1.516   9.608   9.964  0.0623  0.1823 -0.3467
25746SOL    HW180131   1.443   9.668   9.952 -0.3322 -0.5113 -1.6561
25746SOL    HW280132   1.488   9.527   9.920  0.2613 -1.2418  1.9576
25747SOL     OW80133   1.901   9.540   7.611 -0.2418  0.0093  0.0227
25747SOL    HW180134   1.994   9.540   7.634 -0.3250 -1.1386  0.4190
25747SOL    HW280135   1.897   9.582   7.525  0.2797  2.8130  1.2276
25748SOL     OW80136  10.548  10.059   1.235  0.1334  0.6411  0.4443
25748SOL    HW180137  10.609  10.024   1.300  1.0759  0.1514 -0.6783
25748SOL    HW280138  10.472  10.001   1.241 -0.5764  1.6500  2.3128
25749SOL     OW80139   9.685   9.912   0.256  0.0453 -0.6823  0.3214
25749SOL    HW180140   9.625   9.931   0.184  0.2219  1.5105  0.7020
25749SOL    HW280141   9.629   9.905   0.333  0.1996  1.5157  0.7035
25750SOL     OW80142  10.353   3.142   9.146 -0.0824 -0.0935  0.1796
25750SOL    HW180143  10.288   3.072   9.135  0.4755 -1.0372  2.3584
25750SOL    HW280144  10.369   3.144   9.240  2.2000  0.9121 -0.1833
25751SOL     OW80145   1.955   6.906   2.307 -0.4292 -0.2408  0.4142
25751SOL    HW180146   1.948   6.834   2.243 -0.0255  1.1570 -1.2748
25751SOL    HW280147   1.871   6.905   2.353 -1.1964 -0.5961 -0.9227
25752SOL     OW80148   3.233   0.280   3.767 -0.5421  0.0153 -0.0374
25752SOL    HW180149   3.208   0.301   3.857 -0.7936 -0.0028 -0.1027
25752SOL    HW280150   3.269   0.362   3.732 -0.0698 -0.0850  0.2062
25753SOL     OW80151   9.451   9.321   6.121  0.0943  0.7382  0.0464
25753SOL    HW180152   9.402   9.318   6.203  1.0244 -0.6006  0.5871
25753SOL    HW280153   9.436   9.409   6.087 -1.2363  0.9402  1.0649
25754SOL     OW80154  10.007  10.114   3.134  0.3847 -0.1688 -0.4429
25754SOL    HW180155  10.000  10.179   3.203  1.1967  1.0719 -1.4621
25754SOL    HW280156   9.932  10.131   3.077  0.9004  0.2849 -1.0102
25755SOL     OW80157   3.477   3.078   6.866 -0.8802 -0.5091 -0.2108
25755SOL    HW180158   3.552   3.021   6.882 -1.9471 -1.4933  1.6431
25755SOL    HW280159   3.407   3.018   6.839 -1.8560 -0.0536  1.1949
25756SOL     OW80160   4.470   0.222   1.587  0.2681  0.0485 -0.2872
25756SOL    HW180161   4.442   0.194   1.500  0.1238  1.0315 -0.5701
25756SOL    HW280162   4.457   0.316   1.587  0.2671  0.0601  0.8084
25757SOL     OW80163   1.847   7.182   8.979 -0.7591  0.0804 -0.1803
25757SOL    HW180164   1.793   7.236   9.036 -1.4936 -1.3443  0.5220
25757SOL    HW280165   1.846   7.095   9.019 -0.7610 -0.8105 -2.0033
25758SOL     OW80166   5.959   5.274  10.530 -0.1498 -0.1487 -0.2584
25758SOL    HW180167   5.866   5.262  10.511 -1.0383  2.4027  1.8015
25758SOL    HW280168   5.996   5.306  10.448 -1.4711  0.3792 -0.6809
25759SOL     OW80169   1.464   6.468   2.408  0.6905 -0.3198  0.1565
25759SOL    HW180170   1.481   6.529   2.480  0.9872 -1.0567  0.7218
25759SOL    HW280171   1.431   6.389   2.450 -0.9046 -0.1351 -0.6598
25760SOL     OW80172   2.093   0.412   3.708  0.1725 -0.6811  0.0910
25760SOL    HW180173   2.109   0.434   3.617  0.5131 -0.3945  0.2163
25760SOL    HW280174   2.105   0.317   3.713  2.6577 -0.4103  0.3321
25761SOL     OW80175   7.176   1.344   4.961 -0.3489  0.1421  0.1426
25761SOL    HW180176   7.126   1.421   4.935  0.7138  0.7686 -0.1153
25761SOL    HW280177   7.115   1.271   4.951 -1.3944  0.9476  0.4493
25762SOL     OW80178   5.381   5.079   8.497  0.9280  0.0142  0.0866
25762SOL    HW180179   5.363   4.986   8.484  0.4743  0.2493 -1.0978
25762SOL    HW280180   5.448   5.082   8.565  2.5050 -1.2967 -1.3231
25763SOL     OW80181  10.094   9.817   3.901  0.1121 -0.0531 -0.1609
25763SOL    HW180182  10.117   9.731   3.868  0.2223  0.1745 -0.6896
25763SOL    HW280183  10.016   9.802   3.955  0.5287 -0.5767  0.2941
25764SOL     OW80184  10.485   0.586  10.500  0.1716 -0.3721 -0.0289
25764SOL    HW180185  10.562   0.635  10.530 -0.0295 -0.0493 -0.0405
25764SOL    HW280186  10.414   0.615  10.557 -0.3357  0.6269 -1.1342
25765SOL     OW80187   4.918   3.240   6.532 -0.1400 -0.3715 -0.0945
25765SOL    HW180188   4.877   3.324   6.554  1.3076  0.1791  0.6816
25765SOL    HW280189   4.988   3.263   6.471  0.9129 -0.8496  0.8898
25766SOL     OW80190   8.661   9.746  10.224 -0.0947 -0.0321  0.0722
25766SOL    HW180191   8.699   9.665  10.190 -0.5394  0.0761 -0.7147
25766SOL    HW280192   8.593   9.717  10.285 -0.9564 -0.2909 -0.9783
25767SOL     OW80193  10.662   7.313   3.319 -0.3056 -0.7358 -0.2881
25767SOL    HW180194  10.663   7.349   3.408 -0.9823 -1.0002 -0.1674
25767SOL    HW280195  10.645   7.388   3.263  0.3643 -0.5253 -0.2239
25768SOL     OW80196   0.906  10.003   6.619  0.2274  0.7615 -0.6200
25768SOL    HW180197   0.925  10.097   6.615  0.3681  0.7433 -0.3568
25768SOL    HW280198   0.933   9.970   6.533 -3.0027  1.5408 -2.0909
25769SOL     OW80199  10.066   6.004   2.719 -0.1657 -0.4252 -0.4299
25769SOL    HW180200  10.092   6.080   2.771 -0.2072 -1.0426  0.5250
25769SOL    HW280201  10.143   5.983   2.667  0.7721 -1.2623  1.1927
25770SOL     OW80202   2.121   5.142   2.797  0.0362  0.1852  0.1355
25770SOL    HW180203   2.093   5.082   2.866 -2.2981  0.1521 -0.7650
25770SOL    HW280204   2.168   5.211   2.843  1.4056 -1.4672  1.3593
25771SOL     OW80205  10.627   2.754   1.335 -0.2864 -0.0241 -0.7152
25771SOL    HW180206  10.535   2.771   1.357  0.1231  0.4834  0.6846
25771SOL    HW280207  10.671   2.746   1.419  1.1076  0.4920 -1.3609
25772SOL     OW80208   6.324   6.871   2.842 -0.0409 -0.3947  0.0587
25772SOL    HW180209   6.353   6.910   2.760  0.4057 -0.3724  0.2279
25772SOL    HW280210   6.371   6.919   2.910  0.2694 -1.0084  0.2844
25773SOL     OW80211   2.107   0.541   2.701  0.0358 -0.4158 -0.0823
25773SOL    HW180212   2.162   0.563   2.776 -3.0047 -0.1717  2.3072
25773SOL    HW280213   2.024   0.513   2.740 -1.7718 -0.1811 -3.3843
25774SOL     OW80214   8.095   1.740   6.725 -0.0021 -0.3072  0.3211
25774SOL    HW180215   8.066   1.713   6.638 -1.9164  2.2591  0.0603
25774SOL    HW280216   8.190   1.753   6.716  0.3638 -2.9145 -0.4972
25775SOL     OW80217   0.208   3.333   9.825 -0.0008 -0.2051 -0.1947
25775SOL    HW180218   0.139   3.322   9.891 -0.0795  0.5763 -0.1343
25775SOL    HW280219   0.176   3.405   9.770  1.0906  0.6521  0.2644
25776SOL     OW80220   2.009   3.689   9.269  0.0239 -0.3315  0.1757
25776SOL    HW180221   2.051   3.607   9.242 -0.3986  0.0093 -1.6774
25776SOL    HW280222   1.952   3.664   9.342 -0.8301 -1.9260 -0.9613
25777SOL     OW80223   1.666   5.405   8.105  0.7087  0.7934 -0.1995
25777SOL    HW180224   1.584   5.444   8.076  0.4777  1.7301  1.5774
25777SOL    HW280225   1.640   5.333   8.164  1.1439  0.8623  0.0869
25778SOL     OW80226   6.304   0.475   9.877  0.1273  0.0338 -0.0083
25778SOL    HW180227   6.285   0.501   9.787  1.8855 -0.8108 -0.6637
25778SOL    HW280228   6.335   0.385   9.870 -2.3894 -1.1205  1.7939
25779SOL     OW80229   2.523   0.654   7.294  0.9766 -0.2931  0.0377
25779SOL    HW180230   2.545   0.742   7.325  0.4377 -0.1113 -0.0801
25779SOL    HW280231   2.581   0.596   7.343  1.3538  0.1295  0.0997
25780SOL     OW80232   4.233   9.808  10.333  0.2218 -0.1688 -0.6029
25780SOL    HW180233   4.295   9.875  10.303 -0.1023 -0.2844 -1.5675
25780SOL    HW280234   4.253   9.797  10.426  0.1411  1.4177 -0.3664
25781SOL     OW80235   4.718   0.343   4.160 -0.6736 -0.2168  0.2857
25781SOL    HW180236   4.711   0.438   4.148  0.8521  0.4167  3.3507
25781SOL    HW280237   4.797   0.319   4.111  0.1363  0.5408  1.1665
25782SOL     OW80238   7.386   8.136   9.190  0.4891  0.3544  0.1300
25782SOL    HW180239   7.402   8.057   9.242 -1.9074 -0.5262 -0.3037
25782SOL    HW280240   7.373   8.103   9.101 -1.0180  1.1485  0.0264
25783SOL     OW80241   1.865   9.288  10.167 -0.3097 -0.0852 -0.4046
25783SOL    HW180242   1.883   9.235  10.089 -1.2023  1.5447 -1.7925
25783SOL    HW280243   1.952   9.307  10.203  0.0838 -1.3921 -0.6287
25784SOL     OW80244   7.077   8.819   9.933  0.1607  0.1979  0.4343
25784SOL    HW180245   7.069   8.833   9.839  1.1033  0.2574  0.3487
25784SOL    HW280246   7.059   8.726   9.945 -3.3524  0.7715  0.6565
25785SOL     OW80247   6.446   6.129   9.077 -0.0834  0.0783  0.2171
25785SOL    HW180248   6.481   6.074   9.006 -0.9649 -0.5225  0.2353
25785SOL    HW280249   6.426   6.212   9.035  0.5646  0.1471  0.0268
25786SOL     OW80250   6.019   0.866   1.851  0.0111  0.7364  0.3810
25786SOL    HW180251   6.076   0.942   1.842  0.0447  0.8483  1.3451
25786SOL    HW280252   6.006   0.858   1.946 -0.8666  0.1900  0.2263
25787SOL     OW80253   0.436   8.105   6.688  0.1342  0.3831 -0.1334
25787SOL    HW180254   0.434   8.048   6.764 -0.0990  0.5513 -0.0146
25787SOL    HW280255   0.490   8.179   6.715  3.4979 -1.3686 -1.4000
25788SOL     OW80256   4.441   2.036   3.898 -0.2316 -0.5292  0.0392
25788SOL    HW180257   4.487   1.953   3.883 -1.6766 -1.1433 -1.2142
25788SOL    HW280258   4.496   2.101   3.855  0.5035 -0.9372  0.3319
25789SOL     OW80259   8.121   7.904   9.406  0.5657  0.4639  0.4152
25789SOL    HW180260   8.184   7.969   9.436 -0.2855  1.0456  0.9956
25789SOL    HW280261   8.168   7.821   9.409  1.1102  0.7982  1.4548
25790SOL     OW80262   9.109  10.318   4.031  0.2316  0.1096 -0.0997
25790SOL    HW180263   9.134  10.296   3.941 -0.5628 -0.1164 -0.2683
25790SOL    HW280264   9.015  10.336   4.027  0.2603  0.4874  0.6168
25791SOL     OW80265   7.006   6.683   9.414  0.1782 -0.4846 -0.7534
25791SOL    HW180266   6.944   6.755   9.405  0.9625  0.0308 -2.4449
25791SOL    HW280267   7.045   6.674   9.327  1.6141 -1.5778 -0.0384
25792SOL     OW80268   5.841   7.094   5.800 -0.5998 -0.1623 -0.7011
25792SOL    HW180269   5.852   7.184   5.767  0.4442  0.1304  0.3785
25792SOL    HW280270   5.824   7.042   5.722 -0.0769  0.8073 -1.4889
25793SOL     OW80271   1.681   8.985   3.299  0.0307 -0.3202  0.4377
25793SOL    HW180272   1.680   8.901   3.254  1.7335 -0.6003  0.8474
25793SOL    HW280273   1.642   8.968   3.384 -0.9387 -0.3458  0.0018
25794SOL     OW80274   8.385   0.067   6.744 -0.4164 -0.5831 -0.2366
25794SOL    HW180275   8.351   0.100   6.661 -0.7078  1.0376  0.5004
25794SOL    HW280276   8.319   0.091   6.808  0.4917 -0.4967  0.6861
25795SOL     OW80277   9.446   1.155   3.643  0.1678  0.1891  0.6474
25795SOL    HW180278   9.389   1.221   3.603  0.0696 -0.2179  0.0912
25795SOL    HW280279   9.421   1.154   3.735  0.1767  0.9284  0.6627
25796SOL     OW80280   3.723   0.106   7.094  0.2025 -0.1271 -0.1613
25796SOL    HW180281   3.795   0.069   7.042 -1.0151  0.0222 -2.0824
25796SOL    HW280282   3.706   0.040   7.162  1.4916 -0.6192 -0.2931
25797SOL     OW80283   9.607   9.906   2.004 -0.0669  0.0823  0.3725
25797SOL    HW180284   9.685   9.860   1.972 -1.0482 -1.3178 -0.1028
25797SOL    HW280285   9.635   9.948   2.086  2.1241  2.5487 -1.4519
25798SOL     OW80286   0.006   7.779   4.556 -0.4048  0.2241 -0.8780
25798SOL    HW180287  -0.081   7.819   4.554  0.4692  2.4168  0.9501
25798SOL    HW280288   0.034   7.778   4.465 -1.1749  2.2494 -1.1762
25799SOL     OW80289   4.933   2.005   2.783  0.6407  0.4223 -0.0399
25799SOL    HW180290   5.025   1.981   2.799  0.7863  0.0501 -1.3744
25799SOL    HW280291   4.933   2.044   2.696 -0.4844  0.3425 -0.0853
25800SOL     OW80292   1.785   0.229   1.792 -0.2865  0.1155  0.6595
25800SOL    HW180293   1.761   0.308   1.743 -0.2625  0.0651  0.5649
25800SOL    HW280294   1.816   0.261   1.876 -0.8209  0.1753  0.8361
25801SOL     OW80295   5.079   6.299   9.681 -0.0739  0.5624 -0.2550
25801SOL    HW180296   5.104   6.390   9.662  0.8391  0.1342 -1.2203
25801SOL    HW280297   5.060   6.299   9.775 -1.2630  1.9986 -0.4551
25802SOL     OW80298   5.450   5.853   2.406 -0.0858  0.1021  0.4637
25802SOL    HW180299   5.421   5.893   2.324 -1.9451 -0.3692  0.8569
25802SOL    HW280300   5.386   5.785   2.425 -0.2778  0.8378  2.8082
25803SOL     OW80301   0.750   3.850   6.402  0.3759  0.3917  0.2219
25803SOL    HW180302   0.679   3.855   6.466 -0.4521 -1.0103 -0.5422
25803SOL    HW280303   0.706   3.833   6.319  1.6783 -2.3613  0.0072
25804SOL     OW80304   3.800   8.457   1.103  0.2582 -0.3137 -0.0380
25804SOL    HW180305   3.725   8.484   1.050  0.5119  0.1368 -0.1782
25804SOL    HW280306   3.815   8.366   1.079 -1.4917 -1.0676  1.4692
25805SOL     OW80307  10.504   7.559   6.866  0.1627 -0.1956  0.2680
25805SOL    HW180308  10.593   7.530   6.843  0.7550  0.7166  1.3278
25805SOL    HW280309  10.500   7.650   6.835 -0.4882 -0.3095  0.0114
25806SOL     OW80310   0.977   9.475  10.190  0.4315 -0.1304  0.4106
25806SOL    HW180311   0.937   9.412  10.250  0.2970  1.1540  1.7379
25806SOL    HW280312   0.991   9.426  10.109 -1.3736 -1.3492  0.7750
25807SOL     OW80313   8.863   8.821   5.352  0.0119  0.2901  0.1305
25807SOL    HW180314   8.866   8.751   5.286 -1.7779 -0.2882  0.6216
25807SOL    HW280315   8.953   8.854   5.355  0.6382 -1.1855 -0.9654
25808SOL     OW80316   3.259   0.426   7.192 -0.6236 -0.1201  0.3646
25808SOL    HW180317   3.289   0.436   7.283 -2.0178 -0.1391  0.8451
25808SOL    HW280318   3.195   0.496   7.181  0.2584  0.5213 -0.9491
25809SOL     OW80319   8.057   4.362   5.636  0.2204  0.9093 -0.1969
25809SOL    HW180320   7.973   4.324   5.611  0.2436 -1.4311  2.7643
25809SOL    HW280321   8.033   4.442   5.683 -0.2829  0.8347 -0.3122
25810SOL     OW80322   1.898  10.239   5.961  0.3549  0.1713 -0.2457
25810SOL    HW180323   1.881  10.261   5.869 -1.0396 -0.5479 -0.1876
25810SOL    HW280324   1.815  10.256   6.006  0.9456  0.2675  0.8373
25811SOL     OW80325   8.846   2.704   3.971  0.0050 -0.2022  0.0811
25811SOL    HW180326   8.875   2.794   3.984 -1.6325  0.1146  2.0394
25811SOL    HW280327   8.852   2.690   3.876 -0.5972  2.2833 -0.3839
25812SOL     OW80328   6.153   7.116   4.514  0.4966  0.0659  0.2027
25812SOL    HW180329   6.214   7.046   4.493 -2.7030 -2.7366 -0.6940
25812SOL    HW280330   6.103   7.083   4.589 -1.5284  1.0173 -0.6449
25813SOL     OW80331   4.664   0.134   2.138 -0.3580 -0.0193 -0.0476
25813SOL    HW180332   4.753   0.140   2.172 -0.4304  0.3353  0.0819
25813SOL    HW280333   4.666   0.186   2.057 -1.1801  2.5486  1.4746
25814SOL     OW80334   5.666   4.083   1.377  0.2577 -0.0675  0.3724
25814SOL    HW180335   5.640   4.174   1.357 -0.7176 -0.7774 -2.0998
25814SOL    HW280336   5.626   4.032   1.306  0.9646 -2.4154  1.5811
25815SOL     OW80337   1.302   9.565   5.527  0.1111  0.4543 -0.1985
25815SOL    HW180338   1.248   9.593   5.453 -0.9659  1.6942  0.9964
25815SOL    HW280339   1.332   9.647   5.567  0.8720 -0.1967  0.6095
25816SOL     OW80340   9.069   2.709   2.087  0.5945 -0.2418 -1.1834
25816SOL    HW180341   9.139   2.770   2.113  0.7598 -1.0090  0.3098
25816SOL    HW280342   9.022   2.691   2.169  0.2652 -1.7511 -1.6824
25817SOL     OW80343   2.334   6.401   7.084  0.2112  0.0250 -0.2958
25817SOL    HW180344   2.338   6.369   6.994  0.4290 -0.9297  0.0333
25817SOL    HW280345   2.422   6.435   7.101 -0.3185  1.8134 -0.9872
25818SOL     OW80346   2.121   0.784   8.659 -0.1534  0.0400 -0.2081
25818SOL    HW180347   2.104   0.797   8.753 -0.2961  1.5896 -0.4132
25818SOL    HW280348   2.162   0.866   8.632  2.9196 -1.5791 -0.8470
25819SOL     OW80349   4.750   2.683   8.754  0.4037  0.3450  0.3472
25819SOL    HW180350   4.795   2.730   8.824  0.7393  0.7332 -0.1262
25819SOL    HW280351   4.706   2.610   8.799  0.1537  0.9081  1.0341
25820SOL     OW80352   8.808   8.527   0.341 -0.2117 -0.3802 -0.3368
25820SOL    HW180353   8.738   8.588   0.320  0.4340 -0.4002 -2.7945
25820SOL    HW280354   8.773   8.475   0.414 -2.3051  0.3218 -0.7707
25821SOL     OW80355   4.977   2.343  10.796  0.1022 -0.3855  0.0281
25821SOL    HW180356   4.906   2.376  10.851 -1.4173 -0.9362 -1.5102
25821SOL    HW280357   5.037   2.300  10.857 -1.3974 -0.7556  1.2849
25822SOL     OW80358   2.431   8.248   5.512  0.2919 -0.0977 -0.1934
25822SOL    HW180359   2.469   8.171   5.553  0.9976 -0.6599 -1.8342
25822SOL    HW280360   2.363   8.214   5.455  0.7529  0.4557 -1.1011
25823SOL     OW80361   4.756   1.013   0.605  0.0631  0.0911  0.3693
25823SOL    HW180362   4.722   0.989   0.519  2.4582  0.5482 -0.7625
25823SOL    HW280363   4.677   1.030   0.657 -1.4639 -0.5876 -1.5779
25824SOL     OW80364   0.194   6.376   6.865  0.0590 -0.2611  0.0939
25824SOL    HW180365   0.277   6.340   6.833  1.7432  2.1725  1.3964
25824SOL    HW280366   0.150   6.407   6.786  0.2044 -1.8189 -0.6430
25825SOL     OW80367   0.187   7.057   9.440 -0.5405  0.4528 -0.3479
25825SOL    HW180368   0.133   7.013   9.506  1.0053 -3.2978 -1.2933
25825SOL    HW280369   0.270   7.008   9.441  1.7701  3.9615 -1.0829
25826SOL     OW80370   4.053   6.868   5.690 -0.5845 -0.4987 -0.1470
25826SOL    HW180371   4.112   6.935   5.658  0.3048 -1.1384  0.1099
25826SOL    HW280372   4.071   6.863   5.784  0.0719 -1.7511 -0.3118
25827SOL     OW80373   3.839   9.818   4.058  0.7092  0.0929  0.0603
25827SOL    HW180374   3.772   9.884   4.038  0.1700 -0.6358 -0.5694
25827SOL    HW280375   3.883   9.803   3.975  0.7709 -0.4023  0.1835
25828SOL     OW80376   6.596   2.744   3.076  0.3131 -0.0021 -0.0581
25828SOL    HW180377   6.601   2.708   3.164 -0.4371 -3.0897 -1.1618
25828SOL    HW280378   6.684   2.779   3.060  0.3981  0.8479  1.9437
25829SOL     OW80379   0.057   3.081   1.260 -0.0242 -0.1801  0.0511
25829SOL    HW180380   0.086   3.030   1.336  3.3347  2.1309  0.5385
25829SOL    HW280381   0.028   3.164   1.296 -3.0037 -0.6976 -0.9293
25830SOL     OW80382   0.044   3.705   1.232 -0.5612 -0.4044 -0.4561
25830SOL    HW180383  -0.008   3.659   1.298  0.3808 -1.0664 -0.1620
25830SOL    HW280384  -0.002   3.788   1.219 -2.0014 -1.2074 -0.6198
25831SOL     OW80385   6.029   8.305   7.628 -0.0074  0.4067  0.4742
25831SOL    HW180386   6.015   8.299   7.533 -0.2986 -2.3525  0.6083
25831SOL    HW280387   6.119   8.334   7.637  0.2180  0.1375 -0.6816
25832SOL     OW80388   2.545   9.825   4.002  0.1494  0.2931 -0.1986
25832SOL    HW180389   2.476   9.851   4.064 -0.0957 -1.3806  0.2847
25832SOL    HW280390   2.522   9.871   3.921 -0.8079  0.7624  0.3110
25833SOL     OW80391   0.474   1.346   1.027  0.1920 -0.0455 -0.3020
25833SOL    HW180392   0.534   1.403   0.978 -1.4000  0.1793 -2.0855
25833SOL    HW280393   0.451   1.276   0.965 -1.4748 -0.0505  0.2785
25834SOL     OW80394   2.879  10.628   8.590 -0.2536  0.4954 -0.4547
25834SOL    HW180395   2.931  10.599   8.665  0.4677  1.5091 -0.5394
25834SOL    HW280396   2.788  10.614   8.616  0.0121 -3.3109 -1.1009
25835SOL     OW80397   3.458   7.417   3.152 -0.1983  0.2011  0.4950
25835SOL    HW180398   3.461   7.512   3.158 -0.2337  0.3532 -1.2860
25835SOL    HW280399   3.389   7.399   3.088  1.3942 -0.8876 -1.0259
25836SOL     OW80400   2.543   2.919   1.809  0.1950  0.2231  0.2906
25836SOL    HW180401   2.515   2.898   1.720 -4.0911  2.1772  0.9546
25836SOL    HW280402   2.556   2.834   1.851 -0.7726 -0.7851 -1.3525
25837SOL     OW80403   6.697   0.616   1.248  0.4353  0.1957  0.1488
25837SOL    HW180404   6.630   0.594   1.312  0.5296  1.8088  0.8627
25837SOL    HW280405   6.663   0.693   1.202  1.7464  1.0347  0.5024
25838SOL     OW80406   8.459   8.227   6.943  0.7372  0.1124  0.4173
25838SOL    HW180407   8.377   8.246   6.989  0.5804 -2.2295  1.2440
25838SOL    HW280408   8.432   8.200   6.856  0.7670  0.8338  0.1760
25839SOL     OW80409   6.218   1.315   1.365  0.0705  0.1562  0.1145
25839SOL    HW180410   6.274   1.392   1.371  0.5087 -0.0417 -1.0826
25839SOL    HW280411   6.139   1.346   1.320 -0.4914  0.2679  1.1389
25840SOL     OW80412   9.973   8.325   1.753  0.3748 -0.1573 -0.3759
25840SOL    HW180413   9.961   8.312   1.847  1.4164 -1.3211 -0.3838
25840SOL    HW280414   9.999   8.417   1.745  0.0925  0.0053  0.4442
25841SOL     OW80415  10.627   9.676   6.678 -0.4291 -0.0279  0.1956
25841SOL    HW180416  10.602   9.671   6.586  0.7348  0.3134 -0.1639
25841SOL    HW280417  10.700   9.615   6.687  1.2420  1.8472  0.2195
25842SOL     OW80418   3.505   3.165   7.183 -0.1904 -0.0491 -0.0408
25842SOL    HW180419   3.569   3.106   7.144  0.2300  0.5894 -0.3370
25842SOL    HW280420   3.483   3.227   7.114  0.0817  0.7049  0.5269
25843SOL     OW80421   2.770   0.756  10.670  0.0974  0.2595 -0.2866
25843SOL    HW180422   2.797   0.701  10.744  0.4600 -1.6056 -1.7360
25843SOL    HW280423   2.763   0.844  10.707 -1.2241 -0.8382  2.3167
25844SOL     OW80424   7.394   9.577   9.494 -0.0066  0.2448  0.1883
25844SOL    HW180425   7.429   9.622   9.571 -0.2359 -0.5868  0.7873
25844SOL    HW280426   7.315   9.627   9.472  0.8164  1.3392 -0.3815
25845SOL     OW80427   3.289   5.439   7.246  0.2045 -0.3428  0.1604
25845SOL    HW180428   3.206   5.391   7.255  0.1205 -1.0500 -3.1290
25845SOL    HW280429   3.332   5.429   7.331 -2.4295 -1.1696  1.5136
25846SOL     OW80430   1.118   4.515   8.846  0.8505 -0.6433 -0.3448
25846SOL    HW180431   1.095   4.435   8.799  1.5466 -1.1746  0.1900
25846SOL    HW280432   1.208   4.500   8.876  1.2744  0.6451 -0.8809
25847SOL     OW80433   2.124   8.047   6.564 -0.3375 -0.5692  0.0644
25847SOL    HW180434   2.102   7.971   6.511  1.5086 -0.2178 -1.2742
25847SOL    HW280435   2.219   8.050   6.566 -0.3343  2.0219 -0.4236
25848SOL     OW80436   6.248   1.853   1.469 -0.1542  0.8548 -0.0685
25848SOL    HW180437   6.153   1.866   1.474 -0.0645  1.6179 -0.3421
25848SOL    HW280438   6.283   1.901   1.545  0.1088  1.5284 -0.6121
25849SOL     OW80439   8.631   6.805   4.572 -0.3715 -0.1888  0.1064
25849SOL    HW180440   8.535   6.811   4.566 -0.3669 -0.5313 -0.3353
25849SOL    HW280441   8.647   6.728   4.626 -0.3297 -1.3364 -1.4899
25850SOL     OW80442   7.906   8.038   7.376  0.1435  0.1920  0.4073
25850SOL    HW180443   7.873   8.125   7.352  0.5664  0.4150  0.6262
25850SOL    HW280444   7.996   8.038   7.346 -0.5725 -1.1238 -1.9611
25851SOL     OW80445   9.246   0.975   0.815  0.8102 -0.1000  0.2118
25851SOL    HW180446   9.335   1.012   0.819  1.3838 -1.0648 -2.3328
25851SOL    HW280447   9.247   0.918   0.739 -2.1199  0.0869 -0.0445
25852SOL     OW80448   4.517   8.985   5.886  0.4780  0.0944 -0.4375
25852SOL    HW180449   4.612   8.995   5.893  0.6054 -0.6310 -0.9961
25852SOL    HW280450   4.501   8.893   5.907 -0.1248  0.2568 -0.1716
25853SOL     OW80451   7.882   1.131   1.789 -0.0648  0.0068  0.0216
25853SOL    HW180452   7.837   1.070   1.731  3.3013 -2.1765 -0.5840
25853SOL    HW280453   7.937   1.184   1.730  2.0219 -1.0008  0.9514
25854SOL     OW80454   0.988   9.971   2.219  0.1873 -0.3186 -0.0008
25854SOL    HW180455   0.950  10.034   2.280  0.3207 -0.1518 -0.0880
25854SOL    HW280456   1.026   9.903   2.275  0.4599 -0.0777  0.1058
25855SOL     OW80457   3.951   8.568   9.740 -0.2373 -0.3430 -0.0790
25855SOL    HW180458   3.964   8.576   9.835 -1.3479  1.5665 -0.0293
25855SOL    HW280459   3.871   8.515   9.731  0.2986 -1.1851  0.0050
25856SOL     OW80460   3.151   7.423   4.334  0.5799 -0.6543 -0.1355
25856SOL    HW180461   3.069   7.422   4.383  0.4785 -1.3934 -0.3169
25856SOL    HW280462   3.136   7.487   4.264  0.6288  0.1937  0.6088
25857SOL     OW80463   4.012   3.144   9.330  0.0820  0.3453 -0.5808
25857SOL    HW180464   3.967   3.228   9.341  1.4282  1.3694 -2.2964
25857SOL    HW280465   4.087   3.165   9.274  1.9554 -1.5361  1.1028
25858SOL     OW80466   7.307   1.040   0.917  0.1306 -0.4156  0.0635
25858SOL    HW180467   7.346   0.969   0.865 -0.6628 -0.7023 -0.1517
25858SOL    HW280468   7.249   0.996   0.979  0.5633 -0.0262  0.7540
25859SOL     OW80469   1.107  10.613   9.065  0.1072  0.1863  0.3416
25859SOL    HW180470   1.170  10.607   8.993 -1.3811  2.4422 -1.3189
25859SOL    HW280471   1.143  10.680   9.123  1.2652 -1.5740  1.7781
25860SOL     OW80472   4.639   4.967   8.033 -0.1303 -0.3644 -0.6674
25860SOL    HW180473   4.550   4.989   8.059  0.1097  1.0098 -0.9226
25860SOL    HW280474   4.656   5.020   7.956  1.1298 -0.0959 -0.2408
25861SOL     OW80475   0.047   4.319   7.370  0.3258  0.4132  0.0648
25861SOL    HW180476   0.030   4.384   7.301 -0.5200 -0.3080 -0.4275
25861SOL    HW280477   0.031   4.235   7.328 -1.3260 -0.0127  1.4157
25862SOL     OW80478   6.088   8.820  10.030  0.5366 -0.0543  0.4925
25862SOL    HW180479   6.130   8.777   9.956  1.3597 -0.6634  1.2818
25862SOL    HW280480   6.109   8.763  10.105 -0.1796  0.5990  1.2057
25863SOL     OW80481   3.003   9.906   6.875 -0.3018  0.2093 -0.0956
25863SOL    HW180482   3.018   9.926   6.967 -0.8749 -0.0933  0.0723
25863SOL    HW280483   2.918   9.946   6.856 -0.1201  0.3934 -0.5341
25864SOL     OW80484   2.510   4.960   5.895  0.2621  0.2484  0.2154
25864SOL    HW180485   2.584   5.022   5.902 -0.4693  1.0502  1.1243
25864SOL    HW280486   2.468   4.983   5.812  0.2118  0.7347  0.3709
25865SOL     OW80487   6.083   6.623   2.911 -0.0603  0.0947  0.3527
25865SOL    HW180488   6.091   6.580   2.825 -1.2810 -0.2114  0.3725
25865SOL    HW280489   6.003   6.587   2.948 -2.1854  3.5911 -0.3479
25866SOL     OW80490   1.237   7.191   8.193  0.4514  0.0323  0.4614
25866SOL    HW180491   1.257   7.157   8.106 -0.9116 -0.7623  0.4298
25866SOL    HW280492   1.176   7.264   8.177  0.7095  0.3027  0.7119
25867SOL     OW80493   6.568   0.603   5.219  0.0529  0.4550 -0.3077
25867SOL    HW180494   6.501   0.549   5.178 -1.0452  2.2868 -1.0337
25867SOL    HW280495   6.548   0.598   5.313 -0.6277  0.3708 -0.4503
25868SOL     OW80496   3.454   3.559   9.685  0.2578 -0.4889  0.1666
25868SOL    HW180497   3.493   3.635   9.729  0.1112  0.5988 -1.5019
25868SOL    HW280498   3.481   3.485   9.739  2.4805  0.4753  0.5005
25869SOL     OW80499   4.994   6.715   6.823  0.1146  0.5926  0.1760
25869SOL    HW180500   4.902   6.693   6.819  0.1363  0.5994 -0.4210
25869SOL    HW280501   5.033   6.648   6.880 -0.0665 -0.0508 -0.4489
25870SOL     OW80502   3.597   0.160   6.697 -0.3134 -0.4274 -0.0671
25870SOL    HW180503   3.688   0.157   6.727  0.2735  0.6844 -1.6391
25870SOL    HW280504   3.592   0.096   6.626 -0.5468  0.0988 -0.5310
25871SOL     OW80505   8.179   4.353   9.574 -0.0880 -0.0299  0.2549
25871SOL    HW180506   8.238   4.279   9.592 -0.8136 -0.6487  0.1467
25871SOL    HW280507   8.224   4.403   9.505  0.5785 -0.1599  0.5793
25872SOL     OW80508   6.039   3.189  10.205  0.1739 -0.6956  0.1782
25872SOL    HW180509   6.077   3.272  10.174 -0.7308 -0.1119  0.5904
25872SOL    HW280510   5.945   3.202  10.197 -0.0165 -1.2701  1.3104
25873SOL     OW80511   5.081   4.086   6.842 -0.4211 -0.2816 -0.2658
25873SOL    HW180512   5.164   4.132   6.840 -0.6570  0.1359 -0.6688
25873SOL    HW280513   5.079   4.035   6.761 -1.4720  1.3789 -1.3518
25874SOL     OW80514   6.963   1.151   2.433 -0.3826  0.7858  0.0585
25874SOL    HW180515   6.939   1.130   2.523 -3.2815  2.6292 -0.1566
25874SOL    HW280516   7.032   1.216   2.441  0.0840  0.2018  0.9123
25875SOL     OW80517   6.083   0.366   7.449  0.0549 -0.1904 -0.5494
25875SOL    HW180518   6.031   0.403   7.379 -0.9187 -0.2059  0.1446
25875SOL    HW280519   6.046   0.279   7.463 -2.3735  1.1362  2.4890
25876SOL     OW80520   7.369  10.792   1.057  0.1477  0.0270 -0.0996
25876SOL    HW180521   7.343  10.834   1.139 -0.3369  0.8132 -0.6445
25876SOL    HW280522   7.395  10.864   1.000  3.2820 -0.6435  0.2659
25877SOL     OW80523   8.602   6.584   3.165 -0.4275 -0.0935 -0.5000
25877SOL    HW180524   8.543   6.597   3.091 -0.3661  0.7221 -0.4188
25877SOL    HW280525   8.688   6.566   3.125 -0.4427  0.1139 -0.6272
25878SOL     OW80526   7.416   9.375   2.115  0.9638 -0.3384  0.3175
25878SOL    HW180527   7.401   9.285   2.145  0.5378 -0.3074  0.1962
25878SOL    HW280528   7.469   9.414   2.185  3.0715 -1.3194 -0.6402
25879SOL     OW80529   5.180   7.495   7.824  0.3403  0.1088  0.3489
25879SOL    HW180530   5.155   7.587   7.836 -0.1148 -0.0592  0.7459
25879SOL    HW280531   5.111   7.459   7.768  1.1636  0.2971 -0.8235
25880SOL     OW80532   4.448   4.410   4.177 -0.5430  0.2709  0.1818
25880SOL    HW180533   4.524   4.463   4.153  0.1801 -1.5050 -1.8781
25880SOL    HW280534   4.378   4.441   4.119 -0.6640  0.2996  0.3454
25881SOL     OW80535   0.446   3.439   8.423  0.9729 -0.6908 -0.5199
25881SOL    HW180536   0.468   3.448   8.330  1.0944 -1.5185 -0.5800
25881SOL    HW280537   0.430   3.345   8.434  1.2184 -0.6345  0.3490
25882SOL     OW80538   2.795   8.822   2.353 -0.0268  0.3848  0.3722
25882SOL    HW180539   2.782   8.744   2.408  0.1937  0.5033  0.5904
25882SOL    HW280540   2.728   8.883   2.383 -1.8389 -0.6057 -1.4450
25883SOL     OW80541   4.689   1.571   0.176  0.2672 -0.8925 -0.7162
25883SOL    HW180542   4.763   1.625   0.147 -0.7636  0.8578 -0.1820
25883SOL    HW280543   4.677   1.594   0.268 -1.0024 -1.0663 -0.8183
25884SOL     OW80544  10.128   1.125   5.443 -0.0215  0.3862  0.0907
25884SOL    HW180545  10.120   1.212   5.482 -2.0511  0.0235  0.5829
25884SOL    HW280546  10.066   1.071   5.492  0.5682 -1.1376 -0.7845
25885SOL     OW80547   0.125   4.760   0.666  0.0757 -0.1937 -0.1256
25885SOL    HW180548   0.041   4.738   0.705 -0.0921  0.3743 -0.1607
25885SOL    HW280549   0.190   4.727   0.728 -0.1697  2.1245  1.4941
25886SOL     OW80550   9.694   8.707   7.860 -0.6632  0.5539 -0.2548
25886SOL    HW180551   9.785   8.676   7.867  0.3917  3.6736  2.3710
25886SOL    HW280552   9.694   8.762   7.782 -0.7442 -0.5020 -1.0352
25887SOL     OW80553   6.040   7.407   4.231 -0.0474  0.0648 -0.1115
25887SOL    HW180554   5.985   7.364   4.296 -0.6254  0.3471 -0.4063
25887SOL    HW280555   6.120   7.429   4.278  0.6351 -2.0818 -0.1570
25888SOL     OW80556  10.714   9.037  10.567  0.0798 -0.0539 -0.2752
25888SOL    HW180557  10.760   9.079  10.639  0.0664  0.4390 -0.5534
25888SOL    HW280558  10.672   9.108  10.519 -1.5268 -0.5414  0.3432
25889SOL     OW80559   1.863   8.395   5.669  0.3870  0.6178 -0.9685
25889SOL    HW180560   1.883   8.488   5.668 -0.8941  0.9370 -0.0755
25889SOL    HW280561   1.786   8.386   5.612 -0.7451  0.4702  0.5151
25890SOL     OW80562   3.855   4.957   8.285  0.2275  0.0044  0.0767
25890SOL    HW180563   3.779   5.016   8.289  1.1309  1.6361 -3.2857
25890SOL    HW280564   3.919   4.997   8.344 -0.4829  0.2465  0.7026
25891SOL     OW80565   8.419   0.877   6.109 -0.5383 -0.5041  0.8277
25891SOL    HW180566   8.349   0.939   6.090 -0.4828 -0.9091 -0.8536
25891SOL    HW280567   8.461   0.861   6.024  1.4393 -0.4648  1.7408
25892SOL     OW80568   3.574  10.077   4.963 -0.6020  0.0108  0.3988
25892SOL    HW180569   3.574  10.150   4.901 -0.8752 -0.2066  0.1405
25892SOL    HW280570   3.633  10.012   4.924 -2.6346 -1.1777 -0.9032
25893SOL     OW80571   4.404   3.500   5.816 -0.6767 -0.8083  0.2982
25893SOL    HW180572   4.442   3.443   5.749  1.3599 -0.0785  0.7517
25893SOL    HW280573   4.433   3.588   5.792 -0.9707 -0.3872  1.4389
25894SOL     OW80574   7.666   4.460   9.156  0.2518 -0.1314 -0.0086
25894SOL    HW180575   7.747   4.424   9.191  0.0351 -2.2546 -1.5229
25894SOL    HW280576   7.676   4.555   9.165  2.7012 -0.3636  0.2580
25895SOL     OW80577   1.280   0.330   1.990  0.3646  0.1005  0.3081
25895SOL    HW180578   1.361   0.324   1.940 -0.8857  1.4823 -2.0930
25895SOL    HW280579   1.306   0.367   2.075  2.1980  0.9626 -0.5663
25896SOL     OW80580   9.702   4.712   3.762  0.1564 -0.4829 -0.3189
25896SOL    HW180581   9.753   4.779   3.716  1.1225 -1.0941 -0.1801
25896SOL    HW280582   9.757   4.688   3.837 -0.3083 -1.2157 -0.2091
25897SOL     OW80583   1.565   0.444   7.745  0.7057 -0.0990  0.0918
25897SOL    HW180584   1.659   0.457   7.732  0.5916 -0.6520 -1.4112
25897SOL    HW280585   1.559   0.368   7.803  1.1790 -0.1122  0.1289
25898SOL     OW80586  10.627   0.738   4.933 -1.0182  0.0297 -0.4162
25898SOL    HW180587  10.581   0.805   4.882  0.5831  0.2221 -1.6884
25898SOL    HW280588  10.712   0.728   4.889  0.8916  0.8769  2.7531
25899SOL     OW80589  10.107   5.513   4.003 -0.6837  0.1090 -0.3863
25899SOL    HW180590  10.055   5.585   3.966 -1.0142 -0.8468 -1.8780
25899SOL    HW280591  10.043   5.463   4.054 -0.3286  1.1649  1.1536
25900SOL     OW80592   9.897   8.840   5.246  0.2164 -0.1533  0.0477
25900SOL    HW180593   9.949   8.768   5.282  0.9071 -0.4987 -1.5529
25900SOL    HW280594   9.806   8.812   5.258  0.4728 -1.8128 -1.4829
25901SOL     OW80595   5.994   2.394   0.490 -0.1355  0.1370 -0.1778
25901SOL    HW180596   5.942   2.446   0.429 -1.6414  0.9574  1.7108
25901SOL    HW280597   6.029   2.322   0.436 -3.6734 -0.8168 -1.5202
25902SOL     OW80598   0.259   1.952   0.390 -0.6083  0.2712  0.1044
25902SOL    HW180599   0.333   1.992   0.437  0.8319 -1.1600 -0.8715
25902SOL    HW280600   0.196   1.930   0.459  0.2789  0.6759  1.0627
25903SOL     OW80601   7.480   8.080   3.425  0.0612 -0.0007  0.0480
25903SOL    HW180602   7.445   7.998   3.461 -1.2622  0.2658 -0.5524
25903SOL    HW280603   7.571   8.060   3.404  0.4670 -0.5962  2.1307
25904SOL     OW80604   7.774   5.598   8.016 -0.1166 -0.4271  0.3009
25904SOL    HW180605   7.754   5.643   7.934  1.3413 -1.1269 -0.4925
25904SOL    HW280606   7.697   5.610   8.070  0.2108  3.0375  0.1785
25905SOL     OW80607  10.053   0.211   6.569 -0.1693  0.0782 -0.3830
25905SOL    HW180608  10.050   0.280   6.503 -0.6091  0.4404  0.0012
25905SOL    HW280609   9.986   0.237   6.633 -2.5588 -2.2335 -1.7271
25906SOL     OW80610   9.357   3.167  10.285 -0.3595 -0.0632 -0.8291
25906SOL    HW180611   9.363   3.180  10.191 -2.0311  2.2617 -0.7149
25906SOL    HW280612   9.296   3.093  10.295  1.6074 -1.8688 -1.5104
25907SOL     OW80613   2.624   4.632   5.442  0.4837 -0.7301 -0.2919
25907SOL    HW180614   2.574   4.589   5.372 -0.1693 -0.3083 -0.0981
25907SOL    HW280615   2.621   4.570   5.514 -0.9887 -0.1404  0.2003
25908SOL     OW80616   8.540  10.327   5.501  0.3447  0.2800 -0.3570
25908SOL    HW180617   8.591  10.396   5.460 -1.5766  1.9917 -0.0551
25908SOL    HW280618   8.472  10.374   5.551 -1.4105 -1.8163 -0.6110
25909SOL     OW80619   7.548  10.009   0.682  0.0301  0.4228  0.2603
25909SOL    HW180620   7.562  10.086   0.738 -0.9465  0.1158  0.9452
25909SOL    HW280621   7.619  10.013   0.618  2.2109 -0.1119  2.4876
25910SOL     OW80622   5.244   4.686  10.141  0.7108  0.0631  0.1761
25910SOL    HW180623   5.189   4.684  10.063  0.0151  1.6622  0.5811
25910SOL    HW280624   5.245   4.778  10.167  2.3680 -0.1570  1.0523
25911SOL     OW80625   8.471   3.088   1.966  0.0105  0.1327 -0.8071
25911SOL    HW180626   8.417   3.031   1.912 -0.9721 -0.2188  0.4813
25911SOL    HW280627   8.481   3.041   2.049 -1.7272  2.2117  0.6956
25912SOL     OW80628   4.856   1.647   6.277 -0.2339  0.3485 -0.0466
25912SOL    HW180629   4.853   1.743   6.270  0.4087  0.3902  0.2176
25912SOL    HW280630   4.821   1.628   6.364 -0.5214  0.3309 -0.1649
25913SOL     OW80631   0.543   0.132   8.622 -0.0873 -0.0698  0.2778
25913SOL    HW180632   0.449   0.116   8.620 -0.2633  0.9531 -0.0369
25913SOL    HW280633   0.556   0.199   8.689  0.1393  1.3423 -1.1089
25914SOL     OW80634   8.647   5.677   3.373  0.2933 -0.0857 -0.0619
25914SOL    HW180635   8.615   5.767   3.374  1.1420  0.2279  0.0028
25914SOL    HW280636   8.723   5.679   3.431 -0.4648 -1.1536  0.9975
25915SOL     OW80637   5.408   3.475   9.673  0.4717  0.4237  0.4131
25915SOL    HW180638   5.435   3.446   9.760  1.6150 -0.1341 -0.0954
25915SOL    HW280639   5.333   3.532   9.688 -0.2534 -0.7991  1.6575
25916SOL     OW80640   6.375   7.267   3.434  0.2799 -0.0317  0.1809
25916SOL    HW180641   6.421   7.333   3.383 -0.2841  0.1807 -0.0596
25916SOL    HW280642   6.282   7.289   3.424 -0.0612 -1.8938 -1.3948
25917SOL     OW80643   6.358   6.835   3.318  0.2862  0.1064  0.2815
25917SOL    HW180644   6.283   6.881   3.357 -0.5134  1.2153 -2.3572
25917SOL    HW280645   6.433   6.889   3.343 -0.2138  0.8709  0.1673
25918SOL     OW80646   6.890   1.748   2.474 -0.2967  0.0399 -0.1452
25918SOL    HW180647   6.966   1.696   2.496 -1.1922 -1.1597  0.2172
25918SOL    HW280648   6.861   1.786   2.557 -0.0337  0.6019 -0.3027
25919SOL     OW80649   0.417   6.918   5.946  0.1216 -0.2531  0.0761
25919SOL    HW180650   0.512   6.929   5.940  0.1496 -0.3193  0.4081
25919SOL    HW280651   0.387   6.992   6.000 -0.3673  1.4970 -2.4041
25920SOL     OW80652   1.175   6.859   2.059 -0.0901  0.4954  0.2700
25920SOL    HW180653   1.088   6.821   2.064  0.7011 -1.2432  3.3388
25920SOL    HW280654   1.179   6.919   2.133  0.6007  2.3639 -1.2155
25921SOL     OW80655   9.007  10.549   6.719  0.0712  0.5828  0.2958
25921SOL    HW180656   8.964  10.537   6.635  1.4562  1.6949 -0.6327
25921SOL    HW280657   8.936  10.561   6.782 -0.9863  1.3533 -0.9964
25922SOL     OW80658   6.269   6.190   5.949  0.1751  0.5169  0.0957
25922SOL    HW180659   6.271   6.268   6.005  0.3768  0.2412  0.4804
25922SOL    HW280660   6.353   6.147   5.966 -0.7340 -0.8477  1.4336
25923SOL     OW80661   3.335  10.755   6.312 -0.1582  0.0343  0.1618
25923SOL    HW180662   3.403  10.700   6.353 -0.3898  0.8880  1.7866
25923SOL    HW280663   3.294  10.800   6.386 -2.4170 -0.3351 -0.7962
25924SOL     OW80664   7.922   5.652   6.477  0.6143  0.4734  0.0058
25924SOL    HW180665   7.920   5.624   6.385 -1.3842  2.7716 -0.7551
25924SOL    HW280666   7.847   5.607   6.516  1.2002 -0.1538  0.4255
25925SOL     OW80667   0.662   5.967   7.741 -0.3354  0.4004  0.4603
25925SOL    HW180668   0.699   5.880   7.755 -1.7080 -0.3601 -0.4029
25925SOL    HW280669   0.714   6.003   7.669 -0.7064 -0.3373 -0.2042
25926SOL     OW80670   6.764   0.535   5.061  0.2699  0.3944  0.3606
25926SOL    HW180671   6.744   0.457   5.010  1.6937 -1.1894  2.0629
25926SOL    HW280672   6.685   0.552   5.111  0.4714 -0.9895  1.1907
25927SOL     OW80673   7.310   4.089   0.089  0.2128  0.3135 -0.0607
25927SOL    HW180674   7.257   4.043   0.154 -1.7479  0.1049 -1.7020
25927SOL    HW280675   7.255   4.161   0.059  0.8415  0.1278 -1.8034
25928SOL     OW80676   2.921   9.837   5.896 -0.1553  0.0018 -0.2986
25928SOL    HW180677   2.889   9.847   5.986 -1.3801 -0.4775 -0.6589
25928SOL    HW280678   3.014   9.855   5.902 -0.3726  0.8804  0.9128
25929SOL     OW80679   9.371   6.645   8.116 -0.4585 -0.3773  0.2681
25929SOL    HW180680   9.462   6.671   8.130  0.2446 -1.8236 -1.2799
25929SOL    HW280681   9.328   6.725   8.085  0.6282  0.0001 -0.3194
25930SOL     OW80682   1.985   0.122   0.836  0.2111 -0.0511  0.5760
25930SOL    HW180683   1.897   0.096   0.808  0.7995 -0.8857 -0.6318
25930SOL    HW280684   2.039   0.044   0.822  1.1427  0.4241  1.3387
25931SOL     OW80685   7.900  10.347   8.155  0.4188  0.3828  0.1506
25931SOL    HW180686   7.865  10.259   8.168  3.2240 -0.9284 -0.5214
25931SOL    HW280687   7.897  10.387   8.242 -1.0517 -0.2605  0.4333
25932SOL     OW80688   7.601   9.439   3.787  0.1829  0.1448  0.5043
25932SOL    HW180689   7.528   9.396   3.831  1.2260 -1.0970  1.1056
25932SOL    HW280690   7.645   9.489   3.857 -0.6645  1.7447 -0.0662
25933SOL     OW80691   2.009   4.754   2.283  0.2791  0.3064  0.1948
25933SOL    HW180692   2.048   4.772   2.369  1.8428  2.2374 -0.8480
25933SOL    HW280693   2.069   4.691   2.242  0.4935  0.7101 -0.1220
25934SOL     OW80694   7.458   8.366   0.325 -0.0156  0.1404  0.0779
25934SOL    HW180695   7.553   8.353   0.328 -0.0057 -0.0297 -0.7304
25934SOL    HW280696   7.436   8.360   0.232 -0.9480 -0.7283  0.3345
25935SOL     OW80697   7.892   7.035   3.370  0.0718 -0.2592  0.5386
25935SOL    HW180698   7.973   6.997   3.404  0.3941 -0.7716 -0.7365
25935SOL    HW280699   7.823   6.980   3.406  0.3129 -0.0663  1.3118
25936SOL     OW80700   0.132   8.552   2.996 -0.1699  0.0291 -0.5595
25936SOL    HW180701   0.098   8.607   2.925  0.4035  0.0860 -0.7962
25936SOL    HW280702   0.064   8.556   3.064  0.6245  2.5030  0.2005
25937SOL     OW80703   0.047   2.545   4.300 -0.1289  0.5941  0.3578
25937SOL    HW180704  -0.011   2.554   4.376 -0.3562  0.6047  0.1832
25937SOL    HW280705   0.098   2.626   4.299  0.6539  0.1320  1.1425
25938SOL     OW80706   9.775   6.803  10.558 -0.6393 -0.0042 -0.1060
25938SOL    HW180707   9.731   6.754  10.628  1.0096  0.1313  1.0922
25938SOL    HW280708   9.830   6.866  10.604 -0.7919  1.2741 -1.5832
25939SOL     OW80709   4.354   8.412   7.815  0.3950 -0.1281  0.3684
25939SOL    HW180710   4.437   8.429   7.770  0.9862  1.9321  2.0550
25939SOL    HW280711   4.288   8.416   7.746  1.5966 -0.8154 -0.8538
25940SOL     OW80712   5.890   1.633   7.253 -0.0995  0.2501  0.1193
25940SOL    HW180713   5.910   1.563   7.315  1.2942 -0.2148 -0.8091
25940SOL    HW280714   5.944   1.614   7.176 -0.1911  1.9842 -0.4213
25941SOL     OW80715   8.998   1.583   9.308 -0.7638  0.1510 -0.0213
25941SOL    HW180716   8.948   1.568   9.227  0.1991 -2.1741 -0.2772
25941SOL    HW280717   9.013   1.677   9.311 -1.0793  0.3273 -2.4042
25942SOL     OW80718   6.595   9.123   1.290  0.6648 -0.1175  0.2781
25942SOL    HW180719   6.622   9.146   1.379 -0.3296 -0.8570  0.7976
25942SOL    HW280720   6.665   9.154   1.234  0.8167  1.3081  1.2275
25943SOL     OW80721   5.454   8.703   4.780 -0.5059  0.5313  0.2595
25943SOL    HW180722   5.484   8.724   4.691  1.1636  1.3058  0.9718
25943SOL    HW280723   5.381   8.764   4.794 -0.3777  0.8408 -0.3455
25944SOL     OW80724   8.522   4.956   4.599 -0.2067  0.3194 -0.2466
25944SOL    HW180725   8.585   4.885   4.611 -1.0246 -0.4188 -0.1947
25944SOL    HW280726   8.462   4.924   4.532  0.1068  1.4636 -1.1042
25945SOL     OW80727   2.015   3.999   4.777  0.1703  0.1728 -0.2500
25945SOL    HW180728   1.941   4.041   4.820 -0.6181 -0.3711 -1.0483
25945SOL    HW280729   2.069   3.966   4.848 -0.7454 -0.0930  0.3396
25946SOL     OW80730   3.492   0.125   0.984  0.1047 -0.1732  0.0990
25946SOL    HW180731   3.564   0.065   1.001  0.5174 -0.1492 -1.4296
25946SOL    HW280732   3.414   0.070   0.986  0.3310 -0.4941  0.1842
25947SOL     OW80733   0.596   4.383   5.779  0.3053 -0.1893  0.1651
25947SOL    HW180734   0.552   4.375   5.863 -0.0313 -0.3250 -0.0214
25947SOL    HW280735   0.653   4.306   5.773  0.8113  0.1464  0.5430
25948SOL     OW80736   9.293   6.635   4.914  0.5648  0.1691 -0.5671
25948SOL    HW180737   9.385   6.616   4.933  0.0526 -1.1107  0.8771
25948SOL    HW280738   9.264   6.691   4.986 -0.1255 -0.5651 -0.2572
25949SOL     OW80739   6.936   0.243   4.370  0.1032  0.4197 -0.6342
25949SOL    HW180740   6.860   0.191   4.344  0.5242 -0.0554 -0.9554
25949SOL    HW280741   6.903   0.332   4.378 -0.3488  0.3300 -1.4100
25950SOL     OW80742   7.087   6.412   0.048 -0.2922 -0.5802  0.3173
25950SOL    HW180743   7.002   6.420   0.004  0.1568 -1.7816 -0.8234
25950SOL    HW280744   7.082   6.476   0.120 -1.0093  1.5944 -1.5195
25951SOL     OW80745   9.470   3.480   4.754 -0.4363  0.3469  0.5562
25951SOL    HW180746   9.556   3.442   4.769 -0.4708  0.5400  1.2411
25951SOL    HW280747   9.427   3.418   4.695 -0.2927 -0.4103  1.2295
25952SOL     OW80748   3.315   3.875  10.120  0.2178 -0.3474  0.3106
25952SOL    HW180749   3.407   3.853  10.138  0.3386 -0.8079 -0.7702
25952SOL    HW280750   3.275   3.791  10.097 -0.2342  0.0010 -0.1985
25953SOL     OW80751   7.464   0.030   4.976  0.5773 -0.4012 -0.0965
25953SOL    HW180752   7.401  -0.042   4.981  0.0001  0.0868 -0.2793
25953SOL    HW280753   7.517   0.021   5.055  0.3495 -0.8789  0.0049
25954SOL     OW80754   8.086   2.573   3.744 -0.1006 -0.2661 -0.8985
25954SOL    HW180755   8.101   2.661   3.779 -1.7024 -0.6744  0.9519
25954SOL    HW280756   8.025   2.587   3.671  0.3634  0.2156 -1.2093
25955SOL     OW80757   3.635  10.393   8.293  0.4504  0.4377 -0.6208
25955SOL    HW180758   3.718  10.349   8.276  1.1583  1.7330 -0.7011
25955SOL    HW280759   3.628  10.395   8.389 -0.1376 -0.7837 -0.6169
25956SOL     OW80760   3.526   4.111   6.326 -0.1816 -0.6308 -0.3021
25956SOL    HW180761   3.472   4.108   6.405  0.3540  1.8553  0.2500
25956SOL    HW280762   3.614   4.092   6.357 -0.0071  0.1253 -0.3133
25957SOL     OW80763  10.214   7.069   2.739 -0.0584 -0.4928  0.2451
25957SOL    HW180764  10.217   7.146   2.795  1.7427 -1.9537  2.3263
25957SOL    HW280765  10.288   7.081   2.678 -1.3716  0.5872 -1.2176
25958SOL     OW80766   6.467   8.127   6.350  0.3608  0.1866 -0.6984
25958SOL    HW180767   6.459   8.145   6.444 -0.9554 -1.6091 -0.4088
25958SOL    HW280768   6.379   8.099   6.323  0.9837 -0.4418 -2.2021
25959SOL     OW80769   1.959   9.135  10.653  0.3264 -0.1589  0.1121
25959SOL    HW180770   1.959   9.219  10.608  1.7858 -0.0424  0.2778
25959SOL    HW280771   1.875   9.095  10.630  1.1010 -0.2705 -2.9746
25960SOL     OW80772   8.168   0.519   8.248  0.0905 -0.1571 -0.2685
25960SOL    HW180773   8.209   0.509   8.334  2.2283  0.9678 -1.0878
25960SOL    HW280774   8.151   0.430   8.219  2.3969 -0.7274 -0.0526
25961SOL     OW80775   3.339   8.787   8.490  0.3140  0.2274  0.5035
25961SOL    HW180776   3.409   8.850   8.507  0.5014 -0.1753  1.2799
25961SOL    HW280777   3.367   8.743   8.409  2.1943 -1.5242  1.9779
25962SOL     OW80778   4.936   1.953   6.405  0.6083 -0.2299  0.1398
25962SOL    HW180779   4.987   2.029   6.434  1.3483  0.7852 -3.3750
25962SOL    HW280780   4.848   1.968   6.441  0.5736  2.6674 -0.9119
25963SOL     OW80781   2.117   6.377   8.940 -0.0108  0.2574 -0.0226
25963SOL    HW180782   2.106   6.339   8.853  0.6987  0.0552 -0.0327
25963SOL    HW280783   2.187   6.324   8.980 -1.1595 -0.4515  1.1260
25964SOL     OW80784   1.370   0.436   2.259  0.1533 -0.1122  0.4872
25964SOL    HW180785   1.314   0.491   2.314  0.7699  0.7912  0.2404
25964SOL    HW280786   1.447   0.490   2.243 -0.0143 -0.3240 -1.2836
25965SOL     OW80787   6.091   3.891   2.908  0.3921  0.5103 -0.0029
25965SOL    HW180788   6.023   3.860   2.848  0.8230  1.4639 -1.0325
25965SOL    HW280789   6.088   3.830   2.982 -1.5338  0.5024 -0.0364
25966SOL     OW80790   9.066   1.503   2.012  0.0883  0.5918  0.4077
25966SOL    HW180791   9.014   1.581   1.994  1.2688  1.3413  0.1325
25966SOL    HW280792   9.097   1.514   2.102  1.3017  1.0749 -0.0565
25967SOL     OW80793   0.849   4.524   1.936  0.1264 -0.5270  0.7982
25967SOL    HW180794   0.925   4.581   1.950 -0.7445  0.9281 -0.2459
25967SOL    HW280795   0.776   4.570   1.977 -0.4221 -1.3698  0.8004
25968SOL     OW80796   8.286   4.262   1.138 -0.0509  0.0514 -0.0663
25968SOL    HW180797   8.210   4.283   1.191  0.7434  0.4997  0.9268
25968SOL    HW280798   8.289   4.166   1.138 -0.0329  0.0430  0.7573
25969SOL     OW80799   8.729   2.974   9.383  0.1476  0.3048  0.0042
25969SOL    HW180800   8.760   2.884   9.377  1.6733  0.7172  1.1487
25969SOL    HW280801   8.634   2.968   9.371  0.0583 -1.5981  1.3719
25970SOL     OW80802   2.470   4.769   0.966  0.3642  0.1015  0.3146
25970SOL    HW180803   2.413   4.844   0.984  0.2125  0.4266 -1.3381
25970SOL    HW280804   2.478   4.767   0.871  0.0614 -2.2472  0.2817
25971SOL     OW80805   4.018   3.446   8.108  0.0037  0.1147 -0.2296
25971SOL    HW180806   3.967   3.526   8.104 -0.4031 -0.0885  0.6810
25971SOL    HW280807   3.954   3.377   8.125  0.4985 -0.2323  0.2683
25972SOL     OW80808   0.653   8.004  10.596 -0.3145 -0.5213  0.3640
25972SOL    HW180809   0.635   8.011  10.690  0.0896  4.5386  0.2943
25972SOL    HW280810   0.747   8.020  10.587 -0.4698 -0.2063 -0.9596
25973SOL     OW80811   7.688   1.642  10.434  0.2367  0.0913 -0.3844
25973SOL    HW180812   7.641   1.724  10.449 -0.6480 -0.2438 -1.2349
25973SOL    HW280813   7.756   1.664  10.371 -0.4775  0.0221 -1.1874
25974SOL     OW80814   8.880  10.668   1.736  0.6228  0.0036 -0.1083
25974SOL    HW180815   8.954  10.657   1.795 -0.6429 -0.5952  1.4672
25974SOL    HW280816   8.871  10.763   1.725  0.8198  0.1274  0.7781
25975SOL     OW80817   3.992   2.550   0.023 -0.6144 -0.4816 -0.3181
25975SOL    HW180818   3.906   2.518   0.053 -1.2110  0.0701 -1.3854
25975SOL    HW280819   3.992   2.533  -0.071  0.4721 -0.4869 -0.3240
25976SOL     OW80820   1.972   9.777   8.331  0.0574  0.1024 -0.3281
25976SOL    HW180821   2.023   9.855   8.308  2.3721 -1.2751 -0.1625
25976SOL    HW280822   1.933   9.749   8.248  2.6200 -0.8512 -1.3168
25977SOL     OW80823  10.438   3.571   9.839  0.3116 -0.1043  0.1851
25977SOL    HW180824  10.444   3.592   9.932 -0.3961  0.7167  0.0556
25977SOL    HW280825  10.485   3.488   9.830 -1.2281 -1.2161  1.6176
25978SOL     OW80826   1.424   0.083  10.047 -0.1569 -0.0634  0.5384
25978SOL    HW180827   1.386   0.037  10.122  0.3952 -1.0447  0.2242
25978SOL    HW280828   1.489   0.023  10.011  0.5283  0.9242  0.0598
25979SOL     OW80829   8.186   1.133   9.597  0.2643 -0.2632 -0.0512
25979SOL    HW180830   8.201   1.128   9.692 -1.9261 -0.2837  0.3341
25979SOL    HW280831   8.135   1.055   9.577 -2.6712  1.6429 -0.5124
25980SOL     OW80832   7.345   2.332   4.633  0.0257 -0.1447  0.6561
25980SOL    HW180833   7.374   2.247   4.598  0.0376  0.5659 -1.1416
25980SOL    HW280834   7.283   2.309   4.702 -0.9840 -1.6276 -0.6773
25981SOL     OW80835   9.399   9.785   2.484 -0.0973  0.3747 -0.2278
25981SOL    HW180836   9.411   9.816   2.394 -0.3044 -1.3980 -0.8941
25981SOL    HW280837   9.444   9.701   2.487 -0.2375  0.3279  1.2942
25982SOL     OW80838   3.570   5.302   5.045  0.1664 -0.1888  0.1868
25982SOL    HW180839   3.553   5.255   5.126  0.1646 -0.9695 -0.2509
25982SOL    HW280840   3.492   5.357   5.031 -0.4089 -1.0270  0.0496
25983SOL     OW80841   5.273   0.892   9.256  0.0835  0.0290  0.2621
25983SOL    HW180842   5.196   0.918   9.306 -0.0644 -0.8377  0.4891
25983SOL    HW280843   5.265   0.939   9.173 -0.4893  0.2390  0.4364
25984SOL     OW80844   5.305   2.753   3.523  0.8046  0.2068 -0.1854
25984SOL    HW180845   5.366   2.800   3.466  0.0077  2.4057  0.6843
25984SOL    HW280846   5.324   2.785   3.611 -0.2235 -0.6163  0.3617
25985SOL     OW80847   4.539   6.909   6.019  0.6326 -0.0256  0.0539
25985SOL    HW180848   4.445   6.907   5.998  0.9562  0.9100 -1.5771
25985SOL    HW280849   4.561   7.002   6.025  1.4751 -0.2395  0.4304
25986SOL     OW80850   7.740   9.294   6.738  0.1647  0.3230  0.5432
25986SOL    HW180851   7.670   9.290   6.672  0.0809  0.4081  0.6271
25986SOL    HW280852   7.729   9.379   6.779  1.3258  1.0264 -0.5423
25987SOL     OW80853   9.043   4.230   5.662 -0.2340  0.7055 -0.2088
25987SOL    HW180854   9.118   4.188   5.705  0.2036  2.0755  0.4086
25987SOL    HW280855   8.968   4.206   5.717  0.3027  2.3384  1.3261
25988SOL     OW80856   6.560   3.496   4.841  0.5011  0.1994 -0.7814
25988SOL    HW180857   6.546   3.426   4.777  1.4064  0.3016 -1.1152
25988SOL    HW280858   6.611   3.562   4.793 -1.3499  1.6573 -0.8397
25989SOL     OW80859  10.179   1.819   2.241 -0.8994 -0.2922  0.2264
25989SOL    HW180860  10.221   1.822   2.327 -0.6458  2.0941  0.0853
25989SOL    HW280861  10.250   1.837   2.179 -1.3792 -0.3974 -0.3679
25990SOL     OW80862   2.705   6.604   1.590 -0.8731 -0.1546  0.5695
25990SOL    HW180863   2.685   6.558   1.671 -1.8766 -1.0474 -0.1560
25990SOL    HW280864   2.764   6.545   1.543 -2.1225 -0.7165 -0.3422
25991SOL     OW80865   9.257   2.629   4.283  0.8940  0.5958  0.0423
25991SOL    HW180866   9.319   2.701   4.270  1.1784  0.5128  0.8980
25991SOL    HW280867   9.175   2.671   4.309  1.3167  0.5814  1.4730
25992SOL     OW80868   4.752   6.968   5.301  0.2236 -0.4873  0.4452
25992SOL    HW180869   4.734   7.062   5.310 -0.5918 -0.5917 -0.0275
25992SOL    HW280870   4.670   6.925   5.324 -1.1384 -0.8881 -4.0872
25993SOL     OW80871   6.774   4.257   9.085 -0.7303 -0.1720 -0.0253
25993SOL    HW180872   6.818   4.177   9.113 -1.2288 -0.6652 -0.6025
25993SOL    HW280873   6.684   4.229   9.067 -0.9113  0.5220 -0.2311
25994SOL     OW80874   5.126  10.678   0.269  0.5324 -0.1665 -0.0375
25994SOL    HW180875   5.178  10.692   0.349 -0.5528  0.1546  0.6410
25994SOL    HW280876   5.063  10.610   0.293  1.1055 -1.0964 -1.0832
25995SOL     OW80877  10.401   6.307   5.092  0.3465 -0.0025 -0.4546
25995SOL    HW180878  10.356   6.240   5.040  0.9751 -1.3962  0.7148
25995SOL    HW280879  10.377   6.286   5.182  2.6650 -0.2991  0.1517
25996SOL     OW80880   0.806   1.230   4.913  0.4777 -0.4934  0.2126
25996SOL    HW180881   0.767   1.228   5.000  0.7089  1.0601  0.3859
25996SOL    HW280882   0.853   1.147   4.905  0.0268 -0.8655  1.3614
25997SOL     OW80883   8.378  10.627   8.389 -0.4398 -0.0274 -0.0200
25997SOL    HW180884   8.412  10.594   8.472 -1.4023 -0.7312  0.1046
25997SOL    HW280885   8.293  10.585   8.379 -0.0246 -0.5382 -1.7198
25998SOL     OW80886   9.732   4.924   6.969 -0.2697  0.2290  0.5341
25998SOL    HW180887   9.822   4.933   7.002  0.5128  0.0638 -1.4133
25998SOL    HW280888   9.700   4.845   7.011  1.2474 -0.8627 -0.2423
25999SOL     OW80889   1.011   2.203   2.035 -0.0948 -0.0879 -0.0204
25999SOL    HW180890   1.062   2.149   1.975 -0.7051 -1.2237  0.4516
25999SOL    HW280891   1.024   2.293   2.004 -1.7645 -0.7224 -2.9507
26000SOL     OW80892   0.241   7.773   3.542  0.3851 -0.2416  0.0386
26000SOL    HW180893   0.205   7.692   3.506 -0.6505 -0.2052  0.9236
26000SOL    HW280894   0.336   7.762   3.537  0.2734 -1.9413  1.0286
26001SOL     OW80895   3.529   9.154   2.352  0.2237 -0.4429  0.7781
26001SOL    HW180896   3.588   9.181   2.422  0.4885 -0.0317  0.4078
26001SOL    HW280897   3.582   9.096   2.297 -0.2399 -1.4603  1.3789
26002SOL     OW80898   8.173   6.947   2.063  1.0542  0.3443 -0.3817
26002SOL    HW180899   8.239   6.921   2.127  1.2313 -0.4678 -0.8858
26002SOL    HW280900   8.181   7.042   2.059  0.0220  0.6073  1.8957
26003SOL     OW80901   7.950   6.374   9.165 -0.2171 -0.3265 -0.0468
26003SOL    HW180902   8.020   6.432   9.195 -1.0175 -0.3239  2.0444
26003SOL    HW280903   7.870   6.414   9.200 -0.9922 -1.5972 -0.3020
26004SOL     OW80904  10.591   9.869   1.624  0.2430 -0.4754  0.5835
26004SOL    HW180905  10.546   9.948   1.656  0.9742  0.1807  0.0316
26004SOL    HW280906  10.596   9.812   1.700 -0.1402  0.0815  1.0392
26005SOL     OW80907   5.381   5.896   9.432  0.1378  0.0207 -0.7902
26005SOL    HW180908   5.309   5.833   9.423  0.7551 -0.9966  0.8390
26005SOL    HW280909   5.351   5.957   9.499  0.6900 -0.2770 -0.2630
26006SOL     OW80910  10.644   8.193   8.944 -0.4414  0.0379 -0.1105
26006SOL    HW180911  10.553   8.200   8.975  0.0343  2.0109  1.0399
26006SOL    HW280912  10.694   8.170   9.022  0.2131  0.2971 -0.4439
26007SOL     OW80913   7.830   6.572   2.690 -0.3212  0.1183  0.2361
26007SOL    HW180914   7.738   6.548   2.701 -0.5575  0.8355 -0.0871
26007SOL    HW280915   7.830   6.668   2.689  0.3655  0.1254 -0.3104
26008SOL     OW80916   6.637   7.680   0.247 -0.1062 -0.1695 -0.8118
26008SOL    HW180917   6.690   7.750   0.285 -0.3362 -0.6065  0.3587
26008SOL    HW280918   6.571   7.726   0.195  0.8751  0.4065 -1.5861
26009SOL     OW80919   1.187   4.295   2.530 -0.5816 -0.2301  0.0743
26009SOL    HW180920   1.149   4.209   2.551 -0.6476  0.2429  2.0753
26009SOL    HW280921   1.171   4.306   2.436 -1.3775 -2.0002 -0.0395
26010SOL     OW80922   0.793   1.798   3.201  0.3837  0.4942 -0.0772
26010SOL    HW180923   0.764   1.888   3.185 -0.5942  0.4675  1.2928
26010SOL    HW280924   0.805   1.794   3.296  0.7386 -0.7276 -0.1609
26011SOL     OW80925   5.442   2.171   3.638  0.1336  0.1132 -0.1813
26011SOL    HW180926   5.455   2.109   3.710 -0.6768 -0.8940 -0.8646
26011SOL    HW280927   5.510   2.149   3.575 -0.1089 -0.0289 -0.3923
26012SOL     OW80928   5.180   1.477  10.395  0.1332 -0.6868 -0.6679
26012SOL    HW180929   5.209   1.392  10.427 -0.0093 -0.8600 -0.9918
26012SOL    HW280930   5.131   1.515  10.468  1.5695 -0.1739  0.0724
26013SOL     OW80931   1.669   7.157   1.022  0.0498 -0.1387 -0.1322
26013SOL    HW180932   1.604   7.223   0.997 -1.2192 -0.7704  1.3399
26013SOL    HW280933   1.709   7.192   1.102  1.1223 -0.0601 -0.6729
26014SOL     OW80934   9.932   4.765   7.895 -0.6145  0.1669  0.0008
26014SOL    HW180935   9.958   4.856   7.879 -1.2486  0.0009 -2.2274
26014SOL    HW280936   9.866   4.771   7.964  1.6450  1.0458  2.2390
26015SOL     OW80937   6.087   4.221   6.621  0.6138  1.0177 -0.4915
26015SOL    HW180938   6.051   4.137   6.592  0.6124  1.4183 -1.6853
26015SOL    HW280939   6.046   4.236   6.706 -0.9524  0.7701 -1.1690
26016SOL     OW80940   3.923   3.294   2.775 -0.1737  0.1295  0.2149
26016SOL    HW180941   3.832   3.316   2.756 -0.9899 -3.9624 -1.7198
26016SOL    HW280942   3.971   3.318   2.695  0.2059  0.9530  0.6794
26017SOL     OW80943   4.898   1.166   5.488  0.5689  0.1527 -0.4520
26017SOL    HW180944   4.921   1.239   5.545  1.8993  0.0795 -0.8587
26017SOL    HW280945   4.833   1.116   5.538 -0.1839  1.4661 -0.0730
26018SOL     OW80946   2.734   4.266   0.308 -0.0310 -0.2148  0.3950
26018SOL    HW180947   2.812   4.215   0.329 -0.4090 -0.3622  1.4912
26018SOL    HW280948   2.702   4.298   0.392 -1.9656 -1.3364  0.1340
26019SOL     OW80949   6.880   5.672   3.177  0.0015 -0.6322  0.0126
26019SOL    HW180950   6.946   5.621   3.223  2.0305  1.0288 -0.9046
26019SOL    HW280951   6.854   5.617   3.103  1.7191 -0.6442 -0.6308
26020SOL     OW80952   3.444   0.659   1.940 -0.1839 -0.0393  0.3345
26020SOL    HW180953   3.382   0.732   1.941 -0.8652 -0.6113  1.4953
26020SOL    HW280954   3.393   0.584   1.911  0.1617 -0.3411  0.5000
26021SOL     OW80955   4.416   8.398  10.318  0.1648  0.2293  0.2065
26021SOL    HW180956   4.495   8.452  10.308  0.2982  0.0062  0.0579
26021SOL    HW280957   4.436   8.317  10.271  0.3253 -0.3439  1.2429
26022SOL     OW80958   6.837   3.543   4.017 -0.3823  0.0660 -0.1824
26022SOL    HW180959   6.746   3.516   4.011 -0.8494  1.4961  0.0609
26022SOL    HW280960   6.836   3.617   4.079  0.6093  1.4604 -1.7435
26023SOL     OW80961   6.237   1.318   3.943 -0.2844 -0.1134 -0.2690
26023SOL    HW180962   6.144   1.321   3.924 -0.0327  0.1374 -1.5527
26023SOL    HW280963   6.268   1.407   3.926  0.5103 -0.6264 -1.7121
26024SOL     OW80964   5.197   5.139   3.986 -0.1213  0.2075 -0.1968
26024SOL    HW180965   5.116   5.087   3.995 -1.6826  2.2510 -1.5422
26024SOL    HW280966   5.192   5.202   4.057 -2.9442  4.1881 -3.4279
26025SOL     OW80967   0.620   5.517   3.809  0.4680 -0.3374  0.0378
26025SOL    HW180968   0.615   5.515   3.904  1.4567 -1.9097  0.1023
26025SOL    HW280969   0.707   5.482   3.789 -0.4283 -1.8637 -1.4664
26026SOL     OW80970   7.993   6.072   3.110  0.1231 -0.2962 -0.5261
26026SOL    HW180971   8.036   6.094   3.028  2.4036  0.2684  0.7282
26026SOL    HW280972   7.961   5.982   3.097 -0.9376  0.3032 -2.4837
26027SOL     OW80973   5.778   7.036   9.281  0.0283  0.3015  0.0778
26027SOL    HW180974   5.858   7.026   9.230  1.6796  2.8218  1.9293
26027SOL    HW280975   5.782   6.965   9.345 -1.7022 -2.4384 -2.5754
26028SOL     OW80976   6.666   9.241   0.922  0.1690  0.0537 -0.0624
26028SOL    HW180977   6.669   9.148   0.944  0.0788 -0.6969 -2.8903
26028SOL    HW280978   6.704   9.247   0.834 -0.2111  2.6352 -0.1387
26029SOL     OW80979   0.750   5.550   6.039  0.0631 -0.3165  0.2882
26029SOL    HW180980   0.678   5.517   5.985  1.1756  0.0515 -1.5364
26029SOL    HW280981   0.716   5.630   6.079 -0.2465  0.4709 -1.4426
26030SOL     OW80982   1.113   6.876  10.534  0.2747 -0.6814  0.3481
26030SOL    HW180983   1.094   6.848  10.444 -1.4003  2.2012 -0.3439
26030SOL    HW280984   1.089   6.801  10.588  1.3597 -2.5161 -1.5788
26031SOL     OW80985   5.539   9.027  10.667 -0.5480 -0.2147 -0.0632
26031SOL    HW180986   5.451   9.009  10.698  0.0112 -0.7083  1.3333
26031SOL    HW280987   5.543   9.123  10.659 -1.1536 -0.1846 -0.0110
26032SOL     OW80988   5.078   4.565   4.233 -0.1866 -0.0698 -0.5155
26032SOL    HW180989   5.153   4.509   4.210  1.4922  1.9304 -0.2106
26032SOL    HW280990   5.056   4.539   4.322  1.1453  0.2822 -0.0526
26033SOL     OW80991   5.541   1.973   3.204  0.2929 -0.1345  0.4725
26033SOL    HW180992   5.445   1.967   3.203  0.2633 -0.7616  2.1999
26033SOL    HW280993   5.568   1.892   3.248  1.4218  1.3781  2.7410
26034SOL     OW80994   3.628   6.310   7.219 -0.1512  0.2796 -0.1562
26034SOL    HW180995   3.607   6.277   7.306  1.1515  0.8509  0.4034
26034SOL    HW280996   3.694   6.378   7.235  0.5300 -0.0089 -1.6338
26035SOL     OW80997   1.747   1.381   6.159 -0.2171  0.1458 -0.1499
26035SOL    HW180998   1.738   1.348   6.248 -0.5237 -1.7212 -0.8312
26035SOL    HW280999   1.812   1.451   6.165  1.1910 -1.2069  1.2357
26036SOL     OW81000  10.753   1.871   2.572 -0.5149 -0.4667 -0.6557
26036SOL    HW181001  10.674   1.821   2.593 -0.9568  0.4202 -0.1422
26036SOL    HW281002  10.793   1.824   2.500 -0.9776 -1.4965 -0.2562
26037SOL     OW81003   5.072   3.001   0.358 -0.7911 -0.4830  0.1833
26037SOL    HW181004   5.020   3.053   0.297 -0.2836  0.3819  0.4655
26037SOL    HW281005   5.147   2.971   0.305 -0.8888 -0.6096  0.1165
26038SOL     OW81006   6.643   0.645   8.674 -0.6274  0.0933  0.4393
26038SOL    HW181007   6.617   0.552   8.671  0.8985 -0.3369 -0.2589
26038SOL    HW281008   6.720   0.650   8.617  0.2170  1.5002  1.6513
26039SOL     OW81009   5.628  10.689   0.116  0.2129 -0.0789  0.2853
26039SOL    HW181010   5.590  10.672   0.202 -3.3023  1.7342 -0.7317
26039SOL    HW281011   5.636  10.602   0.076  0.1858 -0.7890  1.7528
26040SOL     OW81012   4.263   6.784   4.653  0.1313  0.6118 -0.1159
26040SOL    HW181013   4.221   6.774   4.568 -0.8019  2.5874  0.0608
26040SOL    HW281014   4.194   6.817   4.710  1.4023  1.9769  0.6969
26041SOL     OW81015   4.995   5.058   2.090  0.0618  0.0685  0.4519
26041SOL    HW181016   5.053   5.125   2.054  2.2077 -1.5790  0.6479
26041SOL    HW281017   5.046   5.018   2.161 -1.4778 -1.2350  0.8822
26042SOL     OW81018   6.936   4.613   8.553  0.0021 -0.1480  0.3239
26042SOL    HW181019   6.916   4.674   8.624 -0.8697 -2.4273  2.1771
26042SOL    HW281020   7.031   4.620   8.542 -0.1444  1.9040  0.0775
26043SOL     OW81021   7.133   5.287   8.017 -0.2737 -0.2017  0.3355
26043SOL    HW181022   7.222   5.315   7.995 -0.4490 -0.6970 -1.1387
26043SOL    HW281023   7.086   5.369   8.034 -0.0430  0.2365 -0.9814
26044SOL     OW81024   0.861   7.682   6.168 -0.3070  0.0504  0.3301
26044SOL    HW181025   0.924   7.751   6.146 -0.1455  0.2455  1.3449
26044SOL    HW281026   0.887   7.653   6.255 -0.5469 -1.1095  0.0243
26045SOL     OW81027   3.951   3.573   9.104  0.5441 -0.3771  0.1218
26045SOL    HW181028   4.038   3.605   9.128  0.4468 -0.4525  0.5913
26045SOL    HW281029   3.891   3.634   9.147  0.3616 -0.4502 -0.0284
26046SOL     OW81030   8.463   1.859   5.093 -0.1930  0.4795  0.2539
26046SOL    HW181031   8.542   1.876   5.041 -0.9986  0.4117 -1.0234
26046SOL    HW281032   8.469   1.922   5.165  0.2269  1.6217 -0.7315
26047SOL     OW81033   0.211  10.248   6.552 -0.2356 -0.1113 -0.0874
26047SOL    HW181034   0.292  10.280   6.590 -0.2627 -0.9317  0.6772
26047SOL    HW281035   0.195  10.306   6.477  0.8281  0.3109  0.0019
26048SOL     OW81036   9.730   4.238   9.116  0.1930  0.0290  0.2976
26048SOL    HW181037   9.642   4.222   9.149 -0.2520  1.0210 -0.3553
26048SOL    HW281038   9.777   4.278   9.189  0.3336 -1.1701  0.8807
26049SOL     OW81039   5.922   7.839   8.936  0.0387 -0.3723 -0.2514
26049SOL    HW181040   5.961   7.880   9.014  0.1506 -0.4024 -0.2926
26049SOL    HW281041   5.856   7.902   8.906  1.4402  0.6110 -1.3774
26050SOL     OW81042  10.199   8.452   9.171 -0.2257  0.5982  0.1378
26050SOL    HW181043  10.290   8.423   9.180 -0.0728  0.8681 -0.4890
26050SOL    HW281044  10.192   8.481   9.080 -0.7663  1.1727  0.3557
26051SOL     OW81045   5.911   5.655   2.957  0.8741  0.0708  0.0388
26051SOL    HW181046   5.916   5.560   2.972 -2.1462  0.2058  3.5191
26051SOL    HW281047   5.834   5.667   2.903  0.9387  0.5811  0.0555
26052SOL     OW81048  10.616   6.420   6.135 -0.8711  0.2463 -0.0569
26052SOL    HW181049  10.552   6.350   6.145  0.8504 -1.3428  0.5006
26052SOL    HW281050  10.646   6.412   6.045  0.7469 -1.1106  0.5459
26053SOL     OW81051   6.569   3.857   3.755 -0.9537 -0.3995 -0.1865
26053SOL    HW181052   6.558   3.883   3.847 -0.2948 -1.8059  0.3213
26053SOL    HW281053   6.663   3.855   3.742 -0.9926 -1.8966 -0.3701
26054SOL     OW81054   4.958   0.264   8.696  0.3260  0.0159 -0.1911
26054SOL    HW181055   4.968   0.189   8.754  0.5395  0.4210  0.2940
26054SOL    HW281056   4.926   0.335   8.752 -0.8200  0.0255 -0.8248
26055SOL     OW81057   3.928   8.483   8.188  0.1399  0.0590 -0.6189
26055SOL    HW181058   3.986   8.543   8.235 -1.0291 -0.3325  1.4324
26055SOL    HW281059   3.951   8.396   8.220  1.2697 -0.5965 -2.9785
26056SOL     OW81060   2.204  10.722   2.707  0.6998 -0.2376  0.4967
26056SOL    HW181061   2.201  10.659   2.780  1.0561 -1.2959 -0.3699
26056SOL    HW281062   2.132  10.695   2.650 -0.1970  1.1969  0.9168
26057SOL     OW81063   1.070   0.134   2.024 -0.1310  0.2624 -0.0119
26057SOL    HW181064   1.115   0.076   1.962  0.4455 -0.5049  1.0932
26057SOL    HW281065   1.128   0.210   2.032  1.0445 -0.7461  1.4465
26058SOL     OW81066   6.750   2.778   4.344 -0.2675  1.0457  0.5581
26058SOL    HW181067   6.749   2.689   4.379 -0.9683  0.1891 -1.5038
26058SOL    HW281068   6.840   2.807   4.354 -0.1396  0.3207  1.7169
26059SOL     OW81069  10.150  10.151   4.510  0.1752  0.3516  0.3007
26059SOL    HW181070  10.219  10.187   4.455 -0.5129 -1.5521 -1.9804
26059SOL    HW281071  10.114  10.226   4.557  1.9255  1.8013 -0.5948
26060SOL     OW81072  10.279   4.794   6.372  0.1105 -0.4000 -0.2258
26060SOL    HW181073  10.219   4.827   6.439 -2.1427 -1.8202 -1.4427
26060SOL    HW281074  10.317   4.715   6.411 -1.4223 -1.3944 -0.6563
26061SOL     OW81075   7.059   4.102   3.183 -0.0920  0.6083 -0.0376
26061SOL    HW181076   7.126   4.034   3.184 -0.1122  0.5189 -1.7789
26061SOL    HW281077   6.987   4.067   3.236  1.4445  0.9953  2.4933
26062SOL     OW81078   4.942   7.241   9.298 -0.6078 -0.5156 -0.0508
26062SOL    HW181079   4.994   7.164   9.274  2.0483  1.6020 -1.5493
26062SOL    HW281080   4.891   7.261   9.219 -1.1390 -0.5662  0.2702
26063SOL     OW81081   4.883   2.256   3.854 -0.4037 -0.1668  0.0751
26063SOL    HW181082   4.940   2.331   3.868 -2.1034  1.3338 -0.6600
26063SOL    HW281083   4.943   2.181   3.847  1.5296  1.3938 -1.2108
26064SOL     OW81084   5.275  10.466   8.854  0.1936  0.0970  0.0061
26064SOL    HW181085   5.233  10.401   8.910  0.0924  0.1038 -0.0615
26064SOL    HW281086   5.229  10.548   8.872 -0.8158 -0.1820 -1.1402
26065SOL     OW81087   1.423   0.664   4.287 -0.0135 -0.1760  0.1523
26065SOL    HW181088   1.490   0.661   4.355  0.2609  0.2804 -0.0920
26065SOL    HW281089   1.431   0.580   4.241  1.3481  0.4294 -0.7782
26066SOL     OW81090   2.091   4.676   2.548  0.1636 -0.6374  0.1904
26066SOL    HW181091   2.185   4.688   2.538  0.6869 -1.3826  3.2024
26066SOL    HW281092   2.082   4.593   2.596 -1.8879  0.1815  1.3778
26067SOL     OW81093   9.077   4.580   7.240  0.7126 -0.0040 -0.2239
26067SOL    HW181094   9.104   4.671   7.254  0.3121  0.6839 -3.1455
26067SOL    HW281095   9.131   4.530   7.301  1.2497  2.1324  1.1925
26068SOL     OW81096   8.284   9.401  10.674  0.2592  0.6182 -0.6564
26068SOL    HW181097   8.191   9.396  10.651  0.1833  2.4560 -0.8301
26068SOL    HW281098   8.329   9.417  10.591  0.8703 -1.1840 -0.7236
26069SOL     OW81099   3.642   7.777   0.073 -0.2227 -0.1561 -0.0541
26069SOL    HW181100   3.604   7.753  -0.011  2.3327  0.7493 -1.5960
26069SOL    HW281101   3.577   7.833   0.114 -1.4602 -0.4574 -1.5218
26070SOL     OW81102   5.283   1.559   8.312 -0.3830  0.1098  0.0537
26070SOL    HW181103   5.193   1.564   8.346 -0.1200  2.1007  0.5940
26070SOL    HW281104   5.272   1.553   8.217 -1.0953  0.3205  0.1131
26071SOL     OW81105   6.142   4.356   4.774  0.1092  0.1531  0.3199
26071SOL    HW181106   6.128   4.450   4.759 -4.5283 -0.5740 -1.6229
26071SOL    HW281107   6.121   4.343   4.867  0.2305  0.9524  0.4639
26072SOL     OW81108   4.041   5.946   7.836 -0.6970  0.1386 -0.0881
26072SOL    HW181109   4.123   5.963   7.791  0.9851  0.6491  2.8721
26072SOL    HW281110   3.997   6.030   7.840 -1.0716  0.0016 -1.0863
26073SOL     OW81111   5.632   4.895   5.809 -0.6124 -0.4789  0.0985
26073SOL    HW181112   5.547   4.883   5.850 -1.8580  1.8660 -1.5283
26073SOL    HW281113   5.646   4.814   5.759 -1.6633 -1.0949  0.7648
26074SOL     OW81114  10.584   6.500   9.275  0.0798 -0.1196 -0.3924
26074SOL    HW181115  10.502   6.487   9.324  0.3253 -0.4743 -0.0745
26074SOL    HW281116  10.556   6.504   9.184 -0.5207  1.7478 -0.1684
26075SOL     OW81117   7.990   1.606   0.648  0.2590 -0.4598  0.6507
26075SOL    HW181118   7.921   1.599   0.714 -0.3038 -0.5554  0.0632
26075SOL    HW281119   8.065   1.560   0.686 -0.3539 -1.3186  0.8411
26076SOL     OW81120   0.958   8.292   9.359  0.4084  0.5172  0.0963
26076SOL    HW181121   0.938   8.220   9.419  0.0230 -0.2223 -0.8903
26076SOL    HW281122   0.895   8.282   9.287  0.3710  1.8264 -0.0860
26077SOL     OW81123   6.320   5.869   6.569  0.0583  0.4834  0.2898
26077SOL    HW181124   6.331   5.958   6.536 -0.5760  0.1857 -0.7602
26077SOL    HW281125   6.399   5.823   6.540 -0.5995  0.1616 -1.0881
26078SOL     OW81126   2.909  10.214   0.557 -0.3380 -0.3057 -0.1815
26078SOL    HW181127   2.872  10.302   0.568 -1.8620 -0.8705 -0.4608
26078SOL    HW281128   2.833  10.156   0.561  0.6524 -1.6261  0.1038
26079SOL     OW81129   6.307   3.741   3.742  0.0925  0.4590  0.3144
26079SOL    HW181130   6.281   3.680   3.673 -0.7055  0.9000  0.2120
26079SOL    HW281131   6.403   3.740   3.739  0.1488 -1.6338  1.0800
26080SOL     OW81132   6.376   2.128   5.597  0.3289  0.5292  0.1965
26080SOL    HW181133   6.342   2.042   5.623  1.3148  0.5690  1.7426
26080SOL    HW281134   6.425   2.110   5.517  0.1579 -0.2783  0.2593
26081SOL     OW81135   5.599   8.554   4.457  0.2611  0.0551  0.3957
26081SOL    HW181136   5.573   8.463   4.439  0.2048 -0.1860  1.6139
26081SOL    HW281137   5.654   8.548   4.535  1.3430  0.9319 -0.2643
26082SOL     OW81138   5.231   7.281   6.919 -0.3187 -0.0389 -0.2181
26082SOL    HW181139   5.269   7.293   7.006  0.4818 -0.9395 -0.4207
26082SOL    HW281140   5.151   7.230   6.934  0.2151 -0.8555 -0.0617
26083SOL     OW81141   1.129   1.870   3.802 -0.9899 -0.0502 -0.0654
26083SOL    HW181142   1.094   1.789   3.838  0.3012 -0.4238  0.4330
26083SOL    HW281143   1.082   1.940   3.847 -0.9021 -0.5324  0.7873
26084SOL     OW81144   6.095   3.706   0.153 -0.3948  0.3544 -0.4430
26084SOL    HW181145   6.071   3.702   0.060 -1.5533 -1.1814 -0.1202
26084SOL    HW281146   6.179   3.661   0.158 -1.2855 -1.3807 -0.4979
26085SOL     OW81147   0.622   5.625   6.433 -0.0652 -0.1389 -0.4777
26085SOL    HW181148   0.657   5.546   6.473  1.3539  0.8588  0.3293
26085SOL    HW281149   0.693   5.657   6.377 -1.2897 -0.4091 -2.2479
26086SOL     OW81150   0.703   3.550   1.040  0.2013 -0.4327 -0.2898
26086SOL    HW181151   0.779   3.585   1.088 -0.1778 -0.6938  0.5109
26086SOL    HW281152   0.703   3.457   1.061  0.3720 -0.6657 -1.2827
26087SOL     OW81153   6.074   7.574   7.521 -0.6424  0.0210  0.5504
26087SOL    HW181154   5.991   7.622   7.527 -0.6937 -0.1553  1.3537
26087SOL    HW281155   6.068   7.527   7.438 -1.8416 -0.8869  1.1082
26088SOL     OW81156   8.222   4.826   6.956  0.4858 -0.3235  0.4571
26088SOL    HW181157   8.259   4.837   6.868  0.4468  1.4357  0.6192
26088SOL    HW281158   8.279   4.880   7.012 -0.0492 -0.6680  1.3476
26089SOL     OW81159   8.329  10.050   9.539  0.4221  0.1726  0.2255
26089SOL    HW181160   8.309   9.977   9.597  0.5881  1.1349  1.5416
26089SOL    HW281161   8.421  10.071   9.557  1.3249 -1.1675 -2.3226
26090SOL     OW81162   5.971   9.889   7.976  0.0404 -0.4579 -0.3833
26090SOL    HW181163   5.958   9.812   8.032  0.5305 -0.4609 -0.2740
26090SOL    HW281164   5.959   9.855   7.887  4.4384 -1.6805 -0.7215
26091SOL     OW81165   1.887  10.351   7.721  0.3203  0.4900  0.1130
26091SOL    HW181166   1.899  10.280   7.785  0.8400  0.9258  0.5100
26091SOL    HW281167   1.959  10.339   7.659  0.3928  0.6551  0.1666
26092SOL     OW81168   5.969   2.906   5.565  0.6989  0.0999 -0.3113
26092SOL    HW181169   6.060   2.878   5.573  0.5019 -0.1144  1.3746
26092SOL    HW281170   5.975   2.999   5.540  1.3705  0.0318 -0.4251
26093SOL     OW81171   6.789   7.107   7.591 -0.1132 -0.1301 -0.4122
26093SOL    HW181172   6.811   7.089   7.683 -0.5163 -0.1041 -0.3121
26093SOL    HW281173   6.826   7.193   7.574 -0.2635 -0.0253 -0.2021
26094SOL     OW81174  10.612   1.719   5.853 -0.1944 -0.7148 -0.0326
26094SOL    HW181175  10.559   1.645   5.882  0.1626 -0.8493  0.2993
26094SOL    HW281176  10.560   1.796   5.875 -0.9371 -0.8853 -1.1426
26095SOL     OW81177   0.276   2.658   6.503 -0.3380  0.7814  0.2639
26095SOL    HW181178   0.366   2.691   6.497 -0.0345 -0.2511 -2.4104
26095SOL    HW281179   0.277   2.598   6.577  1.6012 -0.2817 -0.5551
26096SOL     OW81180   8.229   8.269   4.227  0.2080 -0.3833 -0.3571
26096SOL    HW181181   8.177   8.315   4.293  0.2281  0.6161 -1.0151
26096SOL    HW281182   8.316   8.260   4.266 -0.1364 -1.0325  0.2882
26097SOL     OW81183   6.063   8.186   0.122  0.4615 -0.6578  0.3396
26097SOL    HW181184   5.995   8.143   0.071 -0.2273 -0.7588  1.3196
26097SOL    HW281185   6.022   8.204   0.207  1.6227 -0.6448  0.9179
26098SOL     OW81186   4.565   7.820   6.273  0.5096  0.4694  0.3809
26098SOL    HW181187   4.605   7.851   6.354  1.1460  3.2173 -0.8513
26098SOL    HW281188   4.634   7.826   6.207 -0.7034  1.0351 -0.9102
26099SOL     OW81189   8.364   0.057   2.543 -0.1362 -0.1302  0.3161
26099SOL    HW181190   8.396   0.093   2.626 -2.0578 -0.1794  1.1351
26099SOL    HW281191   8.271   0.082   2.540 -0.0746  0.0238 -1.9283
26100SOL     OW81192   5.778   3.788   9.295  0.5888 -0.0720 -0.0013
26100SOL    HW181193   5.769   3.875   9.256 -0.3283  0.9016  2.1670
26100SOL    HW281194   5.839   3.801   9.368 -0.5371 -0.9389  1.1381
26101SOL     OW81195   0.150   6.149   4.334  0.1332  0.4217  0.6211
26101SOL    HW181196   0.153   6.168   4.428 -1.2419  0.0240  0.7727
26101SOL    HW281197   0.058   6.163   4.311  0.5432  0.9808 -0.7757
26102SOL     OW81198   1.205   5.415   9.270  0.6488  0.3148 -0.2439
26102SOL    HW181199   1.191   5.505   9.301 -0.4369  0.0729  0.0118
26102SOL    HW281200   1.119   5.386   9.241  1.0332 -0.5762 -0.5322
26103SOL     OW81201   3.595   9.908   6.048  0.2555 -0.0452 -0.0633
26103SOL    HW181202   3.654   9.984   6.046  2.3610 -1.6041 -2.2701
26103SOL    HW281203   3.643   9.842   6.098 -0.0788 -0.9949 -0.9783
26104SOL     OW81204  10.119   0.579   5.760 -0.1455 -0.1224 -0.5629
26104SOL    HW181205  10.076   0.522   5.696  0.0452 -0.9752  0.0497
26104SOL    HW281206  10.047   0.629   5.800 -0.4301 -0.6504 -0.4096
26105SOL     OW81207   8.546   1.157   9.819  0.5820 -0.1520 -0.1184
26105SOL    HW181208   8.639   1.136   9.816  0.6998  0.3645 -3.0426
26105SOL    HW281209   8.501   1.074   9.803  0.6816  0.0821 -1.7120
26106SOL     OW81210   7.802   5.056   2.404 -0.3315  0.5583  0.1313
26106SOL    HW181211   7.734   5.121   2.420  0.4909  1.4088  0.3111
26106SOL    HW281212   7.839   5.081   2.319 -1.3809 -0.9468 -0.8175
26107SOL     OW81213   1.120  10.635  10.541  0.2235  0.2362 -0.2631
26107SOL    HW181214   1.137  10.727  10.564 -1.7263  0.6457 -0.2839
26107SOL    HW281215   1.207  10.598  10.527  1.0883  1.9708  0.1360
26108SOL     OW81216   8.347   4.718   1.167  0.5520  0.3819  0.0099
26108SOL    HW181217   8.349   4.738   1.073  1.6121  1.3989  0.2232
26108SOL    HW281218   8.263   4.676   1.181  0.4478  0.0490 -1.4352
26109SOL     OW81219   8.919   2.657   6.200  0.4378  0.3194 -0.0354
26109SOL    HW181220   8.905   2.725   6.266  0.6025  0.8453 -0.5239
26109SOL    HW281221   8.999   2.685   6.154  1.4984 -1.1277  0.8748
26110SOL     OW81222   5.883   6.503   8.390  0.0905  0.1228  0.0719
26110SOL    HW181223   5.879   6.417   8.430 -1.4901 -1.0560 -2.3950
26110SOL    HW281224   5.950   6.495   8.322  0.1864  0.9594  0.0504
26111SOL     OW81225   8.613   4.934   6.867  0.5009 -0.2815  0.2711
26111SOL    HW181226   8.527   4.952   6.903  0.8934 -0.4937  1.3563
26111SOL    HW281227   8.597   4.877   6.791 -0.3464  0.2687  0.0316
26112SOL     OW81228  10.748   4.373   2.470 -0.3924  0.1336  0.2270
26112SOL    HW181229  10.783   4.351   2.556  0.4588  0.4701 -0.0288
26112SOL    HW281230  10.657   4.398   2.487 -0.5523 -0.8399  0.8787
26113SOL     OW81231   2.312   5.855   2.139  0.2003  0.1677  0.2766
26113SOL    HW181232   2.262   5.782   2.102  0.1798 -0.3100  1.2053
26113SOL    HW281233   2.396   5.816   2.163  0.6101  0.7120 -0.2369
26114SOL     OW81234   5.034   0.817   8.234 -0.4721 -0.3096 -0.2041
26114SOL    HW181235   4.967   0.752   8.210 -0.3395 -0.1483 -1.0385
26114SOL    HW281236   5.064   0.789   8.321 -0.7947 -1.0599 -0.3247
26115SOL     OW81237   3.587   3.524   1.526 -0.5312  0.4572  0.2963
26115SOL    HW181238   3.542   3.608   1.537 -1.5959 -0.2389  1.6115
26115SOL    HW281239   3.665   3.532   1.580 -0.1993  0.8776 -0.2316
26116SOL     OW81240   7.442   8.275   1.389  0.2709 -0.6168  0.2587
26116SOL    HW181241   7.430   8.296   1.482 -0.1313 -1.5020  0.4085
26116SOL    HW281242   7.354   8.254   1.357  0.2339  0.6397 -0.5833
26117SOL     OW81243   6.072   2.277   7.101 -0.0808  0.1930  0.1060
26117SOL    HW181244   6.136   2.221   7.145 -0.3117  1.4390  2.1326
26117SOL    HW281245   6.123   2.325   7.035  0.2490 -1.7731 -1.1682
26118SOL     OW81246   3.629   9.164   1.618 -0.0738  0.1873  0.6416
26118SOL    HW181247   3.650   9.202   1.703  1.3461 -1.1482  0.9191
26118SOL    HW281248   3.713   9.135   1.583 -0.7950 -0.3835 -0.6853
26119SOL     OW81249   4.097   4.939   8.701 -0.3880 -0.1933 -0.3217
26119SOL    HW181250   4.017   4.934   8.649 -1.1358 -0.9795  0.8677
26119SOL    HW281251   4.156   4.995   8.650 -1.4903 -0.0599 -1.4714
26120SOL     OW81252   6.531   6.271   6.359 -0.1848  0.7629  0.8714
26120SOL    HW181253   6.595   6.335   6.390 -0.5817  1.9032 -0.5855
26120SOL    HW281254   6.573   6.186   6.372  1.2968  1.4445  0.6673
26121SOL     OW81255   7.162   4.359   5.481  0.8283 -0.6703 -0.3577
26121SOL    HW181256   7.134   4.277   5.440  0.5713 -0.6303 -0.2638
26121SOL    HW281257   7.211   4.331   5.559  0.3956 -0.7283 -0.1061
26122SOL     OW81258   8.108   6.709   9.519 -0.0030 -0.0162  0.5373
26122SOL    HW181259   8.012   6.711   9.515  0.0634  1.5157 -1.2116
26122SOL    HW281260   8.131   6.622   9.487 -0.7852 -0.0957  0.1695
26123SOL     OW81261   0.971   2.105   6.877 -0.3582 -1.1506 -0.0964
26123SOL    HW181262   1.003   2.129   6.790  0.2993  1.8096  0.8476
26123SOL    HW281263   0.993   2.012   6.885 -0.6776 -1.6076 -3.1376
26124SOL     OW81264   5.168  10.021   5.535  0.2512  0.2231 -0.3829
26124SOL    HW181265   5.174  10.086   5.605 -1.0346  0.0407 -0.0712
26124SOL    HW281266   5.229  10.052   5.468  1.7316  0.2459  0.9222
26125SOL     OW81267   7.541   3.202   3.105 -0.5468  0.7910  0.4953
26125SOL    HW181268   7.593   3.122   3.098 -2.0882 -0.3793  1.7804
26125SOL    HW281269   7.456   3.180   3.068 -1.2758  1.5348  1.6343
26126SOL     OW81270   7.292   8.832   8.433 -0.5755  0.1390 -0.0509
26126SOL    HW181271   7.318   8.796   8.349  2.1409  1.2183  0.2444
26126SOL    HW281272   7.234   8.765   8.470  1.9802 -2.6977 -0.7281
26127SOL     OW81273   4.720   5.009   8.657  0.0970 -0.1263  0.4352
26127SOL    HW181274   4.740   5.036   8.747  1.0443 -2.4441  0.9952
26127SOL    HW281275   4.627   4.986   8.658 -0.0034  0.2785  0.6848
26128SOL     OW81276   0.070   1.607   3.507 -0.1544 -0.3910  0.0716
26128SOL    HW181277   0.116   1.589   3.425 -0.0198 -0.9586  0.2691
26128SOL    HW281278  -0.017   1.637   3.480 -0.1164 -0.5968 -0.2768
26129SOL     OW81279   7.979  10.321   8.895 -0.5947 -1.0158  0.4225
26129SOL    HW181280   7.947  10.355   8.979  0.6281 -1.4960  1.1080
26129SOL    HW281281   8.055  10.376   8.875 -0.5808 -1.2327 -0.1163
26130SOL     OW81282   4.322   4.082   5.441  0.4525  0.5823  0.0651
26130SOL    HW181283   4.348   4.118   5.526 -0.5723  1.6671 -0.0609
26130SOL    HW281284   4.405   4.053   5.402  0.8718 -0.6147  1.7066
26131SOL     OW81285  10.760   2.396   6.361  0.2787 -0.1372  0.1273
26131SOL    HW181286  10.785   2.394   6.269 -1.2433  2.2591 -0.4258
26131SOL    HW281287  10.807   2.323   6.400  2.5949  0.0049 -2.1193
26132SOL     OW81288   6.411   4.502   1.508 -0.3742 -0.3706 -0.2061
26132SOL    HW181289   6.366   4.570   1.558 -2.2302 -1.9556  0.4150
26132SOL    HW281290   6.345   4.469   1.447  1.1684 -0.0609 -2.1523
26133SOL     OW81291   0.255   3.373   0.639  0.6778 -0.0364 -0.6703
26133SOL    HW181292   0.171   3.373   0.594 -0.7835  0.0549  1.8697
26133SOL    HW281293   0.263   3.284   0.674 -0.6374  1.0798  2.8559
26134SOL     OW81294   4.689   1.656   7.924  0.1813 -0.0254  1.2930
26134SOL    HW181295   4.658   1.566   7.911 -0.2236  0.4491 -1.6032
26134SOL    HW281296   4.784   1.649   7.925  0.1790 -0.4192  0.1066
26135SOL     OW81297  10.680   0.990   6.395 -0.8620 -0.5951  0.0151
26135SOL    HW181298  10.770   0.960   6.386 -0.4373  1.0258 -1.8103
26135SOL    HW281299  10.627   0.912   6.379  0.1314 -2.0480  3.1067
26136SOL     OW81300   8.264   6.978   0.758 -0.4676 -0.0683 -0.5061
26136SOL    HW181301   8.321   7.053   0.775 -0.8274  0.0882  0.0461
26136SOL    HW281302   8.188   6.992   0.815 -0.1558 -1.2847  0.2642
26137SOL     OW81303   2.767  10.085   7.707 -0.5390  0.0916 -0.0131
26137SOL    HW181304   2.820  10.164   7.693  0.8204 -1.1826 -3.1104
26137SOL    HW281305   2.824  10.027   7.757 -0.8420  0.3737  0.6757
26138SOL     OW81306   4.642  10.716  10.276  0.1648  0.7501  0.0571
26138SOL    HW181307   4.731  10.693  10.250 -0.1101  0.0007 -0.2303
26138SOL    HW281308   4.624  10.658  10.351 -0.3575  0.3552 -0.3705
26139SOL     OW81309   9.248   0.716   4.239 -0.4178 -0.1585  0.1124
26139SOL    HW181310   9.317   0.758   4.290 -1.1659  0.2426  0.8244
26139SOL    HW281311   9.250   0.761   4.155 -0.6285  0.7147  0.5603
26140SOL     OW81312   4.079  10.542   1.359 -0.1964  0.5522 -0.2879
26140SOL    HW181313   4.146  10.478   1.335 -0.6830  0.6402 -1.9756
26140SOL    HW281314   4.123  10.599   1.423  1.2007  0.3412 -1.0190
26141SOL     OW81315   9.446   9.903   2.720 -0.4017 -0.5397  0.4213
26141SOL    HW181316   9.445   9.995   2.694  1.1806 -0.9260 -1.1695
26141SOL    HW281317   9.444   9.854   2.638  0.6650 -1.8758  1.1404
26142SOL     OW81318   4.755   1.366  10.353 -0.3831 -0.0830 -0.0583
26142SOL    HW181319   4.811   1.362  10.276 -0.4153 -0.4042 -0.0701
26142SOL    HW281320   4.798   1.310  10.418  0.3452  1.2490  0.6364
26143SOL     OW81321   0.610   7.154   6.814 -0.7919 -0.3942 -0.1585
26143SOL    HW181322   0.602   7.224   6.879 -0.0032 -0.6788  0.2424
26143SOL    HW281323   0.589   7.198   6.731 -0.0999  0.3775  0.0584
26144SOL     OW81324   1.837   3.631   9.481 -0.0789  0.4970  0.1139
26144SOL    HW181325   1.832   3.639   9.576  3.1311  2.2160  0.2868
26144SOL    HW281326   1.760   3.678   9.449 -1.9511 -1.2536  1.7833
26145SOL     OW81327   8.855   5.713   0.179  0.4434 -0.1341  0.1209
26145SOL    HW181328   8.937   5.735   0.223 -0.6924  3.3305  0.8252
26145SOL    HW281329   8.787   5.745   0.239 -1.2330  3.3045 -3.1836
26146SOL     OW81330   7.981   9.142   5.347  0.9032  0.7569  0.0239
26146SOL    HW181331   8.054   9.108   5.295  1.6891  0.4592  1.2704
26146SOL    HW281332   7.936   9.203   5.289  0.0772 -1.5632 -1.9292
26147SOL     OW81333   4.775   6.375   0.146 -0.1559  0.6338  0.1374
26147SOL    HW181334   4.722   6.309   0.103 -0.5532  0.4027  0.9574
26147SOL    HW281335   4.761   6.361   0.240 -1.4868  2.8530  0.3496
26148SOL     OW81336   6.872   3.238   4.041 -0.0797  0.5929 -0.1590
26148SOL    HW181337   6.829   3.297   3.979 -1.2329  0.6031  0.6266
26148SOL    HW281338   6.934   3.293   4.088 -1.5633  1.3698  0.9815
26149SOL     OW81339   5.420   4.966   2.313 -0.1134 -0.0307 -0.0438
26149SOL    HW181340   5.339   4.953   2.262  0.5521  0.5014 -1.2953
26149SOL    HW281341   5.462   4.880   2.313 -1.3082 -0.6804  1.8304
26150SOL     OW81342   6.675   7.674   4.612  0.3463 -0.7804  0.4473
26150SOL    HW181343   6.684   7.642   4.702 -0.9364 -0.6075  0.6498
26150SOL    HW281344   6.605   7.739   4.617  0.3032 -0.7300 -0.6766
26151SOL     OW81345   1.306   1.915   8.803 -0.0542 -0.3596 -0.1772
26151SOL    HW181346   1.378   1.852   8.811 -0.4434 -0.8204 -0.3076
26151SOL    HW281347   1.334   1.989   8.857  1.2257  0.1360 -1.4467
26152SOL     OW81348   2.977   7.090   7.909  0.2767  0.2121 -0.1191
26152SOL    HW181349   2.946   7.002   7.929  1.3753 -0.5169 -1.4519
26152SOL    HW281350   3.032   7.114   7.983  1.1111 -0.8227 -0.3788
26153SOL     OW81351   5.136   9.045   2.464  0.2811 -0.0979 -0.2717
26153SOL    HW181352   5.082   9.094   2.401  0.4404  0.4953  0.0404
26153SOL    HW281353   5.141   8.957   2.428 -2.9023 -0.8961  0.8623
26154SOL     OW81354   1.058   2.715  10.006 -0.4245  0.3400 -0.1311
26154SOL    HW181355   1.000   2.661   9.952 -0.5854  1.1863 -0.8224
26154SOL    HW281356   1.002   2.750  10.075 -0.5756  0.5460 -0.3572
26155SOL     OW81357   3.131   9.078   7.659  0.5734  0.3242 -0.8555
26155SOL    HW181358   3.146   8.989   7.691 -1.6790 -0.2193 -1.0988
26155SOL    HW281359   3.185   9.085   7.581  1.4827 -0.4971 -0.3205
26156SOL     OW81360   3.714   0.765   6.200 -0.0714 -0.0748  0.0565
26156SOL    HW181361   3.701   0.708   6.276 -0.2004 -0.1112  0.0077
26156SOL    HW281362   3.787   0.822   6.224 -0.1990  0.0025  0.2583
26157SOL     OW81363   2.571   6.074   0.969 -0.0847  0.2182 -0.2832
26157SOL    HW181364   2.620   6.032   1.041 -1.7751 -0.8814  0.2846
26157SOL    HW281365   2.615   6.042   0.890  0.9264  0.3106  0.2176
26158SOL     OW81366   6.301   2.926   4.500 -0.1655  0.3768  0.4291
26158SOL    HW181367   6.205   2.920   4.503 -0.2354  1.4745  0.9688
26158SOL    HW281368   6.329   2.845   4.457 -1.3311  0.0199  0.3074
26159SOL     OW81369   0.781   2.743   0.250  0.2615 -0.6062 -0.1209
26159SOL    HW181370   0.698   2.706   0.280  0.1961 -0.3952 -0.0402
26159SOL    HW281371   0.795   2.819   0.306  0.7328 -0.8992  0.1637
26160SOL     OW81372   6.848   1.343   7.265 -0.5744 -0.3749 -0.1059
26160SOL    HW181373   6.943   1.344   7.255 -0.5644 -1.3137 -0.1589
26160SOL    HW281374   6.815   1.320   7.178 -0.9392  1.4276 -0.4949
26161SOL     OW81375   8.885   7.371   4.773 -0.6736 -0.5852 -0.5419
26161SOL    HW181376   8.829   7.297   4.752  0.9448 -1.8862 -0.3809
26161SOL    HW281377   8.916   7.403   4.688 -1.6640  0.1956 -0.6382
26162SOL     OW81378   1.106   9.116   2.675  0.9200  0.0029 -0.2075
26162SOL    HW181379   1.175   9.166   2.719 -0.3124  0.3289  1.4533
26162SOL    HW281380   1.110   9.029   2.715  2.5802 -1.1175 -2.5756
26163SOL     OW81381   2.241   8.940   4.363  0.3328  0.4666 -0.1170
26163SOL    HW181382   2.159   8.907   4.400  0.6398  0.6708  0.7920
26163SOL    HW281383   2.218   9.022   4.320  0.1771  0.9197  0.8051
26164SOL     OW81384   8.685   0.688   1.816 -0.3275  0.3152 -0.2911
26164SOL    HW181385   8.657   0.675   1.906  1.3260 -0.1551  0.2042
26164SOL    HW281386   8.680   0.783   1.802  0.7157  0.5468  0.7761
26165SOL     OW81387   8.593   2.613   2.841  0.2726  0.2293 -0.1754
26165SOL    HW181388   8.654   2.658   2.900  0.4957 -1.1907  0.7196
26165SOL    HW281389   8.649   2.572   2.776  0.4225 -1.6907  1.0617
26166SOL     OW81390   1.001   8.037   6.225 -0.1850  0.0876 -0.4530
26166SOL    HW181391   1.050   8.081   6.294  0.2365 -1.2824  0.1575
26166SOL    HW281392   0.914   8.022   6.263  0.0819 -0.7691 -0.1486
26167SOL     OW81393   8.352   3.050   8.680  0.3497 -0.2242  0.2159
26167SOL    HW181394   8.314   3.136   8.699  0.0087 -0.4972  0.8040
26167SOL    HW281395   8.446   3.067   8.673  0.1797  0.3834 -0.8040
26168SOL     OW81396   2.940   8.224   6.260 -0.1925 -0.3418 -0.1678
26168SOL    HW181397   3.013   8.175   6.222 -0.7554 -1.7244  0.4403
26168SOL    HW281398   2.917   8.289   6.194 -0.0475 -1.5526 -1.4610
26169SOL     OW81399   0.926   7.665   6.415 -0.0844 -0.2103 -0.4104
26169SOL    HW181400   0.971   7.607   6.477 -1.1598 -1.7271 -0.9919
26169SOL    HW281401   0.873   7.723   6.471  1.3127  0.5251  0.1969
26170SOL     OW81402   6.962   3.921   0.812 -0.1861 -0.0409  0.1989
26170SOL    HW181403   6.910   3.992   0.774  1.2702  0.2574 -1.3736
26170SOL    HW281404   6.919   3.841   0.782 -1.4600  0.1371  1.4471
26171SOL     OW81405   6.656   6.849   8.205  0.2618 -0.1792 -0.0215
26171SOL    HW181406   6.746   6.824   8.181  0.2622 -1.7615  1.4232
26171SOL    HW281407   6.657   6.945   8.205  1.7690 -0.1673 -0.6942
26172SOL     OW81408   4.052   0.933   1.066  0.3505 -0.1130  0.0850
26172SOL    HW181409   3.963   0.916   1.037  0.0239  1.3436  0.1415
26172SOL    HW281410   4.106   0.915   0.990  0.1012 -1.6383  0.2380
26173SOL     OW81411   6.450   0.548  10.359  0.2807  0.0325  0.6084
26173SOL    HW181412   6.361   0.547  10.395  0.3104  1.9365  0.8345
26173SOL    HW281413   6.438   0.538  10.265 -0.1755  0.2982  0.6361
26174SOL     OW81414   3.253   3.022   4.087  0.3139 -0.1208 -0.1074
26174SOL    HW181415   3.302   3.075   4.025 -1.4205  1.0800 -0.5509
26174SOL    HW281416   3.161   3.035   4.062 -0.4413  0.0838  2.4352
26175SOL     OW81417   1.183  10.534   2.804  0.2033 -0.4147  0.1776
26175SOL    HW181418   1.240  10.594   2.757  0.5518 -1.0624 -0.2465
26175SOL    HW281419   1.109  10.588   2.833  1.5354  0.6771  1.6876
26176SOL     OW81420   6.010   9.689   4.260  0.0398 -0.2211  0.5308
26176SOL    HW181421   5.974   9.618   4.314  1.0669 -1.8274 -0.7978
26176SOL    HW281422   6.091   9.714   4.304 -0.0647 -0.2269  0.7271
26177SOL     OW81423   0.608   9.067   8.008  0.4083 -0.3791  0.2193
26177SOL    HW181424   0.530   9.108   7.970  2.3767  2.9400 -0.6076
26177SOL    HW281425   0.592   9.067   8.103  0.5673  3.2940  0.3758
26178SOL     OW81426   3.348   1.961   9.891  0.5049 -0.2646  0.7279
26178SOL    HW181427   3.343   1.886   9.949 -0.7300 -1.5307 -0.9199
26178SOL    HW281428   3.441   1.973   9.874  0.6723 -3.0412 -0.8921
26179SOL     OW81429   7.162   4.760   7.901 -0.0272 -0.0581 -0.0100
26179SOL    HW181430   7.094   4.699   7.928 -1.2473  0.2510 -2.1470
26179SOL    HW281431   7.123   4.846   7.909  1.2858  0.4272  1.8556
26180SOL     OW81432   8.890   7.003   2.080  0.4534  0.2558  0.5839
26180SOL    HW181433   8.825   7.062   2.041  2.4600  1.7994 -0.6750
26180SOL    HW281434   8.846   6.965   2.156 -2.3308  0.1491 -0.9700
26181SOL     OW81435   5.213   8.056   9.952  0.4004  0.2258  0.4236
26181SOL    HW181436   5.160   8.132   9.977 -0.2185 -0.2226  0.4995
26181SOL    HW281437   5.276   8.090   9.889 -0.4701  0.6295 -0.2554
26182SOL     OW81438   3.944   7.973   4.616 -0.9002 -0.4086  0.0621
26182SOL    HW181439   3.913   8.041   4.676  2.1775  1.5066 -0.3357
26182SOL    HW281440   3.989   7.910   4.672 -0.4547 -0.1020  0.0499
26183SOL     OW81441   2.992   7.449   8.573  0.3887 -0.3735  0.1259
26183SOL    HW181442   3.041   7.449   8.490 -2.4360 -1.2222 -1.6885
26183SOL    HW281443   2.970   7.541   8.587  2.6705  0.0812  1.1781
26184SOL     OW81444   9.543   4.085   1.879  0.3980 -0.2002 -0.4458
26184SOL    HW181445   9.522   4.042   1.962  1.6737 -0.8789 -0.4493
26184SOL    HW281446   9.591   4.164   1.904  0.5159 -0.2477 -0.5187
26185SOL     OW81447  10.629   7.996   2.029 -0.4931 -0.2985 -0.8249
26185SOL    HW181448  10.703   8.055   2.017 -1.1774  0.4979 -1.2344
26185SOL    HW281449  10.552   8.053   2.025 -1.1322 -1.1177 -0.4558
26186SOL     OW81450   4.933   7.820   0.063 -0.1295  0.2780 -0.0321
26186SOL    HW181451   5.012   7.773   0.038 -1.3686 -1.0626 -1.6479
26186SOL    HW281452   4.890   7.763   0.127 -1.2165 -0.4333 -1.3616
26187SOL     OW81453   7.750  10.717   8.731  0.7045 -0.0052 -0.1506
26187SOL    HW181454   7.771  10.667   8.652 -0.8208 -2.1767  0.7191
26187SOL    HW281455   7.667  10.759   8.711  0.5904 -0.1153  0.0833
26188SOL     OW81456   5.151   6.160   0.032  0.3309 -0.2724  0.2109
26188SOL    HW181457   5.171   6.108  -0.046  0.2838  0.7979 -0.5480
26188SOL    HW281458   5.175   6.104   0.106 -3.2444 -2.9185 -0.3533
26189SOL     OW81459   1.700   0.499   0.441 -0.4135  0.3516  0.8178
26189SOL    HW181460   1.775   0.440   0.437  0.3235  1.3076 -0.0455
26189SOL    HW281461   1.627   0.446   0.409 -0.0759 -0.5311  1.4798
26190SOL     OW81462   1.208   7.738   9.053 -0.4472  0.3124 -0.0661
26190SOL    HW181463   1.194   7.737   9.147  2.4091  0.8895  0.4567
26190SOL    HW281464   1.217   7.830   9.030  0.8827  0.1080 -0.4971
26191SOL     OW81465   9.259   3.049   1.609  0.0457  0.1191 -0.7193
26191SOL    HW181466   9.254   3.124   1.669 -2.1788  0.2459 -0.9936
26191SOL    HW281467   9.336   3.000   1.639 -0.6377  0.4779  1.8728
26192SOL     OW81468   4.612   9.338   3.835  0.8618 -0.0235 -0.0062
26192SOL    HW181469   4.639   9.271   3.899  1.0884  1.3391  1.3773
26192SOL    HW281470   4.694   9.366   3.795  0.6801 -1.1707 -1.2465
26193SOL     OW81471   6.899   3.456   9.684  0.5938 -0.8528  0.2069
26193SOL    HW181472   6.832   3.521   9.663  1.7190  0.0683 -0.6769
26193SOL    HW281473   6.853   3.372   9.681 -0.5522 -0.2342 -0.2138
26194SOL     OW81474   5.785   3.674   0.304 -0.0217  0.1182  0.3302
26194SOL    HW181475   5.711   3.630   0.262 -0.3699 -0.6017  1.6312
26194SOL    HW281476   5.783   3.763   0.269 -0.1034 -0.5135 -1.3595
26195SOL     OW81477   2.747  10.450   0.634  0.2071  0.2325  0.0399
26195SOL    HW181478   2.729  10.442   0.727  0.3350 -1.3254 -0.0399
26195SOL    HW281479   2.786  10.537   0.624 -0.5399  0.7394  1.3028
26196SOL     OW81480   8.938   2.328   4.322 -0.2175  0.2809  0.9472
26196SOL    HW181481   8.998   2.361   4.255 -0.2691  0.9322  1.2210
26196SOL    HW281482   8.972   2.242   4.344  0.6753  0.6845  1.1715
26197SOL     OW81483   5.675   4.615   5.723  0.1960 -0.2685 -0.0900
26197SOL    HW181484   5.767   4.634   5.701  0.0335  2.1198  0.9912
26197SOL    HW281485   5.629   4.626   5.640  0.4300  2.4203  0.0421
26198SOL     OW81486   0.244   8.104   1.418 -0.4738  0.4269  0.3046
26198SOL    HW181487   0.200   8.136   1.496  0.9052 -1.0492  1.7642
26198SOL    HW281488   0.328   8.071   1.449 -0.7951 -2.3538 -1.3746
26199SOL     OW81489  10.445   2.060  10.766 -0.4677  0.5832 -0.4814
26199SOL    HW181490  10.492   2.018  10.838  0.3131 -1.4367 -2.0914
26199SOL    HW281491  10.362   2.012  10.762 -2.4571  3.4554  1.6808
26200SOL     OW81492   3.830   2.216   6.103 -0.2036  0.5298 -0.5147
26200SOL    HW181493   3.888   2.287   6.131  0.8505 -0.2488 -0.6539
26200SOL    HW281494   3.889   2.147   6.073 -1.2058 -0.3356 -0.5715
26201SOL     OW81495   1.969  10.055   8.913 -0.2956  0.5929 -0.0938
26201SOL    HW181496   1.882  10.015   8.908 -0.1329  0.1165  0.7385
26201SOL    HW281497   2.021   9.994   8.965 -0.0521  1.8954  1.2632
26202SOL     OW81498   6.810   4.124   5.212 -0.1620  0.3393  0.3126
26202SOL    HW181499   6.802   4.168   5.127  0.2106  1.0156  0.6199
26202SOL    HW281500   6.826   4.195   5.274 -2.8415  0.1297  1.3346
26203SOL     OW81501   8.806   4.973   5.900 -0.5760  0.5704 -0.8878
26203SOL    HW181502   8.776   5.030   5.829 -0.1374  0.4515 -1.1740
26203SOL    HW281503   8.740   4.904   5.905 -0.7268  0.7032 -1.0316
26204SOL     OW81504   4.988   9.581   9.662  0.9938 -0.5706  0.0061
26204SOL    HW181505   4.920   9.543   9.607 -0.2241  1.5494 -0.0915
26204SOL    HW281506   4.985   9.531   9.743 -1.5392  0.1410  0.4446
26205SOL     OW81507   9.618   5.756   9.475  0.4682 -0.6396  0.2617
26205SOL    HW181508   9.620   5.691   9.545 -0.9332 -1.1137 -0.1093
26205SOL    HW281509   9.568   5.829   9.511 -1.0261 -1.2417 -0.4896
26206SOL     OW81510   7.420   6.229   1.879 -0.4310 -0.1050  0.0220
26206SOL    HW181511   7.375   6.182   1.810  0.9734 -1.5113  0.0179
26206SOL    HW281512   7.487   6.280   1.833 -1.4421  1.3788  0.1017
26207SOL     OW81513   9.592   5.706   4.093  0.0942  0.0281 -0.4134
26207SOL    HW181514   9.605   5.672   4.005  1.2130  1.2044 -0.7209
26207SOL    HW281515   9.523   5.772   4.084 -0.1353 -0.1893 -0.2988
26208SOL     OW81516   8.837  10.698   7.270  0.7636  0.2520  0.1923
26208SOL    HW181517   8.823  10.708   7.365 -1.4793  0.0293 -0.0718
26208SOL    HW281518   8.922  10.654   7.264  0.1302 -1.4749  2.2201
26209SOL     OW81519   0.852   6.200   5.538  0.3762 -0.2555 -0.2245
26209SOL    HW181520   0.788   6.267   5.565  1.4525  0.7420 -0.0777
26209SOL    HW281521   0.900   6.179   5.618  1.0806 -0.0454 -0.5842
26210SOL     OW81522   4.880   1.764  10.100  0.5497 -0.0729  0.3611
26210SOL    HW181523   4.847   1.844  10.059  1.1668  0.4635  0.8974
26210SOL    HW281524   4.828   1.694  10.060 -0.4110  0.6406  0.3173
26211SOL     OW81525   4.094   2.494   5.332 -0.2366 -0.8029  0.1723
26211SOL    HW181526   4.088   2.399   5.344  0.9847 -0.9711 -0.3568
26211SOL    HW281527   4.083   2.530   5.419 -0.3112 -1.4683  0.4426
26212SOL     OW81528   6.364   6.900   7.162  0.0035 -0.8280 -0.0553
26212SOL    HW181529   6.361   6.949   7.080 -2.0267 -1.5266 -0.4659
26212SOL    HW281530   6.455   6.873   7.171  0.8879  1.7630 -0.5221
26213SOL     OW81531   2.593   9.527   5.591  0.2960 -0.3367 -0.2469
26213SOL    HW181532   2.688   9.538   5.593  0.0684  2.3635  2.1028
26213SOL    HW281533   2.569   9.547   5.500  1.9348 -0.9946 -0.8627
26214SOL     OW81534   2.866   9.842   0.693 -0.2146  0.1526  0.5382
26214SOL    HW181535   2.947   9.820   0.648 -0.1479  2.6829 -0.8149
26214SOL    HW281536   2.806   9.770   0.672  1.2935 -1.1533  0.5525
26215SOL     OW81537   9.355   3.270   1.252 -0.1630 -0.5460  0.1766
26215SOL    HW181538   9.321   3.304   1.169  1.0822 -2.0029 -0.9908
26215SOL    HW281539   9.301   3.312   1.319  0.0662  2.2175 -1.2275
26216SOL     OW81540   7.109   1.552   7.653  0.1842  0.2272  0.0274
26216SOL    HW181541   7.166   1.502   7.712  0.0753  1.1979  0.9901
26216SOL    HW281542   7.022   1.540   7.689  0.0521  0.4321 -0.2233
26217SOL     OW81543   3.165   1.812   8.459 -0.6207  0.4048  0.3568
26217SOL    HW181544   3.205   1.887   8.415  0.1500  0.4952  1.2003
26217SOL    HW281545   3.184   1.824   8.551  1.7903 -2.1085  0.3207
26218SOL     OW81546  10.595   0.314   4.156 -0.2603  0.5217 -0.0957
26218SOL    HW181547  10.656   0.243   4.178 -0.9520  0.3767  1.5162
26218SOL    HW281548  10.642   0.394   4.178 -1.0252  0.3698  2.3181
26219SOL     OW81549   3.436   7.134   0.288 -0.3801 -0.0696 -0.0353
26219SOL    HW181550   3.512   7.076   0.292  1.6454  2.4254  2.7225
26219SOL    HW281551   3.417   7.144   0.195  1.3814 -2.3004 -0.7195
26220SOL     OW81552   4.217   3.999   0.867 -0.5047 -0.0379  0.6490
26220SOL    HW181553   4.185   3.937   0.932 -2.1745  0.4311  0.3203
26220SOL    HW281554   4.139   4.047   0.840  0.5690  1.4603  0.1032
26221SOL     OW81555   0.392   0.353   5.346  0.5121  0.8288  0.1057
26221SOL    HW181556   0.387   0.264   5.383  2.3391  0.7352  0.2270
26221SOL    HW281557   0.385   0.411   5.422  0.8823  0.7404  0.2081
26222SOL     OW81558   4.533   0.493   8.210 -0.3456  0.4748 -0.2499
26222SOL    HW181559   4.516   0.401   8.188 -0.3735  0.3232  0.3693
26222SOL    HW281560   4.627   0.504   8.195 -0.2501  0.2070  0.1322
26223SOL     OW81561   5.629   6.312   3.346 -0.3567  0.4518 -0.7645
26223SOL    HW181562   5.705   6.283   3.396 -0.1320 -0.2281 -1.4731
26223SOL    HW281563   5.582   6.232   3.325 -2.1571  0.9766  1.0082
26224SOL     OW81564   9.090   8.294  10.146  0.0786 -0.2665 -0.5005
26224SOL    HW181565   9.117   8.225  10.206 -1.0394 -1.6684 -1.5495
26224SOL    HW281566   8.999   8.273  10.124 -0.3053  1.5688 -0.8349
26225SOL     OW81567   4.538   0.564   4.837 -0.1185  0.0422  0.3327
26225SOL    HW181568   4.546   0.639   4.778  0.1247  1.1327  1.7193
26225SOL    HW281569   4.628   0.536   4.852 -0.1648 -0.0661  0.4073
26226SOL     OW81570   6.700   9.086   2.552 -0.0529 -0.7483 -0.1939
26226SOL    HW181571   6.631   9.066   2.615  0.2064 -0.1906  0.2859
26226SOL    HW281572   6.659   9.143   2.488 -0.0822 -0.5506 -0.0005
26227SOL     OW81573   6.705   5.716   7.037  0.5726  0.7436  0.2834
26227SOL    HW181574   6.741   5.696   6.950 -2.1328  0.7416 -0.9359
26227SOL    HW281575   6.734   5.805   7.055  1.1098  0.7799 -0.6642
26228SOL     OW81576   7.171   3.661   0.153 -0.2123 -0.4252  0.1101
26228SOL    HW181577   7.171   3.574   0.114 -3.1350  0.4433 -2.3064
26228SOL    HW281578   7.230   3.712   0.098  0.0208 -0.4626  0.3267
26229SOL     OW81579   3.008   8.224   3.943 -0.0121 -0.0061 -0.4707
26229SOL    HW181580   3.018   8.237   3.849 -1.5350  1.8127 -0.4303
26229SOL    HW281581   3.073   8.281   3.983 -0.9717  1.0848 -0.4178
26230SOL     OW81582   6.577   1.399   7.989  0.2610  0.1365  0.6301
26230SOL    HW181583   6.583   1.303   7.990 -4.0223 -0.3535 -0.7504
26230SOL    HW281584   6.576   1.424   8.082  0.1805 -1.3009  1.0377
26231SOL     OW81585   6.568   1.161   0.382 -0.5249 -0.0273 -0.3064
26231SOL    HW181586   6.652   1.205   0.368 -0.3508 -0.2618  0.0056
26231SOL    HW281587   6.505   1.233   0.385 -0.3501  0.1461 -0.6158
26232SOL     OW81588  10.782   6.394  10.387  0.3659  0.3413  0.0588
26232SOL    HW181589  10.726   6.440  10.450 -1.5402  0.3724 -1.5596
26232SOL    HW281590  10.788   6.452  10.312  0.8115 -0.5762 -0.6440
26233SOL     OW81591   7.727   4.796  10.287  0.2682 -0.0458  0.4717
26233SOL    HW181592   7.791   4.812  10.356 -0.0112 -0.3702  0.8095
26233SOL    HW281593   7.769   4.829  10.207  1.2770 -1.1720  0.5138
26234SOL     OW81594   4.558   5.443  10.095 -0.1855 -0.6345 -0.4388
26234SOL    HW181595   4.474   5.452  10.050 -0.5751  2.8473  0.6444
26234SOL    HW281596   4.535   5.430  10.187  0.5866 -3.8812 -0.5938
26235SOL     OW81597   2.913   2.050   8.387  0.3881 -0.6057  0.2283
26235SOL    HW181598   2.898   2.117   8.454 -2.2979  0.0872 -0.9220
26235SOL    HW281599   3.002   2.068   8.355  0.3574  1.3744  1.1125
26236SOL     OW81600   6.650   0.216   4.356 -0.2531  0.2873  0.1292
26236SOL    HW181601   6.575   0.174   4.315  0.8439 -0.4035 -1.2428
26236SOL    HW281602   6.612   0.288   4.407 -1.9082 -0.6243  0.2620
26237SOL     OW81603   2.503   4.307   4.576 -0.0174  0.2542  0.4194
26237SOL    HW181604   2.562   4.253   4.524 -0.3954  0.5751 -0.3613
26237SOL    HW281605   2.444   4.347   4.511 -0.2503  0.9624  1.0582
26238SOL     OW81606   6.416   8.574   2.892 -0.1358  0.4735 -0.3755
26238SOL    HW181607   6.494   8.607   2.847  0.2098 -0.3729 -0.4102
26238SOL    HW281608   6.407   8.484   2.862 -1.2475  0.6222 -0.5137
26239SOL     OW81609  10.626   0.482   6.009  0.1451  0.5949  0.4119
26239SOL    HW181610  10.669   0.465   5.925 -0.9591  0.3592 -0.1195
26239SOL    HW281611  10.533   0.482   5.989 -0.0894  2.6233  1.2478
26240SOL     OW81612   7.561   1.948   9.462 -0.3710 -0.0675 -0.0242
26240SOL    HW181613   7.645   1.914   9.434  0.3495 -0.3097  2.2177
26240SOL    HW281614   7.539   2.016   9.398  1.6257  0.1524 -0.5167
26241SOL     OW81615   7.237   0.308   0.626  0.2377 -0.0030 -0.6733
26241SOL    HW181616   7.309   0.245   0.636 -0.5454 -1.0916 -1.6544
26241SOL    HW281617   7.158   0.259   0.649 -0.1464  1.5631  1.8174
26242SOL     OW81618   5.689   2.727   9.460 -0.0346 -0.4305 -0.2366
26242SOL    HW181619   5.773   2.770   9.479  0.5874 -1.5381 -0.4200
26242SOL    HW281620   5.660   2.766   9.377  0.5429 -0.3895 -0.4209
26243SOL     OW81621   7.676   0.242   7.988  0.1317 -0.0114 -0.8644
26243SOL    HW181622   7.630   0.186   8.049  0.6327  0.9309  0.4139
26243SOL    HW281623   7.622   0.241   7.909 -1.7873  0.5964  0.3743
26244SOL     OW81624   7.251  10.183   5.881 -0.1115  0.0008 -0.3909
26244SOL    HW181625   7.173  10.176   5.935 -1.0423  0.3605 -1.6253
26244SOL    HW281626   7.220  10.163   5.792  1.2893 -0.2774 -0.8400
26245SOL     OW81627   6.395   5.009   9.867 -0.1164 -0.1419 -0.2292
26245SOL    HW181628   6.479   5.004   9.822 -0.2037  1.1283 -0.5674
26245SOL    HW281629   6.367   4.918   9.877  0.1274 -0.4891 -2.3349
26246SOL     OW81630   9.262   5.378   7.547  0.4073 -0.4866  0.2579
26246SOL    HW181631   9.229   5.375   7.458  2.0002  1.2821 -0.4622
26246SOL    HW281632   9.269   5.472   7.567  1.5533 -0.8364  1.6431
26247SOL     OW81633   2.934   1.021   6.040 -0.0666  0.4379 -0.2781
26247SOL    HW181634   2.867   0.966   6.001 -1.8607  3.5214 -1.9638
26247SOL    HW281635   3.010   1.012   5.982 -0.6549  0.4437 -1.0543
26248SOL     OW81636  10.051   5.119   7.999  0.1680  0.1585 -0.1799
26248SOL    HW181637  10.101   5.039   7.983 -0.3012 -0.3070  0.6365
26248SOL    HW281638  10.100   5.165   8.067 -0.4707 -0.2812  0.5952
26249SOL     OW81639   7.776   4.158   8.205 -0.4624 -0.3545 -0.5556
26249SOL    HW181640   7.700   4.146   8.261  0.3608  0.6305  0.8358
26249SOL    HW281641   7.822   4.074   8.210  0.0238 -0.0384  0.9652
26250SOL     OW81642   4.279   1.617   3.792 -0.0694  0.2069 -0.0239
26250SOL    HW181643   4.278   1.696   3.738 -1.7164  0.3187  0.1303
26250SOL    HW281644   4.213   1.560   3.752  1.9911 -1.6864 -0.9523
26251SOL     OW81645   9.659   6.170   6.034 -0.8008  0.0524  0.3361
26251SOL    HW181646   9.713   6.098   6.067 -0.3113  0.1877 -0.1615
26251SOL    HW281647   9.710   6.207   5.962 -1.4531  0.3369  0.0209
26252SOL     OW81648   3.999   7.528   6.669 -0.5544 -0.0533  0.3607
26252SOL    HW181649   4.066   7.550   6.605  0.7155  0.3574  1.7649
26252SOL    HW281650   3.971   7.613   6.704  0.2064 -0.3152  1.7055
26253SOL     OW81651   4.113   6.335   7.019 -0.1104  0.1413  0.0231
26253SOL    HW181652   4.121   6.404   6.953 -0.2255 -0.3293 -0.4941
26253SOL    HW281653   4.081   6.380   7.097  1.0153  0.8822  0.0741
26254SOL     OW81654   1.658   3.813   8.838 -0.7536  0.1326  0.2821
26254SOL    HW181655   1.741   3.778   8.806 -1.1493 -0.4516 -0.1289
26254SOL    HW281656   1.631   3.752   8.906 -1.2476 -0.1428 -0.1532
26255SOL     OW81657   1.322   3.548   3.756 -0.2444  0.1295  0.4714
26255SOL    HW181658   1.375   3.469   3.755 -1.3751 -0.6929 -2.0432
26255SOL    HW281659   1.242   3.524   3.804  0.6093  0.7089  2.2941
26256SOL     OW81660   4.426   4.905   5.777  0.1793 -0.3813  0.2475
26256SOL    HW181661   4.417   4.959   5.855 -2.8419  1.4598 -1.1911
26256SOL    HW281662   4.400   4.817   5.805  0.1521  0.0166  1.5187
26257SOL     OW81663   3.841   3.453   2.280 -0.4879 -0.5326 -0.2443
26257SOL    HW181664   3.814   3.363   2.261  2.0376 -1.2131 -1.0349
26257SOL    HW281665   3.821   3.502   2.200  0.7622 -1.0812 -0.9159
26258SOL     OW81666   4.790  10.044   8.914  0.9490 -0.9606 -0.1817
26258SOL    HW181667   4.832  10.004   8.990  1.0250 -1.5023 -0.5012
26258SOL    HW281668   4.710  10.084   8.948  1.0088 -1.1538  0.1888
26259SOL     OW81669   0.602   6.582   8.076  0.3747  0.4126 -0.5228
26259SOL    HW181670   0.596   6.537   8.160  0.9473  0.9067 -0.2055
26259SOL    HW281671   0.651   6.662   8.095 -0.6962  1.2197 -1.0582
26260SOL     OW81672   1.340   7.770   0.154  0.5702 -0.0377 -0.1369
26260SOL    HW181673   1.323   7.790   0.246  1.6987  1.1386 -0.1673
26260SOL    HW281674   1.412   7.707   0.156  2.1290  1.6959 -0.2572
26261SOL     OW81675   5.244   1.682   4.879  0.3396  0.3852  0.0795
26261SOL    HW181676   5.198   1.602   4.852  0.1777  1.0952 -1.9213
26261SOL    HW281677   5.176   1.736   4.919  0.9388 -1.4444  3.9886
26262SOL     OW81678   6.652   1.384   2.675  0.0780 -0.3947 -0.5607
26262SOL    HW181679   6.612   1.318   2.730 -0.5583  0.6405  0.2657
26262SOL    HW281680   6.583   1.412   2.615  0.4051 -0.6282 -1.0558
26263SOL     OW81681   0.884   4.074   7.027 -0.1435 -0.0329  0.3671
26263SOL    HW181682   0.849   4.043   6.943  1.9646 -0.5991 -0.3818
26263SOL    HW281683   0.936   4.151   7.005  0.6855 -0.3661  1.0938
26264SOL     OW81684   8.328   0.936   4.104 -0.3633  0.4353 -0.7088
26264SOL    HW181685   8.255   0.922   4.165 -1.6079 -1.8222 -2.5614
26264SOL    HW281686   8.404   0.945   4.161 -1.5622 -0.7278  1.2279
26265SOL     OW81687  10.055  10.446   3.989 -0.1671 -0.1178  0.1724
26265SOL    HW181688  10.100  10.430   4.071 -1.9017  0.5667  1.3086
26265SOL    HW281689  10.112  10.507   3.942  1.0621 -0.8691  0.6280
26266SOL     OW81690   8.151   9.795   7.138 -0.1547 -0.2379 -0.1423
26266SOL    HW181691   8.194   9.755   7.063  0.3131 -0.0790  0.0396
26266SOL    HW281692   8.066   9.750   7.143  0.5224 -1.5139  0.3107
26267SOL     OW81693  10.098  10.561   1.643 -0.1326  1.0104 -0.1284
26267SOL    HW181694  10.123  10.491   1.582  1.0144 -0.1537  1.6014
26267SOL    HW281695  10.169  10.564   1.707 -1.6504  1.6522  1.6135
26268SOL     OW81696   8.766   7.325   2.143 -0.2954 -0.5615 -0.1653
26268SOL    HW181697   8.753   7.288   2.231  0.0218  2.3298  1.2225
26268SOL    HW281698   8.700   7.394   2.137 -0.0322 -0.4394 -2.0762
26269SOL     OW81699   6.895   9.756   5.304  0.1553  0.0904  0.2194
26269SOL    HW181700   6.897   9.843   5.265  0.9114 -0.2432 -0.5367
26269SOL    HW281701   6.890   9.772   5.398  0.8774  0.9658  0.1252
26270SOL     OW81702   8.347   1.998   9.294 -0.5667 -0.4990  0.1216
26270SOL    HW181703   8.340   2.038   9.380  0.9335  0.5459 -0.2066
26270SOL    HW281704   8.416   1.932   9.303  3.3687  3.0101 -1.3420
26271SOL     OW81705   9.529   8.511   4.843 -0.1301  0.0187  0.3116
26271SOL    HW181706   9.600   8.448   4.839  1.4594  1.7634 -0.7472
26271SOL    HW281707   9.565   8.585   4.892 -1.0968  1.0817 -0.5300
26272SOL     OW81708   1.283   0.295   2.700 -0.1136  0.1960  0.5616
26272SOL    HW181709   1.366   0.256   2.673 -1.9093 -2.5203 -1.6831
26272SOL    HW281710   1.300   0.329   2.787  3.0498 -1.2322  0.6630
26273SOL     OW81711   2.778   7.348   8.730 -0.4271  0.5777  0.2112
26273SOL    HW181712   2.838   7.390   8.669  0.4511 -0.0970  0.5855
26273SOL    HW281713   2.759   7.416   8.795 -1.6754  1.4230 -0.9947
26274SOL     OW81714   4.711   5.810  10.160 -0.1856 -0.7395  0.3433
26274SOL    HW181715   4.742   5.813  10.251 -1.3886 -0.3357  0.7573
26274SOL    HW281716   4.781   5.851  10.109 -0.9309  2.1821  1.5025
26275SOL     OW81717   8.800   8.405   3.651  0.5289 -0.3205  0.7257
26275SOL    HW181718   8.863   8.434   3.586 -0.8800 -0.0576 -0.5978
26275SOL    HW281719   8.797   8.475   3.715  0.3595  0.4530 -0.1105
26276SOL     OW81720   5.871   9.691   9.730 -0.2734 -0.4127  0.7466
26276SOL    HW181721   5.842   9.763   9.787 -2.7819 -0.5618 -0.1991
26276SOL    HW281722   5.899   9.734   9.649  1.4318 -0.3320  1.3449
26277SOL     OW81723   6.479   3.181   4.856  0.1823 -0.9533 -0.0981
26277SOL    HW181724   6.547   3.186   4.923 -2.4937 -0.0760  2.7976
26277SOL    HW281725   6.470   3.087   4.838  1.6122 -1.1347  0.0260
26278SOL     OW81726   2.606   4.136   8.065  0.4835  1.1419 -0.5122
26278SOL    HW181727   2.570   4.053   8.035  2.8538  0.8614 -2.9818
26278SOL    HW281728   2.530   4.184   8.100 -1.6529 -0.5716 -2.4711
26279SOL     OW81729  10.579   0.467   1.400  0.6060 -0.0779  0.1986
26279SOL    HW181730  10.571   0.554   1.439 -0.1244 -0.4311  0.8697
26279SOL    HW281731  10.531   0.474   1.317  1.0229  0.3076 -0.0143
26280SOL     OW81732  10.694   5.153   7.470 -0.0336 -0.5479  0.0652
26280SOL    HW181733  10.760   5.173   7.404 -0.6303 -1.4077 -0.8201
26280SOL    HW281734  10.745   5.133   7.549  0.7076  0.0135 -0.2595
26281SOL     OW81735   1.893   1.472   6.876 -0.3491 -0.0821  0.8750
26281SOL    HW181736   1.847   1.479   6.960  0.1325 -0.1360  1.1488
26281SOL    HW281737   1.968   1.416   6.895  0.4033  0.8230  0.6938
26282SOL     OW81738   0.020   0.348   1.427  0.0023  0.1571  0.6909
26282SOL    HW181739  -0.058   0.387   1.467 -0.1918 -0.1868  0.6473
26282SOL    HW281740   0.061   0.421   1.379 -0.0727  0.4335  1.0440
26283SOL     OW81741   1.713   8.411   2.493 -0.0575  0.1775  0.3407
26283SOL    HW181742   1.672   8.410   2.407  0.8636 -0.2682 -0.1117
26283SOL    HW281743   1.669   8.342   2.542  2.0382 -2.3904 -1.0936
26284SOL     OW81744   9.657   2.195   2.962 -0.1981  0.0800 -0.3568
26284SOL    HW181745   9.599   2.261   2.999 -0.9396  0.3518 -1.9281
26284SOL    HW281746   9.740   2.208   3.008 -0.7266  1.1891  0.3301
26285SOL     OW81747   6.405   9.015   7.355 -0.1107  0.1196 -0.1626
26285SOL    HW181748   6.398   8.927   7.320 -0.8118  0.1823 -0.2059
26285SOL    HW281749   6.317   9.035   7.388  0.2029  0.5511  0.4432
26286SOL     OW81750   5.119  10.153   9.481 -0.0664  0.6284  0.7321
26286SOL    HW181751   5.105  10.248   9.474  1.5901  0.8779  0.3210
26286SOL    HW281752   5.213  10.144   9.500  0.4927 -0.9731 -2.1512
26287SOL     OW81753   5.029   7.124   3.131 -0.3346  0.0089  0.7968
26287SOL    HW181754   5.108   7.156   3.088  0.3802  0.7958  2.5775
26287SOL    HW281755   4.992   7.060   3.070  1.0500  0.4574 -0.5710
26288SOL     OW81756   8.677   5.673   0.772 -0.2110 -0.2762 -0.3622
26288SOL    HW181757   8.771   5.690   0.761 -0.0537 -0.1826  0.9745
26288SOL    HW281758   8.635   5.753   0.740  0.2723  0.4576  0.7444
26289SOL     OW81759   7.346  10.696   5.939 -0.0158  0.4893  0.6606
26289SOL    HW181760   7.269  10.645   5.911 -0.5379  1.7346 -0.2555
26289SOL    HW281761   7.314  10.751   6.010  0.0602  0.9129  0.3691
26290SOL     OW81762   4.009   6.727   8.899  0.2831 -0.8143  0.5561
26290SOL    HW181763   3.930   6.781   8.905  1.5122  1.0264  0.8502
26290SOL    HW281764   4.056   6.762   8.824  0.6432 -2.1759  0.1220
26291SOL     OW81765   7.774   8.696   6.961  0.2433  0.0695 -0.1698
26291SOL    HW181766   7.698   8.754   6.972  0.1052  0.2190 -1.7066
26291SOL    HW281767   7.740   8.623   6.909  1.0281 -0.1284 -0.4081
26292SOL     OW81768   4.898   8.858   7.532  0.2246 -0.3825  0.5745
26292SOL    HW181769   4.810   8.827   7.508  0.3317  0.6274 -1.3333
26292SOL    HW281770   4.950   8.847   7.452  2.2078 -2.0373  1.9767
26293SOL     OW81771  10.422   1.092   0.319  0.2015  0.2947 -0.4488
26293SOL    HW181772  10.344   1.091   0.375  0.2373 -0.2315 -0.3999
26293SOL    HW281773  10.391   1.057   0.235  0.6720 -1.2689 -0.0108
26294SOL     OW81774  10.652   6.713   2.386 -0.5295  0.0696  0.1352
26294SOL    HW181775  10.654   6.809   2.380  0.7003  0.0435 -0.1133
26294SOL    HW281776  10.723   6.684   2.329 -0.7200 -0.9864  0.4202
26295SOL     OW81777   4.549   6.085   6.777  0.1942  0.6360 -0.3485
26295SOL    HW181778   4.455   6.067   6.787  0.6327 -2.3921 -0.6488
26295SOL    HW281779   4.576   6.118   6.862 -0.5050 -2.1114  1.0586
26296SOL     OW81780   3.675   2.374   1.073 -0.0593  0.1594  0.0999
26296SOL    HW181781   3.691   2.322   0.994  1.7049  0.1577  0.4171
26296SOL    HW281782   3.686   2.464   1.045  0.8697  0.1447  0.3884
26297SOL     OW81783   3.173   2.927   5.568  0.1767  0.3705  0.2947
26297SOL    HW181784   3.263   2.934   5.598  0.1536  1.0920  0.2098
26297SOL    HW281785   3.177   2.944   5.474 -0.0397  0.3675  0.2836
26298SOL     OW81786   8.642   0.116   9.084  0.3584 -0.9372 -0.2344
26298SOL    HW181787   8.703   0.112   9.011 -0.3865  0.2382 -0.9683
26298SOL    HW281788   8.576   0.049   9.064 -0.0843 -0.3213 -0.8976
26299SOL     OW81789   4.241   1.436   1.494 -0.7155 -0.0014  0.1114
26299SOL    HW181790   4.234   1.342   1.478 -1.5524 -0.2863  1.9351
26299SOL    HW281791   4.158   1.472   1.464 -1.3603 -0.2195  1.5258
26300SOL     OW81792  10.070   5.227   4.563  0.1903  0.0701 -0.1998
26300SOL    HW181793  10.031   5.213   4.477  0.0678 -0.3501 -0.0780
26300SOL    HW281794   9.996   5.237   4.622  0.1679 -2.8816  0.4010
26301SOL     OW81795   0.926   2.772   4.799  0.4733  0.8568 -0.3237
26301SOL    HW181796   0.886   2.833   4.737  1.8214 -0.6320 -2.8282
26301SOL    HW281797   0.853   2.724   4.836 -0.4286  2.2853 -0.1904
26302SOL     OW81798   4.978   4.420   9.142 -0.3630  0.0287 -0.1833
26302SOL    HW181799   4.979   4.328   9.115 -1.4558 -0.1424  0.2883
26302SOL    HW281800   5.034   4.423   9.220 -1.6237 -0.5855  0.7841
26303SOL     OW81801  10.732  10.107   4.582 -0.1602  0.0125  0.0754
26303SOL    HW181802  10.738  10.141   4.672 -0.4372 -0.2907  0.2102
26303SOL    HW281803  10.814  10.134   4.541  1.8414 -3.1564  1.5811
26304SOL     OW81804   7.433   5.950   9.766  0.5154  0.6592 -0.0547
26304SOL    HW181805   7.505   5.953   9.703  1.3322  0.9074  0.8570
26304SOL    HW281806   7.389   6.034   9.756  0.2452  0.4407 -0.7339
26305SOL     OW81807   1.717  10.077   1.027  0.3752 -0.3632 -0.3347
26305SOL    HW181808   1.691   9.994   0.985 -1.7564  0.6564 -1.1697
26305SOL    HW281809   1.716  10.057   1.120  0.4698 -1.4229 -0.5368
26306SOL     OW81810   2.734  10.261  10.196  0.6811 -0.0477  0.0962
26306SOL    HW181811   2.703  10.350  10.211  0.6013  0.4080 -2.3713
26306SOL    HW281812   2.813  10.254  10.250  0.7048  1.5065  0.3219
26307SOL     OW81813   5.488   1.154   4.755  0.0379  0.2979  0.5117
26307SOL    HW181814   5.464   1.223   4.816 -5.0568  1.3760 -2.2205
26307SOL    HW281815   5.489   1.196   4.669 -0.2749 -2.4196 -0.9475
26308SOL     OW81816  10.367   9.050   1.113 -0.3995  0.3924 -0.4534
26308SOL    HW181817  10.422   8.990   1.062  0.3497 -0.1690  0.9671
26308SOL    HW281818  10.392   9.137   1.083  1.5768  0.1827  0.4007
26309SOL     OW81819   5.855   7.513   4.728  0.4382  0.2464 -0.1781
26309SOL    HW181820   5.784   7.509   4.792 -0.7238  1.2745 -1.3717
26309SOL    HW281821   5.931   7.541   4.780  0.4896 -2.5098  1.4624
26310SOL     OW81822  10.563   5.869   8.457 -0.6810 -0.4030  0.0065
26310SOL    HW181823  10.590   5.955   8.488 -1.5434  0.0706 -0.5130
26310SOL    HW281824  10.643   5.830   8.421 -0.4281  0.4607 -0.3864
26311SOL     OW81825   8.368   3.595   9.153 -0.1727  0.7843 -0.3005
26311SOL    HW181826   8.357   3.641   9.236 -1.3826  1.7091 -0.9419
26311SOL    HW281827   8.283   3.602   9.110  0.4097  0.2703 -1.5961
26312SOL     OW81828   1.713   7.971   4.865 -0.2869  0.0431 -0.0876
26312SOL    HW181829   1.648   7.910   4.898 -0.3745 -0.3576 -0.9641
26312SOL    HW281830   1.727   8.033   4.936 -0.8515 -0.4805  0.4881
26313SOL     OW81831   9.294   1.180   1.626  0.5248 -0.8760  0.1268
26313SOL    HW181832   9.275   1.228   1.706  3.0376  3.2640 -1.4306
26313SOL    HW281833   9.376   1.134   1.644 -0.1685 -1.9789  0.5883
26314SOL     OW81834   7.215   6.356   2.406 -0.2364  0.0289 -0.1044
26314SOL    HW181835   7.179   6.398   2.484  2.5724  1.0278  0.7353
26314SOL    HW281836   7.192   6.263   2.417 -1.3604  0.4042  0.9962
26315SOL     OW81837   1.110   7.265  10.272 -0.1700  0.3424 -0.2059
26315SOL    HW181838   1.156   7.319  10.208  0.9542 -0.1176  0.2090
26315SOL    HW281839   1.125   7.309  10.355  0.2130 -0.2554  0.0450
26316SOL     OW81840   8.726   9.282   7.839 -0.0757 -0.5681 -0.0764
26316SOL    HW181841   8.705   9.314   7.927  0.4553  3.7529 -1.2598
26316SOL    HW281842   8.809   9.324   7.818  0.6325 -2.7929 -2.1010
26317SOL     OW81843   0.283   3.049   5.202  0.3664 -0.4898 -0.2232
26317SOL    HW181844   0.216   3.004   5.255  0.4555  0.2051  0.5117
26317SOL    HW281845   0.365   3.033   5.249  0.3110  0.9339  0.4019
26318SOL     OW81846   3.630  10.503  10.070  0.7946 -0.1676 -0.3532
26318SOL    HW181847   3.585  10.577  10.112  1.8324  0.4626 -0.3084
26318SOL    HW281848   3.572  10.478   9.998 -0.1307 -0.0688  0.3372
26319SOL     OW81849  10.687   2.095  10.592  0.0237  0.4562  0.0807
26319SOL    HW181850  10.684   2.054  10.505  1.7293 -1.4260  0.8092
26319SOL    HW281851  10.604   2.073  10.632  0.6909 -2.0641  0.2620
26320SOL     OW81852   1.282   1.097   4.788  0.1819  0.0860  0.5943
26320SOL    HW181853   1.217   1.156   4.825  0.5171  0.0302  1.2775
26320SOL    HW281854   1.362   1.114   4.838  0.1627 -1.2759  1.1112
26321SOL     OW81855   5.116   3.989   9.791  0.1196  0.1298  0.3612
26321SOL    HW181856   5.131   4.057   9.724 -1.9384 -0.0622 -0.3659
26321SOL    HW281857   5.049   4.026   9.848  0.2087 -0.6366  0.9712
26322SOL     OW81858   4.765   9.153   5.110  0.1569  0.1928 -0.1610
26322SOL    HW181859   4.845   9.102   5.098  0.5727  1.3495 -3.0522
26322SOL    HW281860   4.788   9.219   5.176  1.0216 -0.5779  0.3206
26323SOL     OW81861   9.814   8.080   2.424 -0.1820  0.4404 -0.1469
26323SOL    HW181862   9.870   8.014   2.383 -0.7577 -1.0794  1.4374
26323SOL    HW281863   9.855   8.163   2.398  0.1722 -0.4371 -2.7374
26324SOL     OW81864   6.484   2.850   5.233  0.3280 -0.4199  0.2624
26324SOL    HW181865   6.560   2.901   5.260  0.5254 -1.8436  2.6499
26324SOL    HW281866   6.517   2.795   5.161  0.6095  1.3082 -1.0018
26325SOL     OW81867   0.509  10.178   0.469  0.1286  0.6855  0.0195
26325SOL    HW181868   0.419  10.209   0.468  0.7640  2.6476 -1.3524
26325SOL    HW281869   0.558  10.242   0.418  2.5399  0.3365  1.7006
26326SOL     OW81870   4.540   4.717  10.105 -0.4727  0.1870 -0.2596
26326SOL    HW181871   4.506   4.806  10.096  0.3596  0.8216  2.0751
26326SOL    HW281872   4.610   4.725  10.171 -1.7011 -2.4769  1.5415
26327SOL     OW81873   0.969   2.693   1.147 -0.1670  0.1771 -0.5283
26327SOL    HW181874   0.971   2.716   1.240 -3.5659  0.1007 -0.3057
26327SOL    HW281875   0.992   2.600   1.145  1.7930  0.6076 -0.0432
26328SOL     OW81876   4.646   4.086   1.851 -0.2757 -0.1423  0.9576
26328SOL    HW181877   4.591   4.038   1.914  1.6923 -1.9887  1.3796
26328SOL    HW281878   4.731   4.043   1.855  0.7825  1.5910 -0.8454
26329SOL     OW81879   3.779   6.413   9.351 -0.4222 -0.0339 -0.1167
26329SOL    HW181880   3.692   6.394   9.315 -0.7343 -1.1141  1.1206
26329SOL    HW281881   3.831   6.335   9.331  0.1704  0.4516 -0.5195
26330SOL     OW81882   3.590   0.885   1.718  0.9257 -0.4508  0.1122
26330SOL    HW181883   3.596   0.965   1.665  0.3893 -0.4194  0.0861
26330SOL    HW281884   3.606   0.914   1.807 -0.9890  0.0233  0.3538
26331SOL     OW81885   5.248   3.373   7.660  0.1535 -0.1285  0.3192
26331SOL    HW181886   5.304   3.339   7.591  0.4568 -0.0780  0.5400
26331SOL    HW281887   5.280   3.330   7.740 -0.9149 -1.0689  0.2750
26332SOL     OW81888   2.682  10.122   9.832 -0.2592 -0.9720 -0.1184
26332SOL    HW181889   2.592  10.092   9.847 -0.0977 -1.1562  0.5260
26332SOL    HW281890   2.736  10.064   9.886  0.0117  0.8677  1.6999
26333SOL     OW81891   4.794   4.662   0.751  0.3733  0.3679 -0.0707
26333SOL    HW181892   4.834   4.749   0.758  2.9660 -0.7202 -0.2125
26333SOL    HW281893   4.849   4.605   0.805 -1.0774 -1.2723 -0.2087
26334SOL     OW81894   4.121   4.814   5.025 -0.1605 -0.0032 -0.0032
26334SOL    HW181895   4.042   4.767   4.998 -0.3216  0.0385  0.3883
26334SOL    HW281896   4.142   4.778   5.111  0.4945 -0.3152 -0.2857
26335SOL     OW81897   5.521   1.644   6.810  0.0162 -0.4101  0.1044
26335SOL    HW181898   5.522   1.685   6.723 -1.8366  1.4078  0.8527
26335SOL    HW281899   5.584   1.695   6.861 -1.3845  0.7893  0.7001
26336SOL     OW81900   2.368   0.463   8.803  0.0614 -0.3079 -0.1218
26336SOL    HW181901   2.281   0.436   8.832 -0.2975  1.2502  0.3330
26336SOL    HW281902   2.418   0.382   8.798 -0.6526 -0.9740  2.2205
26337SOL     OW81903   1.765   7.258  10.576 -0.0932 -0.1835  0.1449
26337SOL    HW181904   1.756   7.179  10.523  0.7739  0.0451 -0.3595
26337SOL    HW281905   1.736   7.231  10.663  0.7892 -1.2398  0.1374
26338SOL     OW81906   6.004   0.290   4.024  0.3853  0.1673  0.1038
26338SOL    HW181907   6.091   0.252   4.007  0.9336  2.4527 -3.0654
26338SOL    HW281908   6.021   0.363   4.083  0.0968 -1.0977  1.8388
26339SOL     OW81909   2.866  10.335   6.639 -0.0523 -0.3939  0.2097
26339SOL    HW181910   2.872  10.266   6.705  0.9629 -1.6189 -1.1008
26339SOL    HW281911   2.808  10.298   6.572  0.7718 -0.1121 -0.6666
26340SOL     OW81912   8.063   7.717  10.219  0.5504  0.1889  0.3659
26340SOL    HW181913   8.015   7.731  10.300  0.0668  0.8010 -0.0213
26340SOL    HW281914   8.155   7.726  10.244  0.5762 -2.1232  1.3429
26341SOL     OW81915   5.705   9.242   0.765 -1.0114  0.0297 -0.2413
26341SOL    HW181916   5.631   9.300   0.747 -0.6339  0.8053  0.5987
26341SOL    HW281917   5.781   9.300   0.764 -0.7589 -0.1816  1.8418
26342SOL     OW81918   1.283   4.319   9.412  0.5123 -0.1758  0.1320
26342SOL    HW181919   1.257   4.320   9.320  0.6220  0.7031  0.1007
26342SOL    HW281920   1.378   4.331   9.411  0.7267 -1.6742  0.3135
26343SOL     OW81921   0.617   6.653   2.074 -0.3674 -0.1041  0.1282
26343SOL    HW181922   0.574   6.737   2.089 -0.6258 -0.1612 -0.2745
26343SOL    HW281923   0.691   6.674   2.016 -1.3081 -0.3590 -1.2191
26344SOL     OW81924   0.335   0.683   1.427  0.2300 -0.3900 -0.0237
26344SOL    HW181925   0.301   0.615   1.485  1.8710 -0.8407  0.4593
26344SOL    HW281926   0.409   0.721   1.474 -0.2436  1.3118 -0.5654
26345SOL     OW81927   1.057   1.753   6.149 -0.8455  0.2976 -0.2601
26345SOL    HW181928   0.990   1.807   6.192 -1.1939  0.9906 -1.6151
26345SOL    HW281929   1.123   1.816   6.120  0.6205 -0.4112  1.3772
26346SOL     OW81930   1.605   0.266   0.844 -0.0935  0.5717  0.2009
26346SOL    HW181931   1.510   0.263   0.834 -0.0032 -0.5054 -0.5206
26346SOL    HW281932   1.632   0.348   0.802 -0.7680  1.2579  1.0886
26347SOL     OW81933   2.077   6.263   8.613 -0.0332  0.3002  0.0737
26347SOL    HW181934   2.145   6.260   8.546 -0.5224 -0.1414 -0.4123
26347SOL    HW281935   2.042   6.174   8.616 -1.2724  0.7510 -0.4000
26348SOL     OW81936   6.008   1.901   7.263  0.0723  0.0481  0.3206
26348SOL    HW181937   5.945   1.929   7.329 -0.4866  1.8363 -0.8793
26348SOL    HW281938   6.002   1.806   7.262 -1.9502  0.1286  0.8799
26349SOL     OW81939   7.288   2.873   6.903  0.0750 -0.5909  0.1736
26349SOL    HW181940   7.319   2.955   6.863 -1.3992 -0.1664 -0.1499
26349SOL    HW281941   7.225   2.838   6.839 -0.2802 -1.3122  0.9057
26350SOL     OW81942   6.562   5.198   7.949 -0.2126 -0.6431 -0.4095
26350SOL    HW181943   6.545   5.169   8.039 -0.2288 -0.9338 -0.5046
26350SOL    HW281944   6.617   5.129   7.912  0.4128 -0.1566 -0.3909
26351SOL     OW81945   2.047   4.709   5.877  0.0706  0.5903  0.0992
26351SOL    HW181946   1.953   4.695   5.864  0.1931 -0.7746  0.4652
26351SOL    HW281947   2.052   4.771   5.951 -0.5301  1.5563 -0.6472
26352SOL     OW81948   6.511   9.708   0.914 -0.0390  0.1118 -0.5303
26352SOL    HW181949   6.567   9.709   0.836 -0.3923 -0.6849 -0.8015
26352SOL    HW281950   6.561   9.757   0.979 -0.3522  2.0481 -1.6492
26353SOL     OW81951   3.014   0.968   1.385  0.7098  0.2831  0.5521
26353SOL    HW181952   2.996   0.898   1.447  3.0162  0.6695  1.7738
26353SOL    HW281953   2.928   1.001   1.359 -0.3910 -2.1639  0.8805
26354SOL     OW81954   1.677   2.353   7.896 -0.1972 -0.3526  0.5603
26354SOL    HW181955   1.598   2.304   7.920 -0.2874  0.4444  1.9987
26354SOL    HW281956   1.690   2.333   7.803 -1.1425 -1.7998  0.7076
26355SOL     OW81957   3.489   4.306   2.708  1.1211 -0.6221  0.4948
26355SOL    HW181958   3.558   4.338   2.766  1.1848 -0.0062  0.0904
26355SOL    HW281959   3.424   4.267   2.767  1.8074 -1.2168  0.8740
26356SOL     OW81960   5.987   1.241   9.993  0.3774 -0.2404 -0.5915
26356SOL    HW181961   6.013   1.332   9.981 -1.3823  0.8173  2.4701
26356SOL    HW281962   5.929   1.223   9.919 -1.1811  2.0212 -0.0242
26357SOL     OW81963  10.587   4.658   9.468 -0.7047 -0.6732  0.5683
26357SOL    HW181964  10.681   4.673   9.463 -0.7284 -0.7447 -0.4376
26357SOL    HW281965  10.555   4.720   9.533 -0.0888  0.0072  0.2273
26358SOL     OW81966   1.951  10.733   4.877 -0.1828  0.1110  0.0803
26358SOL    HW181967   1.902  10.652   4.866  0.5461 -0.5676  1.5568
26358SOL    HW281968   2.040  10.705   4.898  0.7258  1.3188 -1.8746
26359SOL     OW81969   7.711   2.419   7.504  0.1321  0.4856 -0.3373
26359SOL    HW181970   7.679   2.386   7.419 -0.9819  3.8270 -1.3840
26359SOL    HW281971   7.633   2.419   7.560  0.3427  0.3605 -0.0463
26360SOL     OW81972  10.473   3.910   9.407  0.3522  0.1779 -0.3332
26360SOL    HW181973  10.513   3.894   9.321 -0.1064 -1.1592 -0.3080
26360SOL    HW281974  10.539   3.879   9.470  0.4102  0.5450 -0.2090
26361SOL     OW81975   7.572  10.201   5.537 -0.4574  0.5400  0.5999
26361SOL    HW181976   7.615  10.116   5.540 -1.1103  0.2137  0.8449
26361SOL    HW281977   7.512  10.195   5.463 -0.4622  0.8070  0.5812
26362SOL     OW81978   3.066  10.576   1.045  0.3979  0.0959 -0.6818
26362SOL    HW181979   2.988  10.540   1.085  0.5519  0.2800 -0.2088
26362SOL    HW281980   3.055  10.559   0.951  0.1837 -0.6160 -0.5330
26363SOL     OW81981   0.720   5.223   7.682  0.3147  0.2679 -0.1188
26363SOL    HW181982   0.682   5.138   7.659 -0.7300  0.3494  1.1956
26363SOL    HW281983   0.715   5.274   7.602 -1.5135 -0.0446 -0.2351
26364SOL     OW81984   1.160   7.663   5.613  0.5309 -0.1087  0.1888
26364SOL    HW181985   1.068   7.686   5.622  0.6263 -0.5963  3.9266
26364SOL    HW281986   1.206   7.747   5.609  0.0642  0.1487  0.2153
26365SOL     OW81987   2.297   3.970   3.866 -0.1411  0.1597  0.4566
26365SOL    HW181988   2.212   3.925   3.872 -0.6528  0.7869 -1.3766
26365SOL    HW281989   2.277   4.062   3.883  0.2632  0.2344  0.5385
26366SOL     OW81990   1.828   9.944   7.156  0.1535 -0.0525  0.5857
26366SOL    HW181991   1.862  10.003   7.089  0.1756 -1.5048 -0.7301
26366SOL    HW281992   1.890   9.871   7.156  0.1045 -0.1313  2.1591
26367SOL     OW81993  10.543   8.167   4.894  0.2135  0.2961 -0.5042
26367SOL    HW181994  10.560   8.258   4.915 -0.8011  0.6707 -1.1939
26367SOL    HW281995  10.462   8.169   4.842  0.9352 -0.8482 -1.7362
26368SOL     OW81996   9.194   0.741   8.435 -0.0718  0.3986  0.0868
26368SOL    HW181997   9.259   0.805   8.405  0.4635 -0.1417  0.0760
26368SOL    HW281998   9.116   0.759   8.383  0.5889  0.0018 -1.0735
26369SOL     OW81999  10.651   8.697   8.260 -0.1604  0.0798  0.2664
26369SOL    HW182000  10.712   8.696   8.186 -1.7363  1.3751 -1.1273
26369SOL    HW282001  10.687   8.632   8.321  0.0367 -2.7294 -2.5764
26370SOL     OW82002   2.385   7.765   2.349  0.2962  0.1564 -0.2148
26370SOL    HW182003   2.355   7.799   2.264 -0.4874 -1.9491 -0.8327
26370SOL    HW282004   2.412   7.675   2.331 -1.5875 -0.9674  2.0786
26371SOL     OW82005   2.615   3.326   1.031 -0.0850  0.1187  0.3585
26371SOL    HW182006   2.632   3.237   1.062  0.7208  0.5946  1.3145
26371SOL    HW282007   2.525   3.322   0.998  0.2531 -1.2861 -0.5350
26372SOL     OW82008   7.741   0.145   4.838 -0.3679  0.1366 -0.7256
26372SOL    HW182009   7.693   0.093   4.773  0.9669 -2.1595  0.0264
26372SOL    HW282010   7.695   0.129   4.920  0.2816 -0.2096 -0.4195
26373SOL     OW82011   7.912   3.679   0.107 -0.4759 -0.3915 -0.0305
26373SOL    HW182012   7.982   3.707   0.048  0.7443 -3.6689 -0.3824
26373SOL    HW282013   7.869   3.760   0.133  1.7152  1.5679 -1.9462
26374SOL     OW82014  10.637   1.892   2.896 -0.0031 -0.7772 -0.6480
26374SOL    HW182015  10.551   1.929   2.877 -0.1233 -0.9048 -0.3677
26374SOL    HW282016  10.698   1.965   2.886  0.0323 -0.9808 -2.1641
26375SOL     OW82017   7.136   9.169   7.385 -0.1846  0.3829 -0.1784
26375SOL    HW182018   7.120   9.084   7.345  1.0123  0.6121 -1.2400
26375SOL    HW282019   7.058   9.187   7.437 -1.4325 -0.3791 -1.6947
26376SOL     OW82020   7.841   2.674  10.364 -0.3855 -0.2710 -0.1649
26376SOL    HW182021   7.787   2.692  10.288 -0.5869  2.1826  0.4809
26376SOL    HW282022   7.922   2.638  10.328 -1.8267 -2.6919 -1.2277
26377SOL     OW82023   2.152   0.772   1.962  0.8128 -0.4219 -0.3704
26377SOL    HW182024   2.109   0.701   2.011  2.4312 -0.9375  0.3636
26377SOL    HW282025   2.118   0.852   2.002 -0.2230 -0.7806 -0.4948
26378SOL     OW82026   6.167   5.861   7.214 -0.1206  0.3636 -0.5319
26378SOL    HW182027   6.148   5.923   7.144  0.8516 -0.6908 -1.7764
26378SOL    HW282028   6.244   5.813   7.184  0.7063  0.2865  1.5567
26379SOL     OW82029   4.770   1.061   4.323  0.0032 -0.6046 -0.1520
26379SOL    HW182030   4.772   0.966   4.332 -0.6325 -0.5290  0.9632
26379SOL    HW282031   4.848   1.091   4.369  0.4273 -0.5957 -0.8587
26380SOL     OW82032   0.278   0.326   8.398 -0.4515 -0.4399  0.6134
26380SOL    HW182033   0.367   0.301   8.376 -0.4068  0.9483 -1.0299
26380SOL    HW282034   0.223   0.272   8.341 -0.5373  0.2188  0.0556
26381SOL     OW82035   9.060   6.225   9.595  0.6370  0.3160 -0.6818
26381SOL    HW182036   9.151   6.215   9.625  0.0882 -1.9670  0.4683
26381SOL    HW282037   9.021   6.287   9.656  1.0428  0.1064 -0.1983
26382SOL     OW82038   3.896   3.117   3.439 -0.6380  0.5957 -0.1899
26382SOL    HW182039   3.967   3.072   3.483 -0.3160  1.6686  0.4313
26382SOL    HW282040   3.876   3.062   3.363  0.1431 -0.2506  0.1975
26383SOL     OW82041   3.581   8.530   6.267 -0.1313 -0.4097 -0.4447
26383SOL    HW182042   3.648   8.494   6.326 -0.6639  0.2511  0.6009
26383SOL    HW282043   3.600   8.624   6.264 -2.1219  0.1544  1.4749
26384SOL     OW82044   2.649   0.047   2.716 -0.5660  0.1959 -0.2301
26384SOL    HW182045   2.576  -0.006   2.683  0.7330 -0.3790 -2.4485
26384SOL    HW282046   2.725  -0.011   2.707  0.3557  1.2236  0.7696
26385SOL     OW82047   4.889   3.241  10.508 -0.3957 -0.3662  0.6600
26385SOL    HW182048   4.933   3.262  10.590  0.5165 -1.7995  0.5769
26385SOL    HW282049   4.813   3.190  10.534 -0.2750 -0.5600  0.6339
26386SOL     OW82050   2.720   1.609   0.170  0.0723  0.3109  0.3113
26386SOL    HW182051   2.703   1.666   0.245  0.7324  1.5213 -0.4237
26386SOL    HW282052   2.670   1.647   0.098 -1.2022 -1.2952  0.2711
26387SOL     OW82053   7.741   3.933   0.051  0.2009  0.6754  0.1528
26387SOL    HW182054   7.669   3.995   0.035  0.0613 -0.0727 -2.5902
26387SOL    HW282055   7.804   3.950  -0.019  1.9090  0.1176  1.4728
26388SOL     OW82056   1.059   6.545   7.287  0.6511 -0.3012 -0.2755
26388SOL    HW182057   0.998   6.488   7.239 -0.5920  0.2670  0.5759
26388SOL    HW282058   1.043   6.525   7.379  1.1373  0.4823 -0.0139
26389SOL     OW82059  10.142   5.476   0.467 -0.7328 -0.2968  0.2663
26389SOL    HW182060  10.106   5.409   0.409  0.5863  0.0140 -0.9809
26389SOL    HW282061  10.201   5.527   0.411  0.9401 -0.2435  1.9815
26390SOL     OW82062   7.534   4.498   6.042 -1.0420  1.0589  0.5835
26390SOL    HW182063   7.532   4.425   6.103 -0.5920 -0.1294 -0.7500
26390SOL    HW282064   7.445   4.532   6.041 -1.3467  0.2811  0.9456
26391SOL     OW82065   5.833   7.434   1.932 -0.1011 -0.0275 -0.0531
26391SOL    HW182066   5.803   7.503   1.873 -0.2848  0.5623  0.7109
26391SOL    HW282067   5.907   7.472   1.979 -0.9356  0.0776  1.2182
26392SOL     OW82068   3.124   5.482   2.297 -0.3193 -0.5062  0.4529
26392SOL    HW182069   3.200   5.528   2.333 -1.3002 -1.1169  3.5460
26392SOL    HW282070   3.057   5.549   2.289 -0.1386 -0.3949 -0.2089
26393SOL     OW82071   9.180  10.553   0.954 -0.2486  0.0019 -0.2682
26393SOL    HW182072   9.143  10.507   1.029  0.9456 -1.6751 -0.6399
26393SOL    HW282073   9.125  10.630   0.943 -0.4985  0.2660  2.2860
26394SOL     OW82074  10.742   6.909   6.373  0.3116 -0.3329  0.2190
26394SOL    HW182075  10.658   6.865   6.386  0.6480 -1.0071  0.1373
26394SOL    HW282076  10.765   6.942   6.459 -0.3568  0.4519  0.1153
26395SOL     OW82077   4.537   7.126  10.036  0.0897  0.1639  0.6820
26395SOL    HW182078   4.588   7.059  10.082 -0.4308 -0.7123  0.0143
26395SOL    HW282079   4.448   7.115  10.070  0.0117  0.5576  0.6095
26396SOL     OW82080   5.782   4.056   8.174  0.3407  0.1051  0.2149
26396SOL    HW182081   5.829   4.138   8.159 -1.1380  1.1502  1.0438
26396SOL    HW282082   5.845   3.988   8.150  1.2867  1.4686 -1.4298
26397SOL     OW82083  10.682   9.974  10.537 -0.1212  0.1007 -0.4890
26397SOL    HW182084  10.752  10.034  10.561 -1.3894  0.6498  2.2204
26397SOL    HW282085  10.614  10.030  10.498  0.4289 -0.2751 -2.0757
26398SOL     OW82086   0.062   0.865   6.729  0.1673  0.1626  0.1776
26398SOL    HW182087   0.067   0.875   6.824 -0.9347 -0.1478  0.2783
26398SOL    HW282088   0.151   0.882   6.699  0.3740  0.9801  1.1959
26399SOL     OW82089  10.260  10.384   6.399 -0.0379 -0.3812 -0.1208
26399SOL    HW182090  10.347  10.356   6.426  0.3231  0.1147 -0.7501
26399SOL    HW282091  10.263  10.385   6.304 -0.1022  1.5189 -0.1518
26400SOL     OW82092   4.183   7.549   9.280  0.2226 -0.2338  0.5172
26400SOL    HW182093   4.234   7.629   9.286  0.9043 -0.5159 -1.0101
26400SOL    HW282094   4.122   7.565   9.209 -0.8524 -0.4402  1.3745
26401SOL     OW82095   0.717   2.153   2.122 -0.0012 -0.0953 -0.0181
26401SOL    HW182096   0.805   2.180   2.097 -0.2219  0.3907 -0.2834
26401SOL    HW282097   0.716   2.160   2.217 -0.2348  1.4443 -0.1068
26402SOL     OW82098  10.575   2.590   0.533  0.1226 -0.0467  0.2726
26402SOL    HW182099  10.507   2.560   0.473  0.1851  0.9535 -0.3295
26402SOL    HW282100  10.650   2.610   0.477  0.3163  0.5271  0.7149
26403SOL     OW82101   0.204   8.950   4.717 -0.2562  0.0933 -0.1422
26403SOL    HW182102   0.155   8.987   4.643 -0.3122  2.0420  0.7976
26403SOL    HW282103   0.137   8.904   4.769 -0.3458 -0.6428 -0.8868
26404SOL     OW82104   8.897   9.419   8.087  0.2912  0.5918  0.2343
26404SOL    HW182105   8.885   9.510   8.057  1.3047  0.3121 -1.1195
26404SOL    HW282106   8.963   9.383   8.028 -0.3554 -1.1467  0.5204
26405SOL     OW82107   2.162   8.120   2.600 -0.6338  0.5936 -0.3435
26405SOL    HW182108   2.176   8.165   2.517  0.4591  0.1862 -0.4000
26405SOL    HW282109   2.123   8.187   2.657 -1.6076  0.8042 -1.2345
26406SOL     OW82110   5.249  10.651  10.219  0.3483  0.2220 -0.2702
26406SOL    HW182111   5.326  10.706  10.232  0.1822  1.2913 -3.1563
26406SOL    HW282112   5.281  10.576  10.170  0.1765 -1.3156  1.8416
26407SOL     OW82113   5.795   3.550   7.403 -0.0513 -0.0251 -0.2590
26407SOL    HW182114   5.708   3.585   7.420 -0.5073 -0.4245 -1.6663
26407SOL    HW282115   5.834   3.610   7.339  0.3307 -0.3902 -0.3775
26408SOL     OW82116   6.521   4.545   6.099  0.1700 -0.2969 -0.5102
26408SOL    HW182117   6.436   4.503   6.086 -0.0071  0.0500 -0.4917
26408SOL    HW282118   6.585   4.478   6.077 -0.1086 -0.2138 -1.6143
26409SOL     OW82119  10.163   3.441   7.479 -0.8011  0.4799  0.3304
26409SOL    HW182120  10.181   3.531   7.452 -0.3299  0.8602  1.7986
26409SOL    HW282121  10.237   3.418   7.536 -0.5788 -1.0806 -0.5309
26410SOL     OW82122   8.840   8.371   4.122  0.4481 -0.4484 -0.4578
26410SOL    HW182123   8.869   8.440   4.062 -0.4068  1.0331  0.7580
26410SOL    HW282124   8.759   8.338   4.083 -1.5055  2.2277  0.9717
26411SOL     OW82125   2.461   9.437   1.635  0.6512 -0.3713  0.1088
26411SOL    HW182126   2.383   9.424   1.689  0.8443 -1.4046  0.1501
26411SOL    HW282127   2.460   9.365   1.572  0.9428  0.2748 -0.6677
26412SOL     OW82128   0.672  10.524   2.434 -0.0276  0.0189  0.1845
26412SOL    HW182129   0.734  10.512   2.506  0.5793  0.1873 -0.3063
26412SOL    HW282130   0.653  10.436   2.403  0.4516  0.0081 -0.0746
26413SOL     OW82131   3.217   8.195   6.990  0.0417 -0.4660  0.0041
26413SOL    HW182132   3.295   8.227   7.035 -0.1773  1.2688 -0.7378
26413SOL    HW282133   3.155   8.177   7.061  0.9492 -1.4449  0.5729
26414SOL     OW82134   8.440   0.431   6.546 -0.2817 -0.4912  0.2337
26414SOL    HW182135   8.439   0.363   6.613  0.4052 -1.2628 -0.5082
26414SOL    HW282136   8.494   0.501   6.583 -0.0100 -0.8553  0.5336
26415SOL     OW82137   6.872   3.434   0.344 -0.9764 -0.8728  0.1948
26415SOL    HW182138   6.903   3.360   0.396  0.1360 -0.4786  0.1188
26415SOL    HW282139   6.948   3.492   0.338 -0.8413 -1.2228 -2.4650
26416SOL     OW82140   1.752   7.440   4.902  0.3444  0.0308 -0.2369
26416SOL    HW182141   1.806   7.449   4.824  1.0300  1.2567  0.3605
26416SOL    HW282142   1.785   7.362   4.946  0.3550 -0.3110 -0.8410
26417SOL     OW82143   7.345   7.220   1.563 -0.6423 -0.4590 -0.3208
26417SOL    HW182144   7.414   7.207   1.499  0.1352  0.3869  0.3145
26417SOL    HW282145   7.390   7.257   1.639 -1.6325 -0.8660  0.4867
26418SOL     OW82146   0.615   1.671   3.476  0.2505  0.0441 -0.3711
26418SOL    HW182147   0.561   1.600   3.510 -2.1811  0.9963 -1.9553
26418SOL    HW282148   0.621   1.654   3.382  0.4561  1.3918 -0.6297
26419SOL     OW82149   6.516   8.539   7.931 -0.4423  0.1712  0.4166
26419SOL    HW182150   6.595   8.494   7.959 -0.3990 -0.1833 -0.2771
26419SOL    HW282151   6.464   8.547   8.011  0.3208  0.4772  0.8934
26420SOL     OW82152   9.543   0.285   4.703 -0.0711 -0.0190 -0.0746
26420SOL    HW182153   9.500   0.354   4.653 -0.7828  0.1225  0.7178
26420SOL    HW282154   9.474   0.222   4.722  0.2262 -0.1569  0.5800
26421SOL     OW82155   7.153   7.823   5.852  0.4894 -0.0728 -0.0057
26421SOL    HW182156   7.189   7.785   5.932  1.0713  0.9120  0.2152
26421SOL    HW282157   7.153   7.917   5.867  0.9689  0.1594 -1.3012
26422SOL     OW82158  10.383   7.309   1.630  0.1662 -0.0646 -0.0783
26422SOL    HW182159  10.426   7.248   1.690 -0.8611 -0.7335  0.0082
26422SOL    HW282160  10.360   7.384   1.685 -1.6938 -1.1072  0.6478
26423SOL     OW82161  10.516   4.621   1.270  0.0033  0.2887  0.1744
26423SOL    HW182162  10.465   4.690   1.227  0.2962 -0.2411 -1.0644
26423SOL    HW282163  10.551   4.568   1.198  1.3788 -0.0232  1.0324
26424SOL     OW82164   6.387   2.779   7.331  0.1620  0.1425  0.6003
26424SOL    HW182165   6.358   2.691   7.306  2.0463  0.0071 -1.4186
26424SOL    HW282166   6.316   2.837   7.304 -0.7966 -0.6545  1.3179
26425SOL     OW82167   5.622   4.850   9.503 -0.3965 -0.4662  0.6518
26425SOL    HW182168   5.587   4.901   9.430  0.1529 -2.3913 -1.0203
26425SOL    HW282169   5.586   4.893   9.581 -0.3780  2.1258 -0.6529
26426SOL     OW82170   1.215   8.987   1.853 -0.1669  0.3003  0.3581
26426SOL    HW182171   1.217   8.919   1.921  1.2690 -0.5916 -0.5102
26426SOL    HW282172   1.184   9.066   1.898  1.4816 -0.0593  2.2542
26427SOL     OW82173   7.824   0.685   7.186 -0.0474  0.5592 -0.4167
26427SOL    HW182174   7.884   0.738   7.133  0.0542  0.1871 -0.6788
26427SOL    HW282175   7.797   0.743   7.257  1.7551  0.2860  0.5551
26428SOL     OW82176   5.075   1.326   5.649 -0.4899 -0.4220  0.1442
26428SOL    HW182177   5.009   1.310   5.717 -1.1893  1.5267  0.0015
26428SOL    HW282178   5.065   1.419   5.628  0.9466 -0.5600 -1.3457
26429SOL     OW82179   3.467   9.934   8.938 -0.0566  0.4425 -0.0978
26429SOL    HW182180   3.492  10.026   8.941 -0.8780  0.8308 -2.5910
26429SOL    HW282181   3.543   9.890   8.900  0.7228 -0.1536  1.9807
26430SOL     OW82182   9.049   3.283   7.297  0.1028 -0.0906 -0.0841
26430SOL    HW182183   8.971   3.331   7.269 -0.8026 -0.2355  2.0529
26430SOL    HW282184   9.055   3.209   7.237 -0.9874  0.3013 -0.6941
26431SOL     OW82185   5.266   5.636   7.247 -0.3272  0.2184  0.5501
26431SOL    HW182186   5.217   5.641   7.166  1.1376 -1.0123 -0.4625
26431SOL    HW282187   5.244   5.717   7.294 -2.1599  0.3507 -0.4843
26432SOL     OW82188   8.565   0.642   2.672  0.1184 -0.0610 -0.2201
26432SOL    HW182189   8.550   0.705   2.602  0.1506  1.2429  0.9031
26432SOL    HW282190   8.477   0.609   2.694 -0.4308  2.3539  1.6208
26433SOL     OW82191   2.323   8.422   9.110 -0.0960 -0.5473  0.2471
26433SOL    HW182192   2.409   8.463   9.114 -0.3103  0.1083 -1.1698
26433SOL    HW282193   2.261   8.494   9.124 -0.4431 -1.1492  2.1051
26434SOL     OW82194   5.007   6.677   8.314 -0.2899  0.2498 -0.0529
26434SOL    HW182195   5.029   6.599   8.364 -0.7618 -1.6209 -2.6037
26434SOL    HW282196   5.074   6.683   8.246 -2.0194  0.1524 -1.8636
26435SOL     OW82197   2.500   0.079   1.168  0.1166  0.0013 -0.3542
26435SOL    HW182198   2.516   0.160   1.119  0.4812 -0.3325 -0.7877
26435SOL    HW282199   2.405   0.068   1.166 -0.0718  1.1135  0.8218
26436SOL     OW82200   1.313   1.950   2.138 -0.2566  0.3704  0.4400
26436SOL    HW182201   1.251   1.942   2.065 -1.6120  1.3498  1.4313
26436SOL    HW282202   1.309   1.865   2.181 -1.3034  0.5668  0.7669
26437SOL     OW82203   2.668   1.453   2.882 -0.4749  0.0569 -0.3059
26437SOL    HW182204   2.725   1.495   2.817 -0.9130 -1.0181 -1.4220
26437SOL    HW282205   2.582   1.452   2.841 -1.1539  0.9279  1.0378
26438SOL     OW82206   0.005  10.667   9.570 -0.7365  0.0398 -0.0647
26438SOL    HW182207  -0.002  10.582   9.613 -2.4456 -0.0356 -0.4277
26438SOL    HW282208   0.026  10.728   9.641 -1.0517 -0.4506  0.4553
26439SOL     OW82209   8.120  10.110   4.411 -0.7855 -0.2475 -0.0852
26439SOL    HW182210   8.032  10.120   4.376 -0.8431 -0.3320  0.0336
26439SOL    HW282211   8.123  10.019   4.442 -1.0530  0.0933  0.9813
26440SOL     OW82212   3.815   2.962   2.849 -0.3592  0.6461 -0.3063
26440SOL    HW182213   3.880   2.949   2.918 -1.0685  0.3504  0.3280
26440SOL    HW282214   3.771   3.044   2.874  0.0652  1.0836 -0.9774
26441SOL     OW82215   5.133   9.089   7.033  0.5605 -0.1240  0.4598
26441SOL    HW182216   5.107   8.999   7.015  0.0635 -0.0288  0.6987
26441SOL    HW282217   5.095   9.109   7.118 -1.3644  1.0929 -0.6191
26442SOL     OW82218   1.882   9.073   3.739 -0.1275  0.0992  0.1744
26442SOL    HW182219   1.929   8.990   3.736 -1.4003 -0.6292 -0.2266
26442SOL    HW282220   1.903   9.115   3.655  0.8814  0.4165  0.5638
26443SOL     OW82221   0.825   6.773   8.776  0.0175 -0.1455  0.4693
26443SOL    HW182222   0.905   6.816   8.804  0.7360 -0.9280 -0.2811
26443SOL    HW282223   0.800   6.818   8.695 -0.3502  0.1542  0.7491
26444SOL     OW82224   1.388   6.889   9.361  0.1542 -0.4635 -0.2218
26444SOL    HW182225   1.348   6.878   9.448  0.5454 -0.8261 -0.0844
26444SOL    HW282226   1.391   6.801   9.324  1.7915 -0.6272  0.2132
26445SOL     OW82227   7.258  10.517   9.837  0.2338  0.0497 -0.2759
26445SOL    HW182228   7.351  10.497   9.849  0.0885 -0.9649 -0.7425
26445SOL    HW282229   7.232  10.465   9.762  0.0649  2.8136 -2.3046
26446SOL     OW82230   2.409   1.004   9.551 -0.0282  0.1078  0.1531
26446SOL    HW182231   2.444   1.093   9.549  1.4023 -0.4026  1.0574
26446SOL    HW282232   2.323   1.013   9.591 -0.5664  1.2587 -1.1426
26447SOL     OW82233  10.385   3.918   2.750 -0.4664 -0.0346 -0.0265
26447SOL    HW182234  10.375   4.002   2.705 -1.9955  0.5858  1.4030
26447SOL    HW282235  10.433   3.939   2.830 -0.9485 -0.4974  0.3908
26448SOL     OW82236   4.476   2.472   1.153 -0.3318  0.7964  0.0413
26448SOL    HW182237   4.486   2.451   1.246  0.7447  1.6912  0.1448
26448SOL    HW282238   4.548   2.425   1.110 -1.6740 -0.8105 -0.5653
26449SOL     OW82239   0.302   5.357   3.400 -0.1406  0.2143 -0.2848
26449SOL    HW182240   0.367   5.425   3.381 -0.7205  1.9047  3.0221
26449SOL    HW282241   0.219   5.395   3.371 -0.0564 -0.9736 -2.3190
26450SOL     OW82242   1.053   4.622   7.608  0.2750  0.8481  0.3554
26450SOL    HW182243   1.106   4.688   7.654 -0.8638  1.8643  0.2637
26450SOL    HW282244   1.114   4.550   7.591  1.1195  1.0826  2.0965
26451SOL     OW82245   3.626   8.933   6.670 -0.2207 -0.0078  0.3764
26451SOL    HW182246   3.688   8.946   6.599 -0.3676 -0.7437  0.1050
26451SOL    HW282247   3.551   8.987   6.647 -1.0547 -1.6519 -1.0230
26452SOL     OW82248   7.146   5.651   3.018  0.0823  0.1332 -0.4246
26452SOL    HW182249   7.051   5.659   3.011 -0.1903  0.0873  2.3286
26452SOL    HW282250   7.169   5.581   2.957 -1.6811 -0.1043 -0.8528
26453SOL     OW82251   5.714   1.801   0.920 -0.2185  0.5571  0.2757
26453SOL    HW182252   5.641   1.863   0.917  0.1628  1.1252  2.0149
26453SOL    HW282253   5.792   1.856   0.930  0.5005 -0.0399 -1.4838
26454SOL     OW82254   5.937   2.884   4.735 -0.1234  0.2180 -0.6124
26454SOL    HW182255   5.882   2.861   4.659  2.2581  1.2242 -2.7789
26454SOL    HW282256   5.927   2.978   4.745 -1.5773 -0.0756  1.4077
26455SOL     OW82257   6.202   1.594   7.275  0.5212 -0.0310  0.4338
26455SOL    HW182258   6.257   1.517   7.291  2.2374  1.0649 -0.0038
26455SOL    HW282259   6.214   1.649   7.353  0.2898  0.3797  0.1853
26456SOL     OW82260   1.513   8.668   2.690 -0.3711  0.1779 -0.2396
26456SOL    HW182261   1.533   8.736   2.755 -1.3525  1.0005 -0.7706
26456SOL    HW282262   1.598   8.632   2.666 -0.0227 -0.7464  2.1182
26457SOL     OW82263   9.623   7.967   0.056  0.2773  0.3598  0.5346
26457SOL    HW182264   9.680   8.037   0.023  0.2363 -0.1356 -0.6272
26457SOL    HW282265   9.535   8.001   0.042  0.2604  0.1848  0.2287
26458SOL     OW82266   2.208   5.392   6.622 -0.6303 -0.1937  0.2734
26458SOL    HW182267   2.166   5.307   6.610 -1.0392 -0.2156  1.7030
26458SOL    HW282268   2.289   5.373   6.669 -1.1008  0.2498  1.3174
26459SOL     OW82269   9.662   1.046   3.208 -0.1603  0.1080 -0.9987
26459SOL    HW182270   9.607   0.996   3.268  1.1334  0.4339  0.5153
26459SOL    HW282271   9.723   0.981   3.172  0.9421  0.3941  0.2900
26460SOL     OW82272   8.787   2.101   0.215  0.1627 -0.1875 -0.2480
26460SOL    HW182273   8.846   2.027   0.221  0.9740  0.3949 -0.7395
26460SOL    HW282274   8.702   2.068   0.244  0.3747 -1.4546 -1.0191
26461SOL     OW82275   5.039   0.227   1.378  0.0631  0.2075 -0.2033
26461SOL    HW182276   4.956   0.183   1.393  1.0600 -1.3417  1.0713
26461SOL    HW282277   5.028   0.314   1.418 -2.1844  1.6060 -3.4018
26462SOL     OW82278   3.180   2.546   1.991 -0.0901  0.3757 -0.0786
26462SOL    HW182279   3.197   2.624   2.044 -1.2145  0.3446  0.3492
26462SOL    HW282280   3.241   2.480   2.023  0.9285  1.0913 -0.4999
26463SOL     OW82281   1.250   6.335   8.838 -0.0195 -0.0141  0.3960
26463SOL    HW182282   1.257   6.379   8.753  1.1049  0.1054  0.5380
26463SOL    HW282283   1.258   6.242   8.817  2.3451  0.0971  0.5304
26464SOL     OW82284   3.346   9.402   0.289 -0.6106 -0.4956  0.0943
26464SOL    HW182285   3.345   9.497   0.273  0.3636 -0.6524 -1.0314
26464SOL    HW282286   3.350   9.363   0.202  0.9334 -1.5167  0.5720
26465SOL     OW82287   6.338   4.825   6.056  0.6885  0.5032 -0.2813
26465SOL    HW182288   6.417   4.772   6.064  2.0117  2.0767 -1.8955
26465SOL    HW282289   6.267   4.762   6.049  2.0681 -1.0383 -1.0420
26466SOL     OW82290   5.819   3.994   6.317  0.3555  0.4515  0.1851
26466SOL    HW182291   5.760   4.065   6.340 -0.7239  0.3409 -2.0115
26466SOL    HW282292   5.879   3.988   6.391 -1.5880  1.3967  1.9327
26467SOL     OW82293   6.176  10.069   2.409  0.2785 -0.0190 -0.5029
26467SOL    HW182294   6.087  10.071   2.374 -0.1961  0.3444  0.6832
26467SOL    HW282295   6.216  10.151   2.379 -0.0750  0.2205 -0.3270
26468SOL     OW82296  10.265   6.369   3.757 -0.5467  0.0472  0.5705
26468SOL    HW182297  10.354   6.334   3.761 -0.2480  0.8302  0.8292
26468SOL    HW282298  10.210   6.296   3.787 -0.1788 -1.0162 -1.1962
26469SOL     OW82299   3.915   0.211   8.173 -0.3376 -0.4717  0.5728
26469SOL    HW182300   3.967   0.148   8.123 -0.2003 -0.5897  0.8628
26469SOL    HW282301   3.898   0.168   8.256 -1.2533 -0.5961  0.3285
26470SOL     OW82302   0.116   4.916   5.031 -0.0993  0.1425 -0.1431
26470SOL    HW182303   0.209   4.936   5.018 -0.0931  0.3873  0.2491
26470SOL    HW282304   0.113   4.875   5.118 -0.3321 -0.0504 -0.2426
26471SOL     OW82305   4.686   8.132   1.267 -0.3814 -0.2331 -0.1539
26471SOL    HW182306   4.660   8.222   1.288 -0.0010 -0.2365  0.3453
26471SOL    HW282307   4.776   8.125   1.299 -0.5040 -0.8756  0.0581
26472SOL     OW82308   8.058   4.734  10.762  0.2113 -0.3827  0.4364
26472SOL    HW182309   8.108   4.770  10.835 -0.6976 -0.2419  1.0075
26472SOL    HW282310   8.109   4.755  10.684  1.1726 -0.4996  1.0286
26473SOL     OW82311   9.962   7.270   4.404  0.5164  0.1569  0.1259
26473SOL    HW182312  10.005   7.199   4.451 -0.3139 -0.3187  0.1953
26473SOL    HW282313   9.932   7.230   4.322  0.0890  0.4387  0.1407
26474SOL     OW82314   8.396   0.018   8.049  0.4488 -0.5968  0.4112
26474SOL    HW182315   8.331   0.057   7.990  1.5517  0.2222 -0.2980
26474SOL    HW282316   8.417   0.087   8.111  0.8254 -0.7668  0.4791
26475SOL     OW82317  10.548   4.644   5.812  0.1638  0.2863 -0.7419
26475SOL    HW182318  10.623   4.703   5.816  0.4559  0.0642 -2.2665
26475SOL    HW282319  10.487   4.687   5.752 -1.1529  0.6850  0.8297
26476SOL     OW82320   6.729   7.574   7.587  0.9135  0.6975  0.0512
26476SOL    HW182321   6.723   7.520   7.665  0.5851  0.6359 -0.0142
26476SOL    HW282322   6.768   7.656   7.617  0.2741  0.8817  0.3843
26477SOL     OW82323   1.934   2.127   8.772 -0.2518 -0.7295  0.1586
26477SOL    HW182324   1.934   2.084   8.857  1.1477 -0.1575  0.4814
26477SOL    HW282325   1.930   2.220   8.792  0.2295 -0.5850 -0.3878
26478SOL     OW82326   8.289   9.404   4.723 -0.2740 -0.7374 -0.4911
26478SOL    HW182327   8.383   9.412   4.706 -0.6310 -1.6967 -3.3189
26478SOL    HW282328   8.284   9.383   4.817  2.3073 -0.6237 -0.2544
26479SOL     OW82329   5.418   3.196   9.487 -0.7160 -0.1612  0.2170
26479SOL    HW182330   5.453   3.246   9.561  0.1782 -2.4572  1.4481
26479SOL    HW282331   5.484   3.207   9.418 -0.6298  0.4769  0.3882
26480SOL     OW82332   0.184   7.676   8.731  0.0312  0.4826 -0.2906
26480SOL    HW182333   0.125   7.622   8.679  0.3914 -0.4948  0.3033
26480SOL    HW282334   0.203   7.751   8.675 -0.9991  0.3317 -0.8656
26481SOL     OW82335   9.594   0.364   8.684 -0.2519  0.1613 -0.2636
26481SOL    HW182336   9.558   0.410   8.760  0.5380 -1.1050  0.9361
26481SOL    HW282337   9.682   0.399   8.674  0.4514 -1.1829  0.8226
26482SOL     OW82338   9.663   7.532   5.286 -0.1453  0.2450 -0.0426
26482SOL    HW182339   9.745   7.566   5.323 -0.2075  1.0676 -0.6061
26482SOL    HW282340   9.595   7.562   5.346 -0.0362 -0.4977  0.4631
26483SOL     OW82341   1.744   4.924   3.895  0.0598 -0.4058 -0.2087
26483SOL    HW182342   1.742   5.007   3.942  0.4259 -0.6912  0.3224
26483SOL    HW282343   1.768   4.947   3.805 -0.1628  0.0946 -0.1424
26484SOL     OW82344   1.244   8.372   7.333  0.3446 -0.0190  0.0644
26484SOL    HW182345   1.229   8.322   7.413 -0.3384 -0.1641 -0.1520
26484SOL    HW282346   1.334   8.350   7.307 -0.8241 -3.4169 -1.5967
26485SOL     OW82347   5.797   1.642   6.590  0.1471 -0.1126 -0.3580
26485SOL    HW182348   5.705   1.626   6.609  0.1081  0.6957  0.1439
26485SOL    HW282349   5.841   1.560   6.615 -0.3116 -0.1652  0.2865
26486SOL     OW82350   6.247   4.385   5.628  0.0835 -0.1345  0.2661
26486SOL    HW182351   6.221   4.443   5.700 -1.0792  1.6014 -1.4300
26486SOL    HW282352   6.178   4.398   5.562  2.3170  0.2339 -2.1415
26487SOL     OW82353   8.983   1.364   8.855  0.1040  0.5173 -0.2279
26487SOL    HW182354   9.024   1.289   8.898  2.3246  1.3296 -0.7801
26487SOL    HW282355   8.955   1.331   8.770 -0.9047 -0.1766  0.3515
26488SOL     OW82356   6.527   7.298   8.041  0.0666 -0.1200 -0.1479
26488SOL    HW182357   6.505   7.232   7.975  0.6912  0.7734 -1.2787
26488SOL    HW282358   6.445   7.314   8.087 -0.0371 -1.8820  0.3496
26489SOL     OW82359   1.708   8.275   9.593  0.4290  0.3833  0.4790
26489SOL    HW182360   1.616   8.262   9.567  0.1038  1.3586  1.0644
26489SOL    HW282361   1.726   8.202   9.652 -0.7731  1.4386  2.2829
26490SOL     OW82362   4.063   1.926   7.559 -0.2181  0.7146 -0.1890
26490SOL    HW182363   4.034   1.962   7.642  0.1284 -1.1260  0.7850
26490SOL    HW282364   3.983   1.908   7.510 -0.5751 -0.6475  0.8538
26491SOL     OW82365   4.391   3.359  10.238 -0.3122  0.3064 -0.1093
26491SOL    HW182366   4.436   3.403  10.167 -0.6292 -0.5964 -0.8961
26491SOL    HW282367   4.297   3.368  10.217 -0.4612  1.0833  0.8434
26492SOL     OW82368   9.712   5.596  10.688  0.1181  0.5465 -0.2793
26492SOL    HW182369   9.740   5.621  10.600 -0.3990 -0.5571 -0.7702
26492SOL    HW282370   9.769   5.524  10.712 -1.7414 -1.2654 -1.0082
26493SOL     OW82371   2.513   6.088   8.122  0.0924 -0.1397 -0.1954
26493SOL    HW182372   2.509   6.009   8.069 -2.5533 -0.8460  0.8926
26493SOL    HW282373   2.581   6.071   8.187 -0.0339 -1.2617 -0.3524
26494SOL     OW82374   3.930   4.905   6.022  0.6485  0.4947 -0.1714
26494SOL    HW182375   3.936   4.919   6.116 -0.5791  0.0192 -0.0124
26494SOL    HW282376   3.838   4.921   6.001  0.6941 -0.4091 -1.1169
26495SOL     OW82377   1.712   2.817   2.147 -0.5562  0.0371 -0.1510
26495SOL    HW182378   1.763   2.736   2.143  1.4914  1.1947  0.7481
26495SOL    HW282379   1.761   2.878   2.092 -0.2908  1.5178  1.6393
26496SOL     OW82380   3.218   8.758   2.833 -0.1604  0.5827  0.4651
26496SOL    HW182381   3.147   8.702   2.863  1.3742 -1.4924  0.5295
26496SOL    HW282382   3.204   8.767   2.739 -0.3100 -0.1539  0.4096
26497SOL     OW82383   3.882   5.756   4.668  1.0046 -0.1226  0.1410
26497SOL    HW182384   3.808   5.814   4.686  0.1832 -0.8316 -0.8294
26497SOL    HW282385   3.958   5.815   4.662  0.2356  0.8376 -0.6078
26498SOL     OW82386   1.465   6.697   3.471  0.2675  0.1204  0.7174
26498SOL    HW182387   1.511   6.764   3.522  0.4279  1.1274 -0.7232
26498SOL    HW282388   1.535   6.652   3.423  0.0310 -0.3464  0.7986
26499SOL     OW82389   1.299   1.722   9.157 -0.5513 -0.3610  0.0252
26499SOL    HW182390   1.215   1.740   9.200 -1.1612  1.7623 -1.8507
26499SOL    HW282391   1.345   1.806   9.160  1.4579 -1.4434  0.8162
26500SOL     OW82392   6.920   0.087   8.483  0.2446  0.4278  0.4891
26500SOL    HW182393   6.988   0.040   8.531 -0.8397 -1.5909  0.1474
26500SOL    HW282394   6.926   0.055   8.393 -1.4344 -0.1894  0.5546
26501SOL     OW82395   4.793   9.562   9.001  0.5246 -0.5245 -0.3658
26501SOL    HW182396   4.786   9.467   8.997 -0.1728 -0.4507 -2.5411
26501SOL    HW282397   4.786   9.590   8.910 -0.3174  1.6863  0.3087
26502SOL     OW82398   2.932   5.408   0.784 -0.2451 -0.1690  0.2546
26502SOL    HW182399   2.930   5.320   0.820  2.1419 -0.4911 -0.2353
26502SOL    HW282400   2.900   5.464   0.855 -0.0072 -1.2324  1.2181
26503SOL     OW82401   1.283   2.137   6.264  0.0441 -0.0882 -0.0817
26503SOL    HW182402   1.328   2.054   6.252 -0.3872 -0.4985  0.9614
26503SOL    HW282403   1.279   2.176   6.177  0.1381 -1.2164 -0.6013
26504SOL     OW82404   2.038   7.906   4.400  0.4154 -0.0195 -0.2313
26504SOL    HW182405   2.034   7.986   4.346 -0.9704  1.5129  1.9809
26504SOL    HW282406   1.996   7.839   4.346  1.7525  0.6473 -2.2155
26505SOL     OW82407   5.235   1.921   7.286 -0.6425 -0.0147  0.0181
26505SOL    HW182408   5.196   2.009   7.286 -0.6318 -0.0097 -0.0430
26505SOL    HW282409   5.184   1.873   7.351  0.4106  0.4929  1.2719
26506SOL     OW82410   2.072   1.785   7.122  0.6410 -0.1097 -0.3932
26506SOL    HW182411   2.010   1.789   7.049  0.4909 -0.3819 -0.2830
26506SOL    HW282412   2.062   1.870   7.166  0.8679  0.1288 -0.7963
26507SOL     OW82413   1.413   4.201   2.184  0.2480 -0.0539 -0.0108
26507SOL    HW182414   1.477   4.252   2.235 -0.3735  0.6209  0.1242
26507SOL    HW282415   1.423   4.233   2.094  0.9219 -0.8071 -0.2106
26508SOL     OW82416   2.244   0.177   0.874  0.3726 -0.4535  0.1439
26508SOL    HW182417   2.284   0.170   0.787  0.2167 -1.2182  0.1183
26508SOL    HW282418   2.150   0.183   0.856  0.0273 -3.5814  0.2648
26509SOL     OW82419   7.546   8.776   2.734 -0.0671 -0.0765 -0.0919
26509SOL    HW182420   7.491   8.704   2.764 -0.4289  0.9609  1.9324
26509SOL    HW282421   7.491   8.853   2.742  1.1808  0.7825  0.4772
26510SOL     OW82422   5.540   6.475   2.289 -0.2639 -0.1437 -0.1476
26510SOL    HW182423   5.608   6.539   2.311  0.0373 -0.4767 -0.1060
26510SOL    HW282424   5.584   6.411   2.233 -1.2473  1.2353 -2.6697
26511SOL     OW82425   1.680   2.876   5.293 -0.0542  0.8288  0.4093
26511SOL    HW182426   1.640   2.815   5.231  1.0162  0.6002 -0.0946
26511SOL    HW282427   1.661   2.839   5.379  2.6247 -1.6672  0.0873
26512SOL     OW82428   0.133   6.821   5.750  0.3706 -0.4626  0.2941
26512SOL    HW182429   0.183   6.898   5.778 -1.4053  1.6959 -2.0413
26512SOL    HW282430   0.056   6.857   5.707 -1.9031 -3.6208  1.3708
26513SOL     OW82431   1.509   5.140   3.515 -0.1790 -0.2033  0.3429
26513SOL    HW182432   1.569   5.215   3.521  0.2345 -0.3711 -1.2247
26513SOL    HW282433   1.560   5.072   3.471 -1.0909 -0.8318  0.2306
26514SOL     OW82434   9.181   0.674   6.900 -0.4815 -0.5065  0.0604
26514SOL    HW182435   9.246   0.681   6.830  0.4021  0.5275  0.9386
26514SOL    HW282436   9.162   0.581   6.906 -0.1339 -0.6747 -1.1516
26515SOL     OW82437   6.067  10.439   6.121  0.0577  0.3781  0.2400
26515SOL    HW182438   6.085  10.409   6.210  0.4715  0.0737  0.0566
26515SOL    HW282439   5.973  10.458   6.121 -0.6883 -2.7502 -0.1572
26516SOL     OW82440   0.403   6.761   6.310  0.2632 -0.2191  0.3655
26516SOL    HW182441   0.477   6.809   6.346  0.5163 -1.7565  2.0447
26516SOL    HW282442   0.341   6.754   6.382 -1.5354  0.9427 -0.9707
26517SOL     OW82443   6.264   0.855   7.416 -0.1982  0.3505  0.1817
26517SOL    HW182444   6.174   0.887   7.424 -1.1596 -1.6328 -1.5524
26517SOL    HW282445   6.263   0.770   7.459  0.7406  0.1408 -0.1974
26518SOL     OW82446   3.846   0.519   5.364 -0.6395  0.2038  0.4204
26518SOL    HW182447   3.777   0.564   5.316  0.2875  0.2302 -0.9548
26518SOL    HW282448   3.926   0.541   5.316  0.1743 -0.7579  1.2939
26519SOL     OW82449   9.460   5.580   5.123 -0.1494  0.3511 -0.4041
26519SOL    HW182450   9.475   5.567   5.217  2.1537 -5.5663 -1.1420
26519SOL    HW282451   9.513   5.656   5.100 -0.2111  1.5605  2.8634
26520SOL     OW82452   7.876  10.588  10.445 -0.5305  0.1123 -0.7842
26520SOL    HW182453   7.928  10.667  10.464 -1.1659  0.1277  1.0306
26520SOL    HW282454   7.822  10.613  10.370 -0.9060  1.5002 -0.0777
26521SOL     OW82455   5.939   9.625   0.584 -0.0677  0.5962  0.2857
26521SOL    HW182456   6.026   9.649   0.616  0.8817  0.9352 -2.3254
26521SOL    HW282457   5.944   9.531   0.568 -0.0545  0.6749 -0.1888
26522SOL     OW82458   0.192   7.976   7.748 -0.0575 -0.2602 -0.5273
26522SOL    HW182459   0.183   7.881   7.750  0.6953 -0.3417 -0.5639
26522SOL    HW282460   0.186   7.999   7.655  2.6760 -0.6148 -0.8795
26523SOL     OW82461  10.796   2.322   2.599 -0.4561 -0.3066 -0.2408
26523SOL    HW182462  10.839   2.262   2.659 -1.7642  0.2797  1.3757
26523SOL    HW282463  10.749   2.265   2.538  0.6356 -0.9088 -0.5480
26524SOL     OW82464   2.681   2.282   0.044  0.1589 -0.1311 -0.2243
26524SOL    HW182465   2.753   2.224   0.019 -1.6001 -2.1840 -0.8137
26524SOL    HW282466   2.605   2.248  -0.002 -1.7870  0.2804  2.4194
26525SOL     OW82467   3.134   9.605   3.762  1.0642 -0.1391  0.1565
26525SOL    HW182468   3.098   9.527   3.719  1.2081 -0.6658  0.9673
26525SOL    HW282469   3.197   9.640   3.699  0.6452 -0.3967 -0.4154
26526SOL     OW82470   9.173   7.459   0.836  0.8157  0.2587 -0.1832
26526SOL    HW182471   9.256   7.421   0.810  1.6390  1.3860  0.7243
26526SOL    HW282472   9.182   7.476   0.930 -0.9699 -0.9063  0.2645
26527SOL     OW82473   7.229   5.613   5.963 -0.1372  0.3544  0.1906
26527SOL    HW182474   7.235   5.537   5.906  0.4800 -0.3978  1.2045
26527SOL    HW282475   7.208   5.686   5.905 -0.2080 -0.4950 -0.8776
26528SOL     OW82476   0.675   5.031   4.786  0.1208 -0.4953 -0.2956
26528SOL    HW182477   0.709   5.044   4.874 -0.7979 -0.6234  0.0881
26528SOL    HW282478   0.753   5.026   4.730  0.6794  0.4689  0.3821
26529SOL     OW82479   6.757   5.187  10.598 -0.6786 -0.5363 -0.0220
26529SOL    HW182480   6.816   5.229  10.660 -0.5471 -2.4110  1.2063
26529SOL    HW282481   6.679   5.166  10.649 -1.3337 -0.4853 -0.9684
26530SOL     OW82482   6.273   3.179   4.648 -0.7258  0.1507  0.7115
26530SOL    HW182483   6.274   3.092   4.609  2.3270  1.0158 -1.4824
26530SOL    HW282484   6.355   3.183   4.698 -0.7631  1.7734  0.6796
26531SOL     OW82485   7.560   7.836   6.853 -0.4385 -0.1107  0.2963
26531SOL    HW182486   7.647   7.851   6.817 -0.9532  1.3410 -0.4114
26531SOL    HW282487   7.559   7.743   6.878  0.6148 -0.6562 -1.5659
26532SOL     OW82488   2.016  10.077   4.180 -0.7698 -0.4446  0.0968
26532SOL    HW182489   2.045  10.156   4.227  0.6112 -1.1458  0.4948
26532SOL    HW282490   2.000  10.107   4.090 -0.4969  0.3427  0.3019
26533SOL     OW82491   7.620   5.613   1.794  0.1545 -0.3300 -0.3231
26533SOL    HW182492   7.681   5.607   1.868  0.4062  0.2596 -0.4819
26533SOL    HW282493   7.671   5.648   1.722 -0.4773  0.6300 -0.3254
26534SOL     OW82494   8.571   0.261   2.334 -0.3951 -0.2671 -0.1821
26534SOL    HW182495   8.627   0.280   2.409  0.8971 -2.6738 -0.4053
26534SOL    HW282496   8.621   0.196   2.283 -2.1878 -0.3862 -1.9225
26535SOL     OW82497   4.792   5.095   7.495  0.3576 -0.4979 -0.1801
26535SOL    HW182498   4.782   5.166   7.431 -0.5525  0.2758  0.7934
26535SOL    HW282499   4.884   5.071   7.490  1.3191  2.4654  1.2218
26536SOL     OW82500   0.437   2.875   9.209 -1.0338 -0.2070  0.1299
26536SOL    HW182501   0.438   2.846   9.118 -1.2301  1.3246 -0.4033
26536SOL    HW282502   0.415   2.797   9.259 -1.5894 -0.9437 -1.1994
26537SOL     OW82503   6.968   8.976   3.093 -0.8008 -0.3508 -0.2621
26537SOL    HW182504   6.916   9.026   3.155 -0.7169  0.2941 -0.7024
26537SOL    HW282505   6.903   8.934   3.037 -0.8766 -0.9472  0.2630
26538SOL     OW82506  10.648   1.131   3.386 -0.0001 -0.3732  0.1170
26538SOL    HW182507  10.578   1.187   3.351 -0.0170 -1.0479 -0.9760
26538SOL    HW282508  10.727   1.183   3.376 -0.1775 -0.0819  0.2141
26539SOL     OW82509   1.930   8.619   1.774  0.1792 -0.1706 -0.0701
26539SOL    HW182510   2.004   8.590   1.828 -1.5882 -1.5989  1.6973
26539SOL    HW282511   1.948   8.582   1.688  1.9618  0.2908  0.0487
26540SOL     OW82512   7.020   8.376   8.961 -0.0251  0.3443  0.2345
26540SOL    HW182513   7.049   8.456   9.004 -1.2329  1.8780 -1.6107
26540SOL    HW282514   6.930   8.364   8.991 -0.8425  1.3676 -1.6289
26541SOL     OW82515   5.207   3.848   4.221  0.1402  0.2873 -0.1191
26541SOL    HW182516   5.114   3.840   4.198  0.1389 -1.2139  0.2875
26541SOL    HW282517   5.246   3.895   4.148 -0.7968  0.2183 -0.6853
26542SOL     OW82518   9.272   5.859   2.519 -0.0559  0.0146  0.5308
26542SOL    HW182519   9.304   5.869   2.609 -0.6381  1.8085  0.5821
26542SOL    HW282520   9.240   5.769   2.515  0.6587 -0.3386  1.8830
26543SOL     OW82521   4.113   5.794   6.653  0.2683 -0.0169 -0.4520
26543SOL    HW182522   4.032   5.834   6.621  0.0607  0.2775  0.4172
26543SOL    HW282523   4.086   5.714   6.696  0.6037 -0.6875 -1.4544
26544SOL     OW82524   3.324   1.726   2.567  0.0556 -0.0054 -0.2191
26544SOL    HW182525   3.416   1.705   2.587 -0.4683 -0.5491  1.8565
26544SOL    HW282526   3.283   1.736   2.652 -1.5371  1.6265 -1.1204
26545SOL     OW82527   2.469  10.158  10.152 -0.2953 -0.1651 -0.2921
26545SOL    HW182528   2.559  10.182  10.129 -0.5639 -0.8289 -2.1934
26545SOL    HW282529   2.460  10.068  10.121 -1.0575 -0.7711  1.5780
26546SOL     OW82530   8.877   3.838   5.068 -0.2134  0.3170  0.0422
26546SOL    HW182531   8.843   3.757   5.028  0.4015  0.9403 -1.8587
26546SOL    HW282532   8.942   3.869   5.005 -2.1925  3.6505 -0.5493
26547SOL     OW82533   9.365   6.761  10.223  0.5607  0.2602  0.1826
26547SOL    HW182534   9.343   6.854  10.219  1.1447  0.4032  0.2049
26547SOL    HW282535   9.387   6.747  10.315 -0.3336 -0.0932  0.3521
26548SOL     OW82536   6.371   7.642   5.451  0.0097  0.2739 -0.2870
26548SOL    HW182537   6.375   7.576   5.521  1.8855  0.9195  0.2640
26548SOL    HW282538   6.337   7.720   5.494  0.4944  0.4710 -0.2591
26549SOL     OW82539   9.008   4.836   4.827 -0.2727  0.6391  0.0788
26549SOL    HW182540   8.974   4.773   4.890 -0.4003  0.2213 -0.4071
26549SOL    HW282541   8.996   4.795   4.742 -3.3329  2.6048 -0.5861
26550SOL     OW82542   4.924   4.727   7.906  0.4533 -0.3440 -0.0100
26550SOL    HW182543   4.912   4.676   7.826  2.3421  0.7326 -1.0581
26550SOL    HW282544   4.996   4.683   7.951  1.3030  0.6745 -0.3414
26551SOL     OW82545   5.345   7.972   8.583 -0.4260  0.1724  0.2570
26551SOL    HW182546   5.252   7.995   8.592 -0.6849  0.0916 -1.6773
26551SOL    HW282547   5.361   7.909   8.653 -1.1875  1.9057  2.0799
26552SOL     OW82548   2.553   3.932   8.877  0.0492  0.7392  0.0699
26552SOL    HW182549   2.524   3.944   8.786 -1.4253 -0.2830  0.3711
26552SOL    HW282550   2.474   3.947   8.930  0.1415 -1.4892  0.9641
26553SOL     OW82551   9.769   4.953   0.137  0.1057 -0.3076 -0.6462
26553SOL    HW182552   9.744   4.868   0.172  1.7475 -0.5222  0.1101
26553SOL    HW282553   9.743   5.016   0.203  0.2761 -0.3879 -0.5014
26554SOL     OW82554   4.554   5.344   4.915 -0.0443  0.5297 -0.0518
26554SOL    HW182555   4.626   5.301   4.868  0.6353 -0.4098  1.7455
26554SOL    HW282556   4.581   5.435   4.924  1.8421 -0.1578  2.1295
26555SOL     OW82557   8.046   1.664   9.754 -0.3241 -0.4090  0.1705
26555SOL    HW182558   8.042   1.703   9.842  0.5262 -0.2253  0.1409
26555SOL    HW282559   8.120   1.603   9.758  0.6881  0.6928 -0.8217
26556SOL     OW82560   0.913   9.140   3.054  0.5916 -0.0637 -0.5833
26556SOL    HW182561   0.871   9.112   2.973  0.1543  0.9022 -0.7060
26556SOL    HW282562   0.883   9.230   3.066  1.2037  0.0314  0.2867
26557SOL     OW82563   6.979   8.203   7.293 -0.0578 -0.6373  0.6343
26557SOL    HW182564   6.960   8.229   7.202 -0.9952  2.2372  1.5405
26557SOL    HW282565   7.070   8.173   7.291  0.3128  0.4405 -1.0680
26558SOL     OW82566   9.456   5.619   3.108  0.0467  0.0831 -0.1896
26558SOL    HW182567   9.490   5.582   3.190 -0.9604  0.8206  0.5907
26558SOL    HW282568   9.361   5.620   3.120 -0.0556  1.0909 -0.9835
26559SOL     OW82569   6.849   8.130   0.726  0.1447 -0.4355 -0.2896
26559SOL    HW182570   6.933   8.087   0.739  0.7656  0.4076 -1.3656
26559SOL    HW282571   6.871   8.218   0.693 -1.1049  0.3609  0.8727
26560SOL     OW82572   8.461   5.207   7.471 -0.7652  0.2312 -0.4963
26560SOL    HW182573   8.545   5.162   7.471 -0.6521  0.4422 -0.8310
26560SOL    HW282574   8.445   5.229   7.379 -0.7556  1.0017 -0.3162
26561SOL     OW82575   8.571   2.373   0.205 -0.2916 -0.0455 -0.3529
26561SOL    HW182576   8.542   2.363   0.115 -0.4878  1.6315 -0.5071
26561SOL    HW282577   8.664   2.394   0.199  0.1468 -1.6868 -0.0362
26562SOL     OW82578   9.683   3.815  10.018 -0.2621  0.4226  0.5822
26562SOL    HW182579   9.727   3.748   9.966 -1.0762 -0.1883  0.6543
26562SOL    HW282580   9.594   3.782  10.029 -0.5154  1.2478  1.1131
26563SOL     OW82581   5.774   2.058   7.423 -0.7392 -0.1461  0.4712
26563SOL    HW182582   5.685   2.042   7.452 -0.7566 -0.4471  0.2539
26563SOL    HW282583   5.765   2.095   7.335 -0.8130  3.1838  1.7353
26564SOL     OW82584   8.888   1.791   2.529  0.5704  0.0646 -0.3148
26564SOL    HW182585   8.888   1.871   2.582 -0.5324 -0.6576  0.8455
26564SOL    HW282586   8.809   1.799   2.475  1.8917  0.9796 -2.2317
26565SOL     OW82587   5.770   4.474   9.188 -0.0667  0.7580 -0.7194
26565SOL    HW182588   5.853   4.426   9.193  0.3621  1.6031  0.9806
26565SOL    HW282589   5.744   4.485   9.279 -1.4786  1.5037 -1.1987
26566SOL     OW82590   9.967  10.054   6.273  0.3345 -0.0601  0.7604
26566SOL    HW182591   9.922  10.114   6.332  0.2204  1.1408 -0.5085
26566SOL    HW282592   9.924  10.066   6.189  0.3706 -1.8755  0.4359
26567SOL     OW82593   2.327   8.251   8.822  0.0998  0.3917 -0.7284
26567SOL    HW182594   2.351   8.281   8.910 -2.1200  1.4148 -0.4051
26567SOL    HW282595   2.284   8.167   8.837 -0.4560  0.6588 -0.7901
26568SOL     OW82596   0.356   2.723   7.505 -0.1040  0.0536 -0.3836
26568SOL    HW182597   0.335   2.652   7.566 -0.4875 -0.1298 -0.7161
26568SOL    HW282598   0.451   2.727   7.504 -0.0900  0.8863  1.1529
26569SOL     OW82599   7.465   6.419  10.618  0.3806  0.1979  0.0775
26569SOL    HW182600   7.559   6.439  10.612  0.3861  0.0503 -0.4036
26569SOL    HW282601   7.424   6.476  10.553  0.3198 -0.8023 -0.8003
26570SOL     OW82602   9.657   3.737   0.473  0.0339 -0.1045 -0.3858
26570SOL    HW182603   9.570   3.696   0.468  0.6944 -1.5517 -0.6739
26570SOL    HW282604   9.659   3.777   0.560 -1.5629  1.5437 -1.0439
26571SOL     OW82605   2.489  10.280   6.866 -0.4546  0.0192  0.3090
26571SOL    HW182606   2.416  10.269   6.805  0.4256  1.0781 -1.0237
26571SOL    HW282607   2.549  10.209   6.844  1.2024  2.0056 -2.2035
26572SOL     OW82608   2.552   7.154   5.154 -0.2114  0.2776  0.7501
26572SOL    HW182609   2.578   7.192   5.238 -2.2871  1.2149  1.0185
26572SOL    HW282610   2.468   7.194   5.134  0.6588  0.8114 -2.2889
26573SOL     OW82611   4.381   7.135   9.258 -0.0589 -0.4380  0.5178
26573SOL    HW182612   4.409   7.119   9.168 -1.3614 -2.3517  0.3890
26573SOL    HW282613   4.410   7.057   9.306 -1.8846 -0.8126  1.1017
26574SOL     OW82614  10.252   9.070   8.105 -0.1988 -0.1861 -0.6557
26574SOL    HW182615  10.261   9.101   8.195  0.5690  1.1982 -1.1704
26574SOL    HW282616  10.214   8.982   8.113  1.5494 -0.8633  1.1082
26575SOL     OW82617   0.490   7.331   2.528  0.3160 -0.0618 -0.2770
26575SOL    HW182618   0.461   7.412   2.486  0.6042  0.0441 -0.2757
26575SOL    HW282619   0.413   7.299   2.575 -0.2079 -0.5231 -1.3984
26576SOL     OW82620   6.024   8.173   2.533  0.1901  0.4960 -0.1549
26576SOL    HW182621   5.949   8.232   2.534 -1.6879 -1.7219  0.0152
26576SOL    HW282622   5.995   8.098   2.586  2.6305 -0.3524  0.0805
26577SOL     OW82623  10.614   4.236   3.385 -0.0894  0.2331  0.4240
26577SOL    HW182624  10.667   4.230   3.465  1.5942  0.2582 -0.6408
26577SOL    HW282625  10.568   4.320   3.393  1.2616  0.9814  0.6967
26578SOL     OW82626   9.258   8.021   6.394  1.0212  0.2762 -0.2813
26578SOL    HW182627   9.320   8.077   6.347  0.4348  0.4415 -0.8862
26578SOL    HW282628   9.172   8.052   6.365  0.6429  0.3739  0.9147
26579SOL     OW82629   6.455   0.963   8.837  0.1965 -0.4983  0.0541
26579SOL    HW182630   6.415   1.044   8.805 -0.3029 -0.8798 -0.2946
26579SOL    HW282631   6.401   0.938   8.912  0.7742 -0.1386  0.6043
26580SOL     OW82632   9.468   8.511   7.567  0.2114  0.1246 -0.1743
26580SOL    HW182633   9.480   8.428   7.521  0.5697  0.1686 -0.1612
26580SOL    HW282634   9.473   8.577   7.498  0.0266  0.1434 -0.1704
26581SOL     OW82635   3.128   8.860   3.286  0.2553 -0.1102 -0.0872
26581SOL    HW182636   3.133   8.937   3.230  2.6238  0.2002  0.4312
26581SOL    HW282637   3.123   8.786   3.226  0.7580  0.3158 -0.6580
26582SOL     OW82638   3.722   7.855   9.200 -0.2119 -0.3039 -0.2309
26582SOL    HW182639   3.648   7.874   9.258  0.0825 -1.8566  0.7079
26582SOL    HW282640   3.703   7.903   9.120 -1.2917  0.8358  0.6683
26583SOL     OW82641   7.022   4.365   3.816 -0.5051 -0.0079 -0.1565
26583SOL    HW182642   6.963   4.322   3.754  0.3155  0.2996 -1.1939
26583SOL    HW282643   7.104   4.315   3.809 -0.2321  0.3782  0.2567
26584SOL     OW82644   2.230   3.197  10.036  0.1477 -0.0107  0.4236
26584SOL    HW182645   2.194   3.108  10.038  0.9869 -0.3564  0.5957
26584SOL    HW282646   2.280   3.200   9.954 -1.2494  0.8725 -0.4472
26585SOL     OW82647   7.972   1.442   9.171  0.0372  0.0501  0.0324
26585SOL    HW182648   7.996   1.370   9.230  0.1586  0.6101  0.6843
26585SOL    HW282649   7.878   1.452   9.183  0.0238  0.0114 -0.0416
26586SOL     OW82650   9.720   1.381   0.526  0.4611  0.6811 -0.0823
26586SOL    HW182651   9.635   1.343   0.500  0.4874  0.4023  0.2336
26586SOL    HW282652   9.768   1.307   0.562  0.2817  1.1412  1.1296
26587SOL     OW82653   7.254   8.987   0.422 -0.0246  0.1983 -0.5065
26587SOL    HW182654   7.165   8.961   0.400 -0.0407 -1.2898  1.1071
26587SOL    HW282655   7.256   9.081   0.406 -1.2918 -0.0368 -2.4063
26588SOL     OW82656   1.850   1.915   5.676 -0.0957  0.6847  0.4170
26588SOL    HW182657   1.876   1.837   5.726 -1.1266  0.1612  0.1742
26588SOL    HW282658   1.838   1.883   5.587 -1.4424  0.9143  0.5033
26589SOL     OW82659   5.088   5.182   7.366 -0.1452  0.1532 -0.4972
26589SOL    HW182660   5.027   5.214   7.433 -0.1473 -0.5993 -0.1302
26589SOL    HW282661   5.084   5.087   7.373 -0.9542  0.0175 -2.3069
26590SOL     OW82662   4.206   6.240   3.616 -0.1572  0.2877 -0.3375
26590SOL    HW182663   4.192   6.189   3.536 -2.1235  0.4424 -0.1452
26590SOL    HW282664   4.278   6.196   3.660  0.9159  0.1415 -2.1381
26591SOL     OW82665   2.705   3.717   1.682  0.0261 -0.0570  0.3505
26591SOL    HW182666   2.664   3.778   1.621  0.8183  0.1063 -0.0247
26591SOL    HW282667   2.763   3.664   1.628  0.3036 -0.3000  0.8786
26592SOL     OW82668   3.282   0.252   7.718 -0.2135  0.5447  0.8412
26592SOL    HW182669   3.237   0.321   7.767 -1.3410  0.6691 -0.3100
26592SOL    HW282670   3.221   0.178   7.720  0.3870  0.0471  0.8954
26593SOL     OW82671   4.891   9.321   9.520  0.1279 -0.3122 -0.0577
26593SOL    HW182672   4.969   9.276   9.555  0.8007  0.8296 -0.0426
26593SOL    HW282673   4.846   9.254   9.469  1.1808 -0.9835 -0.1433
26594SOL     OW82674   6.502   8.241   2.289 -0.2086 -0.6758  0.3154
26594SOL    HW182675   6.568   8.283   2.343 -0.2345  2.0158 -1.5565
26594SOL    HW282676   6.544   8.161   2.258  1.4199 -0.0603  0.8204
26595SOL     OW82677   0.376   1.287   5.153  0.4138  0.9563 -0.4491
26595SOL    HW182678   0.361   1.366   5.205  1.5831  0.5843  0.4997
26595SOL    HW282679   0.468   1.266   5.168  0.4666  0.1462 -1.7344
26596SOL     OW82680   7.301   8.540   8.554 -0.7727  0.0173  0.1574
26596SOL    HW182681   7.347   8.538   8.470 -0.2594  0.5305  0.4162
26596SOL    HW282682   7.225   8.483   8.541 -0.5717 -0.1003 -0.5761
26597SOL     OW82683   1.157   1.605   6.875  0.2907 -0.1584  0.1098
26597SOL    HW182684   1.197   1.648   6.951  1.4567 -2.3096  0.8050
26597SOL    HW282685   1.170   1.511   6.891  0.2541 -0.7033 -2.5868
26598SOL     OW82686   0.869   8.605   2.916  0.1413  0.0048 -0.1533
26598SOL    HW182687   0.964   8.607   2.905  0.0817  0.8974 -0.5320
26598SOL    HW282688   0.834   8.602   2.827 -0.1925 -0.3781 -0.0148
26599SOL     OW82689   3.549   2.589   8.807  0.0377  0.1816 -0.2809
26599SOL    HW182690   3.576   2.656   8.870  1.6688 -0.2267 -0.4912
26599SOL    HW282691   3.608   2.515   8.823 -0.7596 -0.6472 -1.0303
26600SOL     OW82692   9.068   5.431   4.189  0.1612 -0.4923  0.2212
26600SOL    HW182693   9.112   5.436   4.273  1.8513 -0.9562 -0.5872
26600SOL    HW282694   9.132   5.388   4.131 -0.7449  0.2768 -1.4178
26601SOL     OW82695   2.116   1.147   0.187 -0.2049 -0.5062  0.1336
26601SOL    HW182696   2.067   1.102   0.118 -1.8809 -0.6742  1.3670
26601SOL    HW282697   2.191   1.090   0.205 -1.1775 -1.7934  0.2388
26602SOL     OW82698   9.037   0.293   8.805  0.6409  0.5804  0.8543
26602SOL    HW182699   9.031   0.384   8.835  0.7691  1.4323 -1.5434
26602SOL    HW282700   9.131   0.278   8.792  0.5171  0.6399 -0.2005
26603SOL     OW82701   0.075   2.114   7.658  0.0804 -0.7288  0.5465
26603SOL    HW182702   0.164   2.080   7.673 -0.0258 -0.3475  2.2119
26603SOL    HW282703   0.088   2.206   7.636  0.0688 -0.5464  1.3021
26604SOL     OW82704   7.272   9.596   1.531  0.1171 -0.5821 -0.2379
26604SOL    HW182705   7.206   9.613   1.598 -0.2359  0.3520 -0.8077
26604SOL    HW282706   7.231   9.626   1.449  1.5030  0.6671 -0.5113
26605SOL     OW82707   6.446   2.659   9.886  0.3753 -0.0870 -0.0729
26605SOL    HW182708   6.452   2.584   9.827 -0.4489  0.4883 -0.9157
26605SOL    HW282709   6.353   2.663   9.910  0.6213 -0.0416  0.9233
26606SOL     OW82710   1.864  10.018   4.610  0.2050  0.3078 -0.1829
26606SOL    HW182711   1.830  10.014   4.520 -0.6504  0.6968  0.1168
26606SOL    HW282712   1.818   9.949   4.656  1.0242 -0.2333 -0.1524
26607SOL     OW82713   3.321   0.590   6.494 -0.0221  1.1960  0.0054
26607SOL    HW182714   3.350   0.500   6.498 -0.5530  0.9965 -0.4265
26607SOL    HW282715   3.393   0.641   6.530  1.6392  0.8843 -2.6406
26608SOL     OW82716   1.773   2.763   7.224 -0.0537  0.2092  0.2885
26608SOL    HW182717   1.725   2.841   7.252  1.6232  1.1405  0.7212
26608SOL    HW282718   1.864   2.781   7.249  0.2427 -2.2911  1.2832
26609SOL     OW82719   4.089  10.436   6.131 -0.0715  0.3985  0.8111
26609SOL    HW182720   4.015  10.497   6.129 -1.0124 -0.6847  1.3490
26609SOL    HW282721   4.113  10.430   6.223 -0.0994 -0.1611  0.7876
26610SOL     OW82722   5.202   9.343   1.573 -1.0563  0.3407  0.2398
26610SOL    HW182723   5.283   9.302   1.605 -1.3659  0.5680  1.3677
26610SOL    HW282724   5.144   9.341   1.649 -2.6385 -1.1172 -0.9258
26611SOL     OW82725   1.745  10.363   9.602  0.0841 -0.5264  0.2840
26611SOL    HW182726   1.663  10.404   9.630  1.9001  0.9875  4.1345
26611SOL    HW282727   1.786  10.428   9.545 -1.1615 -1.1496 -1.3846
26612SOL     OW82728   5.378   6.033   8.827  0.1361  0.0699 -0.6109
26612SOL    HW182729   5.428   5.952   8.828 -0.7438 -0.4824  0.0549
26612SOL    HW282730   5.302   6.014   8.772 -0.3373  0.2793 -0.0312
26613SOL     OW82731   4.505   9.956   3.262 -0.3209 -0.0812 -0.5491
26613SOL    HW182732   4.566   9.888   3.237 -0.2870 -0.4721  0.5514
26613SOL    HW282733   4.560  10.033   3.279 -0.3136  0.0873 -1.3055
26614SOL     OW82734   8.050   1.411   5.816  0.1348 -0.1540 -0.2151
26614SOL    HW182735   7.991   1.477   5.851 -1.2160 -0.0174 -2.5802
26614SOL    HW282736   7.994   1.351   5.767  1.9249  0.2949 -3.0612
26615SOL     OW82737   8.966   6.926   1.828  0.1400 -0.3865 -0.0346
26615SOL    HW182738   8.945   6.938   1.921 -0.0175  0.9815 -0.2206
26615SOL    HW282739   9.058   6.952   1.821  0.0955 -0.2949 -0.2925
26616SOL     OW82740   3.836   5.702   8.842  0.1257  0.6947 -0.4281
26616SOL    HW182741   3.914   5.672   8.795 -1.3865 -0.6790 -2.2686
26616SOL    HW282742   3.849   5.674   8.932  0.9726 -1.1945 -1.0934
26617SOL     OW82743   9.253  10.372   3.231  0.4004  0.6419  0.5464
26617SOL    HW182744   9.196  10.295   3.235  0.8967  0.2965  1.1660
26617SOL    HW282745   9.198  10.441   3.194 -0.0546 -0.0042 -0.0206
26618SOL     OW82746   5.058   4.144   8.348 -0.7746  0.5955 -0.0074
26618SOL    HW182747   5.082   4.232   8.379 -0.0085  1.3011 -2.3651
26618SOL    HW282748   5.141   4.096   8.350 -1.0411  0.1538  0.5357
26619SOL     OW82749   5.924   3.821   8.253  0.5058  0.0220  0.2625
26619SOL    HW182750   5.867   3.774   8.313 -2.9381  0.5530 -2.2842
26619SOL    HW282751   5.918   3.773   8.171  0.5322  2.3071 -1.1751
26620SOL     OW82752   9.681  10.686   3.656  0.3717 -0.2465  0.2135
26620SOL    HW182753   9.696  10.717   3.745 -0.9438 -0.6534  0.6099
26620SOL    HW282754   9.636  10.758   3.612 -1.1600 -0.9015  0.6301
26621SOL     OW82755   5.992   4.565   0.203 -0.0992 -0.5763  0.1317
26621SOL    HW182756   5.929   4.632   0.228 -2.2847 -2.2091 -0.6379
26621SOL    HW282757   6.013   4.520   0.285  1.9335  1.3982  0.7701
26622SOL     OW82758   0.580   5.698   8.158 -0.0249 -0.6196 -0.1695
26622SOL    HW182759   0.546   5.726   8.243 -1.3956 -1.1459 -0.5173
26622SOL    HW282760   0.615   5.611   8.174 -0.3728 -0.7602 -0.1449
26623SOL     OW82761   2.238   8.025  10.206 -0.1507 -0.1285  0.2977
26623SOL    HW182762   2.244   8.084  10.131  0.9560 -1.7433 -0.9346
26623SOL    HW282763   2.148   7.993  10.205 -0.3154  0.3331  0.0386
26624SOL     OW82764   3.308   6.143   8.951  0.8921 -0.0437  0.1978
26624SOL    HW182765   3.396   6.128   8.917  0.1361 -1.6437 -1.2211
26624SOL    HW282766   3.251   6.094   8.891 -0.9379  0.7407  1.2258
26625SOL     OW82767   9.600   6.825   4.927 -0.2427 -0.0755  0.1306
26625SOL    HW182768   9.692   6.842   4.907  0.0611 -0.3077  1.2619
26625SOL    HW282769   9.593   6.730   4.929 -0.5182 -0.0597  0.0258
26626SOL     OW82770   4.690   1.725   4.232  0.9306  0.3544  0.1710
26626SOL    HW182771   4.757   1.691   4.172 -0.5811 -0.9784 -0.8592
26626SOL    HW282772   4.718   1.695   4.318  3.5865  2.9780  0.3908
26627SOL     OW82773   0.731   2.528   1.604 -0.4597  0.4609 -0.6261
26627SOL    HW182774   0.649   2.483   1.625 -0.5105  0.5643 -0.5988
26627SOL    HW282775   0.778   2.532   1.687 -0.4039  0.3540 -0.6533
26628SOL     OW82776   7.132   2.605   8.747 -0.1586  0.4031  0.5763
26628SOL    HW182777   7.101   2.523   8.785 -0.9497  0.2238 -0.4143
26628SOL    HW282778   7.088   2.674   8.798 -1.6848  0.1610 -0.3551
26629SOL     OW82779  10.185  10.439   5.345 -0.8775 -0.1387 -0.1211
26629SOL    HW182780  10.093  10.420   5.364 -0.2664 -2.0448  1.0876
26629SOL    HW282781  10.221  10.357   5.312  0.8375  0.0347  1.1865
26630SOL     OW82782   8.990   5.812   1.631  0.0273  0.2579 -0.1932
26630SOL    HW182783   9.044   5.890   1.618 -0.6620  0.8972  0.6987
26630SOL    HW282784   8.920   5.840   1.689 -0.9711 -0.7014 -0.8786
26631SOL     OW82785   1.626   8.423   3.876  0.1513 -0.3946 -0.4061
26631SOL    HW182786   1.626   8.355   3.944  0.9880  0.0368  0.0331
26631SOL    HW282787   1.672   8.383   3.802 -1.2727 -1.0792 -0.9666
26632SOL     OW82788  10.409  10.600   3.049 -0.0868 -0.0714  0.0192
26632SOL    HW182789  10.331  10.552   3.021  1.8304 -1.3291 -3.8649
26632SOL    HW282790  10.468  10.533   3.084  0.2548  0.4683  0.5005
26633SOL     OW82791  10.104   1.554  10.151 -0.3657  0.1615 -0.0206
26633SOL    HW182792  10.104   1.610  10.074 -0.8151  2.3904  1.4872
26633SOL    HW282793  10.186   1.575  10.196 -1.2225  0.7505  1.3229
26634SOL     OW82794   2.236  10.458   6.798  0.2508 -0.3658  0.3256
26634SOL    HW182795   2.252  10.551   6.814  2.5567 -0.6742  0.1188
26634SOL    HW282796   2.141  10.448   6.806 -0.0169  1.9477  0.5868
26635SOL     OW82797   5.406   5.157   1.625 -0.6801 -0.2099  0.6003
26635SOL    HW182798   5.313   5.149   1.603 -0.6015 -0.5776  0.3944
26635SOL    HW282799   5.448   5.087   1.575 -0.1811  0.4827  0.0275
26636SOL     OW82800   0.298   3.246   6.979  0.4457 -0.4478  0.0636
26636SOL    HW182801   0.305   3.151   6.975 -0.2551 -0.5136  0.3314
26636SOL    HW282802   0.311   3.276   6.889 -1.3181 -0.9336 -0.3857
26637SOL     OW82803   4.870   8.581   7.692  0.1928 -0.0125  0.7207
26637SOL    HW182804   4.908   8.496   7.670  1.3680  0.3917  1.1457
26637SOL    HW282805   4.860   8.625   7.607 -1.4462 -0.9657  0.3773
26638SOL     OW82806  10.140   2.800   6.562  0.1702 -0.2836 -0.6195
26638SOL    HW182807  10.097   2.757   6.488 -1.7668  1.8428 -0.8380
26638SOL    HW282808  10.093   2.768   6.639  0.9427 -1.0583 -0.4574
26639SOL     OW82809   7.363   6.997   8.855 -0.2699  0.4398  0.3594
26639SOL    HW182810   7.432   7.056   8.886 -1.0570  1.0300  1.0159
26639SOL    HW282811   7.320   7.046   8.784 -0.1359  0.1502  0.0785
26640SOL     OW82812   2.563   1.327   7.535 -0.4907 -0.4622 -0.0735
26640SOL    HW182813   2.500   1.378   7.586  1.1130  0.5875  0.9469
26640SOL    HW282814   2.616   1.281   7.600 -0.8742 -2.2349 -0.9352
26641SOL     OW82815   5.956   5.630   1.081  0.5063  0.4185  0.1231
26641SOL    HW182816   5.969   5.601   1.171  0.7233 -0.0174 -0.0481
26641SOL    HW282817   6.044   5.639   1.045  0.4059 -0.1337 -0.2733
26642SOL     OW82818   9.535   5.477   9.438 -0.7308  0.4162  0.5260
26642SOL    HW182819   9.464   5.533   9.407 -0.7072  0.8379  1.2155
26642SOL    HW282820   9.603   5.486   9.372 -1.6880 -0.8098 -0.7060
26643SOL     OW82821   2.246   0.831  10.234 -0.3239  0.5018  0.7392
26643SOL    HW182822   2.320   0.865  10.184 -1.1283 -1.1358 -1.7800
26643SOL    HW282823   2.284   0.803  10.317  1.5407  1.2896  0.2008
26644SOL     OW82824   9.963   4.945   8.999  0.3761 -0.5250 -0.0054
26644SOL    HW182825   9.901   4.975   9.066 -0.3407 -1.9420  0.0147
26644SOL    HW282826   9.958   4.849   9.004  2.3821 -0.6717 -0.2049
26645SOL     OW82827   7.065   4.818   4.376 -0.2267  0.4485  0.1293
26645SOL    HW182828   7.082   4.741   4.431 -0.1906 -1.3907 -2.2847
26645SOL    HW282829   6.991   4.793   4.321 -1.0009  2.6372  0.0905
26646SOL     OW82830   9.190   8.484   5.830 -0.2160 -0.0398 -0.8870
26646SOL    HW182831   9.230   8.538   5.761  1.1505  1.0958  0.6959
26646SOL    HW282832   9.128   8.542   5.873  0.4079 -0.0617  0.0851
26647SOL     OW82833   9.219   1.646  10.147 -0.4183  0.0131  0.0828
26647SOL    HW182834   9.275   1.570  10.161  1.3514  1.0734 -0.8115
26647SOL    HW282835   9.207   1.650  10.052 -2.0130 -0.1461  0.2401
26648SOL     OW82836  10.073   1.031   8.874  0.6958  0.1045  0.2713
26648SOL    HW182837  10.074   1.127   8.869 -0.5286  0.0638 -1.9122
26648SOL    HW282838  10.085   1.002   8.784  1.0115 -1.8247  0.8855
26649SOL     OW82839   9.081   4.700   0.271 -0.1579  0.3104 -0.2974
26649SOL    HW182840   9.011   4.645   0.306  0.2508  1.3799  2.4347
26649SOL    HW282841   9.035   4.769   0.223 -0.8401 -0.1863 -0.3805
26650SOL     OW82842   3.229   5.544   1.448  0.7618 -0.4190 -0.3782
26650SOL    HW182843   3.142   5.519   1.417 -1.1699  3.6717  1.0646
26650SOL    HW282844   3.236   5.505   1.535  0.6754 -1.2482 -0.7311
26651SOL     OW82845   2.298   3.381   8.955 -0.5754 -0.1016  0.1126
26651SOL    HW182846   2.269   3.471   8.942 -2.0494 -0.7492 -1.4073
26651SOL    HW282847   2.393   3.388   8.964 -0.7556  1.6789  1.0449
26652SOL     OW82848   2.037   8.334   1.461 -0.0480 -0.1908  0.1651
26652SOL    HW182849   2.048   8.269   1.530 -1.7455 -1.5490 -0.7677
26652SOL    HW282850   1.980   8.400   1.499 -0.7548 -0.7980  0.1943
26653SOL     OW82851   9.204   0.300   6.320  0.1956 -0.3341 -0.0878
26653SOL    HW182852   9.164   0.340   6.398 -0.3264 -0.8443 -0.0922
26653SOL    HW282853   9.134   0.299   6.255  0.3290 -0.8762 -0.2233
26654SOL     OW82854   2.729   7.117   1.986  0.1234 -0.0146  0.2562
26654SOL    HW182855   2.740   7.197   2.036 -2.4617  1.4980 -1.3324
26654SOL    HW282856   2.750   7.141   1.896 -0.3477 -1.1992 -0.1985
26655SOL     OW82857   7.474  10.119   1.516  0.7550 -0.5227  0.1072
26655SOL    HW182858   7.534  10.188   1.485  1.1749 -1.7904 -2.0896
26655SOL    HW282859   7.451  10.147   1.605  0.2965  2.8477 -0.9079
26656SOL     OW82860   9.286   4.522   6.135 -0.0772 -0.0292 -0.0543
26656SOL    HW182861   9.233   4.578   6.193 -0.3279  0.8416 -1.1009
26656SOL    HW282862   9.273   4.559   6.048 -1.1094 -2.3488 -0.9643
26657SOL     OW82863   3.664   8.126  10.328 -0.1947 -0.1499  0.1515
26657SOL    HW182864   3.667   8.085  10.414 -0.7400 -1.2718 -0.3489
26657SOL    HW282865   3.581   8.174  10.327 -0.2929 -0.3217  0.1617
26658SOL     OW82866   7.925   3.673  10.076  0.0274 -0.0644  0.1189
26658SOL    HW182867   8.001   3.616  10.082 -1.4795 -2.0481  1.4851
26658SOL    HW282868   7.850   3.614  10.074 -1.5889  1.8453  0.5758
26659SOL     OW82869   2.223   9.133   7.959  0.1416 -0.0967 -0.1236
26659SOL    HW182870   2.152   9.178   8.004  1.5298  1.4297  0.6288
26659SOL    HW282871   2.179   9.072   7.899 -1.7749  0.8963  0.2095
26660SOL     OW82872   3.447   6.343   0.548 -0.0475 -0.4080  0.8899
26660SOL    HW182873   3.430   6.262   0.500 -0.0490  0.4252 -0.5915
26660SOL    HW282874   3.381   6.405   0.515  0.3582  0.3788  1.5076
26661SOL     OW82875   1.479   5.215  10.188 -0.4332  0.4672 -0.0485
26661SOL    HW182876   1.555   5.253  10.143 -1.7923  1.5899 -1.5424
26661SOL    HW282877   1.403   5.255  10.144 -2.0334 -3.3947 -1.2453
26662SOL     OW82878   1.036   2.359   0.401  0.2778 -0.0374  0.0394
26662SOL    HW182879   1.028   2.385   0.309 -1.8209 -0.5676  0.0055
26662SOL    HW282880   1.068   2.437   0.446  2.5964 -0.1482 -1.2868
26663SOL     OW82881   6.234  10.793   5.223 -0.2364  0.2908 -0.4785
26663SOL    HW182882   6.190  10.708   5.213  0.4119 -0.0434 -0.5299
26663SOL    HW282883   6.280  10.806   5.141  1.1827 -0.2000  0.2002
26664SOL     OW82884   0.513   7.686   4.517 -0.3410  0.1929  0.1302
26664SOL    HW182885   0.458   7.726   4.449 -0.0760 -1.8038 -1.3473
26664SOL    HW282886   0.538   7.759   4.574 -1.5683  1.7358 -1.2158
26665SOL     OW82887   4.897   3.438   2.566 -0.2581  0.1239 -0.0521
26665SOL    HW182888   4.822   3.430   2.506 -1.0975  0.0652  0.9607
26665SOL    HW282889   4.864   3.402   2.649  1.3314 -1.1379  0.0688
26666SOL     OW82890   3.037   3.211  10.333  0.0662 -0.3530  0.9362
26666SOL    HW182891   2.964   3.272  10.340 -0.1046 -0.4974  0.4925
26666SOL    HW282892   2.996   3.127  10.312  0.3697 -0.3962  0.5034
26667SOL     OW82893   9.042   1.315   8.472 -0.3915 -0.0403 -0.0274
26667SOL    HW182894   9.073   1.402   8.446 -2.5051  0.6231 -0.5239
26667SOL    HW282895   9.015   1.274   8.391 -1.2756 -0.3663  0.4171
26668SOL     OW82896   1.042   7.963   3.034 -0.3321 -0.6510  0.5308
26668SOL    HW182897   1.031   7.872   3.007  0.0684 -0.4385 -0.3921
26668SOL    HW282898   0.954   7.995   3.048 -0.6259 -0.5539 -1.3124
26669SOL     OW82899   9.172   3.675   3.462  0.2021 -0.5422  0.3923
26669SOL    HW182900   9.215   3.752   3.423 -1.9798  0.5261 -0.0679
26669SOL    HW282901   9.143   3.624   3.386  0.7184 -1.2969  0.6978
26670SOL     OW82902   2.520   7.656   2.646 -0.4762 -0.4041  0.0570
26670SOL    HW182903   2.577   7.715   2.696  0.7364 -1.6749  0.2370
26670SOL    HW282904   2.435   7.699   2.646 -0.2795  0.1029  2.4089
26671SOL     OW82905   6.259   6.656   6.019 -0.1154 -0.1651  0.6801
26671SOL    HW182906   6.256   6.592   5.948  0.0401 -0.3815  0.8688
26671SOL    HW282907   6.176   6.704   6.011  0.4040  0.6123 -0.3832
26672SOL     OW82908   0.018   9.227   5.372  0.4546 -0.1541 -0.1447
26672SOL    HW182909  -0.060   9.217   5.426 -0.7589  0.6203 -1.6912
26672SOL    HW282910  -0.014   9.261   5.288  2.2459 -1.3924 -1.4165
26673SOL     OW82911   8.665   7.506   3.151 -0.3435 -0.3261 -0.0421
26673SOL    HW182912   8.737   7.453   3.184  2.2408  2.5944 -0.5070
26673SOL    HW282913   8.628   7.454   3.079  0.4504 -2.4391  0.9986
26674SOL     OW82914   5.000   8.944   4.370 -0.2012 -0.0625 -0.0466
26674SOL    HW182915   4.960   8.919   4.452 -1.7477  0.1161 -0.7121
26674SOL    HW282916   5.064   8.875   4.352 -0.7641 -0.7850  0.6618
26675SOL     OW82917   4.263   5.564   4.984 -0.1683  0.1450  0.0412
26675SOL    HW182918   4.345   5.553   4.937 -0.3892  0.7678 -0.5102
26675SOL    HW282919   4.276   5.518   5.067  0.9927  0.8513  0.2729
26676SOL     OW82920  10.731   9.504   2.607 -0.6043 -0.1243 -0.4826
26676SOL    HW182921  10.775   9.473   2.686 -2.2434 -0.1962  0.4476
26676SOL    HW282922  10.798   9.553   2.560  0.3709  0.0853  1.0481
26677SOL     OW82923   9.958   5.964   8.963 -0.3330  0.0707  0.1757
26677SOL    HW182924   9.964   5.869   8.965  2.2682  0.1786  0.3283
26677SOL    HW282925   9.909   5.984   8.883 -2.3671 -1.3653  0.9741
26678SOL     OW82926  10.497   6.831   6.016  0.2282  0.4925  0.1825
26678SOL    HW182927  10.567   6.771   5.991 -2.4830 -2.6247 -0.6886
26678SOL    HW282928  10.462   6.795   6.098 -0.7345  1.6086  0.2902
26679SOL     OW82929   3.651  10.371   8.556  0.2666  0.0986 -0.4617
26679SOL    HW182930   3.614  10.387   8.643  1.3884  4.0953 -0.5247
26679SOL    HW282931   3.739  10.338   8.574  0.9947  2.1672  0.0782
26680SOL     OW82932   1.472   6.672   2.596 -0.1004 -0.4785  0.0557
26680SOL    HW182933   1.464   6.767   2.586 -1.3761 -0.4949  0.7825
26680SOL    HW282934   1.530   6.662   2.672  0.9296 -0.3111 -0.6823
26681SOL     OW82935   9.308   2.810   8.645 -0.1883  0.6695  0.2197
26681SOL    HW182936   9.352   2.851   8.719  2.1747 -0.5510 -0.4261
26681SOL    HW282937   9.328   2.866   8.570 -1.8173  1.4138  0.3044
26682SOL     OW82938   9.430   7.486   9.313  0.2912 -0.0999 -0.0879
26682SOL    HW182939   9.463   7.396   9.308  1.7850  0.4676 -1.3034
26682SOL    HW282940   9.343   7.481   9.273  0.7049 -0.8672 -0.9506
26683SOL     OW82941  10.408   0.527   4.478  0.2096  0.6976 -0.4417
26683SOL    HW182942  10.481   0.581   4.507 -0.3629  0.4216  1.6628
26683SOL    HW282943  10.449   0.455   4.431  1.1742  1.3173 -0.5906
26684SOL     OW82944   9.471   1.765   1.809  0.2477  0.1148 -0.3344
26684SOL    HW182945   9.521   1.837   1.848  0.2882  0.3574 -0.8363
26684SOL    HW282946   9.412   1.737   1.879 -0.0493  0.9051 -0.2619
26685SOL     OW82947   4.566   1.200   6.429 -0.3621 -0.4575 -0.0855
26685SOL    HW182948   4.640   1.141   6.448 -1.1641 -1.6192 -0.4394
26685SOL    HW282949   4.556   1.252   6.509 -0.4215 -1.6893  0.7400
26686SOL     OW82950   5.977   3.858  10.238  0.0446  0.1696 -0.0015
26686SOL    HW182951   5.956   3.925  10.303  1.5214 -0.1291  0.8338
26686SOL    HW282952   5.930   3.780  10.269  0.4773  0.1176  0.5552
26687SOL     OW82953  10.480   6.350   0.742  0.0666  0.7533 -0.5164
26687SOL    HW182954  10.430   6.430   0.759  0.2269  0.5087  1.2612
26687SOL    HW282955  10.554   6.354   0.803 -0.7267 -1.4230  0.7068
26688SOL     OW82956   3.656   6.604   8.788 -0.7762  0.0939  0.4575
26688SOL    HW182957   3.666   6.699   8.788 -0.9814  0.1150  0.3516
26688SOL    HW282958   3.664   6.579   8.696  0.9784 -0.1717  0.6475
26689SOL     OW82959   0.045   0.757   5.428  0.0872 -0.2940 -0.4563
26689SOL    HW182960  -0.009   0.832   5.404 -1.1158 -0.3047  1.9176
26689SOL    HW282961   0.133   0.793   5.437 -0.5698  1.0322  1.2261
26690SOL     OW82962   3.025   7.141   9.879  0.3041 -0.5655  0.1224
26690SOL    HW182963   2.962   7.079   9.842  0.3179  0.6882 -2.1831
26690SOL    HW282964   3.105   7.090   9.889 -0.2351 -1.4124  0.2148
26691SOL     OW82965   2.289   2.306   9.792  0.2958 -0.3669 -0.5574
26691SOL    HW182966   2.316   2.385   9.838  1.2690  0.1266 -1.9113
26691SOL    HW282967   2.199   2.291   9.821  0.3034  0.8814  0.1861
26692SOL     OW82968   1.929   4.316   1.398 -0.7713 -0.0313  0.0394
26692SOL    HW182969   1.889   4.355   1.476 -1.5362  2.0083 -1.2893
26692SOL    HW282970   1.881   4.234   1.385  0.3003 -1.1457  2.4392
26693SOL     OW82971   3.348  10.735  10.758 -0.5555 -0.2903  0.2854
26693SOL    HW182972   3.349  10.784  10.840 -0.5465  1.0532 -0.4893
26693SOL    HW282973   3.363  10.801  10.690  2.0130 -1.6885 -0.6609
26694SOL     OW82974   8.232   9.188   7.283  0.0989  0.5869 -0.5743
26694SOL    HW182975   8.310   9.237   7.257  0.0158  0.4627 -1.0831
26694SOL    HW282976   8.159   9.237   7.243 -0.3554  2.1506  1.9488
26695SOL     OW82977   1.233   0.964   5.660  0.0783  0.0247  0.4287
26695SOL    HW182978   1.313   1.017   5.665  0.7837 -0.8318 -1.1166
26695SOL    HW282979   1.222   0.929   5.748  2.0960 -0.7980  0.4227
26696SOL     OW82980   2.310   1.299   5.454 -0.6156 -0.1804  0.3236
26696SOL    HW182981   2.351   1.380   5.485 -2.1969  0.0248  2.0612
26696SOL    HW282982   2.335   1.294   5.362  0.5745  1.6002  0.4825
26697SOL     OW82983   9.343   6.801   7.462  0.5708  0.6378  0.1064
26697SOL    HW182984   9.398   6.733   7.423 -2.7805 -3.2240  1.3650
26697SOL    HW282985   9.379   6.813   7.550  0.3288 -0.7889  0.4285
26698SOL     OW82986   0.944   3.731   2.447 -0.0788  0.1102  0.3552
26698SOL    HW182987   0.936   3.757   2.356 -2.0763 -2.8927 -0.4815
26698SOL    HW282988   1.008   3.660   2.447 -0.0674  0.0982  1.3257
26699SOL     OW82989   2.317   3.990   8.999  0.2498  0.2320 -0.6993
26699SOL    HW182990   2.257   4.060   9.026 -1.0605 -0.3276 -2.0567
26699SOL    HW282991   2.305   3.921   9.064 -0.7399  0.0458 -1.0686
26700SOL     OW82992   3.325   2.415   9.541  0.5613  0.7600  0.4332
26700SOL    HW182993   3.352   2.356   9.612  1.0121 -1.0150 -1.1193
26700SOL    HW282994   3.232   2.432   9.558  0.3717 -0.5580  0.8669
26701SOL     OW82995   9.137   0.181   7.301  0.4121 -0.0530 -0.1796
26701SOL    HW182996   9.190   0.133   7.365  1.1747  1.4751  0.3708
26701SOL    HW282997   9.165   0.148   7.216  0.7280 -0.7608  0.1924
26702SOL     OW82998   5.634   9.820   1.907  0.6909 -0.2146  0.6060
26702SOL    HW182999   5.657   9.754   1.841  1.8689  0.0622  0.7093
26702SOL    HW283000   5.542   9.840   1.890  0.2639 -1.9545  0.6467
26703SOL     OW83001   3.873   3.461   9.596 -0.1830 -0.4747 -0.3645
26703SOL    HW183002   3.953   3.471   9.545  1.4750 -2.9652  1.5256
26703SOL    HW283003   3.807   3.432   9.533  0.9837 -0.5593 -1.5779
26704SOL     OW83004   4.201   3.881  10.319 -0.2953 -0.2231 -0.2078
26704SOL    HW183005   4.193   3.821  10.245 -2.6412  0.4919 -0.6213
26704SOL    HW283006   4.290   3.916  10.312 -0.1221 -0.9085 -2.0886
26705SOL     OW83007   7.131   8.146   5.413  0.3182 -0.1947 -0.2628
26705SOL    HW183008   7.209   8.201   5.422 -1.1663  1.8783  0.6953
26705SOL    HW283009   7.145   8.075   5.476  0.7609  1.0090  1.0564
26706SOL     OW83010   6.671   9.674  10.384  0.7011 -0.3695  0.3352
26706SOL    HW183011   6.703   9.664  10.474  0.8801 -0.1495  0.2977
26706SOL    HW283012   6.603   9.741  10.391  2.3610  1.4341 -0.0598
26707SOL     OW83013   9.472   3.237   4.002  0.5275  0.4299  0.4824
26707SOL    HW183014   9.494   3.148   3.976 -1.1047 -0.4892  2.0125
26707SOL    HW283015   9.555   3.274   4.033  0.9543 -1.0998  1.2668
26708SOL     OW83016   0.465   4.426   5.540  0.1901 -0.0727 -0.9195
26708SOL    HW183017   0.442   4.504   5.490 -0.0664 -1.0674 -2.4450
26708SOL    HW283018   0.507   4.459   5.619  2.3545  1.5942 -2.6124
26709SOL     OW83019   4.189   1.663   2.939  0.1396 -0.2306  0.6164
26709SOL    HW183020   4.168   1.753   2.961  1.3459  0.4587 -0.8529
26709SOL    HW283021   4.111   1.631   2.893  0.0928  0.3901  0.2530
26710SOL     OW83022   1.205   8.178   6.383 -0.6612 -0.4035 -0.5553
26710SOL    HW183023   1.244   8.190   6.469 -1.3927 -0.9355 -0.1404
26710SOL    HW283024   1.205   8.266   6.345  1.1410 -0.4205 -0.6779
26711SOL     OW83025   1.711  10.211   8.597 -0.2201  0.0372 -0.9617
26711SOL    HW183026   1.629  10.171   8.567 -0.5464  0.0857 -0.1604
26711SOL    HW283027   1.685  10.294   8.637 -0.0219 -0.7182  0.8606
26712SOL     OW83028   0.794   0.584   7.063 -0.2087 -0.3542  0.0417
26712SOL    HW183029   0.711   0.568   7.019 -0.5415 -0.5390  0.7091
26712SOL    HW283030   0.778   0.660   7.119  0.5961  0.7117 -1.1203
26713SOL     OW83031   2.548   5.619   4.795 -0.1437  0.1709  0.0210
26713SOL    HW183032   2.582   5.656   4.877  0.2235  1.1445 -0.5515
26713SOL    HW283033   2.564   5.688   4.730  0.4038 -0.9339 -1.0469
26714SOL     OW83034   9.838   4.652   0.606 -0.5520 -0.0702  0.2374
26714SOL    HW183035   9.795   4.700   0.535 -0.5184  0.2186  0.4085
26714SOL    HW283036   9.767   4.628   0.665 -0.4834  0.4066  0.5199
26715SOL     OW83037   1.383  10.049   1.896 -0.1988  0.3832 -0.3840
26715SOL    HW183038   1.322   9.977   1.878  1.1169 -0.3716 -2.1127
26715SOL    HW283039   1.333  10.110   1.950 -2.6503  0.0637 -2.1403
26716SOL     OW83040   5.974   8.974   3.216  0.0699  0.4364 -0.0736
26716SOL    HW183041   5.990   8.980   3.122 -0.0261  1.4988 -0.0386
26716SOL    HW283042   5.987   8.881   3.237  1.5210  0.4249 -0.8684
26717SOL     OW83043   3.299   5.795   9.056  0.2445 -0.2996 -0.2074
26717SOL    HW183044   3.232   5.802   8.988  1.3481  1.1908 -1.2092
26717SOL    HW283045   3.296   5.879   9.102  3.2500  1.0605 -2.1476
26718SOL     OW83046   1.447   7.318   1.002  0.0619 -0.1085 -0.5221
26718SOL    HW183047   1.446   7.364   1.086 -0.2330 -0.6134 -0.2489
26718SOL    HW283048   1.370   7.262   1.004  0.3747 -0.5558 -0.8908
26719SOL     OW83049   6.818   3.878   2.248 -0.1909 -0.3514  0.0654
26719SOL    HW183050   6.801   3.972   2.237  0.4451 -0.2440 -0.0356
26719SOL    HW283051   6.803   3.862   2.341 -1.1274 -0.3287 -0.0706
26720SOL     OW83052   4.037   6.028   8.871 -0.2476 -0.4633 -0.5453
26720SOL    HW183053   4.061   5.955   8.929  0.9928 -0.2974 -0.8350
26720SOL    HW283054   4.111   6.088   8.877 -0.5195 -0.0175 -1.6070
26721SOL     OW83055   7.739   9.742   2.628  0.0753  0.2219  0.3791
26721SOL    HW183056   7.707   9.736   2.718  1.2437 -0.8236  0.7492
26721SOL    HW283057   7.779   9.656   2.611 -0.7809  0.1284 -1.4020
26722SOL     OW83058  10.395   1.665   7.427 -0.0112 -0.3493  0.0434
26722SOL    HW183059  10.460   1.601   7.454 -0.4656 -2.0595 -2.5269
26722SOL    HW283060  10.313   1.616   7.419 -0.8532  0.9979 -0.0890
26723SOL     OW83061   6.993   9.131   4.683 -0.0325  0.1040 -0.2488
26723SOL    HW183062   7.017   9.137   4.590  1.7699  1.3432  0.2330
26723SOL    HW283063   7.077   9.134   4.729 -0.9535  0.9152  1.4613
26724SOL     OW83064   0.074   3.363   7.322  0.1861 -0.1656  0.7523
26724SOL    HW183065   0.041   3.350   7.233  2.1283 -0.8405  0.0767
26724SOL    HW283066   0.011   3.317   7.378  0.7139 -2.7068 -0.5929
26725SOL     OW83067   3.543   3.081   4.017 -0.0343 -0.0131  0.1615
26725SOL    HW183068   3.524   2.991   4.042  2.3787 -0.5352  0.3559
26725SOL    HW283069   3.612   3.109   4.077  0.2955  1.4548 -0.8395
26726SOL     OW83070   0.614   9.121   3.611  0.6907  0.4972  0.2295
26726SOL    HW183071   0.548   9.185   3.637  0.8431  0.4411  0.7600
26726SOL    HW283072   0.667   9.166   3.546  0.5586  0.7781  0.3160
26727SOL     OW83073   5.895   8.097  10.561  0.1659  0.4537 -0.1630
26727SOL    HW183074   5.801   8.106  10.542  0.2007  0.5829 -0.2735
26727SOL    HW283075   5.898   8.072  10.653 -0.0615 -1.4235 -0.6340
26728SOL     OW83076   2.694   7.286   9.653 -0.1807 -0.0993  0.0068
26728SOL    HW183077   2.729   7.206   9.693  0.5564  0.2678  0.1118
26728SOL    HW283078   2.599   7.277   9.660 -0.1231 -1.1653 -0.3747
26729SOL     OW83079   9.539   3.663   4.934  0.1163  0.1474  0.0230
26729SOL    HW183080   9.529   3.757   4.918  0.6230  0.4016  1.0673
26729SOL    HW283081   9.496   3.621   4.860 -0.3199  1.2043 -0.3447
26730SOL     OW83082  10.549   0.571   7.904  0.8046  0.7009 -0.0154
26730SOL    HW183083  10.496   0.519   7.844  1.3800  0.8593 -0.6712
26730SOL    HW283084  10.499   0.651   7.918  0.8784  0.8666 -0.6608
26731SOL     OW83085   5.941   7.466  10.663  0.1783  0.1046 -0.6120
26731SOL    HW183086   5.878   7.485  10.593 -0.6952 -0.1504  0.0883
26731SOL    HW283087   5.887   7.441  10.737  0.9730  2.0216  0.7010
26732SOL     OW83088   2.679   3.707   2.049 -0.3735 -0.1914  0.0843
26732SOL    HW183089   2.709   3.658   2.125 -0.7414  1.0080  1.0387
26732SOL    HW283090   2.641   3.642   1.991  1.9754 -1.4646 -0.1533
26733SOL     OW83091   3.826   8.009   6.848 -0.3846  0.1697 -0.2468
26733SOL    HW183092   3.790   8.096   6.836 -1.2676 -0.3023 -1.1969
26733SOL    HW283093   3.757   7.950   6.817  0.6119 -0.8141 -0.6561
26734SOL     OW83094   2.159   9.594   2.775 -0.2079 -0.2289  0.3657
26734SOL    HW183095   2.118   9.511   2.799 -0.0239 -0.6713 -0.7575
26734SOL    HW283096   2.232   9.604   2.836 -1.5669  0.2437  1.9618
26735SOL     OW83097   7.578   3.928   2.370 -0.3533  0.1360 -0.5586
26735SOL    HW183098   7.565   3.962   2.459  0.3764  0.4574 -0.5679
26735SOL    HW283099   7.544   3.839   2.373  2.1285 -0.8819  0.8236
26736SOL     OW83100   7.754   8.571   8.954 -0.4370 -0.4546 -0.0048
26736SOL    HW183101   7.701   8.500   8.916  2.4461 -1.7096 -2.0338
26736SOL    HW283102   7.767   8.545   9.045 -3.0683 -0.1452  0.5583
26737SOL     OW83103   7.801   7.236   9.219 -0.0852 -0.1800  0.6468
26737SOL    HW183104   7.759   7.150   9.222 -0.3441 -0.0435  0.9640
26737SOL    HW283105   7.843   7.239   9.133  0.9134 -1.0876  1.0837
26738SOL     OW83106   3.128   1.774   6.844  0.3734 -0.2526  0.0830
26738SOL    HW183107   3.100   1.794   6.755 -0.5473 -2.3984 -0.1918
26738SOL    HW283108   3.170   1.854   6.876  0.8418  0.5204 -2.3099
26739SOL     OW83109   3.330   0.344   2.872  0.1218  0.2121  0.3152
26739SOL    HW183110   3.421   0.364   2.895  0.3125  2.1003 -1.6764
26739SOL    HW283111   3.279   0.372   2.948  1.1446 -0.1628  1.1600
26740SOL     OW83112   5.547   4.024   5.682 -0.3985 -0.6051 -0.2448
26740SOL    HW183113   5.546   3.963   5.756  0.7106  0.1004  0.3760
26740SOL    HW283114   5.560   4.110   5.722  0.5748 -0.2545 -1.2755
26741SOL     OW83115   5.244  10.239   5.247  0.1964 -0.3596  0.4307
26741SOL    HW183116   5.327  10.286   5.259  0.0487  0.1151 -0.3197
26741SOL    HW283117   5.264  10.148   5.269  0.4129  0.0932  2.2049
26742SOL     OW83118   9.487   9.125  10.289 -0.1486  0.3169 -0.2762
26742SOL    HW183119   9.514   9.213  10.314  0.9637 -0.1136  0.1033
26742SOL    HW283120   9.546   9.102  10.217 -0.2194 -0.2405 -0.1598
26743SOL     OW83121   3.868   0.781   6.793 -1.0386  0.2267 -0.5877
26743SOL    HW183122   3.915   0.747   6.716  1.1320 -0.9502  1.1486
26743SOL    HW283123   3.811   0.710   6.819  1.9244 -1.5376  1.7525
26744SOL     OW83124   3.746   2.794   7.832  0.1793  0.3525 -0.0152
26744SOL    HW183125   3.757   2.874   7.884  0.4046  0.6642 -0.5299
26744SOL    HW283126   3.659   2.803   7.794 -0.4425 -0.4008  1.1746
26745SOL     OW83127   2.758   2.898   4.076  1.0745 -0.6255  0.0540
26745SOL    HW183128   2.715   2.958   4.136  1.4948 -1.4022  1.1605
26745SOL    HW283129   2.834   2.947   4.044  0.5046  0.0163 -0.3534
26746SOL     OW83130   6.690   3.163   5.016  0.1831  0.3920  0.2080
26746SOL    HW183131   6.777   3.178   4.980  0.1707 -0.3627 -0.1533
26746SOL    HW283132   6.686   3.069   5.032 -0.9484  0.2272 -0.8593
26747SOL     OW83133   1.318   0.344   6.368  0.3064 -0.1730 -0.2631
26747SOL    HW183134   1.324   0.328   6.274  1.0418  0.0616 -0.2632
26747SOL    HW283135   1.277   0.431   6.375 -2.3527 -1.3367 -0.2896
26748SOL     OW83136   2.267   5.617   9.804 -0.2773  0.3132  0.5710
26748SOL    HW183137   2.356   5.645   9.824 -0.6666  3.0820 -1.1370
26748SOL    HW283138   2.215   5.651   9.877 -0.0737 -0.7216  1.2228
26749SOL     OW83139   7.976  10.011   6.675  0.1282 -0.0638 -0.3308
26749SOL    HW183140   8.067   9.986   6.659  0.1790 -0.7160  0.8668
26749SOL    HW283141   7.937  10.016   6.588  0.9836 -1.0595 -0.7898
26750SOL     OW83142   5.437   2.343   0.217 -0.3206  0.3122  0.3051
26750SOL    HW183143   5.473   2.427   0.188 -0.3242  0.0309 -0.5610
26750SOL    HW283144   5.388   2.311   0.141 -0.8748 -0.1638  0.8516
26751SOL     OW83145   0.032   3.440   7.783  0.7457  0.0609  0.2910
26751SOL    HW183146   0.117   3.482   7.778  0.4203  0.8512  1.1291
26751SOL    HW283147   0.003   3.454   7.873 -0.4077  0.0824 -0.0644
26752SOL     OW83148   8.697   6.633   2.874  0.0191  0.6698  0.1458
26752SOL    HW183149   8.645   6.697   2.825 -0.8682  0.9100  1.3722
26752SOL    HW283150   8.662   6.548   2.846 -0.9973  0.8253  0.8880
26753SOL     OW83151   0.083   0.321   7.406  0.4429 -0.4421 -0.1431
26753SOL    HW183152   0.075   0.316   7.311  0.9859 -0.7910 -0.1740
26753SOL    HW283153   0.173   0.292   7.424  0.2653 -0.6087  0.4943
26754SOL     OW83154   1.550   8.438   5.614 -0.3323 -0.4801  1.3110
26754SOL    HW183155   1.481   8.504   5.624  0.2997  0.4162  0.0265
26754SOL    HW283156   1.502   8.355   5.607 -1.3660  0.1958 -0.3058
26755SOL     OW83157   4.125  10.416   3.646  0.1447  0.4002 -0.1218
26755SOL    HW183158   4.191  10.353   3.677  1.1954  1.5212 -0.0253
26755SOL    HW283159   4.131  10.489   3.707  0.1834  1.3690 -1.2504
26756SOL     OW83160   9.916   3.068   8.646  0.6081 -0.2102  0.1540
26756SOL    HW183161   9.965   3.041   8.723  0.1096 -1.8327 -0.0478
26756SOL    HW283162   9.967   3.139   8.608  0.5045  1.1318  2.3300
26757SOL     OW83163   6.249   9.618   1.304 -0.2691  0.9411  0.3485
26757SOL    HW183164   6.239   9.678   1.230 -1.8400 -0.5882 -0.7255
26757SOL    HW283165   6.335   9.578   1.291 -0.8492  0.1270 -1.0852
26758SOL     OW83166   1.002   7.679   2.994 -0.1415  0.3768  0.6512
26758SOL    HW183167   0.995   7.609   3.060  2.1024  0.5322  1.1294
26758SOL    HW283168   0.913   7.691   2.963 -0.8202 -1.7010  1.6049
26759SOL     OW83169   8.031   6.879   8.201 -0.7480 -0.0844  0.1763
26759SOL    HW183170   8.111   6.897   8.152 -0.6103  1.6315  0.9688
26759SOL    HW283171   8.040   6.787   8.227  1.0813  0.1105  0.4027
26760SOL     OW83172  10.171   0.566   3.896  0.4980  0.6600  0.5412
26760SOL    HW183173  10.111   0.633   3.862 -0.5588 -0.8642 -0.7151
26760SOL    HW283174  10.133   0.541   3.980 -0.6284 -0.2327 -0.2073
26761SOL     OW83175   1.711   9.965   1.729 -0.1900 -0.5809 -0.5741
26761SOL    HW183176   1.648   9.894   1.736  0.4561 -1.0567  0.7061
26761SOL    HW283177   1.688  10.025   1.799 -0.0352 -0.0793 -0.9421
26762SOL     OW83178   6.441   4.905   5.587 -0.4757 -0.5168  0.2562
26762SOL    HW183179   6.432   4.990   5.629  1.0386  0.0765 -0.5522
26762SOL    HW283180   6.491   4.922   5.507 -2.5416 -1.7306 -1.4211
26763SOL     OW83181   1.491   0.683   8.521 -0.1869 -0.1140  0.6460
26763SOL    HW183182   1.579   0.719   8.532 -1.0566  2.6060 -0.2637
26763SOL    HW283183   1.436   0.737   8.578 -1.8459  1.3294 -2.0852
26764SOL     OW83184   8.620   7.362  10.508 -0.8690  0.0559 -0.2666
26764SOL    HW183185   8.593   7.453  10.493 -3.5403 -0.6151  0.0550
26764SOL    HW283186   8.580   7.312  10.436 -0.6524 -1.0596  0.3635
26765SOL     OW83187   6.563   9.979   9.277  0.2045  0.2278  0.1281
26765SOL    HW183188   6.517  10.060   9.255 -0.7410 -0.4991 -0.6423
26765SOL    HW283189   6.615   9.959   9.199  1.0227  0.4742  0.5957
26766SOL     OW83190   2.405   7.012   9.197 -0.3706  0.3878  0.8200
26766SOL    HW183191   2.325   7.001   9.145 -0.1954  1.3642  0.3200
26766SOL    HW283192   2.413   6.930   9.246 -1.7431  0.3137  0.9670
26767SOL     OW83193   3.128   6.066   5.501 -0.3886  0.4664 -0.2003
26767SOL    HW183194   3.218   6.074   5.531  0.1883  0.2448 -1.7827
26767SOL    HW283195   3.106   5.974   5.512 -0.3228  0.4633 -0.0977
26768SOL     OW83196   7.667   0.196   5.123  0.6944 -0.2035  0.2441
26768SOL    HW183197   7.630   0.161   5.204  0.1292  1.0325  0.5373
26768SOL    HW283198   7.726   0.266   5.151  1.2167 -0.3925 -0.3648
26769SOL     OW83199   5.015   1.646   1.012 -0.6213  0.3171 -0.0289
26769SOL    HW183200   5.050   1.702   0.942  2.6896 -2.5111 -0.9291
26769SOL    HW283201   4.927   1.624   0.983 -1.0244  2.8573 -0.9431
26770SOL     OW83202   2.184   3.086   5.801  0.3749  0.5607 -0.0901
26770SOL    HW183203   2.186   3.145   5.876  0.0178  1.2794 -0.6344
26770SOL    HW283204   2.183   3.144   5.725  1.8236 -0.1624 -0.6918
26771SOL     OW83205   6.137   3.934   4.567  0.0418  0.4570  0.2723
26771SOL    HW183206   6.152   3.906   4.477 -1.6962 -0.8607  0.3140
26771SOL    HW283207   6.117   4.027   4.561  0.5063  0.5024 -0.6332
26772SOL     OW83208   7.335  10.001   5.542  0.2716  0.0599  0.4635
26772SOL    HW183209   7.281   9.922   5.550 -0.4927  0.6698  1.6263
26772SOL    HW283210   7.420   9.975   5.579  0.2039 -0.3787  0.3248
26773SOL     OW83211   8.948   6.166   0.487 -0.0194 -0.4666  0.3266
26773SOL    HW183212   8.857   6.141   0.500 -0.0488  0.4829  2.2871
26773SOL    HW283213   8.989   6.153   0.572  1.3875  0.2645 -0.2069
26774SOL     OW83214   9.604   9.205   5.404  0.0825  0.2180 -0.4610
26774SOL    HW183215   9.696   9.230   5.405 -0.0725  0.9454  2.0342
26774SOL    HW283216   9.557   9.286   5.383 -0.0881  0.5053  0.9495
26775SOL     OW83217   7.497   2.167   5.847  0.2212  0.0142 -0.0737
26775SOL    HW183218   7.410   2.128   5.858 -0.9260  1.6124 -2.5961
26775SOL    HW283219   7.506   2.227   5.921 -1.7045  1.2156 -0.7238
26776SOL     OW83220   0.930   8.821   0.229 -0.4377  0.0938 -0.1503
26776SOL    HW183221   0.905   8.807   0.138  0.8769  1.9624 -0.8694
26776SOL    HW283222   0.965   8.737   0.258  0.0729 -0.2588 -1.7135
26777SOL     OW83223   7.407   3.459   3.096 -0.7028 -0.1935  0.0944
26777SOL    HW183224   7.387   3.459   3.190 -0.1218  0.0606  0.2243
26777SOL    HW283225   7.488   3.408   3.089 -0.6357 -0.0444 -0.2442
26778SOL     OW83226  10.459   6.198   3.571  0.1608 -0.3860  0.4786
26778SOL    HW183227  10.531   6.141   3.596 -0.6909 -1.9604 -0.4610
26778SOL    HW283228  10.501   6.281   3.545  1.6966 -1.4690 -0.6498
26779SOL     OW83229   9.422   2.423   3.810 -0.1546 -0.0233 -0.8881
26779SOL    HW183230   9.360   2.482   3.768 -0.9912  0.5736  1.0532
26779SOL    HW283231   9.396   2.423   3.902  0.2117 -2.9262 -0.6707
26780SOL     OW83232   6.290   4.507   0.476 -0.0233  0.1969 -0.6280
26780SOL    HW183233   6.361   4.567   0.498 -1.8429  2.0966  0.4942
26780SOL    HW283234   6.279   4.453   0.554 -0.4686  0.6325 -0.3812
26781SOL     OW83235  10.058   3.937   5.219 -0.0389 -0.3162  0.1020
26781SOL    HW183236  10.059   3.856   5.168  0.9622 -2.0304  2.6327
26781SOL    HW283237  10.008   3.915   5.297 -0.1782  1.7017  0.6257
26782SOL     OW83238   6.873   7.810   2.199  0.4315 -0.3855 -0.0460
26782SOL    HW183239   6.866   7.827   2.105  0.7407  0.9735  0.1521
26782SOL    HW283240   6.881   7.897   2.238 -1.1475 -0.8337  1.3766
26783SOL     OW83241   1.138   0.083   8.746 -0.0737  0.3208  0.1271
26783SOL    HW183242   1.077   0.142   8.701 -3.0103 -1.1196  1.9098
26783SOL    HW283243   1.119  -0.003   8.709  0.4568 -0.2455  1.1265
26784SOL     OW83244   4.903   7.743   0.928  0.4416 -0.0132  0.7723
26784SOL    HW183245   4.931   7.788   1.008  0.3237  1.3010  0.0933
26784SOL    HW283246   4.981   7.742   0.873  0.1259  0.4055  0.3159
26785SOL     OW83247   7.027   7.349   3.131 -0.0848  0.0870 -0.3105
26785SOL    HW183248   7.085   7.375   3.202 -0.8022 -1.1268  0.7588
26785SOL    HW283249   6.940   7.376   3.161 -0.2765  0.5236 -1.2203
26786SOL     OW83250   9.911   4.715   1.330 -0.0314 -0.0694  0.6748
26786SOL    HW183251   9.865   4.749   1.253 -0.0013 -1.7129 -0.1172
26786SOL    HW283252   9.982   4.778   1.345  1.4807 -0.9366 -2.1854
26787SOL     OW83253   3.207  10.328   6.331 -0.0373 -0.2828 -0.4121
26787SOL    HW183254   3.198  10.233   6.333  3.4273 -0.7557  1.5391
26787SOL    HW283255   3.236  10.348   6.241  0.4560 -1.2787 -0.4896
26788SOL     OW83256   7.306   7.692   4.812 -0.2151  0.1593  0.6253
26788SOL    HW183257   7.259   7.737   4.883  0.0402  1.0778  0.2212
26788SOL    HW283258   7.261   7.720   4.733  0.1755 -0.0185  0.3400
26789SOL     OW83259   9.355   7.635   2.757  0.4097 -0.3590  0.2006
26789SOL    HW183260   9.440   7.630   2.802  0.0663  0.0273  0.9047
26789SOL    HW283261   9.358   7.565   2.692  0.0207 -2.4931  2.3677
26790SOL     OW83262   6.935   3.386   8.051 -0.1367 -0.3296  0.3188
26790SOL    HW183263   7.006   3.449   8.036 -0.7314 -0.1847 -2.5664
26790SOL    HW283264   6.907   3.361   7.963 -2.1535 -2.1268  1.3823
26791SOL     OW83265   7.710   1.853   3.404 -0.1475  0.1964 -0.4671
26791SOL    HW183266   7.774   1.806   3.351 -0.7630  0.1426 -1.1841
26791SOL    HW283267   7.705   1.940   3.364  0.7590  0.8010  0.6630
26792SOL     OW83268   8.939   1.883   0.265 -0.9108 -0.4781 -0.2877
26792SOL    HW183269   8.885   1.847   0.335  0.1557 -1.5839  0.0139
26792SOL    HW283270   8.944   1.812   0.201 -1.1887  0.2227 -1.1079
26793SOL     OW83271   4.176   9.388   1.680  0.0220 -0.0691 -0.0392
26793SOL    HW183272   4.215   9.310   1.641 -1.8019 -0.9955 -0.1255
26793SOL    HW283273   4.196   9.458   1.617 -1.1778 -1.1504 -1.7128
26794SOL     OW83274   6.562   5.212   1.797  0.1960 -0.0020  0.3592
26794SOL    HW183275   6.553   5.118   1.786  2.4192 -0.1283 -0.8398
26794SOL    HW283276   6.562   5.226   1.892 -0.8820 -1.0803  0.5420
26795SOL     OW83277   6.173   3.846   4.306 -0.2447  0.1612 -0.3976
26795SOL    HW183278   6.145   3.862   4.216 -0.9338  0.2309 -0.1814
26795SOL    HW283279   6.135   3.761   4.327  1.0006 -0.4703 -0.5946
26796SOL     OW83280   0.310   3.736   1.758  0.4002  0.5055  0.1418
26796SOL    HW183281   0.220   3.718   1.733  0.1801  1.3975  0.2799
26796SOL    HW283282   0.334   3.814   1.709  1.3660 -0.1704 -0.4954
26797SOL     OW83283   5.741   4.799   0.235 -0.2686 -0.2595  0.1000
26797SOL    HW183284   5.789   4.873   0.199 -0.9211  0.4608  0.6717
26797SOL    HW283285   5.794   4.769   0.309  0.0657 -0.4654 -0.2185
26798SOL     OW83286   0.166   0.846   7.665 -0.0632 -0.9825  0.3065
26798SOL    HW183287   0.118   0.782   7.719 -0.2854 -1.5815 -0.5849
26798SOL    HW283288   0.097   0.895   7.619  0.0037  1.1678  2.3151
26799SOL     OW83289   2.328   0.614   1.500 -0.0324  0.0934  0.1258
26799SOL    HW183290   2.241   0.631   1.537 -0.0733  0.6111 -0.1936
26799SOL    HW283291   2.310   0.579   1.413  0.0738 -0.5789  0.3642
26800SOL     OW83292   3.894   8.737   8.981  0.1484 -0.1681 -0.0431
26800SOL    HW183293   3.880   8.821   8.938  1.8298 -0.8024 -1.9667
26800SOL    HW283294   3.986   8.738   9.007  1.1945 -2.5814 -3.0498
26801SOL     OW83295   6.740   7.357   3.395  0.2787 -0.1117  0.0156
26801SOL    HW183296   6.688   7.290   3.439 -0.6988  2.0808  2.4419
26801SOL    HW283297   6.820   7.363   3.447 -0.0541  1.1965  0.4183
26802SOL     OW83298   6.653   6.448   6.529 -0.3461 -0.3331 -0.1001
26802SOL    HW183299   6.669   6.538   6.500  0.3317 -0.6484 -0.7316
26802SOL    HW283300   6.709   6.438   6.606  0.0851 -0.4279 -0.4261
26803SOL     OW83301   9.125  10.538   1.811  0.0270  0.3192 -0.4979
26803SOL    HW183302   9.088  10.453   1.790 -1.3862  0.3790  1.5064
26803SOL    HW283303   9.184  10.522   1.885  0.3228  0.9812 -0.5752
26804SOL     OW83304  10.779   0.257   2.334 -0.1348  0.2020 -0.3203
26804SOL    HW183305  10.691   0.230   2.357 -0.3231  1.4607  0.5215
26804SOL    HW283306  10.799   0.208   2.253 -0.8798 -1.4640  0.4619
26805SOL     OW83307   2.980  10.562   6.740 -0.1697 -0.7434  0.0841
26805SOL    HW183308   3.016  10.599   6.660 -0.1736 -0.6860  0.1087
26805SOL    HW283309   2.948  10.476   6.715  0.9075 -1.2179  0.2867
26806SOL     OW83310   6.155   3.235   4.947  0.0485  0.4945 -0.1498
26806SOL    HW183311   6.121   3.325   4.938 -1.7026 -0.2460 -1.6595
26806SOL    HW283312   6.222   3.229   4.879 -1.1878  0.1246 -1.3888
26807SOL     OW83313   6.126   2.960   4.932  0.2218 -0.0369 -0.5614
26807SOL    HW183314   6.139   3.054   4.945 -2.6121  0.1634  1.5524
26807SOL    HW283315   6.082   2.954   4.847 -1.4092  0.8000  0.1784
26808SOL     OW83316   1.918  10.117   0.777 -0.2429 -0.2307  0.0885
26808SOL    HW183317   1.916  10.031   0.820  0.3424 -0.0982  0.3889
26808SOL    HW283318   1.905  10.179   0.849 -0.0399 -0.0431 -0.0372
26809SOL     OW83319   2.935   7.815   5.152 -0.3873  0.0469 -0.2896
26809SOL    HW183320   2.920   7.738   5.097  0.3703  0.0396 -0.4992
26809SOL    HW283321   2.876   7.803   5.227  0.5039 -1.3024  0.2426
26810SOL     OW83322   1.559   8.613   0.608 -0.1057  0.4226  0.1720
26810SOL    HW183323   1.603   8.546   0.662  0.2658  0.7005  0.2172
26810SOL    HW283324   1.593   8.598   0.520  1.0681  1.4479  0.4270
26811SOL     OW83325   4.812   9.442  10.693  0.4394 -0.3787  0.5409
26811SOL    HW183326   4.894   9.491  10.691  1.2510 -1.6922 -1.3391
26811SOL    HW283327   4.836   9.358  10.734 -0.3953 -0.1436  1.5700
26812SOL     OW83328   3.385  10.483   9.758  0.0758 -0.1427 -0.3350
26812SOL    HW183329   3.355  10.482   9.849  0.7668  0.1380 -0.1000
26812SOL    HW283330   3.452  10.551   9.755 -0.7455  0.6671 -1.3266
26813SOL     OW83331   6.200  10.302   6.593  0.2680  0.4234 -0.5067
26813SOL    HW183332   6.126  10.260   6.637 -1.1921  3.3234  0.0225
26813SOL    HW283333   6.161  10.352   6.522  1.9547  0.6943 -1.2853
26814SOL     OW83334   4.297   1.111   5.804  0.6282 -0.3035 -0.0799
26814SOL    HW183335   4.220   1.125   5.748  0.6601  1.1493  0.1957
26814SOL    HW283336   4.316   1.018   5.796  0.4566 -0.1948 -2.2437
26815SOL     OW83337   9.522   7.364   8.862 -0.4407 -0.0245  0.4434
26815SOL    HW183338   9.609   7.334   8.887 -0.7008 -1.7492 -0.6032
26815SOL    HW283339   9.463   7.317   8.920 -0.7389  0.6019  0.6648
26816SOL     OW83340   2.638   5.586   9.624 -0.1733 -0.5628 -0.5860
26816SOL    HW183341   2.556   5.549   9.590 -0.8319  1.5672 -1.4592
26816SOL    HW283342   2.609   5.651   9.688  0.9627 -1.4350  0.8873
26817SOL     OW83343   3.319   8.916   5.503 -0.0480  0.0916  0.4928
26817SOL    HW183344   3.286   8.960   5.424 -1.5138 -0.0844  0.9637
26817SOL    HW283345   3.379   8.980   5.543 -0.2137  0.6597 -0.1406
26818SOL     OW83346   8.427   9.504   9.739 -0.4061 -0.1622 -0.4993
26818SOL    HW183347   8.337   9.510   9.706 -0.0107 -1.1738 -1.8343
26818SOL    HW283348   8.473   9.449   9.675  0.9459 -0.4062  0.6322
26819SOL     OW83349   0.067   7.348  10.697  0.6387 -0.1734  0.4972
26819SOL    HW183350  -0.003   7.310  10.645  0.7621  0.5185 -0.1905
26819SOL    HW283351   0.070   7.441  10.671  0.3951  0.3062  2.0744
26820SOL     OW83352   2.157   8.993  10.764 -0.2792  0.3823 -1.0340
26820SOL    HW183353   2.125   8.955  10.846  1.0699  0.4664 -0.4602
26820SOL    HW283354   2.085   9.048  10.734 -0.2137  1.6130  0.9094
26821SOL     OW83355   5.980   8.857   1.195  0.0339  0.3139  0.2453
26821SOL    HW183356   6.025   8.773   1.192 -0.5588  0.0212 -1.1123
26821SOL    HW283357   6.044   8.920   1.162  0.1547  0.2447  0.3462
26822SOL     OW83358   6.004   6.765   2.207  0.2821 -0.2151  0.0997
26822SOL    HW183359   6.024   6.848   2.251 -1.3848  0.3646 -0.1741
26822SOL    HW283360   5.937   6.787   2.143  0.6640 -1.5758 -0.8133
26823SOL     OW83361   4.555   5.717   0.320 -0.4806  0.1736  0.0363
26823SOL    HW183362   4.552   5.811   0.300 -1.2254  0.1343 -0.0686
26823SOL    HW283363   4.550   5.674   0.234 -1.9784  0.0251  0.1770
26824SOL     OW83364   9.201   8.396   0.638  0.7469  0.0691  0.1856
26824SOL    HW183365   9.181   8.476   0.687  3.2692  0.5912  0.4809
26824SOL    HW283366   9.219   8.426   0.549 -0.1133 -0.4266 -0.1719
26825SOL     OW83367   7.122   9.049   8.286 -0.0878  0.5120  0.2337
26825SOL    HW183368   7.199   8.993   8.293  0.0196  0.7848  1.4770
26825SOL    HW283369   7.133   9.094   8.202  1.5493  1.1569  0.7377
26826SOL     OW83370  10.252   7.727   9.929 -0.1592 -0.2270 -0.1146
26826SOL    HW183371  10.199   7.672   9.872 -0.7732 -0.8210  1.0001
26826SOL    HW283372  10.260   7.677  10.011  0.6110  0.6423  0.3634
26827SOL     OW83373   5.891   2.942   7.605  0.0890 -0.1308  0.3587
26827SOL    HW183374   5.960   2.997   7.567  2.2918 -0.5552  3.3335
26827SOL    HW283375   5.879   2.872   7.540  0.2228  1.5514 -1.6011
26828SOL     OW83376   4.166   3.191  10.024  0.2697  0.1816  0.2061
26828SOL    HW183377   4.194   3.238   9.945 -0.1003 -0.1896 -0.1512
26828SOL    HW283378   4.246   3.172  10.072  0.3875  1.9021  0.7726
26829SOL     OW83379   6.174   1.867   4.280 -0.0548  0.1365 -0.1591
26829SOL    HW183380   6.080   1.863   4.264 -0.2010 -0.8185  0.7932
26829SOL    HW283381   6.208   1.787   4.241  0.2072 -0.0200  0.3804
26830SOL     OW83382   2.422   5.116   4.477 -0.1944  0.9740  0.0428
26830SOL    HW183383   2.435   5.029   4.438 -0.3001  0.2776  1.5134
26830SOL    HW283384   2.328   5.131   4.473 -0.2274  0.8126  0.2348
26831SOL     OW83385   1.283   7.862  10.260 -0.5917 -0.4732 -0.3211
26831SOL    HW183386   1.370   7.830  10.237 -0.4756  0.4685 -1.2948
26831SOL    HW283387   1.273   7.841  10.353  0.3294 -1.3374 -0.4044
26832SOL     OW83388   3.467   3.889   8.244  0.0366  0.0432 -0.3628
26832SOL    HW183389   3.516   3.957   8.291  0.1580 -0.4398  0.2213
26832SOL    HW283390   3.379   3.893   8.280 -0.1750  0.4365 -0.9126
26833SOL     OW83391   0.773   9.010   2.113  0.2196  0.3294  0.5370
26833SOL    HW183392   0.864   8.980   2.104 -0.6559 -2.1087 -1.2262
26833SOL    HW283393   0.772   9.097   2.075  1.7742  0.3335  0.4369
26834SOL     OW83394   0.227  10.487   4.234 -0.1032  0.2670  0.4900
26834SOL    HW183395   0.288  10.495   4.307 -1.3795  0.3454  1.5939
26834SOL    HW283396   0.224  10.393   4.216  0.5346  0.2904  0.2575
26835SOL     OW83397   2.875   4.113   9.229  0.3008 -0.0166  0.1258
26835SOL    HW183398   2.809   4.097   9.161 -1.0312  0.2952  1.2883
26835SOL    HW283399   2.952   4.066   9.199 -0.0353  0.6531 -1.9065
26836SOL     OW83400   2.171   2.482   9.031  0.6418 -0.1770 -0.0905
26836SOL    HW183401   2.141   2.561   8.988 -1.0292  0.0204  1.3259
26836SOL    HW283402   2.098   2.455   9.086  1.4585 -2.2710  0.0700
26837SOL     OW83403  10.642   9.131   6.812 -0.1018  0.1484 -0.2881
26837SOL    HW183404  10.579   9.062   6.792 -1.1328  0.0174  2.8987
26837SOL    HW283405  10.726   9.096   6.783 -0.5611 -2.5871  1.3957
26838SOL     OW83406   2.757   2.952   1.549 -0.2318 -0.1188  0.2217
26838SOL    HW183407   2.768   3.011   1.474  0.4760  0.0610  0.4576
26838SOL    HW283408   2.682   2.987   1.596  0.6280  1.0699  0.7702
26839SOL     OW83409   0.842   9.436   4.975  0.0161  0.8936  0.7124
26839SOL    HW183410   0.892   9.517   4.966  1.0649  0.1978  0.1561
26839SOL    HW283411   0.874   9.379   4.905 -0.6326 -0.0423  1.1497
26840SOL     OW83412  10.238   9.614   6.066  0.4514 -0.2933 -0.2063
26840SOL    HW183413  10.168   9.590   6.004  0.3665  0.9885 -0.6373
26840SOL    HW283414  10.194   9.665   6.133  1.0678  1.3217 -0.9608
26841SOL     OW83415   2.009   2.729   5.557 -0.0286 -0.9391 -0.0520
26841SOL    HW183416   1.938   2.671   5.581 -1.1608  0.3403 -0.1881
26841SOL    HW283417   1.972   2.817   5.565  2.2915 -0.0417  2.4792
26842SOL     OW83418   3.863   8.309   9.610  0.1825 -0.2474  0.5679
26842SOL    HW183419   3.867   8.281   9.701  2.5204  0.3851  0.7213
26842SOL    HW283420   3.860   8.227   9.560 -1.7057 -0.5922  1.1762
26843SOL     OW83421   1.007  10.327  10.265  0.0086  0.5868  0.1753
26843SOL    HW183422   0.925  10.281  10.286  0.3497  0.0520  0.3606
26843SOL    HW283423   0.982  10.390  10.198 -0.4715  0.1140 -0.1038
26844SOL     OW83424   3.661  10.381   0.494 -0.2359  0.4206  0.0225
26844SOL    HW183425   3.701  10.393   0.408  0.8620 -0.2772  0.4259
26844SOL    HW283426   3.675  10.464   0.539 -0.8781  0.8155 -0.4838
26845SOL     OW83427   2.183   6.463  10.651 -0.2651  0.1975 -0.1241
26845SOL    HW183428   2.202   6.556  10.638 -0.1022  0.4394  1.6610
26845SOL    HW283429   2.213   6.422  10.570 -1.3427  1.7994 -1.4164
26846SOL     OW83430  10.666   2.655   1.072  0.5926 -0.3279  0.0430
26846SOL    HW183431  10.677   2.749   1.057 -2.5313  0.0568 -0.3281
26846SOL    HW283432  10.674   2.645   1.167 -1.0411  0.6848  0.3266
26847SOL     OW83433   2.348   6.853   8.895 -0.2081 -0.1933 -0.3623
26847SOL    HW183434   2.439   6.877   8.915  0.3241 -1.5478 -1.0785
26847SOL    HW283435   2.331   6.894   8.811  0.7437 -2.2797 -1.6463
26848SOL     OW83436   8.779   8.840   4.888  0.1487  0.1804  0.7280
26848SOL    HW183437   8.836   8.773   4.927  0.1722 -0.7652 -0.8517
26848SOL    HW283438   8.840   8.910   4.864  0.5987 -0.5392 -0.3385
26849SOL     OW83439   1.458   3.089  10.536  0.3082  0.1317  0.8324
26849SOL    HW183440   1.461   3.031  10.613  1.1727  0.4770  1.0693
26849SOL    HW283441   1.464   3.177  10.573  2.4805  0.2575  0.3052
26850SOL     OW83442   6.897   9.675   7.104 -0.3711  0.0072  0.2178
26850SOL    HW183443   6.923   9.598   7.055 -1.0455  0.5778 -1.0783
26850SOL    HW283444   6.861   9.640   7.186 -1.8610 -1.1503 -0.8856
26851SOL     OW83445   3.163   1.187   8.515  0.1159 -0.1292  0.5111
26851SOL    HW183446   3.103   1.256   8.486 -1.0144 -0.4198  2.0187
26851SOL    HW283447   3.118   1.105   8.491  0.4941 -0.3490  0.5554
26852SOL     OW83448   4.729   9.744   4.475  0.4445 -0.1752 -0.3143
26852SOL    HW183449   4.639   9.772   4.459  0.3662  1.5484  2.4809
26852SOL    HW283450   4.782   9.821   4.453  0.7177  0.5267  2.4106
26853SOL     OW83451   3.795   5.952   9.705 -0.1926 -0.4790  0.0370
26853SOL    HW183452   3.738   5.906   9.642 -2.1405  1.1641  0.4995
26853SOL    HW283453   3.795   6.043   9.675 -0.6307  0.2100  2.0031
26854SOL     OW83454   7.782   4.405   4.666 -0.1455  0.0149  0.0421
26854SOL    HW183455   7.838   4.365   4.600  0.1867  0.6796 -0.0877
26854SOL    HW283456   7.697   4.362   4.655 -0.1079  0.1621 -0.8491
26855SOL     OW83457   0.084   9.176  10.739 -0.3092  0.9270  0.6264
26855SOL    HW183458   0.170   9.213  10.725  1.1672 -2.7350 -1.2403
26855SOL    HW283459   0.096   9.114  10.812 -0.8382 -0.8102 -0.6850
26856SOL     OW83460  10.580   8.762   3.130 -0.3211  0.0169  0.0052
26856SOL    HW183461  10.520   8.696   3.095 -1.0053  0.9609 -0.6329
26856SOL    HW283462  10.523   8.825   3.174  0.3432  0.0664  0.8233
26857SOL     OW83463   9.181   9.087   1.542 -0.4800 -0.0145  0.2480
26857SOL    HW183464   9.229   9.054   1.619  0.8685  0.4518 -0.3568
26857SOL    HW283465   9.108   9.137   1.579 -1.0560 -1.4649  1.1970
26858SOL     OW83466   8.809   5.005   1.831  0.1012 -0.2028 -0.2028
26858SOL    HW183467   8.765   4.965   1.906 -0.0322 -0.0879 -0.2175
26858SOL    HW283468   8.855   5.081   1.868 -0.4909  0.2335 -0.3318
26859SOL     OW83469   7.288   4.874   2.083 -0.5668  0.8347 -0.3130
26859SOL    HW183470   7.380   4.882   2.106 -0.4453  0.4930 -0.6810
26859SOL    HW283471   7.287   4.856   1.989 -0.9674 -0.0819 -0.1466
26860SOL     OW83472   4.072   9.712   2.974 -0.1744  0.4914  0.4190
26860SOL    HW183473   3.990   9.756   2.953  0.6585  0.8699 -2.3383
26860SOL    HW283474   4.136   9.752   2.916  2.0225  0.2103  2.5009
26861SOL     OW83475   4.488   9.858  10.011  0.3619 -0.4778  0.2204
26861SOL    HW183476   4.463   9.918  10.081 -0.1852  1.1239 -1.2789
26861SOL    HW283477   4.567   9.815  10.044 -1.4405 -1.9410  2.9674
26862SOL     OW83478   4.738   9.508   7.044 -0.8138 -0.0913 -0.7272
26862SOL    HW183479   4.733   9.416   7.072  0.9478  0.1163  0.3832
26862SOL    HW283480   4.694   9.557   7.114 -0.5199  0.0274 -0.6238
26863SOL     OW83481  10.480   5.955   6.106  0.3344 -0.3299 -0.6685
26863SOL    HW183482  10.424   6.010   6.162  0.0950  1.4450 -2.5146
26863SOL    HW283483  10.567   5.994   6.114  0.2586  0.0520 -1.6432
26864SOL     OW83484   0.402   8.101   1.886 -0.0366  0.2134  0.0058
26864SOL    HW183485   0.447   8.062   1.961 -1.9100 -0.1053  1.0124
26864SOL    HW283486   0.310   8.079   1.899 -0.7752  2.4786 -0.9553
26865SOL     OW83487   0.257   3.338   0.268 -0.0166  0.7087 -0.2985
26865SOL    HW183488   0.305   3.295   0.197 -0.7319 -0.8153  0.1113
26865SOL    HW283489   0.326   3.363   0.331  0.6038  1.9355 -1.4051
26866SOL     OW83490  10.479  10.772   7.494  0.3289  0.5192 -0.1322
26866SOL    HW183491  10.417  10.795   7.425 -0.3790 -1.0208 -0.0426
26866SOL    HW283492  10.444  10.691   7.532  1.3571  0.6824  1.2236
26867SOL     OW83493   3.104   6.227   5.734  0.1269 -0.4212 -0.5658
26867SOL    HW183494   3.130   6.211   5.825  0.8922  1.7194 -0.3362
26867SOL    HW283495   3.104   6.141   5.693  0.2169 -1.3859  1.3473
26868SOL     OW83496   9.001   9.973   4.548 -0.1163  0.1789 -0.3658
26868SOL    HW183497   9.053  10.007   4.475  1.2657 -1.4088 -0.1881
26868SOL    HW283498   9.063   9.965   4.620 -0.8833 -0.6315  0.2271
26869SOL     OW83499  10.655   3.716   1.413  0.5616 -0.2956 -0.5490
26869SOL    HW183500  10.613   3.799   1.390  2.0827  0.5313 -0.4503
26869SOL    HW283501  10.619   3.694   1.499 -0.9277 -0.5199 -1.1823
26870SOL     OW83502   5.563   6.158   1.908 -0.1136  0.0955 -0.7577
26870SOL    HW183503   5.575   6.170   1.814 -0.9596 -1.6334 -1.1288
26870SOL    HW283504   5.651   6.166   1.945 -0.1187  3.9344 -1.2076
26871SOL     OW83505   0.796   0.390   3.057 -0.1274  0.2062  0.2915
26871SOL    HW183506   0.858   0.459   3.033  0.2464 -0.4287 -0.6026
26871SOL    HW283507   0.711   0.423   3.027 -0.4797  1.6008  2.5384
26872SOL     OW83508   3.405   0.526   2.190 -0.2572  0.3265 -0.0939
26872SOL    HW183509   3.449   0.604   2.156  1.6737 -1.0938 -1.0904
26872SOL    HW283510   3.356   0.491   2.115 -0.9213  0.4579  0.2783
26873SOL     OW83511   6.439   7.703   0.464 -0.5856  0.3607  0.3790
26873SOL    HW183512   6.468   7.658   0.384  1.4834 -0.0844  1.3079
26873SOL    HW283513   6.438   7.795   0.440  1.8174  0.4212  0.2765
26874SOL     OW83514   7.724  10.241   9.068 -0.1189 -0.0833  0.5627
26874SOL    HW183515   7.767  10.320   9.102 -0.2167 -0.0220  0.5441
26874SOL    HW283516   7.645  10.232   9.122 -0.2930  0.0330  0.3274
26875SOL     OW83517   8.303   2.783   6.803 -0.3424 -0.5259 -0.1866
26875SOL    HW183518   8.226   2.839   6.797 -0.8419 -1.2176 -0.2962
26875SOL    HW283519   8.342   2.787   6.716  0.3885  0.7010  0.1629
26876SOL     OW83520   1.101   8.513   3.522  0.5287  0.9248  0.0629
26876SOL    HW183521   1.144   8.543   3.602 -0.2886  0.7711  0.5676
26876SOL    HW283522   1.080   8.594   3.475  2.6477  0.9823 -0.9105
26877SOL     OW83523   0.511   4.729   1.128 -0.1859  0.1097  0.7458
26877SOL    HW183524   0.491   4.636   1.125  0.7668 -0.0839 -0.9458
26877SOL    HW283525   0.425   4.772   1.119 -0.5690 -0.5934  0.9816
26878SOL     OW83526   0.831   3.392   3.602  0.0966  0.2658  0.1908
26878SOL    HW183527   0.740   3.364   3.616  0.1224  0.5274  0.9423
26878SOL    HW283528   0.866   3.329   3.539  0.2629 -1.6586  2.0907
26879SOL     OW83529   0.534   2.822   4.390 -0.3536 -0.2292  0.1714
26879SOL    HW183530   0.625   2.792   4.386  0.4833  2.1443 -0.4226
26879SOL    HW283531   0.521   2.845   4.482  0.0137  0.3413  0.0922
26880SOL     OW83532   6.741   8.318   7.273 -0.5046  0.4802  0.2253
26880SOL    HW183533   6.661   8.272   7.297  0.1118  0.6210  2.8749
26880SOL    HW283534   6.811   8.266   7.310  0.4811  1.4570 -0.2081
26881SOL     OW83535   8.765   2.215   1.829  0.4735 -0.0055  0.3007
26881SOL    HW183536   8.794   2.124   1.836 -0.8659 -0.3809  1.4494
26881SOL    HW283537   8.727   2.221   1.742  2.9464  0.2171 -0.8245
26882SOL     OW83538   0.812  10.467  10.121 -0.6252 -0.0181 -0.4584
26882SOL    HW183539   0.870  10.427  10.056  0.8494 -0.1197  0.8680
26882SOL    HW283540   0.792  10.554  10.085 -0.2575 -0.2727 -1.3018
26883SOL     OW83541   5.204  10.495   3.513 -0.0866 -0.4101  0.2182
26883SOL    HW183542   5.147  10.424   3.485  0.9381 -0.6517 -1.3910
26883SOL    HW283543   5.282  10.451   3.548 -0.2041 -0.0717  0.9318
26884SOL     OW83544   8.105   4.222   7.845 -0.3335  0.1851 -0.0144
26884SOL    HW183545   8.128   4.129   7.851  0.6960  0.4861  1.1268
26884SOL    HW283546   8.156   4.263   7.914 -1.0599  1.5586 -0.2733
26885SOL     OW83547   6.347   2.985   5.765 -0.2941  0.0809 -0.0123
26885SOL    HW183548   6.417   2.987   5.830 -0.1078 -2.2926 -0.0331
26885SOL    HW283549   6.371   3.053   5.702 -0.1859  2.0679  2.0431
26886SOL     OW83550   8.991   8.307   4.473 -0.2502 -0.5145 -0.2375
26886SOL    HW183551   8.991   8.212   4.461 -0.6502 -0.5349 -0.0919
26886SOL    HW283552   9.083   8.329   4.490 -0.3421 -1.0631  1.1277
26887SOL     OW83553   3.550   6.020   0.566  0.5205  0.0858  0.0083
26887SOL    HW183554   3.480   5.981   0.618 -1.0513  3.0259  0.3250
26887SOL    HW283555   3.630   6.003   0.616 -0.7162  1.2773  2.5788
26888SOL     OW83556   4.810   9.648   0.546 -0.4004  0.2762 -0.9132
26888SOL    HW183557   4.822   9.559   0.512 -1.1181  0.1311 -0.8058
26888SOL    HW283558   4.895   9.690   0.534  0.1582 -0.6500 -0.3163
26889SOL     OW83559   4.161   2.088   5.798 -0.4742 -0.4345  0.0918
26889SOL    HW183560   4.175   2.182   5.800  0.0867 -0.4802 -1.2788
26889SOL    HW283561   4.165   2.064   5.706  0.8562 -2.0153  0.5068
26890SOL     OW83562   0.231  10.212   8.465 -0.3977  0.1880 -0.4080
26890SOL    HW183563   0.240  10.302   8.495  1.9406  0.0602 -0.5605
26890SOL    HW283564   0.212  10.162   8.544 -0.0521  0.6161 -0.0468
26891SOL     OW83565  10.311   0.656  10.048 -0.2033  0.2712  0.4097
26891SOL    HW183566  10.240   0.646   9.984 -0.3754  0.2647  0.6032
26891SOL    HW283567  10.336   0.566  10.071  0.3639  0.2610 -0.2075
26892SOL     OW83568  10.637   8.555  10.599 -0.3987  0.0297  0.5959
26892SOL    HW183569  10.653   8.563  10.693  0.3362 -1.0112  0.5722
26892SOL    HW283570  10.719   8.586  10.559 -0.2624 -0.6704  0.3317
26893SOL     OW83571  10.252   8.901   1.345 -0.6879 -0.2660 -0.6381
26893SOL    HW183572  10.308   8.920   1.270  0.4020 -1.3748 -0.1242
26893SOL    HW283573  10.173   8.954   1.329  0.2726  0.9416 -1.6226
26894SOL     OW83574   3.281   6.281   7.568  0.1644 -0.2920  0.3490
26894SOL    HW183575   3.346   6.211   7.577 -0.1102 -0.8792 -1.7872
26894SOL    HW283576   3.232   6.258   7.489 -0.8660  1.5682  0.4086
26895SOL     OW83577   2.234   2.827   5.695  0.1728 -0.3910  0.4471
26895SOL    HW183578   2.175   2.878   5.751  0.3565 -1.6139  1.7973
26895SOL    HW283579   2.175   2.784   5.633 -0.0357  0.9394 -0.3233
26896SOL     OW83580  10.204   4.904  10.130 -0.6657  0.3271 -0.0104
26896SOL    HW183581  10.236   4.988  10.096 -0.0599 -0.2267 -0.8347
26896SOL    HW283582  10.234   4.840  10.066 -2.7374 -0.3172 -0.3763
26897SOL     OW83583   9.536   0.581   1.353 -0.4948  0.1883  0.3129
26897SOL    HW183584   9.578   0.541   1.429 -1.4638 -1.3977  0.0626
26897SOL    HW283585   9.484   0.653   1.389 -0.2368  0.0231  1.0261
26898SOL     OW83586   5.925   1.583   5.457  0.3522  0.6044  0.5638
26898SOL    HW183587   5.906   1.531   5.535 -0.4410  0.0876  0.0439
26898SOL    HW283588   5.995   1.536   5.412 -0.2191  0.0867  0.2036
26899SOL     OW83589   8.723   8.023   1.043  0.9079  0.4778  0.5187
26899SOL    HW183590   8.664   7.986   1.108 -0.0204  0.3203 -0.3885
26899SOL    HW283591   8.717   8.117   1.055 -1.5665  0.6364 -1.2130
26900SOL     OW83592   4.499   1.933   9.593 -0.7674 -0.1753 -0.2294
26900SOL    HW183593   4.532   1.997   9.529 -1.7063  0.7656  0.2006
26900SOL    HW283594   4.537   1.850   9.565  0.6571  0.5878 -0.6887
26901SOL     OW83595  10.513   9.457   9.256 -0.2170  0.3802  0.0986
26901SOL    HW183596  10.594   9.421   9.294 -1.1535  0.2191  2.0578
26901SOL    HW283597  10.537   9.546   9.230  0.3621  0.6807  1.5669
26902SOL     OW83598   2.951   2.606   1.677 -0.1336 -0.0394  0.2663
26902SOL    HW183599   2.944   2.680   1.737 -1.0562  0.5312 -0.5171
26902SOL    HW283600   3.000   2.640   1.602  1.5132 -0.9046  0.8974
26903SOL     OW83601   0.893   7.384   1.434  0.0431 -0.1701  0.0294
26903SOL    HW183602   0.877   7.369   1.527  0.8953 -1.3980 -0.0011
26903SOL    HW283603   0.809   7.413   1.399 -0.2445  0.4520  1.2085
26904SOL     OW83604   8.541   0.083   1.248  0.2311 -0.1263  0.0564
26904SOL    HW183605   8.606   0.090   1.318  0.5890  1.2366 -0.3645
26904SOL    HW283606   8.547   0.167   1.201 -0.6235 -0.6488 -1.0583
26905SOL     OW83607   0.934   7.776   1.964 -0.2620 -0.5216  0.9154
26905SOL    HW183608   0.890   7.827   2.031 -0.4383  0.2578  0.2193
26905SOL    HW283609   1.021   7.759   2.000 -0.7807 -1.2395  1.8836
26906SOL     OW83610   8.088   1.722   2.190 -0.4802  0.1924  0.4743
26906SOL    HW183611   8.165   1.766   2.225  0.7677 -1.9112  0.4708
26906SOL    HW283612   8.037   1.697   2.267 -0.8223  0.9183  0.4992
26907SOL     OW83613   8.616   6.035   2.727  0.1376 -0.4694  0.2007
26907SOL    HW183614   8.531   6.026   2.683  0.0147  1.4075 -0.0253
26907SOL    HW283615   8.597   6.090   2.803  1.3442  0.9868 -0.5135
26908SOL     OW83616   6.954   6.666   1.092  1.0833 -0.0841 -0.0343
26908SOL    HW183617   6.980   6.738   1.150  0.9850 -0.6633  0.7446
26908SOL    HW283618   6.875   6.698   1.048  1.5026  0.5959 -0.2998
26909SOL     OW83619   7.883   7.838   0.235  0.1423 -0.1178  0.7627
26909SOL    HW183620   7.815   7.853   0.301  0.1445 -2.1887  1.2898
26909SOL    HW283621   7.960   7.812   0.286  0.4674 -0.6651 -0.0010
26910SOL     OW83622   8.993   1.421   1.754 -0.1157 -0.0953 -0.0015
26910SOL    HW183623   8.963   1.417   1.845  1.2216 -3.0632  0.4506
26910SOL    HW283624   8.926   1.471   1.708 -2.2124 -0.7781  2.1427
26911SOL     OW83625   6.048   7.945   1.961  0.1539 -0.2282 -0.1141
26911SOL    HW183626   6.065   7.990   1.878  0.3153  0.5778  0.3374
26911SOL    HW283627   5.954   7.952   1.973  0.0318 -0.9973 -0.5822
26912SOL     OW83628   6.501   6.257   0.417 -0.5105  0.3253 -0.3979
26912SOL    HW183629   6.541   6.171   0.431 -0.4802  0.3732 -0.1788
26912SOL    HW283630   6.523   6.279   0.326 -1.0256 -0.1601 -0.6461
26913SOL     OW83631   2.828   0.945   9.341  0.1343 -0.3560 -0.2987
26913SOL    HW183632   2.846   0.857   9.307  1.0765  0.1236 -1.0884
26913SOL    HW283633   2.794   0.993   9.265 -0.7802 -0.1337  0.2295
26914SOL     OW83634   2.944   8.582   9.028  0.1210  0.7329  0.1795
26914SOL    HW183635   2.874   8.640   9.058 -0.3946  0.4687 -0.4808
26914SOL    HW283636   3.018   8.604   9.084 -0.1028  1.9287  0.0451
26915SOL     OW83637   2.622   1.030   6.858  0.3689  0.4372 -0.1750
26915SOL    HW183638   2.685   1.078   6.912 -0.0096 -0.8204  1.4565
26915SOL    HW283639   2.662   1.027   6.771  1.5039  1.5893  0.2812
26916SOL     OW83640   8.161   5.122   0.975 -0.4329 -0.6535 -0.3705
26916SOL    HW183641   8.132   5.048   1.028 -1.3685 -0.2665 -0.3194
26916SOL    HW283642   8.232   5.086   0.920 -0.6258 -1.4881 -0.0944
26917SOL     OW83643   4.741   6.435   5.430 -0.1090  0.5178 -0.0344
26917SOL    HW183644   4.704   6.349   5.411  1.7676  0.1059 -2.3876
26917SOL    HW283645   4.745   6.479   5.345  0.9424  2.1084  0.7801
26918SOL     OW83646   4.394  10.582   3.482  0.3439 -0.1338  0.4968
26918SOL    HW183647   4.308  10.559   3.448  0.0125 -0.2698  1.4223
26918SOL    HW283648   4.434  10.498   3.506  1.5323 -0.2899 -1.7061
26919SOL     OW83649   5.524   1.294   5.009 -0.3319  0.1712 -0.3919
26919SOL    HW183650   5.618   1.296   4.990  0.0236 -1.7039  0.8373
26919SOL    HW283651   5.491   1.378   4.978  1.7341  0.8484 -0.9190
26920SOL     OW83652   3.989   3.060  10.529  0.6542  0.6125  0.0377
26920SOL    HW183653   3.976   3.105  10.445  0.8110 -0.4788 -0.5786
26920SOL    HW283654   3.923   3.099  10.586  0.1373  0.9473 -0.7583
26921SOL     OW83655   9.798   4.075   1.765  0.2673  0.2850 -0.2949
26921SOL    HW183656   9.780   4.169   1.770 -0.0756  0.2321 -0.5531
26921SOL    HW283657   9.712   4.033   1.769  0.2587  0.0546 -2.2060
26922SOL     OW83658   7.977   7.390   6.396  0.3627 -0.0824 -0.3355
26922SOL    HW183659   7.939   7.345   6.471  0.9082  0.1044  0.0593
26922SOL    HW283660   8.012   7.471   6.432 -1.5520  1.2021 -1.2096
26923SOL     OW83661   1.868   1.640   7.357  0.0381 -0.3222 -0.6445
26923SOL    HW183662   1.947   1.592   7.336 -0.0543 -0.5189 -0.5433
26923SOL    HW283663   1.899   1.721   7.398  0.2208  0.0910 -1.5642
26924SOL     OW83664   6.830  10.236   0.501 -0.2954  0.1592 -0.3640
26924SOL    HW183665   6.810  10.327   0.480 -0.6451  0.3888  0.8908
26924SOL    HW283666   6.805  10.187   0.422 -0.5270  1.0875 -0.8808
26925SOL     OW83667   6.715   5.268   5.391  0.3788 -0.0725 -0.2398
26925SOL    HW183668   6.809   5.271   5.370  0.7303  0.4008  1.1990
26925SOL    HW283669   6.711   5.304   5.480 -1.1357 -0.4329 -0.1491
26926SOL     OW83670   4.333   1.553   6.253 -0.0483 -0.4211  0.5833
26926SOL    HW183671   4.354   1.466   6.220 -0.9083  0.2996 -2.0827
26926SOL    HW283672   4.244   1.546   6.285  0.4088 -0.8489  1.8364
26927SOL     OW83673   6.600   9.610   7.626  0.3779 -0.1295  0.0187
26927SOL    HW183674   6.530   9.545   7.622  2.4503 -2.4550 -0.1068
26927SOL    HW283675   6.657   9.589   7.552  0.8968  2.1649 -0.3225
26928SOL     OW83676   3.841   9.108   2.835  0.0757  0.9343 -0.5009
26928SOL    HW183677   3.857   9.099   2.741 -2.2743  2.0961 -1.1030
26928SOL    HW283678   3.773   9.043   2.853  1.0098  0.2261  0.5830
26929SOL     OW83679   7.023   9.001  10.275 -0.3190 -0.0701 -0.5690
26929SOL    HW183680   7.075   9.072  10.237  1.6746 -2.2229 -2.1576
26929SOL    HW283681   6.959   8.980  10.207  0.0830 -0.7633 -0.7373
26930SOL     OW83682   4.368   6.877   8.221  0.2522  0.2396 -0.3116
26930SOL    HW183683   4.327   6.954   8.182 -1.2058 -0.3536  0.0027
26930SOL    HW283684   4.422   6.840   8.151  0.1074  0.9362 -0.7976
26931SOL     OW83685   3.684   5.539   9.627 -0.1077  0.6379 -0.1586
26931SOL    HW183686   3.682   5.446   9.650 -1.0967  0.4032 -1.1324
26931SOL    HW283687   3.731   5.543   9.544  0.3904  1.0794  0.1330
26932SOL     OW83688   4.887   0.707   7.519 -0.1709  0.2590 -0.7619
26932SOL    HW183689   4.965   0.755   7.491  0.1436  0.2512  0.0877
26932SOL    HW283690   4.814   0.758   7.485  0.1843  0.7973 -0.7250
26933SOL     OW83691   1.876   2.390   8.817 -0.4444 -0.0524 -0.0954
26933SOL    HW183692   1.866   2.395   8.912 -0.1556 -0.7787 -0.0238
26933SOL    HW283693   1.795   2.427   8.783  0.5500  2.8257  0.3882
26934SOL     OW83694   1.104   5.448   5.035  0.7618 -0.0195 -0.0145
26934SOL    HW183695   1.191   5.489   5.031  0.6206  0.2912  0.0529
26934SOL    HW283696   1.120   5.363   5.076  1.2053 -0.4538 -1.0404
26935SOL     OW83697  10.179   2.007   1.312  0.3553  0.1277  0.3407
26935SOL    HW183698  10.219   2.009   1.400 -0.7682 -0.0055  0.8726
26935SOL    HW283699  10.140   1.920   1.306 -0.1681  0.3879 -0.0279
26936SOL     OW83700   2.604   3.378   3.695 -0.5335 -0.2196  0.0951
26936SOL    HW183701   2.632   3.305   3.751 -0.2082 -0.9332 -0.9761
26936SOL    HW283702   2.604   3.342   3.606 -1.2346  0.8384 -0.3530
26937SOL     OW83703   8.189   0.542   2.323  0.1507 -0.0496  0.3364
26937SOL    HW183704   8.173   0.628   2.286 -1.0545 -0.6447 -0.5889
26937SOL    HW283705   8.103   0.512   2.353  0.5003 -1.0294  0.4121
26938SOL     OW83706  10.354   7.768   9.388  0.2280  0.0609  0.1837
26938SOL    HW183707  10.355   7.748   9.482 -0.9627 -1.2136 -0.0390
26938SOL    HW283708  10.294   7.842   9.380 -0.1024 -0.1883  0.3606
26939SOL     OW83709   9.849   4.281   0.254  0.3405  0.0155 -0.2398
26939SOL    HW183710   9.787   4.231   0.306  0.6318  1.4888  1.6026
26939SOL    HW283711   9.915   4.217   0.227 -1.3267 -1.3414 -1.3034
26940SOL     OW83712   6.700   6.803   5.916  0.0081  0.6275 -0.4845
26940SOL    HW183713   6.634   6.792   5.985  1.4925 -3.4782  0.6205
26940SOL    HW283714   6.655   6.780   5.835 -0.9336  2.2644 -0.4613
26941SOL     OW83715   1.474   2.820   0.342  0.1127  0.4330  0.0755
26941SOL    HW183716   1.423   2.818   0.261  1.2416  2.1233 -0.7265
26941SOL    HW283717   1.433   2.888   0.395  0.2242  0.3033  0.3309
26942SOL     OW83718   7.392   1.558   2.517 -0.6187 -0.0359 -0.2142
26942SOL    HW183719   7.381   1.642   2.562 -0.1139 -0.5130  0.8023
26942SOL    HW283720   7.480   1.563   2.478  0.4975 -1.0635  1.9985
26943SOL     OW83721   5.638   7.110   8.938  0.1766 -0.0719  0.4476
26943SOL    HW183722   5.720   7.070   8.910  0.4345 -0.7038  2.0330
26943SOL    HW283723   5.649   7.203   8.918  0.3861 -0.4489 -1.3573
26944SOL     OW83724   1.857   3.837   4.601  0.0137  0.6459 -0.0326
26944SOL    HW183725   1.850   3.914   4.657  1.8501  0.4357  0.5409
26944SOL    HW283726   1.934   3.854   4.546 -0.0057 -0.4534 -0.4313
26945SOL     OW83727   4.695   4.404   5.407  0.0915  0.3876  0.4698
26945SOL    HW183728   4.745   4.350   5.345  0.6083 -0.4860  1.6239
26945SOL    HW283729   4.679   4.486   5.359  0.0547 -0.4383 -0.9998
26946SOL     OW83730  10.296   7.370   0.965 -0.0174 -0.1724  0.1255
26946SOL    HW183731  10.286   7.461   0.938 -0.3902 -0.5759 -1.1770
26946SOL    HW283732  10.358   7.333   0.902 -1.3417 -1.2935 -0.5577
26947SOL     OW83733   4.828   1.742   2.204  0.2211 -0.5002  0.2464
26947SOL    HW183734   4.760   1.744   2.271 -0.1510 -0.7164 -0.1288
26947SOL    HW283735   4.903   1.786   2.246  0.3842 -1.6576  1.2347
26948SOL     OW83736   4.349   1.316   9.847  0.7304 -0.7569  0.3093
26948SOL    HW183737   4.407   1.318   9.924  0.9702  0.4058  0.1259
26948SOL    HW283738   4.343   1.224   9.824  3.2434 -0.8841 -0.1835
26949SOL     OW83739   4.821  10.391   5.158 -0.2053  0.4913  0.1862
26949SOL    HW183740   4.778  10.473   5.135 -2.6795 -0.9531 -0.6506
26949SOL    HW283741   4.908  10.418   5.188 -0.1384  3.2569 -2.0127
26950SOL     OW83742   3.963   2.920   9.006  0.3740  0.0939 -0.2372
26950SOL    HW183743   4.038   2.928   9.064  1.2043  0.4942 -1.3204
26950SOL    HW283744   3.976   2.836   8.962  0.0628  0.0587 -0.2650
26951SOL     OW83745  10.420   1.651   3.712 -0.1042  0.0657 -0.1710
26951SOL    HW183746  10.506   1.663   3.751  0.0409 -0.5884 -0.2768
26951SOL    HW283747  10.436   1.605   3.630 -0.4769  0.7752 -0.6447
26952SOL     OW83748   0.510   2.061   2.528 -0.3453 -0.7346 -0.6460
26952SOL    HW183749   0.501   2.149   2.565  1.5251 -0.8524  0.2390
26952SOL    HW283750   0.514   2.004   2.605 -1.0328 -1.5463 -1.1993
26953SOL     OW83751   0.163   4.832   6.933  0.4262 -0.1580  0.0828
26953SOL    HW183752   0.186   4.748   6.974  1.3614 -0.3716 -0.8481
26953SOL    HW283753   0.132   4.886   7.006  2.4196 -0.4034  1.1801
26954SOL     OW83754   9.743   3.608   2.870  0.2261  0.4627 -0.3747
26954SOL    HW183755   9.674   3.622   2.805 -0.2299 -0.5580 -0.1185
26954SOL    HW283756   9.720   3.667   2.942 -0.2734  0.2611 -0.3685
26955SOL     OW83757   5.853   8.910   0.587 -0.3140 -0.1748  0.3311
26955SOL    HW183758   5.857   8.923   0.682  0.6486  0.4260  0.2235
26955SOL    HW283759   5.828   8.996   0.553 -3.3351 -1.0115  0.1725
26956SOL     OW83760   9.455   0.840   7.250  0.1664 -0.1081  0.6680
26956SOL    HW183761   9.389   0.836   7.181 -0.1812  0.8417  0.9281
26956SOL    HW283762   9.532   0.800   7.211 -0.0684  0.2717 -0.2228
26957SOL     OW83763   1.706   5.747   7.801 -0.2278  0.0232 -0.4574
26957SOL    HW183764   1.768   5.799   7.750  0.5906  0.9924  1.4149
26957SOL    HW283765   1.661   5.811   7.856 -1.0149 -0.9827  0.1033
26958SOL     OW83766   2.826   3.040   4.937  0.0852 -0.3287 -0.2785
26958SOL    HW183767   2.869   3.096   5.001  0.0581 -0.4427 -0.1604
26958SOL    HW283768   2.764   2.988   4.988 -0.5410  0.1777 -0.5156
26959SOL     OW83769   8.386   5.202   7.726  0.1622 -0.7641 -0.0071
26959SOL    HW183770   8.428   5.274   7.773 -1.5186  1.6860 -1.9893
26959SOL    HW283771   8.424   5.206   7.638 -0.8633 -1.4924 -0.4966
26960SOL     OW83772   4.857   8.004   0.418  0.3193  0.8759  0.4428
26960SOL    HW183773   4.776   8.004   0.469  1.4488  0.4869  2.3368
26960SOL    HW283774   4.828   8.013   0.327 -1.9820 -1.4548  0.8199
26961SOL     OW83775   0.121   7.162   1.877  0.3281  0.8144  0.4766
26961SOL    HW183776   0.148   7.111   1.953  0.6216  1.0194  0.5122
26961SOL    HW283777   0.104   7.097   1.809  0.5503  0.6591  0.5685
26962SOL     OW83778   4.460  10.715   2.999 -0.2789 -0.0402  0.1234
26962SOL    HW183779   4.446  10.777   2.927 -0.0546 -0.5079 -0.3327
26962SOL    HW283780   4.392  10.737   3.063 -0.6002  0.2635 -0.3124
26963SOL     OW83781   8.105   9.325   0.877 -0.0125  0.0069 -0.5740
26963SOL    HW183782   8.093   9.410   0.920 -0.4562 -1.2773  2.0582
26963SOL    HW283783   8.194   9.328   0.843  1.7373  0.0620  3.3867
26964SOL     OW83784   9.653   1.957   9.612 -0.3167  0.1550 -0.3126
26964SOL    HW183785   9.650   1.912   9.697  1.8317 -0.2642 -0.3917
26964SOL    HW283786   9.630   2.048   9.632  0.8722  0.2290  0.8912
26965SOL     OW83787   8.950   0.046   6.887 -0.0492 -0.1780 -0.1643
26965SOL    HW183788   9.005   0.003   6.952 -0.1254 -2.5086 -1.5537
26965SOL    HW283789   8.862   0.043   6.925  0.0583 -0.5952  0.0605
26966SOL     OW83790   2.973   4.910   0.391  0.1949 -0.0869 -0.3848
26966SOL    HW183791   2.989   4.885   0.482 -0.4498 -1.0186 -0.4996
26966SOL    HW283792   2.900   4.971   0.396  1.5662  1.5926 -0.1244
26967SOL     OW83793   5.417   4.478   7.177 -0.0018 -0.1343 -0.9062
26967SOL    HW183794   5.328   4.475   7.212  0.5139  2.3896  0.8947
26967SOL    HW283795   5.472   4.447   7.249  0.6962 -0.4198 -1.5474
26968SOL     OW83796  10.607   6.223   1.987  0.3281 -0.1007 -0.4722
26968SOL    HW183797  10.532   6.169   1.963  1.6435 -1.4876 -1.7562
26968SOL    HW283798  10.683   6.166   1.972  1.6448  1.1843  0.9055
26969SOL     OW83799   1.239   9.610   4.787  0.0186  0.0667  0.0292
26969SOL    HW183800   1.148   9.634   4.801  0.1980  0.8538 -0.1067
26969SOL    HW283801   1.275   9.681   4.734  0.7541 -0.1375  0.2383
26970SOL     OW83802   5.494   3.890   0.594  0.6935  0.6885 -0.2308
26970SOL    HW183803   5.520   3.836   0.669 -0.2092  0.5839  0.0250
26970SOL    HW283804   5.467   3.826   0.528  2.5432  0.7385 -1.0840
26971SOL     OW83805   0.453   7.631   5.869  0.4142 -0.1701  0.5285
26971SOL    HW183806   0.530   7.621   5.813 -0.8381 -0.0555 -1.2974
26971SOL    HW283807   0.416   7.716   5.844 -0.2977 -0.2163  1.3889
26972SOL     OW83808   7.763   2.114   7.354 -0.2254  0.4130  0.0446
26972SOL    HW183809   7.816   2.167   7.294 -0.2266 -0.9103 -1.1915
26972SOL    HW283810   7.680   2.162   7.361  0.5687  1.7481  0.8338
26973SOL     OW83811   5.455   5.563   8.897 -0.7107 -0.7500  0.5490
26973SOL    HW183812   5.473   5.548   8.990 -1.0554 -2.7491  0.3247
26973SOL    HW283813   5.520   5.511   8.851 -0.3521  0.4656 -0.3707
26974SOL     OW83814   0.743   2.125   2.411 -0.2641  0.2200  0.5465
26974SOL    HW183815   0.659   2.136   2.455  0.4282 -0.6787  2.1930
26974SOL    HW283816   0.762   2.032   2.418  0.5980  0.3088 -0.3409
26975SOL     OW83817   0.447   3.158   1.743  0.3999  0.0401  0.0137
26975SOL    HW183818   0.491   3.181   1.825  1.1267  1.5337 -0.7325
26975SOL    HW283819   0.519   3.149   1.680 -0.2377  0.6971 -0.8302
26976SOL     OW83820   1.998   2.069   5.950  0.0297  0.5172 -0.0002
26976SOL    HW183821   1.976   1.978   5.969  1.5342 -0.1286 -1.1409
26976SOL    HW283822   1.914   2.115   5.953 -0.8713 -1.0284 -0.1285
26977SOL     OW83823   5.100   1.622   6.013 -0.1741  0.1583  0.6354
26977SOL    HW183824   5.086   1.544   6.066  1.9416 -1.8049 -1.4296
26977SOL    HW283825   5.195   1.630   6.007 -0.3366  2.7716  0.5113
26978SOL     OW83826   6.067   8.509   4.511 -0.2378  0.1139  0.2683
26978SOL    HW183827   6.007   8.453   4.560  1.4505 -1.0522  1.1015
26978SOL    HW283828   6.071   8.470   4.424  0.5393 -0.8210  0.6979
26979SOL     OW83829   1.052   4.077   2.889  0.5320  0.1604  0.0107
26979SOL    HW183830   1.037   4.127   2.969 -0.3215 -0.1081  0.0339
26979SOL    HW283831   1.027   3.987   2.912  1.8247 -0.2442 -0.0961
26980SOL     OW83832   2.687   1.791   4.507 -0.3143 -0.2163 -0.3907
26980SOL    HW183833   2.724   1.863   4.558  1.6277 -1.2995 -0.2001
26980SOL    HW283834   2.641   1.834   4.435  0.9267  1.2091 -0.3723
26981SOL     OW83835   5.398   6.498   5.606 -0.1409  0.7722  0.7415
26981SOL    HW183836   5.351   6.566   5.655 -0.0241 -0.6223  2.9148
26981SOL    HW283837   5.334   6.427   5.597 -0.0876  0.8916 -1.0221
26982SOL     OW83838   4.654  10.570   4.807  0.2933 -0.2067  0.1120
26982SOL    HW183839   4.564  10.573   4.775  0.4673 -0.4385 -0.4207
26982SOL    HW283840   4.670  10.477   4.825  0.7256 -0.3077 -0.7154
26983SOL     OW83841   9.849   7.931   5.102  0.0856 -0.1963 -0.4623
26983SOL    HW183842   9.773   7.884   5.068 -0.9141  0.6756  0.4953
26983SOL    HW283843   9.904   7.948   5.025 -1.0335 -0.2127 -1.2801
26984SOL     OW83844   6.027  10.576   3.009  0.1507  0.2270  0.6399
26984SOL    HW183845   5.941  10.549   2.977  0.9054 -0.5031 -0.8803
26984SOL    HW283846   6.038  10.528   3.091 -0.2338 -0.9467  0.0307
26985SOL     OW83847  10.479   4.643   3.892  0.1642  0.2139  0.6472
26985SOL    HW183848  10.394   4.627   3.853 -0.7184  0.8550  2.2089
26985SOL    HW283849  10.494   4.568   3.950  1.1153 -0.3699 -0.3290
26986SOL     OW83850   9.739   0.111   0.155 -0.4427 -0.3713 -0.3618
26986SOL    HW183851   9.794   0.170   0.206 -2.0858 -0.2297  1.3767
26986SOL    HW283852   9.755   0.024   0.192 -1.3317 -0.3336  0.1335
26987SOL     OW83853   2.557   1.218   3.615 -0.3313 -0.2216  0.5078
26987SOL    HW183854   2.512   1.154   3.559  0.2584  0.9060 -1.3546
26987SOL    HW283855   2.502   1.296   3.610  0.6121  0.4318  0.0911
26988SOL     OW83856   8.128  10.485   3.387 -0.1977  0.1752 -0.2733
26988SOL    HW183857   8.195  10.417   3.392  0.3265  0.7320  0.4649
26988SOL    HW283858   8.095  10.494   3.476 -0.0884  1.0557 -0.3114
26989SOL     OW83859   6.344   6.630   3.782 -0.3745 -0.3945  0.3798
26989SOL    HW183860   6.375   6.710   3.738  1.1767  0.2426  2.4785
26989SOL    HW283861   6.327   6.569   3.711 -0.5242  1.4188 -1.2394
26990SOL     OW83862   3.401   7.751   9.121 -0.0437  0.2556 -0.3775
26990SOL    HW183863   3.429   7.669   9.079  0.5014  0.3294 -0.1747
26990SOL    HW283864   3.346   7.793   9.056  0.2005  0.0261 -0.7416
26991SOL     OW83865   9.031   0.565   8.843 -0.7886  0.0637 -0.4131
26991SOL    HW183866   9.062   0.586   8.932  0.0446  1.5449 -0.9992
26991SOL    HW283867   8.972   0.637   8.821 -0.1132  0.3221 -1.4606
26992SOL     OW83868   7.523   6.588   1.063  0.0371 -0.3206 -0.2405
26992SOL    HW183869   7.555   6.632   0.984 -1.8277  0.7655 -0.4596
26992SOL    HW283870   7.453   6.646   1.096 -1.2354 -2.2154  0.5446
26993SOL     OW83871   7.539   6.777   7.328 -0.4354 -0.2754 -0.4413
26993SOL    HW183872   7.633   6.792   7.330 -0.2976 -1.0973 -0.5994
26993SOL    HW283873   7.501   6.865   7.331  0.2916  0.0227  1.1629
26994SOL     OW83874   2.739   4.155   1.629  0.5922 -0.5504 -0.9468
26994SOL    HW183875   2.766   4.083   1.686  0.0245 -0.7885 -0.9718
26994SOL    HW283876   2.762   4.234   1.678  0.2001 -0.7523 -0.4188
26995SOL     OW83877   8.022   4.638   0.680  0.0869 -0.6243  0.2135
26995SOL    HW183878   8.100   4.592   0.711  0.1935  0.2724  1.3069
26995SOL    HW283879   8.034   4.643   0.585  2.4740  1.4017  0.5079
26996SOL     OW83880   8.883   1.366   0.259 -0.3305 -0.2017  0.6342
26996SOL    HW183881   8.915   1.362   0.349 -0.7668 -0.4787  0.7817
26996SOL    HW283882   8.871   1.274   0.233  2.1991 -0.2729 -0.6087
26997SOL     OW83883   6.599   1.209   5.874  0.4985  0.3144 -0.5270
26997SOL    HW183884   6.574   1.117   5.868 -0.5829  0.5656 -0.2208
26997SOL    HW283885   6.555   1.250   5.799  2.2335  0.3426 -1.5698
26998SOL     OW83886   8.695   8.514   1.517  0.4409 -0.2142 -0.0624
26998SOL    HW183887   8.730   8.586   1.571 -1.8027  0.2266  0.9260
26998SOL    HW283888   8.658   8.558   1.440 -0.3866 -0.3513  0.2485
26999SOL     OW83889   0.866   8.307   2.963 -0.1388 -0.0943  0.0167
26999SOL    HW183890   0.952   8.335   2.994 -0.6927 -1.1787  2.8266
26999SOL    HW283891   0.805   8.366   3.008 -0.9215  0.9415 -2.2674
27000SOL     OW83892   7.251   7.011   1.113  0.2006 -0.0950  0.2078
27000SOL    HW183893   7.203   7.033   1.034  0.5855  0.8514  0.2258
27000SOL    HW283894   7.275   7.095   1.151 -0.5849 -0.5243  1.7157
27001SOL     OW83895  10.727   5.689   8.285  0.0633 -0.0239 -0.7809
27001SOL    HW183896  10.811   5.664   8.246 -1.0668 -1.9399 -2.1333
27001SOL    HW283897  10.676   5.608   8.286 -1.3700  0.8276  1.1327
27002SOL     OW83898   9.581   1.903  10.406 -0.2821  0.6199  0.2348
27002SOL    HW183899   9.529   1.848  10.464 -0.9329  0.2564 -0.6605
27002SOL    HW283900   9.670   1.872  10.416 -0.4752  0.1658  0.5927
27003SOL     OW83901   8.127   0.516   1.687 -0.5973  0.2035  0.3610
27003SOL    HW183902   8.040   0.504   1.649 -0.5464  0.6596  0.0859
27003SOL    HW283903   8.135   0.446   1.752 -0.2803 -1.2211 -1.1730
27004SOL     OW83904   2.291   3.045   1.844 -0.4170 -0.1224  0.3445
27004SOL    HW183905   2.367   2.989   1.828 -1.5800 -1.5316 -0.5397
27004SOL    HW283906   2.309   3.086   1.928  1.2992 -0.4317  0.1658
27005SOL     OW83907   7.532   1.714   0.791  0.1509  0.4292 -0.2727
27005SOL    HW183908   7.519   1.681   0.702 -0.6712 -0.0068 -0.0070
27005SOL    HW283909   7.627   1.716   0.803  0.4946  3.6936 -2.3153
27006SOL     OW83910   3.564   2.342   4.199 -0.2543  0.4840  0.2545
27006SOL    HW183911   3.632   2.401   4.232 -0.9784  2.2741 -1.2617
27006SOL    HW283912   3.497   2.343   4.267  0.5599 -0.1048  1.0841
27007SOL     OW83913   0.174   0.685   1.755  0.7084  0.3879 -0.2489
27007SOL    HW183914   0.181   0.642   1.840  0.1635 -0.3193 -0.5482
27007SOL    HW283915   0.187   0.614   1.691 -1.1072  0.4661 -0.7582
27008SOL     OW83916  10.766   9.893  10.234 -0.3885  0.4387 -0.3751
27008SOL    HW183917  10.757   9.904  10.329  0.8511  1.5768 -0.3524
27008SOL    HW283918  10.823   9.817  10.223  0.9383  1.3567 -0.1200
27009SOL     OW83919   0.832   8.803   9.210  0.1623 -0.2750  0.3297
27009SOL    HW183920   0.763   8.767   9.154  0.4204 -0.7454  0.3103
27009SOL    HW283921   0.899   8.834   9.149  0.0162  0.0894  0.3509
27010SOL     OW83922   6.000   4.171   3.138  0.1559  0.2677 -0.0246
27010SOL    HW183923   5.993   4.083   3.175  1.3025 -0.2595 -0.9942
27010SOL    HW283924   6.031   4.225   3.210 -0.4564 -0.1394  0.5518
27011SOL     OW83925   7.760   4.003   1.680  0.6648  0.0019  0.5301
27011SOL    HW183926   7.824   3.957   1.626 -1.4441  0.2039 -2.3455
27011SOL    HW283927   7.686   3.943   1.687 -0.4164  1.2681  0.3744
27012SOL     OW83928   0.688   2.493   6.433 -0.4890 -0.6921  0.3524
27012SOL    HW183929   0.617   2.431   6.453 -0.7474 -0.8372 -0.9166
27012SOL    HW283930   0.702   2.483   6.339 -0.7295  1.3786  0.0583
27013SOL     OW83931   0.973   5.887   1.071  0.2220  0.1726 -0.2653
27013SOL    HW183932   0.920   5.823   1.118  0.6687 -1.1586 -1.4980
27013SOL    HW283933   0.917   5.915   0.999  0.4839  0.2301 -0.4443
27014SOL     OW83934   1.471   9.713   0.235 -0.3876  0.5645 -0.8409
27014SOL    HW183935   1.413   9.668   0.298  0.4280  0.1105 -0.3956
27014SOL    HW283936   1.555   9.717   0.280 -0.4824  2.8291 -0.7367
27015SOL     OW83937   5.023   6.723   7.518 -0.0466 -0.5922  0.1292
27015SOL    HW183938   5.064   6.784   7.578 -0.1982 -1.2838  0.9515
27015SOL    HW283939   4.930   6.744   7.522 -0.0644 -0.6822  0.1828
27016SOL     OW83940   3.603   5.103   6.527 -0.5246 -0.3620  0.2765
27016SOL    HW183941   3.577   5.011   6.529  0.3599 -0.6606 -0.8276
27016SOL    HW283942   3.697   5.102   6.544 -0.6559  0.4132  1.0738
27017SOL     OW83943   0.829   4.324   2.970  0.0423 -0.6959 -0.3799
27017SOL    HW183944   0.744   4.342   3.011  0.9677 -0.6650  1.6407
27017SOL    HW283945   0.815   4.241   2.923 -1.3343 -0.2253 -0.8543
27018SOL     OW83946   6.345   5.301   0.264 -0.0508  0.3916 -0.6247
27018SOL    HW183947   6.284   5.228   0.258 -1.0334  1.1964 -0.7672
27018SOL    HW283948   6.410   5.274   0.329 -0.1037 -0.8021 -1.0495
27019SOL     OW83949   8.171   3.843   8.977 -0.1628  0.6864  0.2320
27019SOL    HW183950   8.243   3.906   8.968 -0.9144  1.5271 -0.0548
27019SOL    HW283951   8.102   3.892   9.021 -0.5106 -0.1545  0.6254
27020SOL     OW83952   4.528   8.175   8.619 -0.2822  0.1611  0.6767
27020SOL    HW183953   4.451   8.189   8.564 -1.1993 -2.1193  1.2596
27020SOL    HW283954   4.581   8.112   8.570  0.5957  0.6997  0.8999
27021SOL     OW83955   9.901   8.159   7.739 -0.7580 -0.0391 -0.3830
27021SOL    HW183956   9.824   8.103   7.752  0.1130 -0.8460  1.8161
27021SOL    HW283957   9.956   8.110   7.679 -0.0170 -1.6546  1.4982
27022SOL     OW83958   9.006   3.269   3.160  0.0729 -0.1527 -0.2440
27022SOL    HW183959   8.987   3.363   3.154  1.2258  0.1123  0.0072
27022SOL    HW283960   9.066   3.262   3.234 -0.4414 -1.1734  0.0961
27023SOL     OW83961   3.206   5.110   4.890 -0.2268 -0.6863 -0.4433
27023SOL    HW183962   3.115   5.095   4.915 -0.1439 -1.0513 -0.3604
27023SOL    HW283963   3.257   5.068   4.959  0.0084 -1.5058 -1.1007
27024SOL     OW83964   5.746   4.273   0.435  0.5345 -0.6105 -0.7246
27024SOL    HW183965   5.696   4.219   0.496  0.3645  1.7751  1.3960
27024SOL    HW283966   5.685   4.293   0.365 -0.5159 -0.3042  0.2529
27025SOL     OW83967   4.721   8.543   3.561 -0.2346  0.2654  0.5351
27025SOL    HW183968   4.779   8.540   3.484  0.5565  3.6510  0.8139
27025SOL    HW283969   4.763   8.486   3.625  0.4218 -0.7020 -0.7124
27026SOL     OW83970  10.080   1.628   1.454 -0.2450 -0.5452 -0.0637
27026SOL    HW183971  10.026   1.657   1.528  0.5464 -1.0970  0.7534
27026SOL    HW283972  10.072   1.532   1.455  1.3328 -0.6890  0.5415
27027SOL     OW83973   1.454   9.739  10.401  0.2901  0.0214 -0.2750
27027SOL    HW183974   1.435   9.646  10.416 -0.5573 -0.0260 -1.4486
27027SOL    HW283975   1.548   9.742  10.385  0.0611 -0.9496 -2.1217
27028SOL     OW83976   3.767   3.548   0.860 -0.1437 -0.4182  0.5395
27028SOL    HW183977   3.691   3.560   0.803  1.3340 -0.8724 -1.6687
27028SOL    HW283978   3.809   3.469   0.826  0.4822 -1.1023  2.7403
27029SOL     OW83979   6.960   2.835  10.715 -0.7920 -0.0022 -0.2436
27029SOL    HW183980   6.879   2.886  10.707 -1.2606 -0.9692 -2.0468
27029SOL    HW283981   6.999   2.838  10.628 -1.6179 -3.9505 -0.9225
27030SOL     OW83982   3.296   4.653   8.482 -0.5134  0.0034  0.0439
27030SOL    HW183983   3.276   4.727   8.424 -1.1565 -0.0499  0.1896
27030SOL    HW283984   3.324   4.583   8.423 -2.2997 -0.4410 -0.3377
27031SOL     OW83985   8.964   4.758   2.038 -0.3111 -0.4593 -0.0647
27031SOL    HW183986   8.877   4.772   2.074 -0.7695 -0.8560 -0.9781
27031SOL    HW283987   8.984   4.666   2.057  0.2730 -0.1515  0.8803
27032SOL     OW83988   8.231   2.419   7.271 -0.4680 -0.3165  0.1291
27032SOL    HW183989   8.284   2.486   7.228 -0.6064  0.5600  1.2699
27032SOL    HW283990   8.271   2.336   7.245 -0.9332  0.1107 -2.1726
27033SOL     OW83991   4.759   2.590   5.908 -0.2671  0.1750  0.4670
27033SOL    HW183992   4.708   2.661   5.868 -1.1684 -0.5341  0.3314
27033SOL    HW283993   4.702   2.513   5.903  0.4828 -0.4426  1.1063
27034SOL     OW83994   6.484   0.779   3.321 -0.1133 -0.6995 -0.0409
27034SOL    HW183995   6.457   0.838   3.252 -1.0944 -1.3018 -0.2040
27034SOL    HW283996   6.550   0.827   3.371 -0.0915  0.0917 -0.8232
27035SOL     OW83997   2.981   4.262   5.868  0.0061  0.3351  0.0063
27035SOL    HW183998   2.991   4.339   5.924  0.4613 -0.4341  0.9970
27035SOL    HW283999   2.895   4.273   5.827 -0.2969  0.9403  0.7951
27036SOL     OW84000   4.344   8.815   1.864  0.1648  0.5168 -0.1211
27036SOL    HW184001   4.267   8.779   1.819 -0.6203  2.5664 -0.5682
27036SOL    HW284002   4.418   8.788   1.810 -0.2838 -1.0053 -0.0106
27037SOL     OW84003   7.039   5.366   6.466 -0.3567 -0.9399 -0.2101
27037SOL    HW184004   7.082   5.393   6.385 -0.8181 -2.1082 -0.8715
27037SOL    HW284005   7.017   5.448   6.510 -2.4382 -0.1167 -2.4999
27038SOL     OW84006   0.649   8.040   8.174  0.0184 -0.3324 -0.3868
27038SOL    HW184007   0.633   7.972   8.108  0.4251 -1.3838  0.5668
27038SOL    HW284008   0.573   8.097   8.167 -0.5295 -1.0977 -0.9569
27039SOL     OW84009   0.445   7.680   9.650 -0.4964  0.0789 -0.1629
27039SOL    HW184010   0.531   7.676   9.608 -0.6764 -1.0371 -0.4500
27039SOL    HW284011   0.421   7.773   9.645  1.1510  0.6028  0.9114
27040SOL     OW84012   7.545   9.879   1.547  0.1529  0.3954  0.0053
27040SOL    HW184013   7.492   9.958   1.532  0.2506  0.5031  0.2337
27040SOL    HW284014   7.511   9.843   1.629 -0.4573 -0.2587 -0.5238
27041SOL     OW84015   6.627   1.732   6.690  0.0725 -0.2561  0.4160
27041SOL    HW184016   6.600   1.647   6.726 -2.0102 -0.5341 -1.5618
27041SOL    HW284017   6.671   1.709   6.608  1.0546  0.5403  0.6980
27042SOL     OW84018   0.453   2.421   9.134 -0.1450 -0.1177  0.3294
27042SOL    HW184019   0.534   2.463   9.163  0.6389 -1.5579  0.3298
27042SOL    HW284020   0.455   2.426   9.039 -0.8070  1.1543  0.3606
27043SOL     OW84021  10.786   7.876   8.877  0.0482  0.4228  0.1076
27043SOL    HW184022  10.870   7.848   8.915 -0.4207  0.8425  1.5216
27043SOL    HW284023  10.810   7.926   8.799  1.0520 -0.4430 -0.1662
27044SOL     OW84024   8.953   6.588   7.414 -0.1120  0.5989 -0.4657
27044SOL    HW184025   9.027   6.542   7.454  0.1207  1.2797 -0.1035
27044SOL    HW284026   8.884   6.522   7.411  0.5275 -0.0742 -0.8865
27045SOL     OW84027   8.570   1.835   8.012  0.0157 -0.1114  0.2406
27045SOL    HW184028   8.510   1.901   8.047 -0.8211 -0.4507 -0.4944
27045SOL    HW284029   8.554   1.757   8.066 -0.8973 -0.4791 -0.5383
27046SOL     OW84030   3.253   3.265   4.327  0.1783 -0.2246 -0.3467
27046SOL    HW184031   3.331   3.210   4.335  1.7674  1.9061 -0.2818
27046SOL    HW284032   3.199   3.222   4.260  0.2963 -2.9369  1.1602
27047SOL     OW84033   0.027   6.435   0.742  0.5858  0.1640  0.2466
27047SOL    HW184034   0.037   6.451   0.648 -0.9178  0.7003  0.1543
27047SOL    HW284035   0.030   6.340   0.751 -0.5745  0.0269 -0.5391
27048SOL     OW84036   1.899   5.479   7.436 -0.1955  0.0639  0.4522
27048SOL    HW184037   1.930   5.414   7.373 -0.2353  0.0361  0.4610
27048SOL    HW284038   1.813   5.447   7.463 -0.0981 -0.0215  0.6616
27049SOL     OW84039   1.091   2.254   3.240  0.0108  0.0266  0.1567
27049SOL    HW184040   1.050   2.334   3.274 -0.5678  0.4552 -1.4431
27049SOL    HW284041   1.057   2.184   3.294 -0.3534  0.7429  0.8688
27050SOL     OW84042  10.738   5.381   3.554 -0.0705  0.3457 -0.2749
27050SOL    HW184043  10.823   5.374   3.596  0.1122 -0.7337 -0.8061
27050SOL    HW284044  10.756   5.421   3.469 -0.1502  0.4859 -0.2264
27051SOL     OW84045   8.094   0.770   8.147  0.4270  0.1032  0.5280
27051SOL    HW184046   8.079   0.677   8.163  0.8357 -0.2630 -0.9860
27051SOL    HW284047   8.188   0.782   8.161  0.2370  0.4957  1.5592
27052SOL     OW84048   8.942   3.743   0.305  0.3278 -0.3765 -0.3957
27052SOL    HW184049   8.998   3.673   0.339 -0.0269 -0.5242 -0.1114
27052SOL    HW284050   8.891   3.701   0.236 -0.1342 -0.4867  0.0105
27053SOL     OW84051   6.344   9.455   6.930  0.2065 -0.1050  0.0212
27053SOL    HW184052   6.309   9.469   7.018 -0.5571  0.4862 -0.3615
27053SOL    HW284053   6.296   9.379   6.897  0.0520  0.0415 -0.0980
27054SOL     OW84054   2.761  10.590   8.060  0.0754 -0.1790  0.4466
27054SOL    HW184055   2.795  10.503   8.080 -0.8655 -0.5120  0.6131
27054SOL    HW284056   2.675  10.593   8.101  0.6508  1.3394  1.6479
27055SOL     OW84057   0.116   0.910   7.017 -0.2164 -0.2049  0.4778
27055SOL    HW184058   0.175   0.982   7.039  0.3726 -0.8661  1.1078
27055SOL    HW284059   0.084   0.878   7.102  0.4398 -1.4345  0.2866
27056SOL     OW84060   7.896   9.916   2.097  0.1637 -0.1313 -0.2678
27056SOL    HW184061   7.878   9.822   2.098  0.2030 -0.1520  1.3341
27056SOL    HW284062   7.989   9.923   2.115 -0.0547  0.2340  0.7921
27057SOL     OW84063   4.045   3.187   6.820 -0.6384 -0.1756  0.1436
27057SOL    HW184064   4.064   3.281   6.811 -0.8079 -0.0968  0.5712
27057SOL    HW284065   3.956   3.177   6.786 -0.2297 -0.3735 -0.9179
27058SOL     OW84066   4.432   3.113  10.361  0.0027 -0.5013  0.1539
27058SOL    HW184067   4.358   3.058  10.339 -0.2726  0.1337 -0.5651
27058SOL    HW284068   4.409   3.199  10.326  1.1889 -0.3597 -0.3478
27059SOL     OW84069   1.448   5.303   4.889  0.5758 -0.0510  0.0671
27059SOL    HW184070   1.457   5.348   4.973  0.5574  2.4596 -1.1783
27059SOL    HW284071   1.510   5.231   4.894  2.3945  1.4979  1.3286
27060SOL     OW84072   9.177   6.295   9.316 -0.7454  0.4344 -0.0020
27060SOL    HW184073   9.221   6.226   9.267  0.6700  0.0283  1.7146
27060SOL    HW284074   9.089   6.261   9.334 -0.8691  0.1061 -1.2025
27061SOL     OW84075  10.750   4.108   8.763 -0.2978 -0.1013  0.0611
27061SOL    HW184076  10.703   4.033   8.799  0.5327 -1.6383 -1.8170
27061SOL    HW284077  10.745   4.095   8.668  0.5770  1.8153 -0.2906
27062SOL     OW84078   6.984   4.659   0.878 -0.2737  0.9041  0.2673
27062SOL    HW184079   6.963   4.664   0.784  1.4475  2.9906 -0.0743
27062SOL    HW284080   7.076   4.635   0.881 -0.9990 -2.1635  1.5872
27063SOL     OW84081   0.500   8.125   1.580 -0.1533 -0.3850  0.1090
27063SOL    HW184082   0.441   8.112   1.655  1.8008  1.2993  2.1029
27063SOL    HW284083   0.586   8.098   1.612  0.7703  0.4544 -1.5165
27064SOL     OW84084   0.390   2.192   6.146  0.2787  0.1892  0.3703
27064SOL    HW184085   0.375   2.126   6.213  1.1700  0.8815  1.2840
27064SOL    HW284086   0.311   2.245   6.146  0.9437  1.2825  2.1910
27065SOL     OW84087   1.449   2.343   6.381 -0.2991  0.4544  0.1257
27065SOL    HW184088   1.399   2.274   6.339 -1.8055  0.0636  2.3864
27065SOL    HW284089   1.518   2.297   6.429 -0.1954  0.6650  0.1808
27066SOL     OW84090   5.831   6.561   1.911 -0.2380  0.1961 -0.0255
27066SOL    HW184091   5.864   6.474   1.933 -2.1473 -0.3661  0.8369
27066SOL    HW284092   5.771   6.583   1.983 -1.4729  1.2577 -1.3161
27067SOL     OW84093   8.420   9.376   2.575 -0.5283  0.0012 -0.2788
27067SOL    HW184094   8.493   9.418   2.620 -0.8786  3.0252 -2.1880
27067SOL    HW284095   8.343   9.426   2.603 -1.5733 -1.6587 -0.0306
27068SOL     OW84096   0.615   1.901   8.871  0.5394 -0.1688  0.4080
27068SOL    HW184097   0.571   1.918   8.954  1.1724 -0.4840  0.8180
27068SOL    HW284098   0.549   1.920   8.804 -0.6603 -1.9249  1.0388
27069SOL     OW84099   0.301   5.805   8.062 -0.4808  0.0585 -0.2078
27069SOL    HW184100   0.350   5.731   8.098 -1.5989 -1.4330 -1.6246
27069SOL    HW284101   0.252   5.840   8.137 -1.3004 -1.7661  0.1525
27070SOL     OW84102  10.719   4.086   0.354  0.0683 -0.5073  0.5975
27070SOL    HW184103  10.659   4.097   0.281 -0.1659 -2.7577  0.3751
27070SOL    HW284104  10.796   4.138   0.330 -0.2510 -0.7063 -0.9697
27071SOL     OW84105   2.820   1.197   7.054  0.1254  0.4834  0.0980
27071SOL    HW184106   2.832   1.225   6.964 -0.0663  0.5186  0.0828
27071SOL    HW284107   2.819   1.278   7.105  3.7869  0.4030  0.6005
27072SOL     OW84108   7.681   2.832   8.112  0.2039 -0.3091 -0.2627
27072SOL    HW184109   7.602   2.781   8.097 -0.0286  0.2512 -1.0541
27072SOL    HW284110   7.654   2.902   8.171  0.0737 -0.0662 -0.6027
27073SOL     OW84111   2.206   1.975   6.141  0.4245  0.3080  0.0029
27073SOL    HW184112   2.228   1.973   6.234  1.0792  0.8319 -0.1312
27073SOL    HW284113   2.112   1.992   6.139  0.4669  0.6421  0.5729
27074SOL     OW84114   0.483   0.222   4.966  0.1077  0.3771  0.3136
27074SOL    HW184115   0.442   0.273   4.896 -2.3590 -1.4224  0.3235
27074SOL    HW284116   0.570   0.260   4.976 -0.1955  1.9753 -2.3456
27075SOL     OW84117   6.059   7.646   5.102  0.0415 -0.7898  0.3354
27075SOL    HW184118   5.976   7.626   5.145 -0.0599 -0.6391  0.2073
27075SOL    HW284119   6.079   7.567   5.051  0.7728 -1.4713  1.6101
27076SOL     OW84120   7.311   9.406   8.824 -0.1314  0.3297 -0.0647
27076SOL    HW184121   7.333   9.490   8.784 -0.3423  0.2545 -0.3388
27076SOL    HW284122   7.380   9.346   8.795  1.0285  0.8094  1.5453
27077SOL     OW84123   9.732  10.051   1.099 -0.1389 -0.2249  0.4143
27077SOL    HW184124   9.656  10.079   1.047 -0.0869 -0.3479  0.2696
27077SOL    HW284125   9.695  10.029   1.185 -0.1988  0.1485  0.4875
27078SOL     OW84126   3.722   5.225   0.204 -0.2798 -0.1180  0.0764
27078SOL    HW184127   3.687   5.158   0.262 -0.1262  0.7129  1.1559
27078SOL    HW284128   3.782   5.178   0.146 -0.2646 -0.9339  0.7317
27079SOL     OW84129   2.347   7.853   8.977  0.4788 -0.6817  0.1336
27079SOL    HW184130   2.282   7.907   8.930  0.9918  0.7096  0.9692
27079SOL    HW284131   2.303   7.829   9.059  1.2840  1.0567  1.1347
27080SOL     OW84132   6.049   6.151   5.290  0.4186  0.4010  0.5610
27080SOL    HW184133   5.968   6.197   5.312  0.3678 -0.5606  2.6548
27080SOL    HW284134   6.106   6.218   5.252 -0.2974  1.7688  1.8016
27081SOL     OW84135   6.381   2.833   4.215 -0.0499  0.3505 -0.2814
27081SOL    HW184136   6.383   2.908   4.156  2.2550 -0.8303 -1.8222
27081SOL    HW284137   6.327   2.768   4.170  0.0372  0.1777 -0.1376
27082SOL     OW84138  10.544   5.264   7.891  0.6516  0.1679 -0.0766
27082SOL    HW184139  10.564   5.211   7.968 -1.7542  0.1503  0.6053
27082SOL    HW284140  10.536   5.353   7.925  0.5397  0.3175 -0.4917
27083SOL     OW84141   5.917   2.282   8.855  0.2424 -0.0131 -0.2036
27083SOL    HW184142   6.008   2.304   8.871  0.1320  0.4531 -0.1825
27083SOL    HW284143   5.913   2.262   8.761  0.7778 -2.2002  0.2000
27084SOL     OW84144  10.732  10.184   1.031  0.1174  0.4115 -0.4255
27084SOL    HW184145  10.688  10.153   1.110  0.7611  0.2522 -0.1224
27084SOL    HW284146  10.803  10.240   1.063  0.6670 -0.0143 -0.8655
27085SOL     OW84147  10.048   0.658   9.069  0.0320  0.5786 -0.7105
27085SOL    HW184148  10.081   0.571   9.089 -0.5595  0.2438 -1.1601
27085SOL    HW284149  10.105   0.690   8.999 -0.8807 -0.2020 -1.8457
27086SOL     OW84150   2.360   3.539  10.384  0.0793 -0.5684 -0.2239
27086SOL    HW184151   2.276   3.540  10.430  0.9396 -1.1904  1.4529
27086SOL    HW284152   2.376   3.446  10.365  0.4116 -0.4612 -0.4749
27087SOL     OW84153   7.683   1.475   7.203  0.3853  0.7728 -0.1099
27087SOL    HW184154   7.619   1.420   7.157 -0.5390  0.4701  1.4588
27087SOL    HW284155   7.721   1.530   7.135 -0.0505 -0.4894 -1.4146
27088SOL     OW84156   2.279   9.664   4.278 -0.2749 -0.2785  0.2980
27088SOL    HW184157   2.268   9.570   4.265 -0.5752  0.1577 -3.9389
27088SOL    HW284158   2.367   9.684   4.247  0.2278  0.7875  2.1956
27089SOL     OW84159   2.875   3.335   7.608 -0.1694 -0.3256 -0.2673
27089SOL    HW184160   2.870   3.404   7.542  1.2955 -0.6122 -0.7183
27089SOL    HW284161   2.934   3.270   7.571  2.0934  0.2719  1.9324
27090SOL     OW84162   5.865   2.730  10.725 -0.8453  0.1415 -0.3469
27090SOL    HW184163   5.847   2.734  10.631  0.2516 -0.2014 -0.5883
27090SOL    HW284164   5.944   2.783  10.736  0.2261 -1.4668  0.0488
27091SOL     OW84165   9.021   3.206   0.404  0.2032 -0.1810 -0.2759
27091SOL    HW184166   8.928   3.192   0.390  0.1139  0.6674 -0.5793
27091SOL    HW284167   9.026   3.286   0.457  0.6624 -1.5768  1.9398
27092SOL     OW84168  10.750   5.284  10.377 -0.0375  0.1649  0.3050
27092SOL    HW184169  10.732   5.312  10.467 -0.8590 -0.6278  0.3961
27092SOL    HW284170  10.844   5.266  10.376  0.4651  2.4717  0.3476
27093SOL     OW84171   0.543   8.113   2.637  0.3535  0.2839  0.1839
27093SOL    HW184172   0.565   8.033   2.685  0.1134 -0.1937 -0.4843
27093SOL    HW284173   0.448   8.109   2.627 -0.0363  2.0148  2.4911
27094SOL     OW84174   9.130   5.502   1.942  0.0024 -0.6873  0.0585
27094SOL    HW184175   9.226   5.509   1.941 -0.0705  0.4498 -0.9553
27094SOL    HW284176   9.103   5.533   1.856 -1.3428  0.0180  0.7107
27095SOL     OW84177   7.495   4.892   7.674  0.0356  0.4078 -0.8115
27095SOL    HW184178   7.567   4.904   7.612  1.2428  1.3594  0.6805
27095SOL    HW284179   7.476   4.980   7.705  0.1397 -0.1199  0.8480
27096SOL     OW84180   8.715   6.339   9.521 -0.9648 -0.2572  0.2315
27096SOL    HW184181   8.625   6.373   9.513 -1.5262 -1.5309  0.8733
27096SOL    HW284182   8.770   6.415   9.505 -2.1739  0.8315  0.9954
27097SOL     OW84183   4.030   9.432   7.964  0.4294  1.5154 -0.3762
27097SOL    HW184184   4.059   9.380   7.889  0.4854 -2.3958  2.0838
27097SOL    HW284185   3.938   9.405   7.976  1.1743 -0.1750  2.4479
27098SOL     OW84186   1.214   9.806   8.925  0.1174 -0.6523 -0.1492
27098SOL    HW184187   1.255   9.885   8.959  1.3119 -1.5969  0.6703
27098SOL    HW284188   1.125   9.808   8.961  0.2106  0.1689  0.0674
27099SOL     OW84189   3.924   8.592   5.260 -0.2292  0.6054  0.3620
27099SOL    HW184190   3.901   8.591   5.353 -1.1952  1.0641  0.1433
27099SOL    HW284191   3.864   8.656   5.222  0.2235  0.4893 -0.5657
27100SOL     OW84192  10.737   8.451   8.450  0.1028  0.2713 -0.1513
27100SOL    HW184193  10.732   8.531   8.503 -0.7882  0.0733  0.0834
27100SOL    HW284194  10.661   8.399   8.478  0.9226 -0.8600  0.0214
27101SOL     OW84195   4.552   2.147   9.095 -0.0161  0.6484 -1.1447
27101SOL    HW184196   4.596   2.063   9.103  0.3444  0.9314  0.2943
27101SOL    HW284197   4.528   2.154   9.003 -0.6924 -1.3364 -1.1565
27102SOL     OW84198   3.242   9.614   7.989  0.5894  0.0334  0.1656
27102SOL    HW184199   3.291   9.609   8.071 -0.1500  0.4821  0.6333
27102SOL    HW284200   3.270   9.697   7.950  0.4368  0.1358  0.2770
27103SOL     OW84201   5.604  10.712   2.072 -0.6256  0.0823 -0.1085
27103SOL    HW184202   5.666  10.641   2.054  0.2119  0.8800 -0.4884
27103SOL    HW284203   5.637  10.753   2.151 -1.5444 -0.4061  0.5453
27104SOL     OW84204   7.582   8.056  10.055 -0.0153 -0.1788  0.0824
27104SOL    HW184205   7.598   7.972  10.012 -0.2627 -0.4514  0.5200
27104SOL    HW284206   7.564   8.033  10.146  0.4733  0.3924  0.3292
27105SOL     OW84207   5.272   2.301   6.936 -0.1621 -0.0885  0.0981
27105SOL    HW184208   5.308   2.241   6.871  1.4397  2.4710 -1.5620
27105SOL    HW284209   5.201   2.346   6.890 -0.1689  0.5285  0.6984
27106SOL     OW84210   9.510   8.610   1.042  0.2935 -0.7562 -0.6006
27106SOL    HW184211   9.523   8.619   1.136  1.7687 -0.8487 -0.7720
27106SOL    HW284212   9.474   8.522   1.031  0.9434 -1.0830 -0.1863
27107SOL     OW84213   9.684   1.515   6.421 -1.0987  0.8159 -0.0647
27107SOL    HW184214   9.777   1.507   6.397 -1.2862 -0.7414 -0.3819
27107SOL    HW284215   9.677   1.468   6.504 -1.7258  0.3011 -0.4000
27108SOL     OW84216   1.303   0.058   7.865 -0.0121  0.1488  0.5997
27108SOL    HW184217   1.248   0.007   7.806 -0.0831  2.0640 -1.0791
27108SOL    HW284218   1.255   0.140   7.878  0.9989  0.6013  1.6660
27109SOL     OW84219   8.040   2.833   0.341  0.1615 -0.3793 -0.3628
27109SOL    HW184220   8.038   2.814   0.247  0.1830  0.3506 -0.5163
27109SOL    HW284221   8.125   2.800   0.371  1.5871  2.2240 -1.2462
27110SOL     OW84222   5.083   1.862   5.874 -0.0318  0.1018  0.4842
27110SOL    HW184223   5.067   1.842   5.782  2.9260  1.1887 -0.3864
27110SOL    HW284224   5.056   1.783   5.921 -0.1005 -1.1194 -1.4982
27111SOL     OW84225   6.088   1.924   2.075  0.2576 -0.3977 -0.2403
27111SOL    HW184226   6.073   2.014   2.045 -2.8560 -0.9508 -0.7317
27111SOL    HW284227   6.136   1.882   2.003  1.1951  0.7023 -0.2710
27112SOL     OW84228   0.900   3.955   5.477  0.2935 -0.2020 -0.5265
27112SOL    HW184229   0.934   4.044   5.488 -1.2318  0.4785 -0.9448
27112SOL    HW284230   0.972   3.906   5.438  1.1890  0.8362 -0.2238
27113SOL     OW84231   6.012   9.126   6.460 -0.2453 -0.1656 -0.0452
27113SOL    HW184232   6.008   9.079   6.544 -0.4127  0.5657  0.3620
27113SOL    HW284233   6.018   9.057   6.395 -0.8980 -0.7702  0.5195
27114SOL     OW84234   1.235   0.092   7.431 -0.4950 -0.1733  0.1770
27114SOL    HW184235   1.248   0.140   7.348 -0.5316  0.5541  0.5830
27114SOL    HW284236   1.294   0.135   7.493 -2.2143  0.8938  1.1511
27115SOL     OW84237   6.962   2.709   2.589  0.2995  0.0268  0.2829
27115SOL    HW184238   6.918   2.644   2.535  0.5398 -0.9976  1.2865
27115SOL    HW284239   6.894   2.772   2.611  0.4403  1.1621 -2.1501
27116SOL     OW84240   5.988   5.380   8.649  0.3870  0.1320  0.7638
27116SOL    HW184241   5.993   5.319   8.576 -0.0190 -1.2180  1.8097
27116SOL    HW284242   5.949   5.329   8.720 -1.6615  2.1114  1.1870
27117SOL     OW84243   8.020   3.368   2.084  0.3752 -0.3577 -0.1804
27117SOL    HW184244   8.088   3.437   2.082 -0.7226  0.7903  0.6605
27117SOL    HW284245   8.049   3.305   2.018  0.0862  2.2123 -2.9929
27118SOL     OW84246   2.009   0.876   2.986  0.1273  0.2319 -0.1176
27118SOL    HW184247   2.067   0.914   2.920  0.4801  1.2467  0.7612
27118SOL    HW284248   2.063   0.812   3.032 -0.2342 -0.7790 -1.0511
27119SOL     OW84249   6.402   0.761   8.171  0.5205  0.2235  0.6107
27119SOL    HW184250   6.403   0.852   8.201  0.1596  0.3553  0.2279
27119SOL    HW284251   6.444   0.712   8.242  1.4182  0.7894  0.4765
27120SOL     OW84252   6.272   7.432   3.135 -0.4680 -0.3149 -0.1687
27120SOL    HW184253   6.226   7.370   3.078 -0.3035  0.9819 -1.7589
27120SOL    HW284254   6.203   7.488   3.170 -0.1838  2.3194 -3.3909
27121SOL     OW84255   9.860   9.966   5.566  0.4869 -0.3159  0.1713
27121SOL    HW184256   9.901  10.047   5.534 -0.2851 -0.3514 -0.9636
27121SOL    HW284257   9.789   9.949   5.504  0.9707 -2.1634  0.0655
27122SOL     OW84258   6.969   2.024   6.039 -0.3708 -0.1153 -0.7409
27122SOL    HW184259   6.875   2.038   6.041 -0.6862 -1.9779  0.4231
27122SOL    HW284260   6.980   1.946   5.984  0.2467 -1.0944  0.6947
27123SOL     OW84261   4.086  10.005   7.978 -0.1368 -0.2159  0.0899
27123SOL    HW184262   4.137   9.935   8.018  0.2530  0.5575  1.0012
27123SOL    HW284263   4.001  10.001   8.023 -1.0915 -1.7767 -1.7242
27124SOL     OW84264   9.650   6.741   8.210  0.2511  0.1804 -0.1545
27124SOL    HW184265   9.648   6.790   8.293 -0.2879  0.8692 -0.5600
27124SOL    HW284266   9.726   6.684   8.218  0.8436  1.0150  0.3854
27125SOL     OW84267   8.456   9.210   3.320 -0.1907 -0.3061  0.0482
27125SOL    HW184268   8.452   9.221   3.415 -2.2693 -0.1740 -0.0242
27125SOL    HW284269   8.380   9.256   3.287 -0.3942 -1.7091 -1.5612
27126SOL     OW84270  10.623   9.274   6.111 -0.1955  0.3556  0.5165
27126SOL    HW184271  10.655   9.305   6.195  3.9354  0.3442 -0.8176
27126SOL    HW284272  10.589   9.352   6.067  1.5226  1.2395  0.6755
27127SOL     OW84273   4.895   5.563   7.315 -0.0650 -0.5639  0.5695
27127SOL    HW184274   4.888   5.602   7.228 -0.3833  1.4264  1.4422
27127SOL    HW284275   4.953   5.621   7.363  0.4927 -1.8983  1.5703
27128SOL     OW84276   4.211   4.430   8.317  0.1634  0.2391  0.1261
27128SOL    HW184277   4.269   4.421   8.393 -0.4432 -1.0370  0.4821
27128SOL    HW284278   4.129   4.388   8.346  0.1421 -0.8870 -1.4556
27129SOL     OW84279   7.618   7.972   5.650  0.1223  0.0488 -0.1688
27129SOL    HW184280   7.596   8.064   5.664  0.6689  0.2362 -0.5397
27129SOL    HW284281   7.713   7.968   5.661  0.3971 -0.0702 -2.2533
27130SOL     OW84282   5.698   2.083   5.739  0.2133 -0.5797 -0.0840
27130SOL    HW184283   5.730   2.001   5.776 -0.9547 -0.8059  0.4962
27130SOL    HW284284   5.661   2.130   5.814  3.3705  1.8257  0.2018
27131SOL     OW84285   4.314   8.807   7.240 -0.1303  0.3250 -0.0965
27131SOL    HW184286   4.285   8.828   7.329 -2.6558 -1.6918 -0.3069
27131SOL    HW284287   4.303   8.889   7.192 -0.3992  1.0060  1.0651
27132SOL     OW84288  10.456   2.074   8.281  0.1866  0.1337  0.0909
27132SOL    HW184289  10.393   2.073   8.354  0.6974 -0.0733  0.5382
27132SOL    HW284290  10.439   1.993   8.234  0.6112 -0.2903  0.6504
27133SOL     OW84291   9.529   7.071   4.869  0.3574  0.0801  0.0886
27133SOL    HW184292   9.557   6.980   4.880 -0.9806 -0.6050 -1.6531
27133SOL    HW284293   9.591   7.107   4.806  1.9925  0.9863  2.1113
27134SOL     OW84294   6.960   1.728   6.661 -0.5771 -0.3427  0.2581
27134SOL    HW184295   6.949   1.679   6.579 -1.5698  0.4655 -0.1166
27134SOL    HW284296   6.919   1.673   6.727 -1.0837 -0.3444 -0.0465
27135SOL     OW84297   4.288   8.786   1.531  0.2500 -0.7907  0.0109
27135SOL    HW184298   4.366   8.744   1.567  0.3694 -1.1465 -0.6427
27135SOL    HW284299   4.274   8.743   1.447  2.3123  2.6138 -2.3281
27136SOL     OW84300   5.147   3.921   7.469 -0.1503 -0.2630  0.2590
27136SOL    HW184301   5.142   3.864   7.546  0.4346  0.3671  0.7792
27136SOL    HW284302   5.176   3.864   7.398 -0.3243 -0.7699  0.5911
27137SOL     OW84303   6.533   1.296   8.769 -0.1261 -0.3687 -0.0682
27137SOL    HW184304   6.487   1.363   8.820  0.5949  0.5622 -0.5941
27137SOL    HW284305   6.463   1.242   8.733 -0.7964  0.6915 -0.4181
27138SOL     OW84306   5.745  10.446   4.756  0.0874 -0.0948  0.9726
27138SOL    HW184307   5.654  10.428   4.733  0.0305  1.2540  0.0233
27138SOL    HW284308   5.792  10.444   4.673  0.0578  3.8880  0.6743
27139SOL     OW84309  10.217   9.640   9.319 -0.1372 -0.0039 -0.3669
27139SOL    HW184310  10.198   9.570   9.257 -0.1116 -0.5338  0.2254
27139SOL    HW284311  10.295   9.611   9.366  0.3494  0.7785 -0.6601
27140SOL     OW84312   3.890   4.785   8.940  0.5446 -0.4824  0.1413
27140SOL    HW184313   3.861   4.875   8.924  0.3066 -0.9854 -3.0480
27140SOL    HW284314   3.827   4.731   8.892  2.1190 -2.1659 -0.1421
27141SOL     OW84315   3.834   7.557  10.011 -0.0210  0.0140  0.2605
27141SOL    HW184316   3.803   7.648  10.016 -0.0286 -0.0232  1.0323
27141SOL    HW284317   3.787   7.519   9.937  0.9080  0.9855 -0.8816
27142SOL     OW84318   6.244   7.864   5.625  0.0463  0.4023 -0.4068
27142SOL    HW184319   6.203   7.875   5.711  0.2630 -0.3128 -0.2075
27142SOL    HW284320   6.179   7.898   5.564  0.0839  1.3625  0.0710
27143SOL     OW84321   6.668   7.571   1.564 -0.1164  0.4226 -0.0310
27143SOL    HW184322   6.656   7.632   1.490  1.0129  0.9950  0.2385
27143SOL    HW284323   6.585   7.574   1.610 -0.9218 -0.0989 -1.3884
27144SOL     OW84324   4.788   0.205   0.436 -0.0534 -0.8177 -0.4727
27144SOL    HW184325   4.775   0.262   0.360  2.9645 -0.7300 -1.0339
27144SOL    HW284326   4.754   0.256   0.509 -1.2898 -0.1072 -1.4913
27145SOL     OW84327   5.411   6.186   8.551 -0.0050 -0.3599 -0.0030
27145SOL    HW184328   5.411   6.101   8.596 -0.3352 -0.1024  0.4964
27145SOL    HW284329   5.368   6.245   8.613  1.7804  0.5845  0.4220
27146SOL     OW84330   1.393   4.751   8.496 -0.3106 -0.7103 -0.3399
27146SOL    HW184331   1.405   4.749   8.591  0.9545 -0.1360 -0.4604
27146SOL    HW284332   1.476   4.718   8.461  0.9961  3.0613 -1.2795
27147SOL     OW84333   4.897  10.291   7.828  0.3142  0.4596  0.6720
27147SOL    HW184334   4.843  10.330   7.897  0.5113  0.8512  0.6019
27147SOL    HW284335   4.915  10.362   7.767 -0.9249 -0.1508 -0.4704
27148SOL     OW84336   6.956   6.209   5.643  0.2685  0.3675  0.0911
27148SOL    HW184337   6.971   6.189   5.551  1.2111 -0.5470  0.4233
27148SOL    HW284338   6.871   6.168   5.662  0.3076  0.1196 -0.2485
27149SOL     OW84339  10.572   9.613   7.008 -0.5050 -0.0848  0.0607
27149SOL    HW184340  10.482   9.629   7.035 -0.4477  0.2808  0.0489
27149SOL    HW284341  10.567   9.534   6.954 -0.9323  0.3320 -0.5262
27150SOL     OW84342   8.997   6.091   0.242 -0.4581  0.1014  0.3616
27150SOL    HW184343   9.037   6.160   0.189 -1.3620  0.4207  0.0659
27150SOL    HW284344   8.987   6.130   0.329 -0.2435  0.0652  0.4025
27151SOL     OW84345   7.550   6.568   7.542  0.1216  0.2589  0.0081
27151SOL    HW184346   7.548   6.615   7.458  1.5730  0.2178 -0.0760
27151SOL    HW284347   7.636   6.588   7.578 -0.6070  0.5280  1.6549
27152SOL     OW84348   0.129   5.976   7.945  0.0670  0.1653 -0.1579
27152SOL    HW184349   0.172   6.010   7.866  0.4624  2.2600  0.8826
27152SOL    HW284350   0.197   5.924   7.988  0.7630  1.2728  0.1380
27153SOL     OW84351   5.554   9.588   4.726 -0.0380 -0.0401  0.4930
27153SOL    HW184352   5.605   9.654   4.773  1.0663 -0.1467 -0.5020
27153SOL    HW284353   5.577   9.601   4.634 -2.8402  0.8049 -0.2000
27154SOL     OW84354   6.775   8.470   9.826  0.5022  0.0038 -0.7959
27154SOL    HW184355   6.738   8.383   9.837 -0.5227  0.3740 -1.2276
27154SOL    HW284356   6.804   8.473   9.735  1.3162 -0.1694 -0.5506
27155SOL     OW84357   1.285   7.487   0.794  0.1609 -0.3518 -0.0970
27155SOL    HW184358   1.264   7.560   0.735 -0.0130  0.5120  1.0037
27155SOL    HW284359   1.230   7.415   0.763 -0.5170  0.3222 -0.5020
27156SOL     OW84360   7.538   3.001   0.969  0.2789  0.3283  0.4201
27156SOL    HW184361   7.484   2.988   0.891  1.1642  0.6757 -0.2687
27156SOL    HW284362   7.603   2.931   0.964  1.8313  1.7718 -0.4883
27157SOL     OW84363   6.677   6.570   9.882 -0.0317  0.5468  0.4279
27157SOL    HW184364   6.715   6.589   9.967  1.4033 -0.3567  0.0348
27157SOL    HW284365   6.598   6.520   9.902  0.5702 -0.1158  1.2368
27158SOL     OW84366   7.637   7.605   6.581 -0.0829  0.6395  0.4485
27158SOL    HW184367   7.666   7.695   6.566  1.5153  0.1703  0.5247
27158SOL    HW284368   7.708   7.564   6.631 -1.3416 -0.3299  1.5335
27159SOL     OW84369   6.688   8.143   1.876  0.0567  0.5460  0.6931
27159SOL    HW184370   6.736   8.222   1.898 -2.8580  2.1898  1.7326
27159SOL    HW284371   6.656   8.158   1.787  2.3830 -1.1357 -0.5494
27160SOL     OW84372   4.690   0.129   3.011  0.0362  0.6751  0.1635
27160SOL    HW184373   4.627   0.066   2.975 -0.7660  1.4983  0.0663
27160SOL    HW284374   4.697   0.196   2.942 -1.3061  2.1395  1.3818
27161SOL     OW84375   9.839   3.532   4.501  0.2198 -0.0814 -0.7840
27161SOL    HW184376   9.816   3.625   4.491 -0.5127 -0.2912 -1.1260
27161SOL    HW284377   9.909   3.518   4.437 -0.2756  0.0352 -1.3678
27162SOL     OW84378   8.595   4.148   8.729  0.1684 -0.1697 -0.3614
27162SOL    HW184379   8.644   4.219   8.771  1.4560 -0.8726 -0.6218
27162SOL    HW284380   8.503   4.177   8.732  0.5337  0.9765  0.5559
27163SOL     OW84381   4.794   0.110   1.354  0.2804 -0.5765 -0.4501
27163SOL    HW184382   4.712   0.061   1.368  1.3885 -1.9533  1.9059
27163SOL    HW284383   4.767   0.202   1.351 -1.3577 -0.9961  0.2759
27164SOL     OW84384   2.259   4.002   2.959 -0.5921  0.0902 -0.4172
27164SOL    HW184385   2.297   3.963   3.038 -1.5500  0.8927  0.4493
27164SOL    HW284386   2.282   3.940   2.889 -2.4629 -2.3417  0.9714
27165SOL     OW84387   4.451   0.486   1.599 -0.1847 -0.5540 -0.0872
27165SOL    HW184388   4.420   0.570   1.565  1.7317 -0.9442 -3.3346
27165SOL    HW284389   4.422   0.483   1.689 -1.8292  2.8112 -0.3717
27166SOL     OW84390   1.679   7.808   9.659 -0.3703 -0.3471 -0.0527
27166SOL    HW184391   1.691   7.815   9.564  1.8503 -2.1493  0.0109
27166SOL    HW284392   1.673   7.899   9.689  1.2382  0.3575 -1.6771
27167SOL     OW84393   5.905  10.502   2.655 -0.2397 -0.1342  0.5858
27167SOL    HW184394   5.826  10.486   2.604  0.1316  0.5573 -0.2358
27167SOL    HW284395   5.938  10.415   2.677 -1.4965 -0.4237  1.3748
27168SOL     OW84396   4.886  10.149   7.274 -0.1299 -0.3815  0.5317
27168SOL    HW184397   4.900  10.236   7.239  0.3127 -0.5379  0.3103
27168SOL    HW284398   4.861  10.163   7.365 -2.4543  0.0837 -0.1160
27169SOL     OW84399   5.202   9.972   6.540  0.1215 -0.2871 -0.5180
27169SOL    HW184400   5.239   9.941   6.622  1.3632 -2.2890 -1.7458
27169SOL    HW284401   5.108   9.953   6.547  0.1827 -0.2611  0.4980
27170SOL     OW84402  10.597   9.778   5.294  0.3768  0.6880  0.0403
27170SOL    HW184403  10.543   9.703   5.269  0.2822  0.4055  1.0467
27170SOL    HW284404  10.610   9.826   5.213  0.1303 -0.2183 -0.5524
27171SOL     OW84405   8.783  10.488   6.906 -0.3790  0.2700 -0.4056
27171SOL    HW184406   8.698  10.526   6.930 -2.1210 -2.9746 -0.7786
27171SOL    HW284407   8.804  10.429   6.979  1.0176  0.2414 -0.8138
27172SOL     OW84408   3.602   4.948   8.011  0.5059  0.1808 -0.0247
27172SOL    HW184409   3.644   4.938   8.097 -1.6603  0.4916  1.1534
27172SOL    HW284410   3.611   4.863   7.970  0.5360 -0.3552  1.0487
27173SOL     OW84411   3.734   2.154   2.161  0.2457 -0.1000 -0.2365
27173SOL    HW184412   3.667   2.121   2.101  0.7143 -2.2593  0.3411
27173SOL    HW284413   3.814   2.108   2.137  0.8376  0.2415  0.9644
27174SOL     OW84414   5.649   3.561   7.101  0.2037 -0.1232 -0.3525
27174SOL    HW184415   5.744   3.548   7.098  0.3801  0.1967  1.7815
27174SOL    HW284416   5.636   3.652   7.074  0.4382 -0.3044 -1.0972
27175SOL     OW84417   9.233   1.722   7.980 -0.4156 -0.1810 -0.3341
27175SOL    HW184418   9.163   1.679   8.028  0.0718 -1.1030 -0.4116
27175SOL    HW284419   9.240   1.672   7.899  0.2786 -0.0603 -0.3560
27176SOL     OW84420   7.280   1.600  10.763 -0.0864  0.2960 -0.4121
27176SOL    HW184421   7.263   1.508  10.742 -2.1663  1.0816 -2.5525
27176SOL    HW284422   7.370   1.600  10.796 -0.0769 -2.5116 -0.1556
27177SOL     OW84423   8.927   4.261  10.004 -0.1158 -0.4285  0.4121
27177SOL    HW184424   8.944   4.192   9.940 -2.6992  0.8831 -1.8977
27177SOL    HW284425   8.970   4.338   9.968 -1.1708  0.2144  0.4813
27178SOL     OW84426   8.820   4.101   5.848  0.0475  0.6754 -0.1047
27178SOL    HW184427   8.851   4.022   5.893 -0.2332  0.0273 -1.0106
27178SOL    HW284428   8.763   4.068   5.779 -0.1047  1.6824 -0.4769
27179SOL     OW84429   7.382   5.067   0.805  0.2187 -0.1903  0.0569
27179SOL    HW184430   7.293   5.034   0.820  1.0631 -3.1703 -0.6996
27179SOL    HW284431   7.376   5.119   0.725 -0.8864 -0.0896  0.1907
27180SOL     OW84432   7.347   5.450   6.554 -0.3789  0.4264 -0.3939
27180SOL    HW184433   7.417   5.500   6.512  0.0922  0.6120  0.5716
27180SOL    HW284434   7.280   5.440   6.487  0.7678 -0.1513 -1.4813
27181SOL     OW84435   9.064   8.868  10.766 -0.0362 -0.0450 -0.5940
27181SOL    HW184436   8.971   8.851  10.781 -0.3869  0.7227 -1.7592
27181SOL    HW284437   9.086   8.812  10.691 -0.3181  1.8285 -2.1692
27182SOL     OW84438   5.662   9.955   0.477  0.4220 -1.2049 -0.7170
27182SOL    HW184439   5.582   9.988   0.436  0.0245 -1.2060  0.0424
27182SOL    HW284440   5.668   9.864   0.448  0.9725 -0.7882 -1.9879
27183SOL     OW84441   6.111  10.492   4.579  0.1483 -0.5890 -0.1467
27183SOL    HW184442   6.052  10.416   4.587 -2.7821  1.4930 -0.4044
27183SOL    HW284443   6.156  10.496   4.663 -0.3651 -2.0497  0.2318
27184SOL     OW84444   0.887   2.335   5.026 -0.4293  0.1250 -0.1742
27184SOL    HW184445   0.905   2.249   5.063  0.0472 -0.1074 -0.9275
27184SOL    HW284446   0.812   2.367   5.076  0.3089 -0.0889  1.1144
27185SOL     OW84447   2.457   2.843   3.700  0.3105 -0.4570 -0.2319
27185SOL    HW184448   2.506   2.780   3.753  1.0950  2.2554  2.5067
27185SOL    HW284449   2.524   2.891   3.652 -0.1466 -0.3960 -0.8226
27186SOL     OW84450   7.326   5.797   6.327  0.0790 -0.1823 -0.2353
27186SOL    HW184451   7.380   5.796   6.406  2.4062  1.2401 -1.7048
27186SOL    HW284452   7.297   5.888   6.319  2.1419  0.3898 -2.3597
27187SOL     OW84453   3.940   7.513   0.013  0.0936 -0.1335  0.0184
27187SOL    HW184454   3.844   7.504   0.011  0.0179  0.6388 -1.6093
27187SOL    HW284455   3.963   7.502   0.105 -1.3529 -2.3170  0.1994
27188SOL     OW84456   8.920   2.235   4.699  0.1838  0.1863 -0.1567
27188SOL    HW184457   8.831   2.203   4.686 -0.3767  1.4566  0.3341
27188SOL    HW284458   8.910   2.308   4.761  1.3026  1.5697 -1.5332
27189SOL     OW84459   9.236  10.779   9.964 -0.0363  0.4117  0.7051
27189SOL    HW184460   9.257  10.750  10.053 -0.0453 -1.7172  0.0775
27189SOL    HW284461   9.321  10.799   9.925  0.1218 -0.2473  0.6982
27190SOL     OW84462   8.131   1.218   3.803  0.5146 -0.7154 -0.2896
27190SOL    HW184463   8.110   1.125   3.813  0.5552 -0.7976 -0.9525
27190SOL    HW284464   8.207   1.232   3.860  0.5034 -1.0899 -0.1845
27191SOL     OW84465   4.138   9.557   9.601 -0.1326  0.3151 -0.0756
27191SOL    HW184466   4.132   9.602   9.517  0.8968  2.8106  1.0950
27191SOL    HW284467   4.180   9.473   9.580  0.4874  1.0501 -1.9747
27192SOL     OW84468   0.520   1.655   2.193 -0.4306 -0.2056  0.4547
27192SOL    HW184469   0.492   1.565   2.181 -1.9568  0.3055 -0.1120
27192SOL    HW284470   0.491   1.700   2.114  1.4154  0.5564  0.1632
27193SOL     OW84471   5.163   3.339   1.948 -1.0524  0.8204 -0.2391
27193SOL    HW184472   5.183   3.346   2.041  1.7965  1.6758 -0.8028
27193SOL    HW284473   5.116   3.256   1.939 -1.8017  0.9384  1.9694
27194SOL     OW84474   3.220   9.405   7.389  0.9033 -0.6297 -0.1559
27194SOL    HW184475   3.287   9.404   7.320  0.3494  0.2877 -0.7242
27194SOL    HW284476   3.199   9.497   7.400 -1.2336 -0.9800 -0.9376
27195SOL     OW84477   0.908   2.939   3.333  0.0300  0.7608  0.6628
27195SOL    HW184478   0.978   2.893   3.287 -1.7562 -1.2233 -0.2257
27195SOL    HW284479   0.884   2.881   3.405  1.1858  2.7600  2.8283
27196SOL     OW84480   8.522   2.256   1.635  0.7482  0.2587  0.2051
27196SOL    HW184481   8.473   2.318   1.690 -1.1870 -0.5002 -0.5712
27196SOL    HW284482   8.525   2.176   1.687  1.7857  0.4805  0.5147
27197SOL     OW84483   6.195   6.653  10.239 -0.1386 -0.0514  0.0076
27197SOL    HW184484   6.135   6.582  10.259  0.2088 -0.3497  0.0094
27197SOL    HW284485   6.214   6.643  10.146  0.9691 -0.7966  0.2956
27198SOL     OW84486   0.233   0.463   8.779  0.3122 -0.1697  0.2108
27198SOL    HW184487   0.286   0.431   8.852 -1.5351 -1.0530  1.2131
27198SOL    HW284488   0.184   0.387   8.749 -0.2531  0.5749 -0.8199
27199SOL     OW84489   0.585   2.711   3.326 -0.4713  0.1906 -0.0229
27199SOL    HW184490   0.589   2.807   3.334 -0.5786  0.3291 -1.3272
27199SOL    HW284491   0.668   2.688   3.283  0.1847 -0.4791  1.5353
27200SOL     OW84492   4.176  10.786   1.210 -0.9414 -0.2557 -0.7037
27200SOL    HW184493   4.194  10.795   1.303 -0.6949 -0.0097 -0.7729
27200SOL    HW284494   4.094  10.737   1.206 -0.9931 -0.2016 -0.3576
27201SOL     OW84495  10.130   7.783   9.701 -0.0395 -0.7940 -0.1382
27201SOL    HW184496  10.223   7.802   9.711  0.0783 -0.8084 -1.1295
27201SOL    HW284497  10.087   7.843   9.762  0.5959 -0.5740  0.1071
27202SOL     OW84498   0.986   9.656   4.950 -0.4118 -0.1547  0.1140
27202SOL    HW184499   0.903   9.678   4.993 -1.6831 -1.0923 -1.6825
27202SOL    HW284500   1.012   9.736   4.904 -2.2020 -0.7119 -2.0732
27203SOL     OW84501   1.754   9.022   8.410 -0.3798  0.0757 -0.0738
27203SOL    HW184502   1.722   9.025   8.500  0.5313 -1.0308  0.3079
27203SOL    HW284503   1.689   9.072   8.360  0.4043  2.8958  1.5508
27204SOL     OW84504  10.229   0.476   0.464  0.7608 -0.0968  0.0449
27204SOL    HW184505  10.313   0.511   0.493  0.2823  0.7455  0.4941
27204SOL    HW284506  10.171   0.490   0.539 -0.1830  0.9137 -0.8295
27205SOL     OW84507   4.813   0.505   8.202 -0.2230 -0.0245  0.1157
27205SOL    HW184508   4.886   0.462   8.157  1.0362  1.3689  0.7270
27205SOL    HW284509   4.816   0.471   8.291 -1.4133 -1.2223 -0.2716
27206SOL     OW84510   1.963   4.896   1.516 -0.2155  0.2743 -0.0679
27206SOL    HW184511   2.013   4.978   1.511 -2.2698  1.6176 -0.2697
27206SOL    HW284512   1.951   4.882   1.610  0.5682 -0.0882 -0.0167
27207SOL     OW84513   0.796   8.727   8.128  0.8159 -0.0824  0.1593
27207SOL    HW184514   0.839   8.642   8.114  1.7572  0.3619  0.2887
27207SOL    HW284515   0.830   8.757   8.212 -1.7415 -0.8843  1.5717
27208SOL     OW84516   7.761   1.990   0.104  0.0584 -0.0137  0.5345
27208SOL    HW184517   7.789   2.021   0.017 -1.7777  1.2621  0.3587
27208SOL    HW284518   7.720   1.905   0.087 -1.4929  0.8266 -0.0785
27209SOL     OW84519   3.193   8.349   3.189  0.3337 -0.2003 -0.2668
27209SOL    HW184520   3.273   8.334   3.139  0.1580  1.0947 -0.9910
27209SOL    HW284521   3.133   8.390   3.126 -0.3563  0.2462  0.6577
27210SOL     OW84522   9.700   2.617  10.638  0.0716  0.5858 -0.5368
27210SOL    HW184523   9.696   2.651  10.549 -0.0875 -0.0630 -0.7850
27210SOL    HW284524   9.681   2.524  10.629  1.9815  0.1000 -0.0666
27211SOL     OW84525   4.167   2.720   0.166 -0.1525  0.0509 -0.0265
27211SOL    HW184526   4.194   2.793   0.110 -0.4879  1.0491  1.0696
27211SOL    HW284527   4.122   2.660   0.106 -0.8134  1.2536 -0.7879
27212SOL     OW84528   9.642   1.609   1.556  0.2639 -0.4122  0.0413
27212SOL    HW184529   9.644   1.588   1.463  1.6040  1.5151 -0.4336
27212SOL    HW284530   9.572   1.674   1.565  0.9013  0.2794  0.1329
27213SOL     OW84531   0.707   8.361   9.896  0.1085  0.6357  0.8489
27213SOL    HW184532   0.673   8.396   9.814 -0.7068  0.8167  1.2597
27213SOL    HW284533   0.689   8.428   9.961 -1.1496 -0.3551  1.5801
27214SOL     OW84534   5.995  10.794   1.163  0.5544  0.2150  0.1278
27214SOL    HW184535   6.054  10.830   1.230 -1.2492  0.9400  1.4171
27214SOL    HW284536   6.042  10.718   1.129  2.4828  1.0981  0.6428
27215SOL     OW84537   6.498   3.005   1.596 -1.0312 -0.3778  0.2046
27215SOL    HW184538   6.587   3.000   1.560 -0.9102  0.0511  0.4296
27215SOL    HW284539   6.493   3.093   1.634 -1.2980 -0.6667  0.8512
27216SOL     OW84540   7.653   6.234   2.696  0.4050 -0.5087 -0.3118
27216SOL    HW184541   7.592   6.233   2.622 -1.2888  1.3144  0.9402
27216SOL    HW284542   7.633   6.315   2.742  2.4330 -0.8558  1.3217
27217SOL     OW84543   1.208  10.032   4.105 -0.1878  0.3816 -0.7209
27217SOL    HW184544   1.210   9.953   4.052  1.8340  0.0665 -0.2610
27217SOL    HW284545   1.139  10.016   4.169 -1.4162  0.0133 -2.0860
27218SOL     OW84546  10.174   7.623   0.191 -0.5766  0.7880  1.0624
27218SOL    HW184547  10.108   7.621   0.260 -0.9518 -0.6497  0.6821
27218SOL    HW284548  10.159   7.544   0.140  0.8839  0.8735  0.4401
27219SOL     OW84549   4.719   5.541   4.313  0.3290  0.1622  0.1745
27219SOL    HW184550   4.629   5.506   4.310  0.6690 -0.7007 -0.5499
27219SOL    HW284551   4.721   5.607   4.244 -0.4228  1.9600  1.7904
27220SOL     OW84552   5.611   9.497   5.073  0.3737  0.0512  0.5575
27220SOL    HW184553   5.657   9.575   5.107  0.2450  0.4198 -0.1037
27220SOL    HW284554   5.623   9.501   4.979  0.4906 -0.8241  0.5299
27221SOL     OW84555   4.885   0.567   8.581  0.1074 -0.0586 -0.0861
27221SOL    HW184556   4.894   0.581   8.675 -1.0786 -0.3311  0.0778
27221SOL    HW284557   4.802   0.608   8.558 -0.8236 -2.0958 -0.5539
27222SOL     OW84558   8.275   1.848   2.972  0.2324  0.2570  0.4524
27222SOL    HW184559   8.276   1.863   3.067  0.4170 -0.2551  0.5392
27222SOL    HW284560   8.287   1.753   2.964 -1.1459  0.1040 -0.0318
27223SOL     OW84561   1.518   7.227   2.136 -0.2959  0.1877  0.6275
27223SOL    HW184562   1.487   7.180   2.213 -1.1586 -0.4179 -0.0730
27223SOL    HW284563   1.510   7.165   2.064 -2.8600  1.7615 -0.6022
27224SOL     OW84564   5.145  10.505   3.010  0.1171 -0.4987  0.0472
27224SOL    HW184565   5.197  10.540   3.082 -0.0949 -1.3288  0.6137
27224SOL    HW284566   5.210  10.482   2.943  0.3552 -0.1699  0.1619
27225SOL     OW84567   5.933   8.244   5.652 -0.0924 -0.2691 -0.0018
27225SOL    HW184568   5.949   8.231   5.558  1.8194 -0.0047  0.2503
27225SOL    HW284569   6.005   8.199   5.695 -0.4262  0.4178  1.3187
27226SOL     OW84570   2.371   3.979  10.294  0.3045  0.0265  0.3077
27226SOL    HW184571   2.462   4.006  10.278 -0.3339  1.4235 -1.3593
27226SOL    HW284572   2.377   3.917  10.366  2.9807 -2.6561 -1.9194
27227SOL     OW84573   6.680   6.896   0.649 -0.2280 -0.1221  0.2503
27227SOL    HW184574   6.755   6.942   0.686  1.7288 -0.3424 -2.9976
27227SOL    HW284575   6.604   6.939   0.687  1.5219  3.0498  0.5203
27228SOL     OW84576   7.904   5.135   0.330 -0.1630  0.0722  0.6009
27228SOL    HW184577   7.911   5.042   0.351  0.6738 -0.0720 -0.2458
27228SOL    HW284578   7.970   5.149   0.262  0.4595  1.5064  1.4497
27229SOL     OW84579   7.161   1.580   8.233 -0.4132 -0.2306  0.5395
27229SOL    HW184580   7.220   1.575   8.308  0.3697 -1.3356 -0.1232
27229SOL    HW284581   7.190   1.510   8.174  0.8399  2.3523 -2.1440
27230SOL     OW84582   4.251   2.439   6.595 -0.1251 -0.4050  0.1402
27230SOL    HW184583   4.292   2.467   6.513  1.5716 -1.6113  0.5285
27230SOL    HW284584   4.283   2.501   6.661 -1.8086  0.8184 -0.0941
27231SOL     OW84585   2.409   5.037   9.069  0.3218 -0.0370  0.5270
27231SOL    HW184586   2.331   5.076   9.029  0.8427  0.8522  0.3693
27231SOL    HW284587   2.436   5.101   9.135  1.1774 -0.1396  0.2802
27232SOL     OW84588   5.233   1.888   9.838  0.6163 -0.3140  0.6007
27232SOL    HW184589   5.246   1.793   9.844 -0.4024 -0.5068 -0.0339
27232SOL    HW284590   5.319   1.925   9.857  0.8688 -1.3387  1.5722
27233SOL     OW84591   6.355   7.793   4.507  0.6630  0.1181 -0.3303
27233SOL    HW184592   6.363   7.862   4.574 -1.8166  0.3867 -0.2085
27233SOL    HW284593   6.408   7.825   4.434  2.8333  0.1740  1.1859
27234SOL     OW84594   3.349   1.338   7.836 -0.0806  0.3774 -0.8313
27234SOL    HW184595   3.255   1.350   7.819  0.1995  0.2623 -2.7155
27234SOL    HW284596   3.392   1.391   7.768  1.2019 -1.9775 -1.9610
27235SOL     OW84597  10.607   9.246   0.603  0.4619  0.0002 -0.2058
27235SOL    HW184598  10.620   9.241   0.697 -0.3048  0.7463 -0.0547
27235SOL    HW284599  10.632   9.159   0.571  0.4001 -0.3692  0.7169
27236SOL     OW84600   5.142   5.257   1.516  0.0316  0.2345  0.1837
27236SOL    HW184601   5.112   5.226   1.601 -1.0240 -0.1397 -0.3021
27236SOL    HW284602   5.092   5.337   1.500  1.3509  1.1792  0.5762
27237SOL     OW84603   4.667   9.586   5.835  0.1401  0.3750  0.6628
27237SOL    HW184604   4.650   9.583   5.741  2.0770  2.2945  0.1530
27237SOL    HW284605   4.706   9.673   5.849  1.2463 -0.4192  2.9993
27238SOL     OW84606   2.125   0.169   6.047  0.5329  0.3614  0.3819
27238SOL    HW184607   2.119   0.237   5.979 -0.8073  1.1613  1.2442
27238SOL    HW284608   2.126   0.087   5.999 -2.7143  0.7675 -0.6591
27239SOL     OW84609   0.163   5.416   7.538 -0.3592  0.0929  0.0670
27239SOL    HW184610   0.229   5.347   7.549 -1.3127 -0.9677 -0.6306
27239SOL    HW284611   0.109   5.411   7.617 -0.8475 -0.4284 -0.2992
27240SOL     OW84612   8.362   6.474   6.464 -0.2153 -0.1205  0.0798
27240SOL    HW184613   8.451   6.454   6.433 -0.7283 -0.2939 -1.4007
27240SOL    HW284614   8.373   6.498   6.555  1.5082  1.0144 -0.3786
27241SOL     OW84615   1.862   4.182   1.987 -0.6064 -0.8976  0.7038
27241SOL    HW184616   1.800   4.118   2.024 -2.9010  1.4467  1.1787
27241SOL    HW284617   1.809   4.259   1.967  1.8097  0.4632 -1.0569
27242SOL     OW84618   5.454   1.652   0.075 -0.0953 -0.1281 -0.1577
27242SOL    HW184619   5.405   1.690   0.002 -0.6697 -0.9450 -0.2149
27242SOL    HW284620   5.431   1.559   0.073  1.4661 -0.5315 -0.1821
27243SOL     OW84621   6.753   3.830   7.950 -0.1250 -0.3222 -0.6661
27243SOL    HW184622   6.764   3.746   7.995  1.8957  0.7107  0.9320
27243SOL    HW284623   6.662   3.853   7.965 -0.0391 -1.0055  1.1620
27244SOL     OW84624   0.658   6.045   3.163  0.6997 -0.4502  0.1841
27244SOL    HW184625   0.746   6.049   3.127  1.1464 -0.8394  1.2025
27244SOL    HW284626   0.600   6.050   3.087  1.5507  1.3447 -0.3859
27245SOL     OW84627   4.836   5.825   6.803  0.0533 -0.2931 -0.2576
27245SOL    HW184628   4.896   5.890   6.841 -0.7541  1.2584 -1.5279
27245SOL    HW284629   4.797   5.781   6.879 -0.2087  1.4834  0.6863
27246SOL     OW84630  10.761   8.340   5.181  0.0956 -0.0587 -0.2098
27246SOL    HW184631  10.784   8.393   5.105  0.1870 -1.7270 -1.4010
27246SOL    HW284632  10.673   8.307   5.162 -0.4460  0.5465  1.0514
27247SOL     OW84633   6.249   5.335   6.955 -0.0226  0.1928 -0.0365
27247SOL    HW184634   6.253   5.297   7.043 -1.0544  1.2762  0.4942
27247SOL    HW284635   6.158   5.323   6.928  0.1597  0.3641 -0.7519
27248SOL     OW84636   4.871   1.121   2.596 -0.1342  0.0278 -0.1254
27248SOL    HW184637   4.824   1.201   2.570 -0.5646 -1.1540 -3.6000
27248SOL    HW284638   4.844   1.105   2.686 -1.8447  2.5293 -0.0873
27249SOL     OW84639  10.329   8.682   7.329  0.4129  0.0473 -0.2833
27249SOL    HW184640  10.402   8.707   7.385  0.1318  2.0342 -0.7317
27249SOL    HW284641  10.340   8.735   7.250  0.9219 -2.8015 -2.3048
27250SOL     OW84642   9.050   0.933   7.339 -0.5139 -0.0305  0.1685
27250SOL    HW184643   9.086   1.020   7.356 -0.3352  0.1543 -1.0375
27250SOL    HW284644   8.956   0.948   7.328 -0.7135 -0.2311  1.4365
27251SOL     OW84645   3.943   0.170  10.572 -0.5554 -0.4322  0.5150
27251SOL    HW184646   3.954   0.124  10.489 -0.9625 -2.0786  1.3400
27251SOL    HW284647   4.028   0.209  10.589 -0.8367  1.1637 -1.3399
27252SOL     OW84648   0.920   7.334   2.340 -0.1185  0.0473  0.2126
27252SOL    HW184649   0.942   7.242   2.327 -1.3545 -0.0722 -1.4951
27252SOL    HW284650   0.884   7.338   2.429  1.9761 -0.6546  1.1410
27253SOL     OW84651   0.007   9.607   6.342  0.4034 -0.1682 -0.2431
27253SOL    HW184652   0.027   9.518   6.313  1.3319 -0.1440  0.2648
27253SOL    HW284653   0.080   9.630   6.399 -0.7273  0.2416  1.1021
27254SOL     OW84654   9.200   2.914   0.017 -0.4338 -0.0330 -0.8001
27254SOL    HW184655   9.280   2.863   0.006 -1.4023 -1.5180 -1.2146
27254SOL    HW284656   9.218   2.969   0.094 -0.2741 -2.9307  1.4123
27255SOL     OW84657   6.266   8.617   1.742 -0.2095  0.0103 -0.1526
27255SOL    HW184658   6.203   8.547   1.723  2.3357 -2.9092  1.2887
27255SOL    HW284659   6.326   8.616   1.667 -0.6640  1.3429 -0.5567
27256SOL     OW84660   6.144   9.188   5.783  0.4664  0.8482  0.2885
27256SOL    HW184661   6.208   9.124   5.751  0.7933  0.8521  0.9173
27256SOL    HW284662   6.194   9.244   5.841 -0.2070  0.5615  1.1589
27257SOL     OW84663   2.076   5.091   5.918  0.0559 -0.5086  0.4372
27257SOL    HW184664   2.084   5.085   5.823  1.7677 -1.3550  0.5937
27257SOL    HW284665   2.037   5.177   5.934  2.2760  0.8453 -0.9416
27258SOL     OW84666   8.120   4.195   0.099 -0.3897 -0.0569  0.1762
27258SOL    HW184667   8.124   4.290   0.106 -3.8873  0.1337  1.5350
27258SOL    HW284668   8.183   4.163   0.164  0.1868  1.3193  0.3214
27259SOL     OW84669   3.173   7.069   0.338  0.4561 -0.1627  0.0088
27259SOL    HW184670   3.110   7.129   0.298 -0.4889 -0.8482  0.4485
27259SOL    HW284671   3.257   7.094   0.298 -0.2949 -0.1831 -1.6922
27260SOL     OW84672   8.705   8.376   2.955 -0.0896  0.2125 -0.3635
27260SOL    HW184673   8.611   8.367   2.967  0.1074 -1.7687  0.1213
27260SOL    HW284674   8.730   8.447   3.014 -1.3994  1.4761 -1.2758
27261SOL     OW84675   3.647   0.232   2.412 -0.2653 -0.4044 -0.2706
27261SOL    HW184676   3.686   0.160   2.463  1.3083 -0.4975 -1.5248
27261SOL    HW284677   3.585   0.190   2.353 -0.6001 -0.5242  0.1623
27262SOL     OW84678   2.118   9.567   8.275  0.0100 -0.1011  1.2883
27262SOL    HW184679   2.075   9.634   8.328 -1.5566 -1.3944  1.7274
27262SOL    HW284680   2.182   9.527   8.334 -0.0574  0.0556  1.4664
27263SOL     OW84681  10.559   9.639   0.124 -0.5046 -0.7422 -0.4631
27263SOL    HW184682  10.572   9.669   0.033  2.1538 -0.7669 -0.1726
27263SOL    HW284683  10.637   9.670   0.170 -2.7482  1.1304  2.3792
27264SOL     OW84684   6.229   5.844   9.719 -0.4607  0.8365 -0.2388
27264SOL    HW184685   6.240   5.936   9.744 -1.2628  0.9572 -0.2983
27264SOL    HW284686   6.159   5.811   9.776 -0.4422  0.3696 -0.4790
27265SOL     OW84687   9.445   4.549   7.715  0.6681 -0.2478 -0.3912
27265SOL    HW184688   9.361   4.537   7.760  0.1796  2.1768 -0.5286
27265SOL    HW284689   9.502   4.588   7.781  0.8109  0.7051 -1.0557
27266SOL     OW84690   6.137   3.822  10.468 -0.1181 -0.3985  0.3087
27266SOL    HW184691   6.065   3.873  10.506  1.0509  0.9641  0.7444
27266SOL    HW284692   6.113   3.811  10.376 -0.9619 -0.1342  0.4888
27267SOL     OW84693   9.616   5.991   2.113 -0.5726 -0.0694 -0.3644
27267SOL    HW184694   9.573   5.999   2.198 -0.6728  0.6370 -0.4807
27267SOL    HW284695   9.700   6.036   2.125  0.1767 -1.4814 -0.1206
27268SOL     OW84696  10.594   4.851   7.505 -0.8804  0.0152  0.1562
27268SOL    HW184697  10.606   4.941   7.474  0.2100 -0.3796 -0.6560
27268SOL    HW284698  10.629   4.851   7.594  0.7473  0.0276 -0.4500
27269SOL     OW84699   3.911  10.644   3.453 -0.0738  0.4029  0.8340
27269SOL    HW184700   3.891  10.737   3.462 -1.1817  0.3476 -0.7270
27269SOL    HW284701   3.826  10.601   3.447  0.3925 -0.3629 -1.3440
27270SOL     OW84702   4.879   8.270   3.408 -0.0519 -0.3375 -0.6064
27270SOL    HW184703   4.871   8.302   3.498  0.4897  0.5738 -0.8687
27270SOL    HW284704   4.827   8.189   3.406 -0.3684 -0.1688  0.4219
27271SOL     OW84705  10.137   6.404   4.350 -0.2945 -0.1566  0.8223
27271SOL    HW184706  10.211   6.356   4.315 -0.2127  0.2880  0.3788
27271SOL    HW284707  10.090   6.340   4.404  0.2983 -0.4889  0.9501
27272SOL     OW84708   6.177   0.581   9.024 -0.1574 -0.9902  0.8874
27272SOL    HW184709   6.269   0.594   9.001  0.3740 -0.9193  2.8551
27272SOL    HW284710   6.141   0.531   8.951  0.5205  1.8645 -1.6250
27273SOL     OW84711   0.691   2.280   4.755  0.2248  0.7211  0.1656
27273SOL    HW184712   0.736   2.206   4.795 -0.9021 -0.1446 -0.1171
27273SOL    HW284713   0.761   2.333   4.717  0.9666 -0.8863 -0.7941
27274SOL     OW84714  10.779   6.038   1.487 -0.0893 -0.1818  0.0732
27274SOL    HW184715  10.747   5.986   1.561 -0.2863  0.0955  0.1854
27274SOL    HW284716  10.785   5.976   1.415  0.2631 -0.4910  0.3646
27275SOL     OW84717   0.224   9.322   7.308 -0.0519  0.0203  0.3331
27275SOL    HW184718   0.134   9.333   7.276  0.9227  3.2596 -1.8755
27275SOL    HW284719   0.266   9.267   7.242  0.2719  1.0298 -0.3308
27276SOL     OW84720   5.907   5.768   6.324 -0.2807  0.3418 -0.1589
27276SOL    HW184721   5.869   5.806   6.244  0.9199 -0.1662 -0.9891
27276SOL    HW284722   5.888   5.833   6.392 -1.1063  0.9021 -0.8929
27277SOL     OW84723   8.019   2.791   4.671 -0.0383  0.6357  0.2555
27277SOL    HW184724   8.091   2.852   4.659  1.6090 -1.2190  0.2754
27277SOL    HW284725   7.992   2.802   4.762  1.4847  0.0674  0.7994
27278SOL     OW84726   9.170  10.740   9.159 -0.2131  0.3035  0.2274
27278SOL    HW184727   9.198  10.652   9.183  0.8081  0.8918  1.2827
27278SOL    HW284728   9.076  10.742   9.178  0.0766 -0.0562  1.8076
27279SOL     OW84729   1.094   8.685   5.993  0.6374  0.5908 -0.0133
27279SOL    HW184730   1.058   8.600   5.972 -0.8466  1.3591 -0.7206
27279SOL    HW284731   1.078   8.696   6.087  0.2572  0.3593 -0.0524
27280SOL     OW84732   1.784   2.377   9.835 -0.1479 -0.4128 -0.1729
27280SOL    HW184733   1.752   2.300   9.882  1.3080 -1.3843 -0.7000
27280SOL    HW284734   1.860   2.406   9.886  0.9478 -0.9843 -1.4235
27281SOL     OW84735  10.310   4.270   8.368  0.0261  0.4446 -0.2922
27281SOL    HW184736  10.227   4.295   8.408 -0.2275 -0.8444  0.0324
27281SOL    HW284737  10.313   4.320   8.286 -1.2927  0.1482 -0.5421
27282SOL     OW84738  10.333   9.276   1.526 -0.1167  0.9449 -0.8622
27282SOL    HW184739  10.319   9.359   1.573  0.8149  1.0726 -0.8063
27282SOL    HW284740  10.291   9.210   1.582  2.5387  0.8096  1.1753
27283SOL     OW84741   9.926   0.803  10.642  0.2221 -0.2291 -0.3754
27283SOL    HW184742   9.896   0.796  10.733  0.1167 -0.6580 -0.4418
27283SOL    HW284743  10.021   0.815  10.649  0.6171 -2.7640 -0.2515
27284SOL     OW84744   9.293   3.341   6.985  0.1139  0.4909 -0.2942
27284SOL    HW184745   9.355   3.414   6.995  0.3097  0.1229  1.6133
27284SOL    HW284746   9.221   3.378   6.936 -0.2085  2.3105  1.3989
27285SOL     OW84747   4.105   9.419   2.977 -0.3122  0.2861  0.0901
27285SOL    HW184748   4.118   9.508   2.943  0.1257  0.1141 -0.1896
27285SOL    HW284749   4.024   9.425   3.028  1.6238  1.7963  3.2825
27286SOL     OW84750   9.329   5.368   3.028  0.6595 -0.2914  0.2909
27286SOL    HW184751   9.306   5.355   2.936  1.8524 -0.7586  0.0460
27286SOL    HW284752   9.247   5.394   3.070 -0.0866 -0.9545 -0.7274
27287SOL     OW84753   3.393   5.891   6.161 -0.5046 -0.1246 -0.5601
27287SOL    HW184754   3.373   5.899   6.254 -0.5125 -2.8377 -0.2478
27287SOL    HW284755   3.480   5.929   6.152 -1.1390  1.5968  0.2137
27288SOL     OW84756   0.261   0.024   8.535 -0.5022 -0.2296  0.1038
27288SOL    HW184757   0.185  -0.027   8.506  0.0297  0.0408 -1.9471
27288SOL    HW284758   0.306   0.047   8.454  0.7594  1.2012  1.1599
27289SOL     OW84759   9.930   7.422   2.448  0.3204 -0.6475 -0.0731
27289SOL    HW184760   9.971   7.369   2.517 -3.4250 -2.3981  1.0597
27289SOL    HW284761   9.913   7.361   2.377 -0.4702 -0.0345 -0.4211
27290SOL     OW84762   4.258   1.331   4.078  0.5337  0.1070 -0.4002
27290SOL    HW184763   4.336   1.345   4.132  0.2548 -0.7475  0.2331
27290SOL    HW284764   4.276   1.380   3.997  2.0165 -0.6460 -0.5484
27291SOL     OW84765   1.510   9.755   1.672 -0.3895 -0.0898  0.9925
27291SOL    HW184766   1.572   9.686   1.696 -1.2168 -0.7657  1.2532
27291SOL    HW284767   1.431   9.735   1.724 -1.1822  0.1434 -0.0984
27292SOL     OW84768   4.297   3.564   3.111 -0.2940 -0.2805 -0.1978
27292SOL    HW184769   4.335   3.645   3.078 -2.0258  0.7523  0.2394
27292SOL    HW284770   4.220   3.550   3.057 -0.5105 -1.1649  0.3198
27293SOL     OW84771  10.693   8.304   5.503 -0.0728 -0.0902  0.2782
27293SOL    HW184772  10.734   8.375   5.552  3.0383 -0.7072 -1.2045
27293SOL    HW284773  10.715   8.225   5.551 -1.3999 -0.3152  0.5686
27294SOL     OW84774   6.098   1.153   4.739  0.6461 -0.2885 -0.2210
27294SOL    HW184775   6.072   1.158   4.831  0.2940  0.1683 -0.3424
27294SOL    HW284776   6.194   1.162   4.741  0.5786  0.4720  0.0490
27295SOL     OW84777  10.221   1.626   4.575 -0.0379  0.1234 -0.2885
27295SOL    HW184778  10.267   1.543   4.590  0.0535  0.3171  0.5476
27295SOL    HW284779  10.227   1.672   4.659  0.7519  1.3969 -1.0101
27296SOL     OW84780   4.779   8.099   3.850  0.0115  0.0067  0.3107
27296SOL    HW184781   4.694   8.099   3.894 -0.3664  1.1943 -0.3519
27296SOL    HW284782   4.821   8.018   3.878 -1.3590 -0.6276  0.6102
27297SOL     OW84783   3.213  10.511   2.792  0.1908 -0.2543 -0.2841
27297SOL    HW184784   3.308  10.504   2.801  0.1993 -0.3925 -0.4664
27297SOL    HW284785   3.177  10.446   2.851  0.2463 -1.1937 -1.2472
27298SOL     OW84786   3.740   6.292   8.662 -0.1279  0.3651  0.0769
27298SOL    HW184787   3.774   6.341   8.587  0.5994 -2.4717 -1.5950
27298SOL    HW284788   3.814   6.288   8.723  0.0442  0.6384 -0.1080
27299SOL     OW84789  10.324   2.480   8.477 -0.1199 -0.1266  0.3289
27299SOL    HW184790  10.414   2.448   8.468 -0.2272 -0.0577 -1.3209
27299SOL    HW284791  10.307   2.528   8.395 -1.0801  1.3562  1.3362
27300SOL     OW84792   9.417   8.110  10.002 -0.8619 -0.1249 -0.0775
27300SOL    HW184793   9.386   8.090  10.090 -0.3741 -1.1147 -0.1157
27300SOL    HW284794   9.357   8.062   9.944  0.6484 -2.0355 -0.1506
27301SOL     OW84795   1.700   2.447   4.743 -0.3923  0.1005 -0.3279
27301SOL    HW184796   1.766   2.492   4.795 -0.7120  2.3944 -1.7858
27301SOL    HW284797   1.747   2.417   4.665 -0.7446  0.3634 -0.6456
27302SOL     OW84798   9.788   8.314   0.517 -0.1300  0.2674  0.1683
27302SOL    HW184799   9.797   8.363   0.435  1.1065  2.0539  1.3019
27302SOL    HW284800   9.725   8.364   0.569 -0.7803 -0.7570  0.4008
27303SOL     OW84801   5.284   5.777   6.839  0.3383  0.2505  0.4455
27303SOL    HW184802   5.249   5.851   6.790 -0.7274  0.3959  1.3656
27303SOL    HW284803   5.374   5.767   6.808 -0.4055  0.0657 -1.8059
27304SOL     OW84804   0.627   5.440   5.611 -0.0946 -0.1359 -0.4741
27304SOL    HW184805   0.575   5.442   5.691  1.0313 -2.6852  0.4559
27304SOL    HW284806   0.697   5.504   5.625 -0.3336 -0.0360  0.2818
27305SOL     OW84807   8.973   4.090   7.493  0.3335 -0.3641  0.0463
27305SOL    HW184808   8.999   4.159   7.431  0.6163 -1.0107 -0.5725
27305SOL    HW284809   8.999   4.009   7.449 -2.4102 -1.0525 -0.4602
27306SOL     OW84810   0.148   1.934   1.345  0.5460 -0.1821  0.2033
27306SOL    HW184811   0.147   1.869   1.274  0.3665 -0.5012  0.4939
27306SOL    HW284812   0.057   1.959   1.356  0.3887 -1.0909  1.1750
27307SOL     OW84813   9.345   0.332   1.744  0.3476  0.2173  0.3861
27307SOL    HW184814   9.327   0.341   1.651 -1.1235 -0.0743  0.6168
27307SOL    HW284815   9.435   0.299   1.749  0.5568  0.5691 -0.9057
27308SOL     OW84816   9.780   8.179   8.811  0.1902  0.2164 -0.2886
27308SOL    HW184817   9.809   8.111   8.750 -2.9214 -0.8205 -0.8049
27308SOL    HW284818   9.729   8.240   8.756 -0.7486  0.5163  0.8738
27309SOL     OW84819   9.437  10.792   9.152  0.0514  1.0305  0.2241
27309SOL    HW184820   9.433  10.880   9.116  1.0408  0.8558 -0.3543
27309SOL    HW284821   9.348  10.773   9.179 -0.2790  2.0019 -0.1382
27310SOL     OW84822   9.666   0.545   3.560 -0.4673 -0.6169 -0.4768
27310SOL    HW184823   9.692   0.453   3.566  1.6710  0.0375  2.5165
27310SOL    HW284824   9.571   0.545   3.574 -0.5896 -2.3784 -1.1112
27311SOL     OW84825  10.387   9.063  10.762 -0.0928  0.4039 -0.5506
27311SOL    HW184826  10.449   8.991  10.755  0.2507  0.4199  1.6108
27311SOL    HW284827  10.337   9.045  10.842  0.1392  2.6433  0.1817
27312SOL     OW84828   2.453   6.055   4.838 -0.6131 -0.3055 -0.1276
27312SOL    HW184829   2.541   6.091   4.850  0.1267 -1.4654 -1.6904
27312SOL    HW284830   2.396   6.132   4.835  0.4194  0.5071  0.3492
27313SOL     OW84831   6.576   3.985   0.532 -0.1251 -0.3444 -0.2837
27313SOL    HW184832   6.512   4.054   0.552  1.2989  0.7617  0.6340
27313SOL    HW284833   6.525   3.904   0.538 -1.8214  0.5817 -1.2955
27314SOL     OW84834   3.734   3.732   1.204  0.2786 -0.9498  0.0216
27314SOL    HW184835   3.733   3.764   1.294 -1.5506  0.7614 -0.5299
27314SOL    HW284836   3.660   3.671   1.200  1.0530 -1.9145 -0.0696
27315SOL     OW84837   4.286   1.399   2.298  0.0280 -0.2076 -0.2580
27315SOL    HW184838   4.255   1.431   2.213 -1.1731  0.1926  0.3079
27315SOL    HW284839   4.371   1.441   2.310 -1.1238  2.1804  0.0819
27316SOL     OW84840   4.337   2.241   0.426  0.1652  0.2733 -0.7733
27316SOL    HW184841   4.266   2.305   0.431 -1.1582 -1.0949 -1.1826
27316SOL    HW284842   4.302   2.163   0.470  1.5759 -0.3159 -0.6310
27317SOL     OW84843  10.741   1.800   6.871 -0.7135 -0.4433 -0.2203
27317SOL    HW184844  10.728   1.772   6.780 -1.4965 -0.7539 -0.0194
27317SOL    HW284845  10.709   1.726   6.923 -0.1585 -0.3147  0.3136
27318SOL     OW84846   2.712   9.414   4.285  0.1943 -0.1177 -0.1059
27318SOL    HW184847   2.745   9.360   4.213 -0.3924 -0.2268 -0.3002
27318SOL    HW284848   2.782   9.413   4.350  0.9479  0.3866 -0.8731
27319SOL     OW84849   6.178   7.394   0.688  0.3971 -0.1977  0.1953
27319SOL    HW184850   6.246   7.457   0.712  1.2916 -1.0386 -0.0939
27319SOL    HW284851   6.223   7.328   0.637 -0.2656 -1.7391  1.5187
27320SOL     OW84852   4.279   6.558   0.501 -0.8095 -0.1655 -0.0097
27320SOL    HW184853   4.224   6.607   0.440  0.3509  0.1094 -0.8691
27320SOL    HW284854   4.295   6.474   0.458  0.3445  0.1822 -0.2930
27321SOL     OW84855   2.703   5.281   5.569 -0.0186  0.7393  0.3877
27321SOL    HW184856   2.609   5.296   5.567 -0.0805  0.3731  0.5192
27321SOL    HW284857   2.726   5.261   5.478 -0.3145 -0.6246  0.5894
27322SOL     OW84858  10.722  10.098   2.628  0.6129  0.0281 -0.0580
27322SOL    HW184859  10.742  10.134   2.714 -0.5550 -1.2259  0.7866
27322SOL    HW284860  10.783  10.025   2.617  2.0285  1.2894 -1.1605
27323SOL     OW84861   6.470   4.707   5.090 -0.4416  0.0832  0.3414
27323SOL    HW184862   6.443   4.630   5.041 -0.2435  0.4754 -0.4053
27323SOL    HW284863   6.565   4.704   5.090 -0.3991 -1.0896  2.6384
27324SOL     OW84864   0.370   4.404   4.017  0.1623  0.2253 -0.4286
27324SOL    HW184865   0.322   4.436   3.942 -0.1013  0.8169 -0.0090
27324SOL    HW284866   0.305   4.395   4.086  0.4621  0.0034 -0.1679
27325SOL     OW84867   1.060   3.102   4.388  0.0156 -0.5980  0.5531
27325SOL    HW184868   1.013   3.183   4.410  1.7148  1.0501 -1.5247
27325SOL    HW284869   1.016   3.071   4.309  0.4994 -0.7132  0.3308
27326SOL     OW84870   4.793   0.967   3.552 -0.3207  0.1750 -0.3661
27326SOL    HW184871   4.778   1.060   3.535 -0.7235 -0.2496 -2.6920
27326SOL    HW284872   4.869   0.945   3.499 -1.1065 -1.1155 -1.0218
27327SOL     OW84873   6.025   3.641  10.691  0.1768  0.1436 -0.0211
27327SOL    HW184874   6.077   3.654  10.611 -0.6797  3.2097 -0.1948
27327SOL    HW284875   6.021   3.546  10.701  0.4041 -0.3807 -3.5612
27328SOL     OW84876  10.329  10.373   2.082  0.1773 -0.2954  0.8615
27328SOL    HW184877  10.285  10.368   1.997  0.5876  1.2100  0.5286
27328SOL    HW284878  10.295  10.299   2.131 -1.2892 -0.2583 -0.0472
27329SOL     OW84879   3.542   4.482   5.373  0.0695 -0.1020 -0.0849
27329SOL    HW184880   3.586   4.406   5.335 -0.1203 -0.6931  0.8417
27329SOL    HW284881   3.606   4.552   5.367  0.8449 -0.7403  0.4824
27330SOL     OW84882   7.948   9.530   2.963  0.5173  0.0143 -0.1749
27330SOL    HW184883   7.860   9.500   2.943 -0.8094  2.4497  1.5157
27330SOL    HW284884   7.973   9.480   3.040 -1.0469  1.8969  1.6798
27331SOL     OW84885   3.733   0.916   0.459  0.0549 -0.5916 -0.0116
27331SOL    HW184886   3.814   0.866   0.452 -0.1661 -1.4512  2.4416
27331SOL    HW284887   3.693   0.885   0.541 -0.5545  2.9123  1.2031
27332SOL     OW84888   6.897   1.846   1.940 -0.4910  0.4025  0.2299
27332SOL    HW184889   6.871   1.892   1.860 -0.3321  1.7880  0.9592
27332SOL    HW284890   6.827   1.782   1.955 -1.5747  1.5330  0.1040
27333SOL     OW84891   3.645   5.116   8.296 -0.2182 -0.3527 -0.6085
27333SOL    HW184892   3.627   5.182   8.362 -1.0716 -1.0797 -0.0897
27333SOL    HW284893   3.559   5.079   8.274  0.1191 -0.5642 -1.6588
27334SOL     OW84894   0.150   1.519   3.249 -0.0468 -0.4911  0.4106
27334SOL    HW184895   0.233   1.564   3.234  0.2409 -0.8794  0.7972
27334SOL    HW284896   0.119   1.495   3.162  0.5142 -0.8180  0.2968
27335SOL     OW84897  10.406  10.778   6.261 -0.0857  0.7031  0.2553
27335SOL    HW184898  10.462  10.795   6.337  1.8309 -1.0019 -0.6883
27335SOL    HW284899  10.462  10.796   6.186 -1.8228  1.9532 -0.8022
27336SOL     OW84900   8.908   7.788   2.936  0.2766  0.5090  0.0040
27336SOL    HW184901   8.899   7.699   2.971 -1.4772  0.3653 -0.6905
27336SOL    HW284902   8.818   7.819   2.929  0.6688  1.2956 -2.4161
27337SOL     OW84903  10.209   5.351  10.779 -0.7785 -0.5176  0.0963
27337SOL    HW184904  10.280   5.303  10.821 -1.0535  0.4193  1.7535
27337SOL    HW284905  10.130   5.302  10.801 -0.9526  0.1186  0.9598
27338SOL     OW84906  10.571   5.210   5.272  0.5996 -0.0978  0.2296
27338SOL    HW184907  10.504   5.261   5.226  1.3298 -1.3413 -2.3702
27338SOL    HW284908  10.649   5.265   5.268  0.6990 -0.2649 -0.1737
27339SOL     OW84909   1.419   1.946   9.364 -0.4566 -0.4177  0.1061
27339SOL    HW184910   1.339   1.997   9.379 -0.1640  0.3885 -0.9283
27339SOL    HW284911   1.478   2.007   9.318  0.4517 -1.2493  0.1301
27340SOL     OW84912  10.660   7.023   3.086  0.1248 -0.0133 -0.6811
27340SOL    HW184913  10.572   6.990   3.067  0.0220 -0.8850  1.1501
27340SOL    HW284914  10.651   7.119   3.081 -0.8565 -0.1005 -0.7956
27341SOL     OW84915   0.032   2.473   2.148 -0.0427 -0.4331 -0.0186
27341SOL    HW184916   0.118   2.510   2.170 -0.3005  0.2861 -0.1894
27341SOL    HW284917  -0.022   2.550   2.128 -0.9288 -0.8333  0.8058
27342SOL     OW84918   5.523   3.504   2.117 -0.3459 -0.3116 -0.1835
27342SOL    HW184919   5.467   3.440   2.074  0.1692 -0.3146 -0.8643
27342SOL    HW284920   5.583   3.451   2.170 -1.7642 -0.2670  1.5646
27343SOL     OW84921   4.959   9.732   5.148  0.1478  0.0620  0.1752
27343SOL    HW184922   4.893   9.664   5.159  0.2069 -0.1304 -0.5938
27343SOL    HW284923   5.042   9.687   5.159  0.2590 -0.3925 -2.0845
27344SOL     OW84924   3.259   2.991   9.348  0.3201 -0.0829 -0.6043
27344SOL    HW184925   3.176   2.966   9.306 -0.8045  0.3549  1.2142
27344SOL    HW284926   3.312   2.912   9.346 -1.3135 -1.2765  0.7831
27345SOL     OW84927   4.318   9.351   7.032  0.3652 -0.2521 -0.0501
27345SOL    HW184928   4.274   9.358   6.948  1.6628 -3.2621 -1.1089
27345SOL    HW284929   4.256   9.304   7.088  0.0627  0.4891  0.2461
27346SOL     OW84930  10.032   1.320   9.644 -0.1973 -0.1046  0.7351
27346SOL    HW184931   9.978   1.388   9.685 -0.1298 -0.2207  1.0174
27346SOL    HW284932  10.008   1.323   9.551  0.8874  1.3427  0.4579
27347SOL     OW84933   2.232   0.104   0.369 -0.3174 -0.9876 -0.1429
27347SOL    HW184934   2.168   0.171   0.346  0.2738 -0.3478  0.0300
27347SOL    HW284935   2.264   0.070   0.286 -0.3291 -0.7652 -0.2375
27348SOL     OW84936   0.780   2.171   8.916 -0.2147 -0.2602 -0.4052
27348SOL    HW184937   0.724   2.093   8.911  0.2829 -0.7620  1.2883
27348SOL    HW284938   0.864   2.138   8.949  0.1336  0.9365 -0.0526
27349SOL     OW84939   1.479  10.280   7.267  0.6836 -0.4791  0.4322
27349SOL    HW184940   1.505  10.355   7.213 -0.1100  0.6816  1.6029
27349SOL    HW284941   1.489  10.310   7.357 -1.8719 -0.9321  0.9601
27350SOL     OW84942   5.574   2.275   8.196  0.2343  0.1593  0.2075
27350SOL    HW184943   5.619   2.237   8.271  0.1392 -2.5098 -0.9753
27350SOL    HW284944   5.486   2.236   8.198 -0.3044  1.2798 -0.4268
27351SOL     OW84945   9.398   5.984   1.116 -0.1423 -0.5185  0.1055
27351SOL    HW184946   9.308   5.974   1.146  0.1621 -1.2934  0.8174
27351SOL    HW284947   9.438   6.043   1.179 -0.0056 -0.6298  0.1243
27352SOL     OW84948   0.377   1.393   1.569 -0.4176  0.3019  0.2304
27352SOL    HW184949   0.370   1.299   1.587  0.0696 -0.0320 -1.2396
27352SOL    HW284950   0.471   1.411   1.566 -0.4784  0.5207 -0.9545
27353SOL     OW84951   8.727   7.492   6.455 -0.1241 -0.2367 -0.5870
27353SOL    HW184952   8.639   7.456   6.461 -0.5378  0.9153  0.8608
27353SOL    HW284953   8.766   7.449   6.379 -1.2005 -2.3565 -0.0265
27354SOL     OW84954   4.363   7.979   8.903 -0.0140 -0.3044  0.1572
27354SOL    HW184955   4.437   7.919   8.895  0.1946 -0.1074  0.5748
27354SOL    HW284956   4.301   7.949   8.836  0.8718  0.1607 -0.9055
27355SOL     OW84957   4.897   2.755   9.559  0.2034 -0.0948  0.1361
27355SOL    HW184958   4.988   2.761   9.531  0.1961  0.3644  0.2006
27355SOL    HW284959   4.884   2.663   9.580  0.6482 -0.1637  0.1104
27356SOL     OW84960   8.737   8.278   1.170  0.0627 -0.2124  0.4640
27356SOL    HW184961   8.805   8.342   1.189 -1.6881  1.3577  1.8659
27356SOL    HW284962   8.723   8.233   1.253 -1.0529 -0.0257  0.3901
27357SOL     OW84963   9.497   6.450   1.380 -0.2501  0.8681 -0.0874
27357SOL    HW184964   9.488   6.412   1.468  1.0197  1.5622  0.3679
27357SOL    HW284965   9.588   6.481   1.377  0.5661 -1.4138 -2.5688
27358SOL     OW84966   4.439   8.060   5.309  0.5282 -0.3014 -0.0541
27358SOL    HW184967   4.499   8.119   5.264 -0.0174  0.5397  0.3008
27358SOL    HW284968   4.480   8.043   5.394 -1.2968  3.1411  1.7128
27359SOL     OW84969   3.485   2.312   2.268  0.4268 -0.0010  0.1273
27359SOL    HW184970   3.448   2.327   2.181  0.3593 -0.8457 -0.0073
27359SOL    HW284971   3.450   2.382   2.322 -0.9136 -0.4471 -0.1339
27360SOL     OW84972   4.697  10.536   7.328  0.6070 -0.7435  0.6408
27360SOL    HW184973   4.753  10.489   7.266  0.5469  0.7130 -0.5888
27360SOL    HW284974   4.611  10.537   7.287  0.4546 -0.1629  0.9520
27361SOL     OW84975   8.635  10.289   1.206 -0.0604 -0.2358 -0.5170
27361SOL    HW184976   8.699  10.361   1.200 -2.0834  1.7768  0.7478
27361SOL    HW284977   8.635  10.265   1.298  0.1058 -1.4491 -0.8189
27362SOL     OW84978   5.619   5.914   7.238 -0.1469 -0.4726 -0.2876
27362SOL    HW184979   5.530   5.886   7.219 -0.5068  0.7317 -0.4169
27362SOL    HW284980   5.660   5.923   7.152  0.2092 -1.3324 -0.2184
27363SOL     OW84981   8.503   3.895   0.959 -0.1699 -0.8540 -0.5643
27363SOL    HW184982   8.513   3.803   0.935  1.3481 -0.7058 -0.6166
27363SOL    HW284983   8.536   3.943   0.883  0.8724 -0.3139  0.2059
27364SOL     OW84984   4.206   1.523   9.077  0.2923 -0.1932  0.1534
27364SOL    HW184985   4.192   1.432   9.049 -1.6771  0.3567 -0.8269
27364SOL    HW284986   4.138   1.573   9.033  0.6992  1.6364  1.4576
27365SOL     OW84987   0.553   6.357   2.808  0.3255 -0.2052  0.7206
27365SOL    HW184988   0.559   6.423   2.739 -0.9300  1.2591  1.9346
27365SOL    HW284989   0.621   6.380   2.870  0.7764 -0.9000  0.4982
27366SOL     OW84990  10.506   4.503   3.575  0.6354  0.0988  0.6559
27366SOL    HW184991  10.499   4.580   3.631 -1.0404  1.2082 -0.9495
27366SOL    HW284992  10.435   4.445   3.604 -0.4150  0.7952 -0.3830
27367SOL     OW84993   8.245   5.429   6.094 -0.3659  0.1047  0.3219
27367SOL    HW184994   8.295   5.403   6.172 -0.9607  1.0782  1.0472
27367SOL    HW284995   8.219   5.519   6.111  0.0889  0.5803 -1.3340
27368SOL     OW84996   1.405   2.299   7.581 -0.3270  0.2379 -0.0401
27368SOL    HW184997   1.474   2.354   7.545  0.4691 -0.8063 -0.1634
27368SOL    HW284998   1.353   2.358   7.636  1.4495  0.7896  1.1179
27369SOL     OW84999  10.409   8.138   1.028 -0.3747 -0.0701  0.0845
27369SOL    HW185000  10.454   8.197   0.968 -1.4962  1.1513  0.3870
27369SOL    HW285001  10.478   8.105   1.086  0.5801 -0.6122 -1.3096
27370SOL     OW85002   4.397   1.970   2.560 -0.1850  0.2648 -0.5810
27370SOL    HW185003   4.336   2.026   2.513 -1.3206 -0.5362 -0.0931
27370SOL    HW285004   4.342   1.906   2.606  1.0181 -3.0049 -3.2269
27371SOL     OW85005   0.704   7.846   4.324 -0.5328 -0.3241 -0.5113
27371SOL    HW185006   0.653   7.891   4.391 -0.0416 -1.5985  0.7555
27371SOL    HW285007   0.642   7.835   4.251 -1.8534 -1.1515  0.6915
27372SOL     OW85008   8.504   0.594   2.988  0.8318 -0.0939 -0.4347
27372SOL    HW185009   8.512   0.656   2.915  0.9180  1.2627  0.6929
27372SOL    HW285010   8.439   0.634   3.046  1.0342 -0.9764  0.4215
27373SOL     OW85011   3.427   6.389   1.852  0.0963  0.6139 -0.0984
27373SOL    HW185012   3.470   6.460   1.899  0.9820  0.5160 -0.7481
27373SOL    HW285013   3.346   6.374   1.901  0.5561  1.1377  0.8489
27374SOL     OW85014   2.763   7.498   6.952  0.2575  0.0625 -0.2834
27374SOL    HW185015   2.765   7.407   6.983  0.7961  0.6994  1.6701
27374SOL    HW285016   2.740   7.491   6.859 -1.1854 -1.9833  0.1620
27375SOL     OW85017   6.175   4.530   5.420  0.2702  0.4439  0.4585
27375SOL    HW185018   6.159   4.582   5.341  0.6564 -0.8906 -0.5335
27375SOL    HW285019   6.259   4.561   5.452  0.2459  0.8023  0.1828
27376SOL     OW85020   1.049   9.657   2.338  0.0352  0.2458 -0.0683
27376SOL    HW185021   1.087   9.710   2.408  0.0959  1.4269 -0.9658
27376SOL    HW285022   1.019   9.577   2.382 -1.3461  1.5863  1.5717
27377SOL     OW85023   5.539   4.529   1.175 -0.3972  0.2950  1.0210
27377SOL    HW185024   5.609   4.556   1.116 -1.3250 -0.6538 -0.6026
27377SOL    HW285025   5.522   4.438   1.151 -2.2502  0.5301  1.2964
27378SOL     OW85026   8.162   1.608   6.255  0.2224 -0.3430  0.6000
27378SOL    HW185027   8.093   1.596   6.189 -0.1835 -0.3973  1.0314
27378SOL    HW285028   8.225   1.538   6.236 -0.5866 -1.2447  1.1360
27379SOL     OW85029  10.501   2.123   1.978 -0.0264  0.4018 -0.5387
27379SOL    HW185030  10.560   2.152   2.048 -1.8102 -2.4932  2.5122
27379SOL    HW285031  10.420   2.172   1.994 -1.4614 -2.3590  1.6399
27380SOL     OW85032   2.221   1.235   3.308 -0.5334 -0.0449 -0.3572
27380SOL    HW185033   2.182   1.323   3.308  1.0062  0.7107  1.7584
27380SOL    HW285034   2.189   1.195   3.389  0.2662 -0.7293 -0.3668
27381SOL     OW85035   9.146   1.067   3.500  0.8465  0.0846  0.4170
27381SOL    HW185036   9.174   1.055   3.409  0.3180 -0.2106  0.2910
27381SOL    HW285037   9.201   1.139   3.533  2.2059 -0.8902  0.3726
27382SOL     OW85038   4.691  10.054   0.667  0.6341 -0.3665  0.1089
27382SOL    HW185039   4.652  10.093   0.745  1.8132  2.2168 -0.4840
27382SOL    HW285040   4.696  10.126   0.604  0.7989 -2.0741 -1.9706
27383SOL     OW85041   0.517   5.176   9.319  0.1138  0.0774  0.2785
27383SOL    HW185042   0.461   5.183   9.241  1.3296  1.4022 -0.5314
27383SOL    HW285043   0.471   5.227   9.385  0.3640  1.2323 -0.4056
27384SOL     OW85044   0.175   5.594   9.291  0.5739  0.3647  0.3157
27384SOL    HW185045   0.213   5.641   9.366  1.0226  0.1248  0.2434
27384SOL    HW285046   0.154   5.508   9.326  0.0208  0.5178  0.3719
27385SOL     OW85047   9.519   1.311   9.882  0.2299 -0.2403 -0.2486
27385SOL    HW185048   9.532   1.362   9.802 -1.1771  0.1494 -0.2481
27385SOL    HW285049   9.607   1.279   9.904  1.1107  1.8761 -0.4340
27386SOL     OW85050   0.123   3.244   2.747  0.4187  0.2320 -0.0649
27386SOL    HW185051   0.137   3.312   2.813 -1.0400  0.5182 -0.0172
27386SOL    HW285052   0.028   3.240   2.736  0.4065 -2.1241  0.2639
27387SOL     OW85053   4.073   5.931   9.623 -0.3455 -0.0230 -0.0647
27387SOL    HW185054   3.991   5.920   9.671 -0.5404 -1.1634 -0.6156
27387SOL    HW285055   4.113   5.844   9.624 -1.3309 -0.7113 -3.6536
27388SOL     OW85056   3.468   5.532   0.784  0.2272 -0.3540 -0.0759
27388SOL    HW185057   3.506   5.460   0.733 -2.8275 -1.5192 -0.9088
27388SOL    HW285058   3.442   5.597   0.718  0.7534  0.4404  0.4803
27389SOL     OW85059   3.936   3.927   0.631 -0.0716 -0.2173  0.0442
27389SOL    HW185060   4.006   3.980   0.593 -1.5692  0.8867 -1.3320
27389SOL    HW285061   3.975   3.888   0.710  2.3033 -0.3162 -1.0851
27390SOL     OW85062   1.851   1.422   5.327  0.7062  0.3649  0.5607
27390SOL    HW185063   1.865   1.453   5.417  1.9476  0.7415  0.2562
27390SOL    HW285064   1.894   1.488   5.272  1.8255 -0.9432 -0.1944
27391SOL     OW85065   2.572   8.993   1.119  0.3135  0.3806  0.2925
27391SOL    HW185066   2.626   8.915   1.113  0.4269  0.3850  1.1377
27391SOL    HW285067   2.523   8.995   1.036 -0.3417 -1.0680  0.6048
27392SOL     OW85068   8.649   1.179   6.864 -0.7354  0.2046 -0.5035
27392SOL    HW185069   8.583   1.246   6.883  1.1541  2.2788 -0.8960
27392SOL    HW285070   8.702   1.175   6.943 -0.0950  0.0774 -0.9353
27393SOL     OW85071   8.968   1.770   9.685  0.1514 -0.0738 -0.3193
27393SOL    HW185072   9.054   1.750   9.647  0.4228  0.2208  0.1365
27393SOL    HW285073   8.985   1.841   9.746 -0.4728  0.1864 -0.4458
27394SOL     OW85074   6.458   8.526   9.134  0.1532 -0.2686 -0.0455
27394SOL    HW185075   6.478   8.444   9.178  0.7178 -0.7830 -1.2059
27394SOL    HW285076   6.366   8.520   9.111 -0.3634  0.3446  1.6981
27395SOL     OW85077   9.031   0.158   1.084 -0.1099  0.5229  0.0706
27395SOL    HW185078   9.060   0.235   1.034  1.5711  0.2032  0.4882
27395SOL    HW285079   9.023   0.089   1.019 -1.8505  1.0726 -0.3442
27396SOL     OW85080   1.638   1.113   8.722  0.3373  0.4964 -0.1694
27396SOL    HW185081   1.653   1.050   8.652  1.6017  0.4505  0.1095
27396SOL    HW285082   1.546   1.103   8.745  0.6314 -1.6682  0.2640
27397SOL     OW85083   9.807   8.553   6.775 -0.2410  0.3804 -0.7198
27397SOL    HW185084   9.833   8.556   6.868 -1.3826 -1.5470 -0.2846
27397SOL    HW285085   9.715   8.529   6.777 -0.4400  0.8997 -2.3715
27398SOL     OW85086   3.704   3.276   9.834  0.0393 -0.1625 -0.3054
27398SOL    HW185087   3.650   3.285   9.756  0.0298 -2.1064 -0.5733
27398SOL    HW285088   3.702   3.183   9.854 -1.2342  0.4197  2.9404
27399SOL     OW85089   2.803   6.535   9.308  0.6145  0.1763 -0.4303
27399SOL    HW185090   2.825   6.620   9.271 -0.3269  0.5843 -0.0615
27399SOL    HW285091   2.877   6.514   9.365  0.7677  0.8273 -0.3852
27400SOL     OW85092   0.146   1.900   8.937  0.2655  0.2959  0.4077
27400SOL    HW185093   0.198   1.845   8.995  0.2790  2.0662  2.1779
27400SOL    HW285094   0.168   1.990   8.962 -1.5787  1.1121 -0.6780
27401SOL     OW85095   8.289   1.928   2.509  0.0184 -0.2037  0.9537
27401SOL    HW185096   8.198   1.898   2.518 -0.3926  0.5495 -0.4517
27401SOL    HW285097   8.299   1.948   2.416  1.3251  0.6725  1.2547
27402SOL     OW85098  10.391   0.197   5.532  0.4026 -0.7072  0.3039
27402SOL    HW185099  10.324   0.132   5.551 -0.1963 -0.7934 -1.8663
27402SOL    HW285100  10.448   0.196   5.609 -1.6809 -1.1075  1.9329
27403SOL     OW85101   7.103   2.339   4.485 -0.0765 -0.6361 -0.2107
27403SOL    HW185102   7.192   2.341   4.521  0.3969 -0.7871 -1.3328
27403SOL    HW285103   7.093   2.251   4.451 -0.5153 -0.4974 -0.4436
27404SOL     OW85104   0.994   1.686  10.290 -0.0347  0.3337 -0.4736
27404SOL    HW185105   0.948   1.682  10.206  0.0909  0.6520 -0.5597
27404SOL    HW285106   1.038   1.771  10.289  0.0930  0.2723 -0.1513
27405SOL     OW85107   8.085   2.971   8.149  0.0762 -0.1215 -0.3984
27405SOL    HW185108   8.070   2.987   8.056 -0.3863  1.6542 -0.0522
27405SOL    HW285109   7.998   2.954   8.185  0.3892 -2.0998 -0.4764
27406SOL     OW85110   7.062   6.346   9.471  0.1464 -0.2524  0.1310
27406SOL    HW185111   7.030   6.406   9.538 -2.9861 -2.1131  0.5117
27406SOL    HW285112   7.114   6.400   9.413 -0.6435  2.3352  1.6602
27407SOL     OW85113   0.126   1.725   1.556 -0.0781 -0.1413  0.5065
27407SOL    HW185114   0.179   1.776   1.494 -1.3516  0.3175 -0.2453
27407SOL    HW285115   0.035   1.746   1.533 -0.6294 -1.9791  0.8545
27408SOL     OW85116   7.428   2.875   2.116  0.0180  0.1786  0.5994
27408SOL    HW185117   7.400   2.790   2.084 -1.9316  1.4133 -1.2097
27408SOL    HW285118   7.358   2.902   2.176 -0.9210  1.6706 -1.0535
27409SOL     OW85119  10.411   4.249   8.640  0.2644 -0.0953 -0.3409
27409SOL    HW185120  10.351   4.199   8.584 -1.8497  0.7276  1.0907
27409SOL    HW285121  10.403   4.208   8.726  2.1721 -0.2622 -0.1992
27410SOL     OW85122   5.742   0.234   7.843 -0.1124 -0.0155 -0.1542
27410SOL    HW185123   5.658   0.188   7.849  0.3656 -0.7192  2.2344
27410SOL    HW285124   5.807   0.169   7.871  0.7222  1.6923  2.0987
27411SOL     OW85125   0.928   0.874   1.539 -0.1124 -0.3255  0.4672
27411SOL    HW185126   0.995   0.815   1.505  2.0472  2.0418  0.2712
27411SOL    HW285127   0.960   0.900   1.626 -0.3943  1.3168  0.1289
27412SOL     OW85128   8.523   5.434   9.462 -0.2584 -0.3033 -0.1457
27412SOL    HW185129   8.433   5.402   9.454 -0.9705  1.3952  0.4598
27412SOL    HW285130   8.561   5.382   9.533 -0.5408 -1.4725 -0.8388
27413SOL     OW85131   4.065   9.082  10.693  0.1152  0.3436 -0.1492
27413SOL    HW185132   4.100   9.120  10.774 -0.2140  0.3563 -0.0123
27413SOL    HW285133   3.989   9.136  10.673  0.4279  0.5883 -0.6850
27414SOL     OW85134   6.390   1.088   0.010 -0.0182 -0.2368 -0.1779
27414SOL    HW185135   6.370   1.033  -0.065  0.3852 -1.2185  0.4210
27414SOL    HW285136   6.482   1.070   0.030  0.0542  0.4815  0.1717
27415SOL     OW85137   1.057   0.568   2.948  0.2367 -0.4314 -0.3361
27415SOL    HW185138   1.144   0.541   2.978 -0.2635 -3.4692 -1.2498
27415SOL    HW285139   1.036   0.506   2.878 -1.9415  1.3695 -1.3951
27416SOL     OW85140   8.747   9.378   1.723 -0.7674 -0.1106  0.1469
27416SOL    HW185141   8.724   9.435   1.650 -0.3344  0.9548  0.8266
27416SOL    HW285142   8.755   9.436   1.798  1.0927 -0.8343  0.5658
27417SOL     OW85143  10.746   0.398   7.642  0.2459 -0.1571  0.0988
27417SOL    HW185144  10.657   0.372   7.619 -0.3092  1.9108 -0.3128
27417SOL    HW285145  10.798   0.376   7.565 -0.4724  1.2011 -0.8071
27418SOL     OW85146   3.827   0.810   9.563 -0.0351  0.1298  0.2574
27418SOL    HW185147   3.865   0.895   9.586 -0.5460  0.7490 -1.0501
27418SOL    HW285148   3.864   0.791   9.476 -0.5349 -0.6171  0.2015
27419SOL     OW85149   8.477   9.826   1.381 -0.4852 -0.0824 -0.4438
27419SOL    HW185150   8.514   9.911   1.405  0.1910 -0.6411  0.5732
27419SOL    HW285151   8.440   9.793   1.463  0.8097 -1.5233 -0.4051
27420SOL     OW85152   9.135   9.323   5.497  0.0837  0.3246  0.1970
27420SOL    HW185153   9.090   9.355   5.576  1.7212  2.3948  0.3738
27420SOL    HW285154   9.197   9.259   5.530 -2.0669 -2.0055  0.0318
27421SOL     OW85155   2.591   8.774   1.674  0.0202  0.0742  0.3887
27421SOL    HW185156   2.515   8.741   1.722 -0.2111  0.5084  0.3333
27421SOL    HW285157   2.651   8.700   1.669 -0.1686 -0.1157  0.9089
27422SOL     OW85158   3.303   3.234   9.261 -0.2725 -0.0084  0.0201
27422SOL    HW185159   3.290   3.142   9.282  2.0455 -0.3024  0.4417
27422SOL    HW285160   3.341   3.234   9.173  1.6021  0.3356  0.7700
27423SOL     OW85161   0.078   3.909   9.883  0.0492  0.6851 -0.3582
27423SOL    HW185162   0.039   3.986   9.842 -1.3198 -0.1049 -0.6112
27423SOL    HW285163   0.047   3.912   9.974  2.7504  2.2187  0.6281
27424SOL     OW85164   7.485   6.618   7.890  0.1532 -0.0938  0.3367
27424SOL    HW185165   7.536   6.545   7.925  0.7471 -0.4693 -1.2469
27424SOL    HW285166   7.522   6.634   7.803 -1.5728  0.4973 -0.3289
27425SOL     OW85167   0.645   2.684   4.102 -0.0324  0.0141  0.8329
27425SOL    HW185168   0.656   2.621   4.173 -0.1505 -0.5272  0.3810
27425SOL    HW285169   0.567   2.733   4.126 -0.6518 -0.8324  0.5940
27426SOL     OW85170   2.083   5.745   4.371  0.0087  0.7500  0.0252
27426SOL    HW185171   2.045   5.819   4.324  1.1755  2.6622  1.8913
27426SOL    HW285172   2.020   5.725   4.440 -0.1253  0.2181 -0.2427
27427SOL     OW85173   5.579   0.264   1.924  0.2990 -0.5845  0.0863
27427SOL    HW185174   5.670   0.236   1.913  0.3457  0.2623 -2.1873
27427SOL    HW285175   5.564   0.259   2.018  2.1762 -2.3091  0.3707
27428SOL     OW85176   8.177   0.677   9.592  0.0933 -0.8728  0.5565
27428SOL    HW185177   8.272   0.664   9.592 -0.0292 -1.8547  0.4585
27428SOL    HW285178   8.143   0.610   9.532 -0.5331  0.6482 -0.8557
27429SOL     OW85179  10.000   2.784   8.527  0.1545 -0.1049 -0.0159
27429SOL    HW185180  10.078   2.816   8.482 -0.1526 -0.6269 -0.9332
27429SOL    HW285181   9.927   2.810   8.471 -0.2148 -0.9832  0.0386
27430SOL     OW85182   5.476   4.877   1.297  0.2777 -0.1153 -0.4507
27430SOL    HW185183   5.447   4.788   1.312  1.1827 -0.5671 -1.2713
27430SOL    HW285184   5.553   4.868   1.240  0.3716  1.1799 -0.5587
27431SOL     OW85185   7.339   4.475   4.326 -0.2623 -0.4996  0.0138
27431SOL    HW185186   7.338   4.449   4.234  0.3902  1.5685 -0.6306
27431SOL    HW285187   7.430   4.464   4.353  0.1265  1.3059 -0.3941
27432SOL     OW85188   0.667   9.544  10.443  0.1874  0.2314  0.3650
27432SOL    HW185189   0.745   9.526  10.494  0.4849 -1.2198 -0.5530
27432SOL    HW285190   0.658   9.469  10.385 -0.6317  1.3999 -1.0978
27433SOL     OW85191   1.059   5.914   9.708 -0.0135 -0.1738  0.1297
27433SOL    HW185192   0.989   5.868   9.661  0.5104 -1.4805  0.5726
27433SOL    HW285193   1.123   5.845   9.728 -0.1062  0.3711  2.5381
27434SOL     OW85194   2.014   3.372   4.913  0.0448  0.4402 -0.7290
27434SOL    HW185195   2.010   3.372   4.817 -0.6112  1.0552 -0.7056
27434SOL    HW285196   1.983   3.284   4.937 -1.0184  0.7191 -1.0399
27435SOL     OW85197   0.584  10.574   5.784  0.1103  0.7104 -0.6347
27435SOL    HW185198   0.676  10.563   5.807  0.5033  1.0548 -1.9580
27435SOL    HW285199   0.536  10.536   5.858  1.3031  0.3639 -0.0109
27436SOL     OW85200   5.744   5.000   4.876 -0.3923  0.1602 -0.2209
27436SOL    HW185201   5.755   4.976   4.784  0.7413  0.5574 -0.2121
27436SOL    HW285202   5.728   4.917   4.921 -0.0140 -0.1570 -0.6630
27437SOL     OW85203   5.053   0.215   0.299 -0.1638  0.3638  0.3342
27437SOL    HW185204   5.117   0.146   0.313  0.4237  0.7491 -0.3686
27437SOL    HW285205   4.977   0.189   0.351  0.1967 -0.5984  0.3970
27438SOL     OW85206   7.231   2.557   1.400  0.0242 -0.8441  0.4033
27438SOL    HW185207   7.144   2.543   1.438 -0.6853 -0.4370 -0.9888
27438SOL    HW285208   7.279   2.606   1.466 -1.1441 -0.2139  0.8052
27439SOL     OW85209   6.691   3.018   0.383  0.0079 -0.1890  0.0931
27439SOL    HW185210   6.602   2.988   0.364  0.3229 -1.4433  0.4727
27439SOL    HW285211   6.747   2.951   0.342  0.7409 -0.3812  1.3614
27440SOL     OW85212   6.235   2.773   6.068 -0.0774 -0.0023 -0.3262
27440SOL    HW185213   6.268   2.691   6.033  0.0597 -0.3403  0.5821
27440SOL    HW285214   6.309   2.834   6.061  0.2997 -0.3740  0.4116
27441SOL     OW85215   8.641  10.024   4.415  0.1439  0.4103 -0.7041
27441SOL    HW185216   8.635  10.041   4.509  0.6900 -1.9422 -0.1797
27441SOL    HW285217   8.704  10.089   4.383 -0.7036  1.8126  0.3499
27442SOL     OW85218   2.231   3.895   0.867  0.4016 -0.4296 -0.3886
27442SOL    HW185219   2.248   3.973   0.920 -0.2132 -1.2771  1.1341
27442SOL    HW285220   2.317   3.855   0.856  0.6601  0.2216 -0.8123
27443SOL     OW85221   5.896  10.193   6.331  0.0600  0.4129  0.2877
27443SOL    HW185222   5.903  10.111   6.381  1.3064 -0.3093 -0.9892
27443SOL    HW285223   5.986  10.226   6.328 -0.1143  0.7908 -0.8871
27444SOL     OW85224   0.516   3.731   6.257 -0.2497 -0.6687 -0.6277
27444SOL    HW185225   0.432   3.774   6.241 -0.2207 -1.4371 -3.2596
27444SOL    HW285226   0.511   3.649   6.208  1.6399 -1.2711  0.0941
27445SOL     OW85227   5.273   1.023   1.418 -0.0717 -0.0918  0.1349
27445SOL    HW185228   5.238   1.108   1.445  1.7345  0.6015  0.4376
27445SOL    HW285229   5.271   0.970   1.498 -0.3253 -0.0143  0.1783
27446SOL     OW85230   3.194   6.704   0.969  0.2320  0.3627 -0.1223
27446SOL    HW185231   3.278   6.680   1.007  0.4448 -1.2055 -1.4410
27446SOL    HW285232   3.213   6.720   0.877 -0.9223 -0.3035 -0.5008
27447SOL     OW85233   8.499   9.507   8.357 -0.2173  0.2260  0.5441
27447SOL    HW185234   8.403   9.502   8.362 -0.2448 -0.3806 -0.4252
27447SOL    HW285235   8.529   9.427   8.401 -0.1909 -0.1579 -0.1657
27448SOL     OW85236   3.225   2.044   9.425 -0.5236 -0.4797  0.1271
27448SOL    HW185237   3.169   2.085   9.492  1.5361 -0.6350  2.0735
27448SOL    HW285238   3.279   2.116   9.392  0.1304 -0.8295  0.4178
27449SOL     OW85239   4.357   1.670  10.423  0.0626  0.7535 -0.1993
27449SOL    HW185240   4.396   1.738  10.368  0.9503 -0.4729 -1.1485
27449SOL    HW285241   4.368   1.702  10.513 -0.0215  2.0882 -0.6462
27450SOL     OW85242  10.423   9.992   7.826  0.3485  0.4108  0.4217
27450SOL    HW185243  10.467  10.063   7.779 -0.8886  1.3747  0.6375
27450SOL    HW285244  10.418   9.920   7.763 -1.6647  1.8246 -1.1528
27451SOL     OW85245   7.548  10.390   4.915  0.2178  0.1387 -0.7632
27451SOL    HW185246   7.467  10.346   4.886 -0.9555  1.1690  0.7655
27451SOL    HW285247   7.548  10.472   4.866 -0.4904  0.8076  0.3232
27452SOL     OW85248   0.635   5.877  10.064 -0.2356 -0.2602 -0.4264
27452SOL    HW185249   0.692   5.890   9.988 -0.8267 -1.0639 -1.0334
27452SOL    HW285250   0.622   5.964  10.101  2.1044 -0.1436  0.2778
27453SOL     OW85251   1.640   8.510   7.809 -0.1141  0.2446 -0.0345
27453SOL    HW185252   1.582   8.435   7.822  1.4118 -1.2543 -1.3169
27453SOL    HW285253   1.728   8.472   7.805  0.6120  1.9009 -2.0919
27454SOL     OW85254   8.042   9.031   3.957 -0.1235  0.4350  0.1471
27454SOL    HW185255   8.085   9.103   3.912  0.9417  0.1067  0.6030
27454SOL    HW285256   7.950   9.038   3.932 -0.1043  2.1675  0.4669
27455SOL     OW85257   1.075   4.990   5.638  0.5250 -0.2494 -0.4912
27455SOL    HW185258   0.997   5.043   5.654  0.9948  0.0496  0.9915
27455SOL    HW285259   1.128   5.042   5.578 -0.8711 -0.9547 -2.4330
27456SOL     OW85260  10.514   7.175   9.163 -0.3096 -0.6676  0.3717
27456SOL    HW185261  10.593   7.135   9.126  0.0664  0.7096 -0.3894
27456SOL    HW285262  10.525   7.165   9.257 -0.5817 -2.9538  0.2310
27457SOL     OW85263   4.750   0.851   5.810 -0.3164 -0.0720 -0.2316
27457SOL    HW185264   4.780   0.839   5.720  0.7205 -0.1639  0.1177
27457SOL    HW285265   4.820   0.900   5.853 -1.2651  0.8989  0.2657
27458SOL     OW85266   5.551   8.423   1.462 -0.1485 -0.2100  0.9929
27458SOL    HW185267   5.613   8.413   1.535 -0.9388 -1.5460  1.5155
27458SOL    HW285268   5.491   8.349   1.472  0.0320 -0.7342 -1.3256
27459SOL     OW85269   7.209   5.922   4.656  0.0854  0.0596 -0.2971
27459SOL    HW185270   7.255   5.845   4.622  3.2815  2.3576 -1.7127
27459SOL    HW285271   7.277   5.971   4.703 -1.3922  2.7194 -0.7460
27460SOL     OW85272   9.619   7.042   7.692 -0.2854 -0.1974  0.4619
27460SOL    HW185273   9.701   7.090   7.682  0.0861 -0.9892 -0.4216
27460SOL    HW285274   9.589   7.027   7.602  0.5826 -3.2471  0.5765
27461SOL     OW85275   6.287   9.117   2.946 -0.2675  0.1148  0.0198
27461SOL    HW185276   6.194   9.103   2.931 -0.6872  2.2420  0.3725
27461SOL    HW285277   6.302   9.082   3.034 -0.5151 -1.0675 -0.3957
27462SOL     OW85278  10.254   8.188   8.568 -0.0617 -0.2175 -0.0079
27462SOL    HW185279  10.286   8.104   8.600 -0.6333 -0.9899 -1.3867
27462SOL    HW285280  10.231   8.237   8.647 -1.5047 -2.0741  0.7921
27463SOL     OW85281   9.633   2.504   0.206 -1.6678  0.2463 -1.0462
27463SOL    HW185282   9.624   2.579   0.264 -1.0484 -0.3821 -0.1212
27463SOL    HW285283   9.722   2.510   0.171 -1.1178 -0.8052  0.1195
27464SOL     OW85284   5.204   7.205  10.368 -0.2257 -0.1911  0.0239
27464SOL    HW185285   5.117   7.245  10.362 -1.1230 -2.0293  0.0918
27464SOL    HW285286   5.261   7.276  10.396 -1.4491  1.3924 -1.2898
27465SOL     OW85287   2.778   1.681   7.287 -0.2998  0.0447  0.1329
27465SOL    HW185288   2.689   1.690   7.320 -0.9720 -0.6997 -1.4097
27465SOL    HW285289   2.797   1.765   7.246  0.0985  0.5487  1.2967
27466SOL     OW85290  10.327   3.601   8.285 -0.1429 -0.3496 -0.1010
27466SOL    HW185291  10.302   3.560   8.201 -3.0594 -0.4680  0.7027
27466SOL    HW285292  10.352   3.690   8.262 -1.8987 -0.0600 -1.0497
27467SOL     OW85293   5.607   2.634   6.592  0.1701  0.1116  0.4645
27467SOL    HW185294   5.700   2.650   6.574 -0.2249  1.3643 -0.5844
27467SOL    HW285295   5.565   2.637   6.506 -0.7739 -1.0526  0.8638
27468SOL     OW85296   0.208   1.414   1.318  0.2050  0.1554  0.3912
27468SOL    HW185297   0.130   1.392   1.369  0.9754 -1.1029  1.0624
27468SOL    HW285298   0.263   1.465   1.377  0.4009  0.0470  0.3040
27469SOL     OW85299   7.222   1.181   6.933  0.2193  0.4381 -0.3057
27469SOL    HW185300   7.211   1.116   6.864  1.9002  1.4558 -1.6111
27469SOL    HW285301   7.296   1.150   6.985  0.2624  0.7036 -0.2054
27470SOL     OW85302   3.291   0.386   0.430 -0.4629  0.1428  0.3083
27470SOL    HW185303   3.255   0.314   0.379 -2.8159 -0.4626  2.5956
27470SOL    HW285304   3.280   0.463   0.375 -0.2200 -0.8463 -1.1930
27471SOL     OW85305   4.781   1.054   7.513  1.2964  0.8247  0.3041
27471SOL    HW185306   4.755   1.024   7.601  2.1743  0.6660  0.5155
27471SOL    HW285307   4.874   1.035   7.508  1.4427  1.6711 -0.3268
27472SOL     OW85308   2.486   8.728   2.062  0.2986  0.6175  0.1638
27472SOL    HW185309   2.406   8.703   2.016  0.2402 -0.0826  0.6083
27472SOL    HW285310   2.469   8.816   2.095 -0.2560  0.5171  0.1610
27473SOL     OW85311  10.770   2.991   2.103  0.0650  0.5993  0.2563
27473SOL    HW185312  10.836   2.967   2.038 -0.7869  1.1851 -0.8516
27473SOL    HW285313  10.740   3.077   2.075 -2.2131 -0.2649 -0.0980
27474SOL     OW85314   6.698   4.517   4.541 -0.0096  0.3917  0.3231
27474SOL    HW185315   6.603   4.505   4.545 -0.0317  0.8194  2.1955
27474SOL    HW285316   6.709   4.608   4.513 -0.1692  0.4663  0.4961
27475SOL     OW85317   4.693   5.685   7.567  0.6043  0.1780  0.1275
27475SOL    HW185318   4.685   5.658   7.475 -0.2981  0.5147  0.1039
27475SOL    HW285319   4.631   5.757   7.577  3.4441  2.8454  0.0132
27476SOL     OW85320   9.137   4.311   7.639 -0.8496 -0.0248  0.1918
27476SOL    HW185321   9.063   4.351   7.594 -0.0673  4.0588  2.1306
27476SOL    HW285322   9.120   4.327   7.732  0.3428 -3.0600  1.0638
27477SOL     OW85323   5.084   1.086   4.242  0.4042  0.5504  0.2248
27477SOL    HW185324   5.149   1.149   4.211  0.7946  0.2268  0.3899
27477SOL    HW285325   5.017   1.085   4.173  1.4909 -0.5108 -0.8683
27478SOL     OW85326   0.830   1.956   6.139 -0.4159  0.3355  0.5533
27478SOL    HW185327   0.737   1.955   6.115 -0.6637 -1.7892  1.3781
27478SOL    HW285328   0.840   2.034   6.193 -1.4713  1.1883 -0.4338
27479SOL     OW85329   2.541   7.513   0.125 -0.6411  0.4356  0.0524
27479SOL    HW185330   2.495   7.531   0.044 -1.3864 -2.4606 -0.2736
27479SOL    HW285331   2.634   7.512   0.101 -0.8685 -0.6845 -0.8867
27480SOL     OW85332   7.625   6.658   5.548 -0.0656 -0.2378 -0.1061
27480SOL    HW185333   7.567   6.587   5.521 -1.0589 -0.9498  3.4161
27480SOL    HW285334   7.708   6.614   5.569  0.1058  0.0185 -0.2450
27481SOL     OW85335   5.898   0.592   5.809  0.1412 -0.5013 -0.0683
27481SOL    HW185336   5.970   0.535   5.834 -0.4206 -1.1443  0.1180
27481SOL    HW285337   5.897   0.661   5.876  0.7234 -0.3541 -0.2075
27482SOL     OW85338   3.208   3.805   8.861  0.2678 -0.5932 -0.3856
27482SOL    HW185339   3.174   3.755   8.787  0.0911 -1.8270  0.4895
27482SOL    HW285340   3.254   3.740   8.914  1.4848  0.5052 -0.0512
27483SOL     OW85341   3.360   7.957   9.849 -0.2359 -0.2316 -0.0431
27483SOL    HW185342   3.359   8.005   9.932  1.0418 -0.2270 -0.0172
27483SOL    HW285343   3.268   7.953   9.823 -0.3444  3.2520 -0.6394
27484SOL     OW85344  10.059   4.108   9.171  0.6347  0.5787 -0.3622
27484SOL    HW185345  10.071   4.066   9.257 -0.9171  0.9639  0.0846
27484SOL    HW285346   9.984   4.062   9.132  2.1595 -0.5157 -2.1496
27485SOL     OW85347   0.574   6.785   4.760  0.3398 -0.3678 -0.7626
27485SOL    HW185348   0.484   6.817   4.755  0.5909  0.8882  1.3176
27485SOL    HW285349   0.625   6.860   4.792  2.4479 -0.5730 -3.3117
27486SOL     OW85350   0.999   0.620   0.217  0.4612  0.6609 -0.0763
27486SOL    HW185351   0.928   0.647   0.159  0.3531  0.7006  0.0752
27486SOL    HW285352   0.955   0.585   0.294  0.6045  0.4684 -0.0818
27487SOL     OW85353   0.545   0.069   0.089 -0.2967 -0.0549  0.0774
27487SOL    HW185354   0.559   0.151   0.136  0.1597 -0.3490  0.4784
27487SOL    HW285355   0.475   0.025   0.138 -1.1106  0.4401 -0.6145
27488SOL     OW85356   8.868   2.838   6.431  0.4598  0.3680  0.0504
27488SOL    HW185357   8.958   2.871   6.432  0.0274  1.8156 -1.7907
27488SOL    HW285358   8.816   2.909   6.468 -0.3524  1.4674 -2.8898
27489SOL     OW85359   1.895  10.431   7.119  0.6180  0.2874  0.7282
27489SOL    HW185360   1.839  10.432   7.197 -0.0040  1.4675  0.2942
27489SOL    HW285361   1.884  10.518   7.081  1.2142 -0.1437 -0.4773
27490SOL     OW85362   8.400  10.301   8.141  0.0330 -0.0662 -0.0404
27490SOL    HW185363   8.403  10.341   8.228  1.1555  1.1023 -0.6049
27490SOL    HW285364   8.395  10.374   8.080 -0.1227 -0.8559 -1.0051
27491SOL     OW85365  10.028   6.589   1.810 -0.1127  0.0442  0.2225
27491SOL    HW185366  10.091   6.658   1.827 -0.6846  0.7585 -0.5228
27491SOL    HW285367  10.032   6.534   1.888  1.5100 -0.0052  0.1453
27492SOL     OW85368   6.094  10.509   9.378  0.4706  0.1221  0.1175
27492SOL    HW185369   6.144  10.566   9.320 -0.4599 -0.7558 -1.6089
27492SOL    HW285370   6.006  10.546   9.379  0.5581  0.3504  1.3222
27493SOL     OW85371  10.743   5.489   2.351  0.3508  0.2409  0.6287
27493SOL    HW185372  10.759   5.431   2.276  0.8857  0.0623  0.8735
27493SOL    HW285373  10.822   5.482   2.404  0.8186  1.9014  0.2085
27494SOL     OW85374   1.240   7.999   8.928 -0.2224  0.5828  0.3135
27494SOL    HW185375   1.309   8.047   8.972  2.0660 -0.3083 -2.0293
27494SOL    HW285376   1.212   8.057   8.857  0.2114 -0.2105 -0.5185
27495SOL     OW85377   7.125   2.612   4.329  0.5964  0.1545 -0.1151
27495SOL    HW185378   7.110   2.705   4.347  0.4343  0.7984 -3.1824
27495SOL    HW285379   7.038   2.573   4.331  0.7819 -0.3958  2.8144
27496SOL     OW85380   6.857   7.567   2.299 -0.0534  0.2813  0.2798
27496SOL    HW185381   6.870   7.658   2.273 -0.0775  0.4770  0.9199
27496SOL    HW285382   6.791   7.571   2.369  0.9616 -0.0735  1.2936
27497SOL     OW85383   9.816   0.812   4.228 -0.8302  0.3740  0.1786
27497SOL    HW185384   9.807   0.731   4.178 -2.4875  0.9661 -0.5336
27497SOL    HW285385   9.844   0.783   4.315 -1.3568 -0.9667 -0.0768
27498SOL     OW85386   7.600   5.399   5.837 -0.1843 -0.1005  0.2140
27498SOL    HW185387   7.518   5.401   5.788 -0.7408 -0.0040  1.1285
27498SOL    HW285388   7.615   5.306   5.854  0.2577 -0.1732 -0.5279
27499SOL     OW85389  10.721   4.559   3.810 -0.1182 -0.5579 -0.1202
27499SOL    HW185390  10.631   4.583   3.828  0.3530  1.1350  0.1679
27499SOL    HW285391  10.758   4.635   3.764  1.2773 -1.0146  0.1802
27500SOL     OW85392   8.672   3.550   2.403  0.1350  0.3213  0.8045
27500SOL    HW185393   8.603   3.502   2.450 -0.4970 -1.2851 -1.5954
27500SOL    HW285394   8.628   3.626   2.367 -0.3889 -0.6044 -0.5667
27501SOL     OW85395   3.224   4.086   8.047 -0.3239 -0.3403  0.5511
27501SOL    HW185396   3.311   4.094   8.008 -0.7068  1.3654 -0.0314
27501SOL    HW285397   3.233   4.125   8.134 -0.1013 -1.8234  1.2339
27502SOL     OW85398   9.991   7.116   6.741  0.0637  0.4834  0.0970
27502SOL    HW185399  10.035   7.189   6.698 -1.6261  1.3197 -0.2859
27502SOL    HW285400   9.941   7.074   6.671  1.9435 -1.8513  0.0292
27503SOL     OW85401   7.773   1.158   9.621 -0.0899  0.2930  0.4042
27503SOL    HW185402   7.838   1.175   9.689  1.4125  0.0615 -0.9068
27503SOL    HW285403   7.737   1.072   9.643  0.4113  0.2029  0.8752
27504SOL     OW85404   7.583   4.858   2.883 -0.4022 -0.7021 -0.4477
27504SOL    HW185405   7.551   4.773   2.854 -1.0784 -0.3317 -0.8128
27504SOL    HW285406   7.505   4.912   2.890 -0.1126 -0.4041  0.8243
27505SOL     OW85407   6.572   1.621   9.048 -0.4527  0.0276 -0.2314
27505SOL    HW185408   6.525   1.544   9.016  0.4850 -0.3074 -0.8672
27505SOL    HW285409   6.663   1.605   9.023  0.0458  0.5508  1.1658
27506SOL     OW85410   6.264   6.049   9.944 -0.3717 -0.0734  0.6495
27506SOL    HW185411   6.284   5.983  10.011 -0.3733 -1.0482 -0.2666
27506SOL    HW285412   6.348   6.087   9.922 -0.3196 -0.0218  0.9356
27507SOL     OW85413   0.373   4.562  10.202 -0.3100 -0.0908  0.1952
27507SOL    HW185414   0.397   4.638  10.255 -0.6340  0.3764 -0.3186
27507SOL    HW285415   0.369   4.490  10.265  0.4852  0.2149  0.6041
27508SOL     OW85416   6.070   0.644  10.037  0.2505  0.5490  0.1164
27508SOL    HW185417   5.991   0.595  10.014  0.9392 -1.3941  1.6359
27508SOL    HW285418   6.054   0.732  10.002 -2.0185 -0.1141 -0.7285
27509SOL     OW85419   7.432   1.148  10.746 -0.1882 -0.2262  0.1848
27509SOL    HW185420   7.479   1.153  10.663  0.2972  1.0005  0.5064
27509SOL    HW285421   7.435   1.056  10.771  2.6258 -0.1302  0.5145
27510SOL     OW85422   3.379   9.024   3.247 -0.0226  0.1957 -0.6152
27510SOL    HW185423   3.410   8.962   3.181  0.6996  1.5020 -1.5460
27510SOL    HW285424   3.310   9.073   3.203 -1.3237 -0.6187  0.4573
27511SOL     OW85425  10.308   8.156   0.296 -0.0989  0.5952  0.2020
27511SOL    HW185426  10.295   8.089   0.228  1.9933  1.6274 -1.3210
27511SOL    HW285427  10.289   8.111   0.378  0.9952 -1.8526 -0.7857
27512SOL     OW85428   7.762  10.589  10.733 -0.3067  0.3009 -0.3776
27512SOL    HW185429   7.694  10.522  10.725  0.3480 -0.4477  0.1319
27512SOL    HW285430   7.745  10.648  10.660 -0.9346 -0.3937 -0.8195
27513SOL     OW85431  10.244   2.797   0.649 -0.1410  0.1115  0.6921
27513SOL    HW185432  10.235   2.749   0.732  0.3821 -0.6429  0.3283
27513SOL    HW285433  10.201   2.741   0.585  1.3361 -0.3808  0.0861
27514SOL     OW85434   2.622  10.164   4.010 -0.3112 -0.1287 -0.3187
27514SOL    HW185435   2.610  10.209   4.094 -0.1339 -0.7195  0.0271
27514SOL    HW285436   2.557  10.094   4.011 -1.1741  0.6393 -1.2305
27515SOL     OW85437  10.503   1.428   0.845 -0.0160 -0.3371  0.0651
27515SOL    HW185438  10.555   1.435   0.925 -0.1642  3.5660 -0.0016
27515SOL    HW285439  10.566   1.443   0.774 -0.3405 -1.1465 -0.4087
27516SOL     OW85440   3.317   1.743   4.384  0.1070 -0.6258  0.1619
27516SOL    HW185441   3.388   1.801   4.358 -1.3918  0.5464 -1.6368
27516SOL    HW285442   3.283   1.781   4.465 -0.0782  0.3598 -0.3534
27517SOL     OW85443   4.093   7.470   9.930 -0.5853  0.1190 -0.5558
27517SOL    HW185444   4.005   7.497   9.957 -0.8459 -1.0574 -0.1851
27517SOL    HW285445   4.081   7.381   9.896  0.4167  0.0557 -0.7598
27518SOL     OW85446   3.118   0.208  10.515 -0.1300 -0.2427 -0.0255
27518SOL    HW185447   3.123   0.288  10.463  0.3073 -0.7613 -0.7947
27518SOL    HW285448   3.057   0.229  10.586  1.7504  1.5496  1.1696
27519SOL     OW85449   2.067   3.312   1.031 -0.4639  0.0430 -0.2790
27519SOL    HW185450   2.120   3.368   0.975 -0.2246 -0.3248 -0.4268
27519SOL    HW285451   2.016   3.372   1.085 -0.8941  0.4103 -1.0782
27520SOL     OW85452   9.240   9.374   7.662 -0.4213  0.3569 -0.3598
27520SOL    HW185453   9.311   9.317   7.634 -0.4317  0.1915 -0.0501
27520SOL    HW285454   9.283   9.446   7.708 -0.5250 -0.3770  0.9233
27521SOL     OW85455   1.188   7.058   0.241  0.1696  0.0281  0.4304
27521SOL    HW185456   1.275   7.061   0.279 -0.1484  1.6434  1.1077
27521SOL    HW285457   1.197   7.100   0.155  0.2435 -0.7013  0.0742
27522SOL     OW85458  10.796   6.159   5.409  0.3243  0.5400 -0.6223
27522SOL    HW185459  10.796   6.064   5.401 -1.8614  0.4130  0.2765
27522SOL    HW285460  10.808   6.190   5.319 -1.8553 -0.6452 -1.4057
27523SOL     OW85461   8.709  10.122   0.980  0.8503 -0.4034  0.0908
27523SOL    HW185462   8.665  10.159   1.056 -1.2522 -0.3975 -1.0700
27523SOL    HW285463   8.752  10.197   0.939 -0.6621  0.2011 -0.4502
27524SOL     OW85464   7.061  10.733   2.088 -0.5685 -0.4032 -0.2889
27524SOL    HW185465   7.082  10.767   2.175 -0.4840 -0.4707 -0.2828
27524SOL    HW285466   7.070  10.638   2.097  0.4407 -0.3522 -0.6362
27525SOL     OW85467   3.381   7.438   5.201 -0.6090  0.0075 -1.1710
27525SOL    HW185468   3.332   7.373   5.251  0.9151  0.2481  0.7802
27525SOL    HW285469   3.448   7.388   5.155  1.3319  0.1425  1.2628
27526SOL     OW85470   7.679   1.513   5.108 -0.1647 -0.2944  0.0278
27526SOL    HW185471   7.737   1.588   5.092 -0.4456 -0.3967 -1.6138
27526SOL    HW285472   7.596   1.552   5.134 -0.7265  0.0866 -2.1333
27527SOL     OW85473   6.974   6.783   5.054 -0.0717 -1.0222 -0.0975
27527SOL    HW185474   7.029   6.825   5.120 -1.1359 -0.4913  0.4896
27527SOL    HW285475   6.959   6.695   5.087 -0.5453 -0.7796  0.3471
27528SOL     OW85476   2.230   5.610   1.978 -0.3629  0.3259  0.1984
27528SOL    HW185477   2.199   5.529   1.937 -0.8207  0.5393  0.1105
27528SOL    HW285478   2.181   5.679   1.933 -0.6970  0.5807  0.9391
27529SOL     OW85479  10.064   8.310   4.774  0.2890  0.6792 -0.2791
27529SOL    HW185480  10.110   8.373   4.719  0.2326  0.3141 -0.7445
27529SOL    HW285481   9.988   8.283   4.722 -0.2282  0.9597  0.3107
27530SOL     OW85482   4.720   2.984   7.106 -0.8549 -0.5447 -0.0348
27530SOL    HW185483   4.709   3.050   7.174  1.4638 -2.4710  2.4751
27530SOL    HW285484   4.780   3.023   7.043 -0.9082  0.3596  0.4694
27531SOL     OW85485   0.023   1.421   9.013  0.6278 -0.1966  0.5862
27531SOL    HW185486   0.046   1.492   9.072  0.1881  0.3519  0.1151
27531SOL    HW285487   0.105   1.398   8.969  0.8243 -0.1646  0.9339
27532SOL     OW85488   0.293   7.182   3.048 -0.2889  0.1430  0.0124
27532SOL    HW185489   0.258   7.097   3.019  0.9918 -0.8214  1.1519
27532SOL    HW285490   0.334   7.218   2.970 -1.4430  0.0609 -0.6621
27533SOL     OW85491   3.183   4.238   7.692 -0.7281 -0.0671 -0.2257
27533SOL    HW185492   3.179   4.309   7.628 -0.2166 -0.4270 -0.6686
27533SOL    HW285493   3.227   4.277   7.767 -0.8294  0.2040 -0.3032
27534SOL     OW85494   8.565   1.008   1.383 -0.2987  0.3262  0.3893
27534SOL    HW185495   8.653   0.981   1.358 -0.8079  0.8851 -2.3527
27534SOL    HW285496   8.530   0.934   1.431  0.5925 -1.2787 -1.3075
27535SOL     OW85497   0.883   9.102   4.799  0.3454 -0.4475 -0.4652
27535SOL    HW185498   0.911   9.084   4.709  0.5192 -0.2629 -0.4485
27535SOL    HW285499   0.855   9.017   4.832  0.4703 -0.5533 -0.6274
27536SOL     OW85500   9.818   4.088   7.092 -0.4558 -0.2626 -0.0716
27536SOL    HW185501   9.799   4.064   7.183 -2.2559  1.3033  0.0356
27536SOL    HW285502   9.744   4.142   7.066  0.0704 -0.6096 -2.4795
27537SOL     OW85503   7.355   5.626   6.917 -0.2856 -0.3969 -0.0506
27537SOL    HW185504   7.260   5.637   6.917 -0.1505  0.9796  0.3704
27537SOL    HW285505   7.369   5.542   6.960 -1.2826 -0.2730  0.5542
27538SOL     OW85506   7.990  10.360   6.190  0.0256  0.6441  0.1769
27538SOL    HW185507   7.971  10.316   6.107  2.7385 -2.0170  0.7924
27538SOL    HW285508   7.995  10.288   6.254  1.6409  2.1961  1.9005
27539SOL     OW85509  10.061   5.838   8.302 -0.0733  0.5200 -0.5781
27539SOL    HW185510  10.125   5.905   8.326  0.4128  1.1115 -3.1988
27539SOL    HW285511  10.095   5.801   8.220 -2.2569 -0.2934 -1.1919
27540SOL     OW85512  10.285  10.323   5.731 -0.0437  0.0521 -0.1265
27540SOL    HW185513  10.380  10.308   5.727 -0.2519 -2.1020  1.4398
27540SOL    HW285514  10.274  10.412   5.697  2.5438  0.4414 -0.1761
27541SOL     OW85515   6.440   2.815   6.365 -0.4944  0.2180 -0.0184
27541SOL    HW185516   6.515   2.828   6.307 -2.6535  0.4127 -2.9943
27541SOL    HW285517   6.422   2.902   6.400  0.7347  0.1284  0.9198
27542SOL     OW85518  10.450   6.976  10.397  0.6387  0.1379  0.1164
27542SOL    HW185519  10.435   6.884  10.375  1.4350 -0.5123  1.9845
27542SOL    HW285520  10.489   7.014  10.318  1.0624 -1.3522 -0.4327
27543SOL     OW85521   8.954   2.365   8.510  0.0144 -0.0662  0.0458
27543SOL    HW185522   8.959   2.431   8.442 -0.4710 -0.1198 -0.0504
27543SOL    HW285523   9.021   2.389   8.573 -1.9226  2.1612  1.4314
27544SOL     OW85524   3.189   3.552   9.856  0.4384  0.5359 -0.5920
27544SOL    HW185525   3.208   3.572   9.948 -0.2808  4.4094 -1.1108
27544SOL    HW285526   3.264   3.587   9.807 -1.3289  3.1130 -1.6845
27545SOL     OW85527   0.780   2.871   8.500 -0.2488 -0.4561  0.3348
27545SOL    HW185528   0.701   2.842   8.453  0.2330 -1.6060  0.2050
27545SOL    HW285529   0.763   2.963   8.519 -2.4897 -1.1134  2.0276
27546SOL     OW85530   6.842   3.979   6.604  0.4541 -0.4754 -0.1805
27546SOL    HW185531   6.789   4.000   6.681  2.2183  1.6513  0.5566
27546SOL    HW285532   6.784   3.997   6.530  0.2802  2.5439  0.5754
27547SOL     OW85533   0.290   1.196   5.702  0.3091  0.8098 -0.1865
27547SOL    HW185534   0.350   1.186   5.775 -1.6633 -1.1948  1.3097
27547SOL    HW285535   0.228   1.263   5.731 -0.5205 -0.0417  0.0782
27548SOL     OW85536   8.498   9.845   3.152  0.1624  0.1102  0.4751
27548SOL    HW185537   8.467   9.777   3.092 -1.6331  0.8473  0.5139
27548SOL    HW285538   8.465   9.817   3.238  0.0551  0.6345  0.6059
27549SOL     OW85539   3.511   7.324   4.772 -0.6153  0.1791 -0.1947
27549SOL    HW185540   3.524   7.399   4.830 -1.2108 -1.6949  2.5643
27549SOL    HW285541   3.458   7.359   4.700 -0.8303  2.3981  0.9370
27550SOL     OW85542   0.796   2.771   4.405  0.3572  0.3225  0.6754
27550SOL    HW185543   0.791   2.822   4.486  0.7638  0.3046  0.7128
27550SOL    HW285544   0.881   2.727   4.409 -0.5628 -1.4831  1.2992
27551SOL     OW85545   0.019  10.515  10.369 -0.1874 -0.0826 -0.8659
27551SOL    HW185546  -0.025  10.494  10.287 -0.7014 -0.2841 -0.5458
27551SOL    HW285547   0.095  10.568  10.343 -1.1773  1.1337 -1.3379
27552SOL     OW85548   5.919   9.695   4.012 -0.2755  0.3481 -0.1029
27552SOL    HW185549   5.977   9.640   3.959  1.3825  2.5189 -0.6525
27552SOL    HW285550   5.941   9.673   4.102 -1.2708 -1.4580 -0.2279
27553SOL     OW85551   6.234   4.593   8.847  0.0026 -0.1810  0.0574
27553SOL    HW185552   6.205   4.507   8.876 -0.1368 -0.5764 -1.2033
27553SOL    HW285553   6.291   4.624   8.917 -0.2564 -1.1234  0.7024
27554SOL     OW85554  10.358   0.495   5.887 -0.2813  0.0167 -0.7235
27554SOL    HW185555  10.410   0.530   5.813 -1.2423  0.3762 -1.2446
27554SOL    HW285556  10.268   0.497   5.856 -0.6129 -0.6649  0.1536
27555SOL     OW85557   9.889   3.024   4.902  0.0518  0.1783  0.2892
27555SOL    HW185558   9.938   2.982   4.831 -1.5937 -1.4491  0.0103
27555SOL    HW285559   9.955   3.065   4.957  1.6657 -1.3498 -0.3979
27556SOL     OW85560   3.931   1.548   3.771 -0.1645 -0.1555 -0.2129
27556SOL    HW185561   3.881   1.521   3.694  0.1759 -0.6376 -0.2701
27556SOL    HW285562   3.902   1.637   3.788 -2.0281 -0.8568  0.5578
27557SOL     OW85563   3.209   4.067   8.702 -0.2348 -0.2525 -0.4284
27557SOL    HW185564   3.271   4.118   8.753 -2.7106  3.3585 -0.5602
27557SOL    HW285565   3.141   4.042   8.764 -0.6900 -0.4229 -0.9802
27558SOL     OW85566   1.778   1.567   5.062 -0.4906 -0.2339  0.0889
27558SOL    HW185567   1.797   1.495   5.002 -1.0497 -0.0287 -0.3378
27558SOL    HW285568   1.815   1.644   5.020  1.0831 -0.4145  1.0557
27559SOL     OW85569   2.394   5.469   4.422  0.2553  0.2255  0.0949
27559SOL    HW185570   2.322   5.414   4.393  1.0227 -0.5981 -0.3216
27559SOL    HW285571   2.461   5.407   4.451  0.9962  0.9513 -0.0155
27560SOL     OW85572   1.641   9.543   2.521 -0.5157 -0.3555 -0.1771
27560SOL    HW185573   1.611   9.634   2.520  0.7053  0.0734  0.2536
27560SOL    HW285574   1.562   9.491   2.533 -1.1779  0.6783 -0.0160
27561SOL     OW85575   9.953   4.546   5.153  0.2924 -0.1951  0.3164
27561SOL    HW185576   9.884   4.492   5.191 -0.0236  0.1902  0.2970
27561SOL    HW285577   9.920   4.636   5.159  0.3779 -0.0900 -0.5523
27562SOL     OW85578   4.205   7.512   6.146  0.8683  0.5873 -0.5451
27562SOL    HW185579   4.148   7.584   6.116 -1.9647 -0.8953  0.8482
27562SOL    HW285580   4.188   7.441   6.084  0.8023 -0.0258  0.1603
27563SOL     OW85581   7.525  10.276   5.939 -0.1287  0.4732  0.4220
27563SOL    HW185582   7.524  10.372   5.934  0.0539  0.5247  1.1887
27563SOL    HW285583   7.432  10.251   5.937 -0.2366  0.7453  1.2844
27564SOL     OW85584   8.264   1.540   5.724 -0.1354  0.3072  0.2574
27564SOL    HW185585   8.291   1.482   5.653  0.5558 -0.5688  1.2131
27564SOL    HW285586   8.174   1.514   5.743 -0.0679  0.0264  0.2013
27565SOL     OW85587   4.675   1.364   0.436 -0.1565  0.3041 -0.2708
27565SOL    HW185588   4.663   1.299   0.366  0.6446 -0.9590  0.7036
27565SOL    HW285589   4.603   1.346   0.497  0.1655  0.2014  0.0827
27566SOL     OW85590   9.029   0.898   7.864 -0.6976 -0.4044  0.4252
27566SOL    HW185591   9.055   0.827   7.806 -1.3035  0.7596 -1.3382
27566SOL    HW285592   9.082   0.886   7.943  2.7971 -0.0393 -1.6892
27567SOL     OW85593   6.233   4.929   1.919  0.1181  0.5234  0.1623
27567SOL    HW185594   6.319   4.933   1.878 -0.1547 -0.4269 -0.5157
27567SOL    HW285595   6.171   4.947   1.849 -0.2699  0.6497  0.5292
27568SOL     OW85596   6.140   9.724   3.344  0.1285 -0.1242 -0.0081
27568SOL    HW185597   6.065   9.783   3.332  0.2677  0.0358 -0.0883
27568SOL    HW285598   6.171   9.744   3.432  1.3309  1.2555 -0.7102
27569SOL     OW85599   5.638   8.351   6.082 -0.3864 -0.6271 -0.2448
27569SOL    HW185600   5.594   8.297   6.016 -1.5485  0.8868 -0.7705
27569SOL    HW285601   5.618   8.441   6.056  2.2707  0.1384  0.0334
27570SOL     OW85602   2.497   2.167   2.240  0.2121  0.0056  0.5104
27570SOL    HW185603   2.546   2.248   2.230  0.2206 -0.1385 -0.8406
27570SOL    HW285604   2.548   2.101   2.192 -1.7620  0.0856 -1.9749
27571SOL     OW85605  10.097   3.075   6.256 -0.0078 -0.1810 -0.3030
27571SOL    HW185606  10.168   3.013   6.237  2.0738  1.0794  2.6447
27571SOL    HW285607  10.132   3.160   6.230 -0.3843  0.4585  1.1608
27572SOL     OW85608   2.689   8.750   3.718 -0.0406  0.1408  0.3226
27572SOL    HW185609   2.770   8.727   3.763 -1.1618 -1.6084  1.5756
27572SOL    HW285610   2.653   8.823   3.767  0.2305  0.1968  0.4371
27573SOL     OW85611   2.440   3.312  10.201 -0.1642  0.0083  0.1841
27573SOL    HW185612   2.364   3.270  10.161 -0.4730  1.3037 -0.6456
27573SOL    HW285613   2.481   3.243  10.254 -1.8732 -0.7094  0.6117
27574SOL     OW85614  10.330   7.114   0.630  0.3420  0.2601  0.1427
27574SOL    HW185615  10.373   7.197   0.611  0.1052  0.7946  1.7501
27574SOL    HW285616  10.258   7.110   0.567  0.7146  0.9756 -0.3491
27575SOL     OW85617   8.469   7.284   4.264 -0.1914 -0.4786 -0.0382
27575SOL    HW185618   8.407   7.212   4.276  1.4183 -1.7535  1.0217
27575SOL    HW285619   8.533   7.251   4.201  0.8174 -0.1560  0.7967
27576SOL     OW85620   6.010   8.526   9.215 -0.2583 -0.5149  0.2909
27576SOL    HW185621   5.993   8.446   9.165  2.5873 -1.3089  0.3810
27576SOL    HW285622   6.051   8.585   9.151 -0.7761  0.2430  0.6448
27577SOL     OW85623   8.656   4.818   2.830 -0.7520  0.2909 -0.4797
27577SOL    HW185624   8.688   4.907   2.841  1.0993 -0.3489 -0.4049
27577SOL    HW285625   8.578   4.814   2.884 -0.6025  1.7229 -0.1127
27578SOL     OW85626   1.795   3.014   2.821 -0.0435  0.3412  0.3276
27578SOL    HW185627   1.860   3.008   2.891  1.1963  0.4805 -0.7797
27578SOL    HW285628   1.716   3.046   2.865  0.4484 -0.3742  1.8044
27579SOL     OW85629   2.755   8.040   9.153 -0.6519  0.4000  0.2008
27579SOL    HW185630   2.759   8.037   9.058 -0.7965  1.2781  0.1587
27579SOL    HW285631   2.689   7.975   9.177 -0.0767 -0.3622 -0.2464
27580SOL     OW85632   1.393   9.350   2.862  0.2033 -0.0390  0.3969
27580SOL    HW185633   1.442   9.416   2.912 -0.7006  1.4893 -0.6220
27580SOL    HW285634   1.307   9.348   2.903  0.4510 -1.1729  0.8879
27581SOL     OW85635   9.951   3.985   2.441 -0.0505 -0.0798  0.8409
27581SOL    HW185636   9.983   3.898   2.466  2.0697 -0.2641 -1.9617
27581SOL    HW285637   9.859   3.985   2.468 -0.9398 -4.2592 -1.2416
27582SOL     OW85638   0.714   3.211   4.880 -0.3377  0.1206 -0.4376
27582SOL    HW185639   0.778   3.271   4.843 -1.4918  1.9535  0.3956
27582SOL    HW285640   0.735   3.209   4.974 -0.9798  0.1004 -0.2898
27583SOL     OW85641   8.895   5.008   3.184 -0.6125  0.0801 -0.4566
27583SOL    HW185642   8.951   5.023   3.108 -0.9685  0.1773 -0.7052
27583SOL    HW285643   8.882   5.094   3.223 -0.8748  0.1066 -0.6039
27584SOL     OW85644   7.362   3.245   2.218  0.4914  0.0702  0.0683
27584SOL    HW185645   7.450   3.215   2.194  0.4865 -0.0059  0.1456
27584SOL    HW285646   7.322   3.271   2.135  0.4270 -0.3204 -0.0234
27585SOL     OW85647  10.744   8.391   3.441  0.3567  0.0731 -0.0369
27585SOL    HW185648  10.774   8.442   3.366  0.6002 -1.2773 -0.8857
27585SOL    HW285649  10.658   8.358   3.415  0.5134 -0.5419  0.2137
27586SOL     OW85650   6.405   7.015   5.854 -0.2772 -0.0754 -0.2396
27586SOL    HW185651   6.423   6.957   5.928 -0.2465  1.5900  1.1022
27586SOL    HW285652   6.325   6.979   5.815  0.2092 -1.5079  0.0186
27587SOL     OW85653   0.484   5.596   9.401 -0.0836 -0.2642  0.1415
27587SOL    HW185654   0.447   5.510   9.418 -1.1313 -0.0598 -0.9606
27587SOL    HW285655   0.502   5.633   9.488 -1.7524 -0.6947  0.7028
27588SOL     OW85656   3.199   7.477   0.532 -0.2015  1.0484  0.2433
27588SOL    HW185657   3.121   7.432   0.563 -1.2258  2.2220 -0.5394
27588SOL    HW285658   3.203   7.557   0.584  0.3127  1.1518  0.0529
27589SOL     OW85659   1.164   2.707  10.639  0.1103 -0.4224  0.4330
27589SOL    HW185660   1.094   2.707  10.704  0.2468  1.7148  0.6720
27589SOL    HW285661   1.177   2.615  10.616 -0.5734 -1.1472  2.7384
27590SOL     OW85662   0.410   0.849   1.935 -0.0420 -0.5302  0.6686
27590SOL    HW185663   0.377   0.871   1.848  1.4003  1.0369  0.4419
27590SOL    HW285664   0.504   0.835   1.922  0.1366 -0.6272  1.9027
27591SOL     OW85665   7.364   3.385   8.546 -0.5603 -0.5933 -0.6228
27591SOL    HW185666   7.324   3.469   8.568  0.5584  0.3385 -1.9740
27591SOL    HW285667   7.406   3.357   8.627 -0.1511  0.6230 -0.3975
27592SOL     OW85668   5.752   6.542   9.204  0.3543 -0.4491  0.2441
27592SOL    HW185669   5.688   6.472   9.200  1.3136 -1.3256 -0.6620
27592SOL    HW285670   5.730   6.599   9.130  1.3524 -1.4503 -0.8632
27593SOL     OW85671   6.069   3.884   5.483  0.1902 -0.1888 -0.3406
27593SOL    HW185672   6.142   3.829   5.511  0.3680 -0.3702 -1.1473
27593SOL    HW285673   6.064   3.953   5.550 -0.7404 -1.7715  1.3265
27594SOL     OW85674   6.915   1.054   8.993  0.1867 -1.2512 -0.2071
27594SOL    HW185675   6.937   1.088   9.080 -0.3055 -2.9893  0.6294
27594SOL    HW285676   6.822   1.074   8.983 -0.0108 -1.9939  0.1220
27595SOL     OW85677   0.482   3.379   3.041  0.2668  0.6001  0.0704
27595SOL    HW185678   0.490   3.400   2.948 -0.2946  0.0380 -0.1142
27595SOL    HW285679   0.440   3.293   3.042 -0.1137  0.7924  0.8502
27596SOL     OW85680   6.995   8.031   2.764 -0.1330  0.6368 -0.3279
27596SOL    HW185681   7.072   7.980   2.735 -0.1259  1.3413 -1.6314
27596SOL    HW285682   7.017   8.058   2.853  0.0807 -1.1949  0.2172
27597SOL     OW85683   5.847   5.693   1.606  0.3791  0.2512 -0.5411
27597SOL    HW185684   5.777   5.664   1.664  0.1208 -0.1458 -1.0448
27597SOL    HW285685   5.810   5.768   1.559  1.1705  1.6992  1.0301
27598SOL     OW85686   8.285   5.249  10.768 -0.2139 -0.0885  0.3086
27598SOL    HW185687   8.265   5.342  10.775  0.7750  0.0554  1.3999
27598SOL    HW285688   8.346   5.243  10.694 -0.5612  0.0752  0.0060
27599SOL     OW85689   6.792   4.474  10.174 -0.1335 -0.0095  0.5180
27599SOL    HW185690   6.791   4.412  10.247 -0.3168 -0.9046 -0.2314
27599SOL    HW285691   6.820   4.557  10.213  0.0226 -0.5400  1.5507
27600SOL     OW85692   7.132   1.094   0.354  0.4684  0.1963  0.2160
27600SOL    HW185693   7.106   1.170   0.407  1.5068 -0.0059  1.0432
27600SOL    HW285694   7.153   1.026   0.417  2.7486  0.2797 -0.3737
27601SOL     OW85695  10.094   0.147   3.580 -0.2280  0.6087 -0.6111
27601SOL    HW185696  10.187   0.134   3.596  0.1526  2.2293 -1.2834
27601SOL    HW285697  10.080   0.241   3.596 -2.0295  0.1596  0.7896
27602SOL     OW85698   7.779   1.224   0.853 -0.1898 -0.4671 -0.3750
27602SOL    HW185699   7.814   1.161   0.917  3.2171  1.5564 -0.0049
27602SOL    HW285700   7.744   1.295   0.907  0.0409 -0.0578 -0.7647
27603SOL     OW85701   2.402   1.871   8.035  0.4112  0.1578  0.0375
27603SOL    HW185702   2.333   1.935   8.014  0.6275  0.1996 -0.5503
27603SOL    HW285703   2.384   1.847   8.126 -0.5817 -0.0729 -0.1990
27604SOL     OW85704   3.473   1.200   7.324 -0.1795 -0.4615  0.3010
27604SOL    HW185705   3.530   1.209   7.248 -1.1127  0.8352 -0.2866
27604SOL    HW285706   3.469   1.106   7.341 -0.8597 -0.8907 -1.9670
27605SOL     OW85707   7.607   2.646  10.189  0.8615  0.1346 -0.4146
27605SOL    HW185708   7.600   2.562  10.236  0.8841  0.5217  0.2979
27605SOL    HW285709   7.556   2.707  10.241 -0.5434  0.2156 -1.8390
27606SOL     OW85710   6.782   6.415   6.070 -0.6888 -0.1540 -0.3282
27606SOL    HW185711   6.802   6.470   5.994  0.6644  1.6085  1.2181
27606SOL    HW285712   6.704   6.454   6.108 -1.4831 -1.1569 -0.8569
27607SOL     OW85713   0.833   9.646   6.227 -0.0847  0.1471  0.5882
27607SOL    HW185714   0.867   9.672   6.141 -2.1218  0.2393 -0.2450
27607SOL    HW285715   0.890   9.574   6.254  0.3754 -0.1323 -1.0066
27608SOL     OW85716   4.845   5.831   2.001 -0.3507 -0.3666  0.3014
27608SOL    HW185717   4.862   5.913   2.048 -1.7245 -0.6217  1.3176
27608SOL    HW285718   4.851   5.763   2.068 -2.5856 -0.7156  0.2393
27609SOL     OW85719   2.585  10.671   1.869  0.6411  0.1382  0.2770
27609SOL    HW185720   2.575  10.728   1.946 -0.0839 -0.3274  0.5450
27609SOL    HW285721   2.504  10.686   1.819  1.0115  0.2726 -0.2872
27610SOL     OW85722   4.305   7.026   1.369 -0.3447 -0.3530 -0.0466
27610SOL    HW185723   4.298   7.014   1.464 -0.2010 -1.9060 -0.2031
27610SOL    HW285724   4.217   7.006   1.336 -0.8586  1.7928 -0.1415
27611SOL     OW85725   6.095   9.395   1.417  0.1980 -0.0709  0.4593
27611SOL    HW185726   6.143   9.470   1.381  1.6060  0.1345  2.5797
27611SOL    HW285727   6.155   9.321   1.405 -0.7878 -0.7057 -0.7474
27612SOL     OW85728   5.850   9.029   5.327 -0.3628 -0.3783  0.0343
27612SOL    HW185729   5.854   9.119   5.294 -1.4041 -0.1413  0.4948
27612SOL    HW285730   5.768   9.026   5.377 -2.0210 -2.4422 -2.5017
27613SOL     OW85731   7.760   4.933   7.582 -0.2641  0.4791 -0.2184
27613SOL    HW185732   7.776   4.988   7.659  0.8301 -0.4073  0.2265
27613SOL    HW285733   7.734   4.994   7.513  1.3559  1.6132  0.1272
27614SOL     OW85734   0.171   3.982   7.934 -0.7380  0.1610  0.2596
27614SOL    HW185735   0.083   3.945   7.948 -0.7487  0.0696 -0.0530
27614SOL    HW285736   0.222   3.909   7.899 -0.7700  0.4509 -0.4079
27615SOL     OW85737   1.005   6.643   7.741  0.0982  0.1711 -0.4080
27615SOL    HW185738   1.015   6.620   7.833 -0.1175 -1.7333 -0.8346
27615SOL    HW285739   1.006   6.739   7.740 -3.2863  0.4175  1.9953
27616SOL     OW85740   7.369   9.476   5.573 -0.3072  0.1354  0.0284
27616SOL    HW185741   7.364   9.408   5.506  2.5583 -0.0704 -0.0857
27616SOL    HW285742   7.390   9.429   5.653 -3.0102  0.4583  1.0333
27617SOL     OW85743   5.539   1.596   7.818  0.8539  0.4499 -0.5739
27617SOL    HW185744   5.614   1.646   7.787  0.3426  2.4340  1.1743
27617SOL    HW285745   5.462   1.644   7.784  0.3505 -0.3273 -0.5570
27618SOL     OW85746   0.490   2.849   5.554 -0.6453  0.1754 -1.0731
27618SOL    HW185747   0.527   2.890   5.632 -2.7724 -0.0964  0.1612
27618SOL    HW285748   0.510   2.909   5.483  0.8012  0.7399 -0.2311
27619SOL     OW85749   4.391   8.687   9.115 -0.4757  0.6020 -0.5555
27619SOL    HW185750   4.483   8.707   9.129 -0.4068 -0.5494  0.9738
27619SOL    HW285751   4.390   8.593   9.096 -1.3795  0.4506  0.1614
27620SOL     OW85752   5.236   1.596   2.094  0.0275  0.0407 -0.1612
27620SOL    HW185753   5.267   1.539   2.165 -1.1142  0.9432  1.1009
27620SOL    HW285754   5.314   1.645   2.067  0.1572  0.8985  1.6463
27621SOL     OW85755   2.040   7.180   2.800 -0.2788 -0.2342 -0.1129
27621SOL    HW185756   2.071   7.197   2.711  3.0954  0.9473  1.1099
27621SOL    HW285757   2.029   7.266   2.839 -0.6337 -0.7359  0.9358
27622SOL     OW85758   6.644   5.590   8.363  0.0126  0.8251 -0.0849
27622SOL    HW185759   6.625   5.499   8.338 -0.3773  0.5842  1.0022
27622SOL    HW285760   6.648   5.638   8.280 -1.9593  0.2267 -0.5770
27623SOL     OW85761   5.863   2.202   2.601 -0.6166 -0.4206  0.0866
27623SOL    HW185762   5.780   2.224   2.560 -0.8739  0.7716  1.1963
27623SOL    HW285763   5.906   2.286   2.615  0.5342 -0.9865  0.0452
27624SOL     OW85764   7.292   9.855   0.369 -0.0490 -0.1448  0.0602
27624SOL    HW185765   7.365   9.805   0.332 -0.3899 -0.1356 -0.6333
27624SOL    HW285766   7.241   9.883   0.293 -0.6013  0.1217  0.5236
27625SOL     OW85767   3.997   7.035   2.261 -0.8319  0.4406  0.3092
27625SOL    HW185768   3.918   6.989   2.290 -0.3713  0.5047  1.6978
27625SOL    HW285769   4.042   6.972   2.205 -0.9146 -0.2837  1.0461
27626SOL     OW85770   6.678   0.154   6.304  0.0081 -0.2805  0.0369
27626SOL    HW185771   6.588   0.140   6.273 -0.2102 -0.2046  0.6196
27626SOL    HW285772   6.669   0.166   6.399  0.6409 -0.3309  0.1083
27627SOL     OW85773   4.492   4.436   5.032  0.3713 -0.2031 -0.2789
27627SOL    HW185774   4.584   4.460   5.021  0.5209 -0.9076 -0.5509
27627SOL    HW285775   4.481   4.356   4.982 -0.4886  0.0790 -0.5612
27628SOL     OW85776   9.177   0.965   5.407  0.0976  0.7158 -0.2552
27628SOL    HW185777   9.219   1.029   5.464  4.5820 -0.6027 -1.7255
27628SOL    HW285778   9.135   1.018   5.339  0.1721  2.1144  0.7417
27629SOL     OW85779   1.966   3.585   7.096  0.3164  0.1741 -0.3419
27629SOL    HW185780   2.041   3.580   7.155  0.5067  0.0150 -0.5934
27629SOL    HW285781   1.991   3.529   7.021  0.0307  0.2775 -0.5149
27630SOL     OW85782  10.353   8.535   9.651 -0.2927 -0.1337  0.0373
27630SOL    HW185783  10.346   8.478   9.727 -2.1526 -0.0693 -0.0447
27630SOL    HW285784  10.282   8.507   9.593  0.2743  0.6787 -1.1006
27631SOL     OW85785   0.003   7.580   3.867  0.1598  0.3339  0.6069
27631SOL    HW185786  -0.058   7.623   3.927 -1.8134  0.7787 -1.5790
27631SOL    HW285787  -0.047   7.508   3.828  1.7669 -0.7086  0.3412
27632SOL     OW85788   2.117   4.739   3.046  0.0094 -0.0616  0.1947
27632SOL    HW185789   2.057   4.682   2.996 -2.1207  0.4130  2.0349
27632SOL    HW285790   2.117   4.701   3.134  0.5723  1.3309  0.8122
27633SOL     OW85791   7.837   0.704   9.280 -0.0182  0.3570  0.4011
27633SOL    HW185792   7.843   0.798   9.299 -0.2240  0.7521 -1.3562
27633SOL    HW285793   7.830   0.663   9.367 -2.6470  2.1562  1.1882
27634SOL     OW85794  10.742   4.692   1.756 -0.6511 -0.1110 -0.4982
27634SOL    HW185795  10.659   4.740   1.745  1.4769  4.0421 -0.4139
27634SOL    HW285796  10.769   4.672   1.666 -1.0169 -0.0873 -0.6175
27635SOL     OW85797   0.265   4.589   6.698  0.1713 -0.7201 -0.2966
27635SOL    HW185798   0.291   4.555   6.784  0.2752  1.8058  0.7490
27635SOL    HW285799   0.172   4.568   6.691  0.4469 -2.0777 -0.1701
27636SOL     OW85800   0.784   0.583   8.938 -0.6285 -0.5276 -0.5717
27636SOL    HW185801   0.802   0.493   8.966 -2.5531 -0.2047  2.0661
27636SOL    HW285802   0.845   0.637   8.988 -1.5952 -0.1798  0.2551
27637SOL     OW85803   8.984   7.655   2.278  0.1461  0.6862 -0.3142
27637SOL    HW185804   8.889   7.643   2.279  0.0541  1.2188 -1.1031
27637SOL    HW285805   8.996   7.741   2.238  0.9690  0.5085 -0.4652
27638SOL     OW85806   8.039   6.097   4.013 -0.3892  0.1608  0.7035
27638SOL    HW185807   8.010   6.006   4.010 -0.5645  0.2231  0.5149
27638SOL    HW285808   8.098   6.107   3.939  1.1398 -0.3130  1.8198
27639SOL     OW85809   9.533   5.132   4.952  0.1964 -0.6299 -0.6941
27639SOL    HW185810   9.552   5.096   4.866 -2.9782  0.0764 -1.8577
27639SOL    HW285811   9.496   5.218   4.934 -0.4299 -0.4087  1.3855
27640SOL     OW85812   7.401  10.194   1.778 -0.1420  1.1561  0.0124
27640SOL    HW185813   7.458  10.265   1.810 -0.2785  0.6850  1.3688
27640SOL    HW285814   7.356  10.163   1.856  0.9624 -1.3879 -0.2697
27641SOL     OW85815   2.835   4.020   6.283 -0.0542 -0.0590  0.1319
27641SOL    HW185816   2.867   3.953   6.343  0.3553 -0.2658 -0.3088
27641SOL    HW285817   2.914   4.056   6.243 -0.2053  1.2581  0.9502
27642SOL     OW85818   4.832   2.838   2.280 -0.6658  0.0624  0.3673
27642SOL    HW185819   4.887   2.818   2.205  1.8814 -0.6412  2.2892
27642SOL    HW285820   4.782   2.757   2.295  1.4281 -1.1273  1.4437
27643SOL     OW85821   5.074   3.263   9.580  0.0059  0.0895  0.8993
27643SOL    HW185822   5.107   3.193   9.637  0.2863 -0.0757  0.5347
27643SOL    HW285823   5.142   3.331   9.585  0.8612 -0.6063 -0.5380
27644SOL     OW85824   9.177   0.920   4.465 -0.1757  0.1019 -0.4244
27644SOL    HW185825   9.167   0.850   4.529 -1.6125  0.7069  0.0636
27644SOL    HW285826   9.271   0.924   4.447  0.2557 -0.1870  1.5216
27645SOL     OW85827   8.341   8.933   3.439  0.0810  0.4265  0.3139
27645SOL    HW185828   8.281   8.910   3.511  0.8762  0.5958  1.0564
27645SOL    HW285829   8.412   8.980   3.482  0.4034  0.8388 -0.6510
27646SOL     OW85830   3.162   4.577   7.951 -0.5091  0.3727  0.2246
27646SOL    HW185831   3.212   4.637   8.008 -1.1408  0.4917  0.6594
27646SOL    HW285832   3.228   4.516   7.919  0.0917  1.0947  0.0396
27647SOL     OW85833   6.968   9.837   2.532  0.5762  0.2100 -0.2731
27647SOL    HW185834   7.034   9.905   2.525 -1.2546  2.0888 -0.0661
27647SOL    HW285835   7.008   9.760   2.492  2.9405  1.2018  0.0716
27648SOL     OW85836   0.341   8.513   7.313 -0.0450 -0.3612  0.6876
27648SOL    HW185837   0.363   8.515   7.406 -0.5240 -1.1663  0.8290
27648SOL    HW285838   0.375   8.429   7.282  1.7334  0.6653 -0.2944
27649SOL     OW85839   5.044   5.117   8.228 -0.4430 -0.1565 -0.1686
27649SOL    HW185840   5.104   5.182   8.265 -0.8961 -0.1569  0.5778
27649SOL    HW285841   4.984   5.169   8.173  1.9666 -0.4406 -3.3498
27650SOL     OW85842   4.523   7.044   6.305 -0.0562  0.1093 -0.4383
27650SOL    HW185843   4.445   7.099   6.308 -1.2577 -1.4430 -1.6088
27650SOL    HW285844   4.568   7.071   6.224  0.7256  1.0777  0.2898
27651SOL     OW85845   8.139   7.563   1.744  0.0902  0.0744  0.4413
27651SOL    HW185846   8.045   7.547   1.740  0.0749 -0.2505  1.6349
27651SOL    HW285847   8.157   7.624   1.672 -0.5817 -1.8880 -1.5198
27652SOL     OW85848   0.015   1.492   6.174 -0.2089  0.5403  1.0267
27652SOL    HW185849   0.047   1.523   6.259  1.6682 -0.7106  0.8462
27652SOL    HW285850  -0.018   1.403   6.192  1.8063 -0.4336  0.2029
27653SOL     OW85851   9.945   4.473   9.620  0.3998 -0.3333  0.2492
27653SOL    HW185852  10.036   4.500   9.606  0.5740  0.0149  1.8648
27653SOL    HW285853   9.893   4.548   9.593  0.6007 -0.4273 -0.4135
27654SOL     OW85854   7.789   6.096   9.440 -0.0153 -1.1569 -0.5091
27654SOL    HW185855   7.718   6.038   9.468 -0.0717  0.0709  2.1790
27654SOL    HW285856   7.747   6.159   9.382 -1.0994 -0.6332  0.7954
27655SOL     OW85857   5.275   2.446   1.562  0.4135 -0.7196 -0.3171
27655SOL    HW185858   5.285   2.540   1.580  0.1360 -1.0159  1.6622
27655SOL    HW285859   5.295   2.437   1.469  2.2916  1.0508 -0.1624
27656SOL     OW85860   9.545   4.944   9.267 -0.3228  0.2916 -0.1087
27656SOL    HW185861   9.503   4.994   9.337  0.2906  1.4845 -0.5537
27656SOL    HW285862   9.637   4.940   9.292 -0.3423 -0.5589 -0.1349
27657SOL     OW85863   6.846   0.341   5.237  0.1265  0.6447  0.2182
27657SOL    HW185864   6.844   0.422   5.187  0.0745  0.5347  0.0409
27657SOL    HW285865   6.886   0.365   5.321  3.1030  0.2169 -0.9677
27658SOL     OW85866   5.189   0.329   1.180  0.5122 -0.1617  0.0342
27658SOL    HW185867   5.126   0.293   1.243  1.3340 -1.8341 -0.0582
27658SOL    HW285868   5.266   0.348   1.233  0.1624  1.3963  0.0506
27659SOL     OW85869   1.776   8.808   6.393 -1.4490  0.2381 -0.2327
27659SOL    HW185870   1.704   8.759   6.433  0.6250 -0.9907  2.3681
27659SOL    HW285871   1.854   8.757   6.415  0.2699  1.4846 -2.9389
27660SOL     OW85872  10.123   9.553   8.632 -0.4831 -0.1371  0.1735
27660SOL    HW185873  10.170   9.595   8.704 -1.4058  0.5027  0.4207
27660SOL    HW285874  10.041   9.523   8.672  0.5734 -3.2024  0.2961
27661SOL     OW85875   8.947   9.408   7.769 -0.4953 -0.3184 -0.1457
27661SOL    HW185876   9.011   9.345   7.735 -0.2036  0.3333 -0.8231
27661SOL    HW285877   9.000   9.477   7.809 -0.8113 -0.3306  0.3059
27662SOL     OW85878   0.025   6.099   5.019 -0.4636  0.3664 -0.3849
27662SOL    HW185879   0.110   6.055   5.025 -0.7382 -0.1646 -0.4164
27662SOL    HW285880   0.044   6.190   5.043  0.3510  0.5527 -1.6226
27663SOL     OW85881   7.016   9.988   0.407 -0.4732 -0.0044  0.1395
27663SOL    HW185882   6.993  10.051   0.476 -3.0022 -0.1126 -0.5179
27663SOL    HW285883   6.962   9.912   0.425 -1.3302  0.0312 -2.0479
27664SOL     OW85884   3.338   2.624   5.936  0.4644 -0.0554  0.3555
27664SOL    HW185885   3.270   2.685   5.907  0.0855  0.6190  2.4861
27664SOL    HW285886   3.414   2.644   5.881 -0.5722  0.2314 -1.0183
27665SOL     OW85887   6.292   2.529   8.246 -0.2184  0.0395 -0.1105
27665SOL    HW185888   6.281   2.566   8.333 -0.5917 -0.0309 -0.1232
27665SOL    HW285889   6.213   2.556   8.199  0.5091  1.0546 -0.7830
27666SOL     OW85890   1.985   9.860   9.466  0.0939 -0.0538 -0.1173
27666SOL    HW185891   1.942   9.927   9.413 -1.0733  2.3334  3.4215
27666SOL    HW285892   2.077   9.888   9.469 -0.3782  1.5462  1.3149
27667SOL     OW85893   9.706   2.312   0.856 -0.0723 -0.5247 -0.3807
27667SOL    HW185894   9.626   2.363   0.860  0.2911  0.0816 -0.6664
27667SOL    HW285895   9.677   2.221   0.855 -0.8494 -0.2945 -2.1973
27668SOL     OW85896  10.612   8.208   4.042  0.3590 -0.2623  0.6634
27668SOL    HW185897  10.533   8.154   4.034 -0.8623  1.1437  2.4032
27668SOL    HW285898  10.665   8.164   4.108 -0.7220  0.7029  2.2210
27669SOL     OW85899  10.569   2.011   9.975  0.4141 -0.6356 -0.3013
27669SOL    HW185900  10.497   1.962   9.936  0.3836 -1.0749  0.2914
27669SOL    HW285901  10.629   1.943  10.007  0.5946 -0.2828  0.1161
27670SOL     OW85902   7.646   9.358   3.200 -0.9372  0.3624 -0.0991
27670SOL    HW185903   7.658   9.267   3.172 -1.1875  0.6642 -1.2810
27670SOL    HW285904   7.632   9.406   3.118  1.3458  1.8280  0.2605
27671SOL     OW85905  10.611   9.697   9.215  0.0862  0.9009 -0.6938
27671SOL    HW185906  10.605   9.717   9.122 -0.1990  2.1113 -0.4368
27671SOL    HW285907  10.694   9.736   9.243  0.2753  0.3525 -0.4907
27672SOL     OW85908  10.412   2.566   1.525 -0.0413 -0.0583 -0.3001
27672SOL    HW185909  10.400   2.638   1.463 -2.0869 -0.0317  0.0575
27672SOL    HW285910  10.332   2.514   1.518  0.3819 -0.9842  1.1429
27673SOL     OW85911   3.535   7.154   1.239 -0.0690 -0.1875  0.3199
27673SOL    HW185912   3.583   7.204   1.173  1.3261 -1.0157  0.6595
27673SOL    HW285913   3.522   7.068   1.199 -0.0559 -0.3949  0.7562
27674SOL     OW85914   1.576   5.037   4.928  0.0169  0.4780  0.3023
27674SOL    HW185915   1.518   4.978   4.976 -1.1961  0.2206 -1.3989
27674SOL    HW285916   1.581   5.000   4.840  0.8000  1.8510 -0.2610
27675SOL     OW85917   5.965   3.479   1.542 -0.1342  0.0255  0.3965
27675SOL    HW185918   6.012   3.525   1.473 -3.2820  1.3978 -1.0324
27675SOL    HW285919   5.949   3.392   1.507 -0.4341  0.2276  0.0334
27676SOL     OW85920   8.468   8.863   1.556 -0.5504 -0.0520 -0.0793
27676SOL    HW185921   8.463   8.930   1.624 -1.0038  1.5242 -1.6069
27676SOL    HW285922   8.376   8.846   1.532 -0.3720 -0.3090 -0.5883
27677SOL     OW85923   4.416   8.769   0.169  0.3574  0.8369  0.1718
27677SOL    HW185924   4.461   8.692   0.203 -0.5960  0.8394  1.4793
27677SOL    HW285925   4.436   8.769   0.075  2.9962  0.7927  0.6608
27678SOL     OW85926   0.676   6.367   5.244  0.2352  0.1600  0.0463
27678SOL    HW185927   0.683   6.310   5.167  1.3824  1.8870 -1.1910
27678SOL    HW285928   0.745   6.432   5.233  1.3699 -0.2932  3.2410
27679SOL     OW85929   7.207   6.209   9.101  0.7771 -0.2307 -0.5750
27679SOL    HW185930   7.123   6.165   9.085  1.0501 -1.5090  1.1915
27679SOL    HW285931   7.264   6.177   9.030  0.0189 -0.0232 -1.2915
27680SOL     OW85932   2.368   0.974   6.780 -0.2702  0.3241  0.2178
27680SOL    HW185933   2.462   0.958   6.786 -0.2591  0.2662 -0.1050
27680SOL    HW285934   2.361   1.070   6.780 -0.2375  0.3292  0.6074
27681SOL     OW85935   2.901   6.859   4.376  0.2152  0.4494  0.4914
27681SOL    HW185936   2.977   6.900   4.336  0.6168 -0.2492  0.5248
27681SOL    HW285937   2.876   6.790   4.315  0.6060 -0.3795  1.2383
27682SOL     OW85938   2.754   5.271   6.775  0.7897  0.0485 -0.1031
27682SOL    HW185939   2.767   5.177   6.763  0.4754 -0.3833  2.4607
27682SOL    HW285940   2.840   5.309   6.757  0.6200 -0.4886 -2.4795
27683SOL     OW85941   7.766   2.147   5.390 -0.6665  0.5121  0.6224
27683SOL    HW185942   7.794   2.228   5.347  2.0100  0.0995  1.4081
27683SOL    HW285943   7.733   2.092   5.319 -2.4430  2.1859  0.0599
27684SOL     OW85944   4.907   4.663   2.425  0.0345 -0.0002  0.3408
27684SOL    HW185945   4.959   4.611   2.364 -1.0345 -0.2254 -0.4144
27684SOL    HW285946   4.907   4.611   2.506  1.0570  0.0665  0.4005
27685SOL     OW85947   9.676  10.288   3.352 -0.2892  0.1059 -0.2869
27685SOL    HW185948   9.604  10.348   3.372 -0.7205 -0.5459  0.1696
27685SOL    HW285949   9.634  10.202   3.347  0.3216 -0.1583 -0.9223
27686SOL     OW85950  10.124   9.888   4.505 -0.7328  0.0109 -0.3120
27686SOL    HW185951  10.149   9.980   4.507 -2.3338  0.4560  0.7876
27686SOL    HW285952  10.183   9.845   4.566 -1.2088  0.6551  0.6156
27687SOL     OW85953   1.017   3.611   8.565 -0.2957 -0.0446  0.2127
27687SOL    HW185954   1.030   3.602   8.660  0.4800  1.7067  0.3106
27687SOL    HW285955   0.981   3.527   8.538 -0.7572 -0.5072  2.0999
27688SOL     OW85956   3.590   0.517   9.478  0.4050  0.3424  0.5970
27688SOL    HW185957   3.562   0.602   9.512  1.3257  0.3084  1.5251
27688SOL    HW285958   3.540   0.453   9.529 -0.5894  0.3237 -0.3869
27689SOL     OW85959   1.187   8.393  10.393 -0.1077 -0.4699 -0.1410
27689SOL    HW185960   1.264   8.340  10.372 -0.0719 -0.4378 -0.0908
27689SOL    HW285961   1.128   8.380  10.318 -0.1328 -0.6419 -0.0909
27690SOL     OW85962   6.849   5.458   2.647 -0.3292  1.0613  0.0338
27690SOL    HW185963   6.931   5.428   2.684  1.2483  2.9959 -1.6048
27690SOL    HW285964   6.848   5.423   2.558 -1.7286  0.3534  0.2953
27691SOL     OW85965   1.125  10.660   9.542 -0.3703 -0.0073 -0.0543
27691SOL    HW185966   1.049  10.613   9.507 -0.8735  1.2060 -0.6744
27691SOL    HW285967   1.098  10.687   9.630  0.3301 -1.7728  0.7317
27692SOL     OW85968   2.414   7.452   7.030 -0.3050 -0.6524  0.3366
27692SOL    HW185969   2.457   7.529   6.994 -2.0000  0.0110 -0.3896
27692SOL    HW285970   2.474   7.420   7.098  0.3072  1.4758  0.8665
27693SOL     OW85971   0.668   5.424   1.074  0.0823 -0.0956  0.0547
27693SOL    HW185972   0.696   5.333   1.079  0.6332  0.0221 -0.6464
27693SOL    HW285973   0.727   5.471   1.132 -0.9150 -0.3268  1.2926
27694SOL     OW85974   0.618  10.603   7.847  0.8219  0.3421  0.1549
27694SOL    HW185975   0.570  10.684   7.828 -0.5364 -0.5349 -0.2600
27694SOL    HW285976   0.674  10.589   7.771 -0.8128 -0.4350 -0.9367
27695SOL     OW85977   1.923  10.151   6.999  0.6309  0.0360  0.4121
27695SOL    HW185978   1.917  10.246   7.013 -1.1313 -0.1943  1.4340
27695SOL    HW285979   1.877  10.136   6.916  2.3932  0.2269 -0.6567
27696SOL     OW85980   5.106   5.703   7.031  0.2155 -0.2736  0.1664
27696SOL    HW185981   5.166   5.723   6.959  0.6660  0.3659  0.7169
27696SOL    HW285982   5.035   5.767   7.021 -0.0627 -0.6174 -0.1005
27697SOL     OW85983   3.049   7.517   6.265  0.0036 -0.3710 -0.4759
27697SOL    HW185984   3.105   7.440   6.274 -0.5395 -0.7991 -0.7617
27697SOL    HW285985   3.088   7.566   6.192  2.3869  1.3915  1.7731
27698SOL     OW85986   3.150   3.655   4.679 -0.0277 -0.4478 -0.5189
27698SOL    HW185987   3.076   3.614   4.724 -1.5704  0.4768 -2.0887
27698SOL    HW285988   3.156   3.742   4.719  0.7526 -0.7831  0.1337
27699SOL     OW85989   6.269   1.990   2.799  0.4136 -0.3184 -0.1277
27699SOL    HW185990   6.212   1.994   2.875  1.7169  0.1395  0.8721
27699SOL    HW285991   6.210   1.985   2.724 -0.9051 -0.3489  0.8819
27700SOL     OW85992   9.695   3.329   0.400  0.0972  0.1362  0.2628
27700SOL    HW185993   9.600   3.325   0.390  0.1049  0.3559  0.0969
27700SOL    HW285994   9.712   3.419   0.428  0.3581  0.4515 -0.8612
27701SOL     OW85995   4.901   0.287   2.595 -0.0177  0.5428  0.1622
27701SOL    HW185996   4.948   0.252   2.519 -0.1836 -0.4473  0.5025
27701SOL    HW285997   4.931   0.234   2.668 -0.4565  0.9752  0.6611
27702SOL     OW85998   1.395   6.865   9.921  0.2889  0.2598  0.1627
27702SOL    HW185999   1.456   6.849   9.992  2.1591 -0.1997 -1.4525
27702SOL    HW286000   1.375   6.958   9.926 -0.9325 -0.0385  2.2087
27703SOL     OW86001   7.230   5.705  10.169  0.4361  0.3115  0.2320
27703SOL    HW186002   7.320   5.730  10.147  1.0733 -0.7417  1.4765
27703SOL    HW286003   7.206   5.640  10.102  1.1919 -0.5428  0.7594
27704SOL     OW86004   9.257   4.082   3.678 -0.1871  0.9572  0.8498
27704SOL    HW186005   9.305   4.064   3.598 -0.0002  1.8834  0.7477
27704SOL    HW286006   9.318   4.131   3.733 -0.4354  0.6514  1.4146
27705SOL     OW86007   4.436   4.573  10.697 -0.1724  0.6730 -1.0293
27705SOL    HW186008   4.515   4.548  10.744 -0.4884  1.0151 -0.2994
27705SOL    HW286009   4.424   4.666  10.716 -0.8854  0.5684 -0.9173
27706SOL     OW86010   3.307   9.209   9.722 -0.9136 -0.1359  0.4906
27706SOL    HW186011   3.290   9.123   9.683 -0.5648  0.0160 -0.0120
27706SOL    HW286012   3.248   9.268   9.674 -0.4000  0.0704  0.1036
27707SOL     OW86013  10.481   5.646   1.855 -0.3423  0.6078 -0.3098
27707SOL    HW186014  10.557   5.704   1.854  0.1696  0.0824  1.9433
27707SOL    HW286015  10.493   5.589   1.779  1.0632  1.0828 -0.4695
27708SOL     OW86016   5.178   8.364   8.371 -0.2361 -0.1320  0.1118
27708SOL    HW186017   5.171   8.304   8.445  0.0855 -0.2270  0.0685
27708SOL    HW286018   5.098   8.349   8.320 -0.0674 -0.6695 -0.0005
27709SOL     OW86019   7.165   1.799   6.477  0.0006 -0.1142 -0.2506
27709SOL    HW186020   7.122   1.857   6.540 -0.2974  1.5644 -1.8810
27709SOL    HW286021   7.167   1.851   6.396  0.5936 -2.0703 -1.5456
27710SOL     OW86022   0.767   5.179   7.110 -0.2379  0.0797 -0.3705
27710SOL    HW186023   0.807   5.098   7.078 -3.0549 -1.2602 -0.8157
27710SOL    HW286024   0.791   5.245   7.044  0.8423 -0.7164 -0.8044
27711SOL     OW86025   6.364   1.886   6.011 -0.1266  0.1816  0.3271
27711SOL    HW186026   6.270   1.881   5.995 -0.0574  2.4810 -1.1710
27711SOL    HW286027   6.403   1.838   5.938 -0.1096  1.3890 -0.4865
27712SOL     OW86028   4.423   6.975   0.806 -0.3955 -0.1433  0.3063
27712SOL    HW186029   4.425   6.934   0.719  0.9909  1.1181 -0.3020
27712SOL    HW286030   4.421   7.069   0.788 -1.7881  0.1306  1.6638
27713SOL     OW86031   0.023   1.298   6.463 -0.0935 -0.2344 -0.1177
27713SOL    HW186032   0.070   1.236   6.407  1.0298  1.5557 -1.2211
27713SOL    HW286033   0.054   1.278   6.552  0.0946 -1.3557 -0.4210
27714SOL     OW86034   1.290   4.810   4.294 -0.2624 -0.1334  0.3473
27714SOL    HW186035   1.231   4.871   4.250 -3.2566 -0.9546  2.8517
27714SOL    HW286036   1.264   4.724   4.262  3.2755 -0.3948 -2.4266
27715SOL     OW86037   1.664   7.575   1.720 -0.6513  0.2947  0.0012
27715SOL    HW186038   1.621   7.496   1.755 -1.9120  1.3935  1.0910
27715SOL    HW286039   1.727   7.599   1.787 -0.3802  0.2962 -0.2557
27716SOL     OW86040   5.122   3.192   8.030  0.1327 -0.4768 -0.3725
27716SOL    HW186041   5.171   3.271   8.051 -2.7151  0.9166  1.6121
27716SOL    HW286042   5.071   3.215   7.952 -0.9710 -0.1894  0.4167
27717SOL     OW86043   5.590   9.412   1.340  0.5821 -0.2929  0.3415
27717SOL    HW186044   5.541   9.418   1.258  3.4332  1.2462 -1.4195
27717SOL    HW286045   5.582   9.321   1.366 -2.1050 -0.3777 -0.4491
27718SOL     OW86046   5.171   1.453   8.819 -0.3125  0.3187 -0.6533
27718SOL    HW186047   5.253   1.503   8.811 -0.1530 -0.0428 -1.4073
27718SOL    HW286048   5.145   1.464   8.911  1.1069 -0.3587 -0.1290
27719SOL     OW86049   2.976   4.880   8.369  0.0369  0.1894  0.4722
27719SOL    HW186050   2.986   4.795   8.326  0.4394  0.6777 -0.4171
27719SOL    HW286051   2.892   4.913   8.338  0.1752  0.3926  0.3067
27720SOL     OW86052   6.837  10.179   8.945  0.3681  0.2789 -0.3035
27720SOL    HW186053   6.832  10.110   8.879 -1.5225 -0.4418  0.5279
27720SOL    HW286054   6.781  10.248   8.911 -0.1222  0.1575  0.2477
27721SOL     OW86055   8.574  10.178   1.706 -0.4374  0.8413 -0.8028
27721SOL    HW186056   8.550  10.143   1.792  1.0796 -1.0176 -1.0532
27721SOL    HW286057   8.609  10.265   1.725  1.0280  0.0021  0.6850
27722SOL     OW86058   8.037   1.506   9.473 -0.0469 -0.9809  0.4710
27722SOL    HW186059   7.955   1.514   9.426 -0.7457  0.1186  1.8105
27722SOL    HW286060   8.027   1.563   9.549  2.1847 -0.3572  0.3590
27723SOL     OW86061   2.703   1.640   6.597 -0.1696 -0.7323 -0.4458
27723SOL    HW186062   2.691   1.601   6.510 -0.6074 -0.8013 -0.3592
27723SOL    HW286063   2.701   1.565   6.656  1.7043 -0.8629 -0.4940
27724SOL     OW86064   6.355   0.425   4.067  0.2624  0.1358 -0.4735
27724SOL    HW186065   6.396   0.472   3.994 -1.0168  1.6235 -0.2865
27724SOL    HW286066   6.334   0.338   4.031 -1.1883  1.1254 -2.2284
27725SOL     OW86067   1.946   4.692   8.029 -0.4058 -0.3442  0.5895
27725SOL    HW186068   2.040   4.679   8.037 -0.4527 -0.2576  1.3286
27725SOL    HW286069   1.936   4.740   7.947  0.2442  0.1734  0.8051
27726SOL     OW86070   9.326   2.096   2.805  0.4588  0.0070 -0.0772
27726SOL    HW186071   9.348   2.012   2.845 -1.4079 -0.8433 -0.7554
27726SOL    HW286072   9.391   2.107   2.736  1.0308 -0.6153  0.3443
27727SOL     OW86073   5.554   2.302   8.979  0.6253 -0.4285  0.4694
27727SOL    HW186074   5.553   2.363   8.905  2.6904  0.9849  1.5157
27727SOL    HW286075   5.496   2.342   9.043  0.8052 -0.3461  0.5808
27728SOL     OW86076   8.769   8.149   3.735  0.1828  0.0702  0.1841
27728SOL    HW186077   8.680   8.152   3.769  0.5254  0.0879  1.1215
27728SOL    HW286078   8.778   8.230   3.684  0.4572  1.4460  2.2456
27729SOL     OW86079  10.368   0.464   7.715  0.0503 -0.2909 -0.1110
27729SOL    HW186080  10.423   0.392   7.684  0.5672  0.0309  0.0513
27729SOL    HW286081  10.309   0.423   7.779  0.5460 -0.5149  0.2096
27730SOL     OW86082   3.577   2.897   3.431 -0.9621  0.1123 -0.0843
27730SOL    HW186083   3.521   2.967   3.396 -0.9919 -0.2289 -0.7421
27730SOL    HW286084   3.654   2.897   3.373 -1.6649 -1.4257 -1.0893
27731SOL     OW86085   5.884   9.813   3.278  0.0440  0.3225  0.1121
27731SOL    HW186086   5.834   9.733   3.299 -2.0736  1.1379 -1.4648
27731SOL    HW286087   5.830   9.884   3.312  1.1435  1.1809  0.1187
27732SOL     OW86088   4.428   5.122   0.396  0.7336 -0.2502 -0.3993
27732SOL    HW186089   4.500   5.161   0.345 -1.2054  1.9994 -1.6495
27732SOL    HW286090   4.410   5.185   0.465 -0.4265 -0.4406 -0.4992
27733SOL     OW86091   8.297   4.562   5.536  0.0115 -0.1606  0.9143
27733SOL    HW186092   8.211   4.563   5.577 -0.6249 -0.0793 -0.3696
27733SOL    HW286093   8.281   4.588   5.445  1.1969 -1.4538  0.2909
27734SOL     OW86094   9.195   2.551   1.900 -0.6291 -0.1561  0.3695
27734SOL    HW186095   9.262   2.501   1.947 -1.4267 -0.2267  1.4576
27734SOL    HW286096   9.137   2.584   1.968 -1.8410 -0.2851 -0.5624
27735SOL     OW86097   6.820  10.613   5.757 -0.0427 -0.5832 -0.6862
27735SOL    HW186098   6.854  10.567   5.833  1.6572 -0.9854 -1.6444
27735SOL    HW286099   6.744  10.662   5.790 -1.6338 -3.6059  0.4760
27736SOL     OW86100   8.044   7.593   3.718 -0.8124  0.3480  0.2245
27736SOL    HW186101   7.963   7.602   3.667 -1.1359 -1.5684  0.3119
27736SOL    HW286102   8.029   7.515   3.772  0.0649  1.4867  2.2562
27737SOL     OW86103   9.469  10.646   5.272 -0.1090 -0.6164  0.2754
27737SOL    HW186104   9.446  10.693   5.352 -1.7967  0.1339 -0.6069
27737SOL    HW286105   9.392  10.592   5.253  1.0966 -2.4463  0.2782
27738SOL     OW86106   7.413   9.697   7.805 -0.1742 -0.7484  0.4796
27738SOL    HW186107   7.454   9.611   7.794 -2.4307 -1.6217 -2.2013
27738SOL    HW286108   7.389   9.700   7.898  0.6498 -2.6955  0.8035
27739SOL     OW86109   7.572  10.486   8.198  0.0395  0.2889  0.2047
27739SOL    HW186110   7.577  10.390   8.203  0.8485  0.3897  2.8927
27739SOL    HW286111   7.587  10.506   8.106 -2.1881 -2.2322 -0.8438
27740SOL     OW86112   1.551   4.318   6.069  0.1682  0.2137  0.0980
27740SOL    HW186113   1.588   4.405   6.085 -0.0887 -0.0740  2.5545
27740SOL    HW286114   1.494   4.301   6.144  0.0271 -2.0107 -0.4305
27741SOL     OW86115   2.204   5.705   5.696  0.3040 -0.3561 -0.0085
27741SOL    HW186116   2.212   5.798   5.672  0.6287 -0.1243  0.9358
27741SOL    HW286117   2.129   5.674   5.645  1.5534 -0.1727 -2.0587
27742SOL     OW86118   3.335   6.348   5.347 -0.1185 -0.4167 -0.4779
27742SOL    HW186119   3.402   6.356   5.279 -0.2512 -0.7125 -0.6442
27742SOL    HW286120   3.335   6.433   5.390 -0.2215 -0.1285 -1.0283
27743SOL     OW86121   0.455  10.325   1.060 -0.6299 -0.0205 -0.4827
27743SOL    HW186122   0.442  10.260   1.129 -0.8494 -1.3692 -1.7577
27743SOL    HW286123   0.393  10.300   0.992  0.7794  0.2325 -1.9129
27744SOL     OW86124   8.200   4.752   2.554  0.1473  0.4771 -0.2368
27744SOL    HW186125   8.266   4.728   2.619  0.1843  0.8592 -0.1300
27744SOL    HW286126   8.231   4.836   2.519  1.4751 -0.8303 -2.5030
27745SOL     OW86127   7.882   3.515   5.369 -0.4526  0.4776 -0.2637
27745SOL    HW186128   7.815   3.554   5.425 -1.5189 -1.5701 -0.0130
27745SOL    HW286129   7.935   3.461   5.429 -0.8254 -0.7411 -1.0012
27746SOL     OW86130   5.683   7.934   8.573  0.4838  0.6423 -0.0838
27746SOL    HW186131   5.639   7.954   8.656  1.0032  1.4084  0.0232
27746SOL    HW286132   5.708   7.842   8.580 -0.9445  0.2290 -0.0868
27747SOL     OW86133  10.253   3.549   2.062 -0.1123  0.3759  0.1192
27747SOL    HW186134  10.267   3.461   2.027  1.4705  0.2364  1.0010
27747SOL    HW286135  10.185   3.587   2.007  0.1098 -0.9331 -1.0977
27748SOL     OW86136   1.088  10.713   3.945 -0.0087 -0.1974  0.4704
27748SOL    HW186137   1.098  10.809   3.948  1.6915 -0.3109 -0.7006
27748SOL    HW286138   1.024  10.699   3.875 -0.5263  0.0873  0.8772
27749SOL     OW86139   5.691   0.110   9.228 -0.2136 -0.4749 -0.0398
27749SOL    HW186140   5.679   0.125   9.322  2.1707 -2.0912  0.5983
27749SOL    HW286141   5.626   0.044   9.206 -1.5839  0.7435  0.1441
27750SOL     OW86142  10.158   0.012   8.104  0.7677  0.2598 -0.2535
27750SOL    HW186143  10.225   0.017   8.173  0.1324  0.1904  0.3734
27750SOL    HW286144  10.202   0.045   8.026  0.7156  2.9188  0.7559
27751SOL     OW86145   2.200   9.396   2.145  0.2159  0.1538  0.2954
27751SOL    HW186146   2.268   9.348   2.192  0.6907  1.6363  1.1812
27751SOL    HW286147   2.239   9.417   2.060  0.9299  1.0597  0.8258
27752SOL     OW86148   5.639   0.099   1.129  0.1071  0.0821 -0.3748
27752SOL    HW186149   5.681   0.024   1.170 -1.0928  0.2028  1.1674
27752SOL    HW286150   5.545   0.085   1.142 -0.1606  1.7524 -0.1792
27753SOL     OW86151   7.193   4.971   1.630 -0.0387 -0.5710  0.0203
27753SOL    HW186152   7.107   4.995   1.663  0.5568 -0.3089  1.4995
27753SOL    HW286153   7.253   5.031   1.675  1.0401 -1.7305  0.1843
27754SOL     OW86154   9.587   3.654   9.688 -0.5655  0.0976  0.0211
27754SOL    HW186155   9.579   3.666   9.783 -1.5751 -1.3938  0.1584
27754SOL    HW286156   9.564   3.562   9.674 -0.5944  0.3480 -1.7004
27755SOL     OW86157   6.625   6.013   2.258  0.6876  0.0425 -0.1548
27755SOL    HW186158   6.695   6.053   2.205 -0.5565 -0.4735 -2.3311
27755SOL    HW286159   6.548   6.067   2.240 -0.0711 -0.9220  0.1233
27756SOL     OW86160   9.434   2.884   3.667 -0.5706  0.3418 -0.4373
27756SOL    HW186161   9.404   2.886   3.576 -0.1610  2.3545 -0.5812
27756SOL    HW286162   9.514   2.937   3.667  1.5853 -2.6702  0.4271
27757SOL     OW86163   2.462  10.026   8.231 -0.4070  0.1248 -0.2633
27757SOL    HW186164   2.526   9.981   8.176 -0.8359 -0.3989 -0.3434
27757SOL    HW286165   2.512  10.095   8.274  0.1477 -0.0914 -0.5496
27758SOL     OW86166  10.335   7.583   6.189 -0.0472  0.2079 -0.3043
27758SOL    HW186167  10.330   7.679   6.198 -0.0646  0.1674  0.1692
27758SOL    HW286168  10.399   7.569   6.119 -0.6921  0.5813 -0.9810
27759SOL     OW86169  10.496  10.785   2.409  0.0245 -0.6550  0.3226
27759SOL    HW186170  10.442  10.707   2.398 -0.3507 -0.4123  0.3890
27759SOL    HW286171  10.585  10.753   2.418  0.2009 -0.9474 -2.0294
27760SOL     OW86172   7.029   5.314   0.649 -0.4431 -0.2156 -0.1257
27760SOL    HW186173   7.085   5.341   0.576  1.4445 -2.3983  0.3973
27760SOL    HW286174   7.027   5.390   0.706 -0.6807  1.0084 -1.6751
27761SOL     OW86175   7.185   0.886   9.221  0.0357  0.2596  0.4262
27761SOL    HW186176   7.158   0.964   9.268  2.6241  1.4500  0.1206
27761SOL    HW286177   7.174   0.908   9.128 -0.4472 -0.2397  0.3603
27762SOL     OW86178   4.958   1.406   4.099  1.4265 -0.9955 -0.2742
27762SOL    HW186179   4.922   1.327   4.060  2.5915 -1.9473  0.5258
27762SOL    HW286180   5.052   1.397   4.091  1.6319 -0.4201  1.1911
27763SOL     OW86181   7.544  10.385   1.962 -0.1498 -0.0387 -0.6074
27763SOL    HW186182   7.512  10.472   1.984 -0.4101 -0.2033 -0.3197
27763SOL    HW286183   7.613  10.369   2.027 -0.5995 -0.3381 -0.1984
27764SOL     OW86184   5.190   2.986   5.873 -0.1392  0.5593 -0.1498
27764SOL    HW186185   5.111   2.949   5.912  0.1981 -1.3116 -1.1307
27764SOL    HW286186   5.160   3.063   5.826 -1.1125  0.7615  0.7740
27765SOL     OW86187   5.341   8.920   6.116  0.4550  0.6748 -0.4567
27765SOL    HW186188   5.267   8.930   6.056  0.3327  0.6031 -0.3210
27765SOL    HW286189   5.363   9.009   6.142  1.0607  0.7731 -1.2664
27766SOL     OW86190   0.931   7.965   3.832 -0.6951  0.4724 -0.0820
27766SOL    HW186191   0.979   8.011   3.764 -0.8854 -0.5128 -0.9137
27766SOL    HW286192   0.928   7.874   3.802 -0.5566 -0.0384  1.3725
27767SOL     OW86193   5.903   5.243   3.578 -0.6673  0.1877 -0.2429
27767SOL    HW186194   5.835   5.198   3.527  0.2991  0.7714 -2.1804
27767SOL    HW286195   5.984   5.201   3.550 -0.0349  1.0334  0.3019
27768SOL     OW86196   9.965   6.476   3.470 -0.1691  0.1083 -0.3449
27768SOL    HW186197   9.985   6.403   3.411  1.9073  0.0391  0.3601
27768SOL    HW286198   9.934   6.434   3.550  1.7373 -0.0973  0.3285
27769SOL     OW86199   9.259   8.086  10.308 -0.2911 -0.4134 -0.3802
27769SOL    HW186200   9.187   8.028  10.333  0.0459 -0.2537  1.0602
27769SOL    HW286201   9.331   8.026  10.288  0.2916 -0.5584  1.8456
27770SOL     OW86202   0.121   0.873   1.351  0.0457 -0.1436  0.5856
27770SOL    HW186203   0.078   0.852   1.434  1.1127  2.1698  1.8492
27770SOL    HW286204   0.209   0.836   1.360  0.6796  1.4090  1.2267
27771SOL     OW86205   7.125   1.732   9.727  0.8359  0.7113 -0.6351
27771SOL    HW186206   7.043   1.691   9.700  1.6753 -1.2150 -0.4160
27771SOL    HW286207   7.128   1.719   9.822  2.5968 -1.7678 -0.9138
27772SOL     OW86208   2.703   3.321   0.040  0.0163  0.3580 -0.6664
27772SOL    HW186209   2.727   3.260  -0.030  0.4143 -1.3634  0.8922
27772SOL    HW286210   2.784   3.337   0.087 -0.0303  2.3543 -1.1803
27773SOL     OW86211   2.724   0.437   2.851 -1.0907  0.4348 -0.0556
27773SOL    HW186212   2.655   0.438   2.785 -0.8405  0.3315 -0.3186
27773SOL    HW286213   2.798   0.395   2.808 -0.3222  1.9759 -0.3227
27774SOL     OW86214   1.177   0.042   5.514 -0.2881  0.4890  0.3289
27774SOL    HW186215   1.196  -0.051   5.523 -2.1458  0.0889  0.5351
27774SOL    HW286216   1.083   0.049   5.529 -0.4985  2.1828 -1.4230
27775SOL     OW86217   3.776   5.198   0.854 -0.1649  0.1107  0.3659
27775SOL    HW186218   3.759   5.177   0.946 -0.3347 -0.7499  0.1408
27775SOL    HW286219   3.847   5.262   0.857 -1.9284  2.1640  1.2222
27776SOL     OW86220   6.850   2.511   4.482 -0.4618  0.1684 -0.4184
27776SOL    HW186221   6.796   2.437   4.454 -0.8096 -0.3530  1.4515
27776SOL    HW286222   6.938   2.474   4.488 -0.2968  0.4114 -1.2651
27777SOL     OW86223   0.121   4.727   8.535  0.1357  0.0538 -0.4815
27777SOL    HW186224   0.208   4.759   8.559 -0.8222  2.2019  0.3615
27777SOL    HW286225   0.119   4.732   8.440  1.0020 -0.2764 -0.5321
27778SOL     OW86226  10.532   8.501   2.495 -0.1390 -0.2019  0.3396
27778SOL    HW186227  10.626   8.484   2.505 -0.3770 -2.5757 -0.6413
27778SOL    HW286228  10.504   8.437   2.429 -2.1857  1.4096 -0.4454
27779SOL     OW86229   2.222   2.853   3.545 -0.0685 -0.0899 -0.1580
27779SOL    HW186230   2.264   2.802   3.476 -0.1511 -0.9153  0.3771
27779SOL    HW286231   2.294   2.881   3.601  0.1409  1.6669 -1.2381
27780SOL     OW86232   3.381   5.588   5.819 -0.6643  0.1646 -0.0193
27780SOL    HW186233   3.370   5.609   5.912  2.2773  1.0880  0.1993
27780SOL    HW286234   3.388   5.493   5.817  0.4195  0.2021  0.9002
27781SOL     OW86235   5.895   9.413   2.933 -0.3015  0.3894 -0.7649
27781SOL    HW186236   5.815   9.376   2.970  0.7354 -0.4268  0.7834
27781SOL    HW286237   5.953   9.337   2.922  0.4859  1.0424 -1.2448
27782SOL     OW86238   1.185   7.731   2.534  0.3319 -0.2793  0.0230
27782SOL    HW186239   1.130   7.690   2.468  0.4214 -0.1506 -0.1307
27782SOL    HW286240   1.238   7.660   2.569  0.3425 -0.3320 -0.1016
27783SOL     OW86241   7.572   8.010   7.879 -0.6503 -0.4934  0.1596
27783SOL    HW186242   7.615   7.961   7.949  0.7170 -3.4161 -2.4629
27783SOL    HW286243   7.631   8.082   7.859  1.4134 -2.3905 -1.0128
27784SOL     OW86244   5.320   1.648   9.810  0.2154 -0.0734  0.1342
27784SOL    HW186245   5.290   1.557   9.814 -0.8160  0.2027 -0.9185
27784SOL    HW286246   5.414   1.643   9.831  0.5905 -1.6102 -1.6464
27785SOL     OW86247   8.650   0.887   5.198 -0.1491 -0.0268 -0.2119
27785SOL    HW186248   8.624   0.970   5.157  2.0999 -1.0293 -4.1136
27785SOL    HW286249   8.569   0.836   5.202 -1.0422  1.3099 -0.3897
27786SOL     OW86250   9.077   5.838   3.262  0.3803  0.1986 -0.3338
27786SOL    HW186251   9.038   5.903   3.203  0.4242 -1.5210 -2.3891
27786SOL    HW286252   9.033   5.756   3.239  1.4206 -0.7913  1.0788
27787SOL     OW86253   8.233   6.010   5.703 -0.4695  0.6298  0.5667
27787SOL    HW186254   8.296   5.952   5.746 -1.1600 -0.9705 -0.4652
27787SOL    HW286255   8.221   6.082   5.765  0.8241 -0.0402  1.6740
27788SOL     OW86256   0.554   3.212   0.354  0.0790 -0.4524 -0.5206
27788SOL    HW186257   0.538   3.293   0.403  0.2553 -0.2550 -0.7826
27788SOL    HW286258   0.648   3.198   0.362 -0.1881 -1.5818  0.9752
27789SOL     OW86259   5.464  10.227   2.725 -0.0704 -0.4273 -0.8362
27789SOL    HW186260   5.394  10.163   2.737  0.6051 -0.7754  1.4988
27789SOL    HW286261   5.524  10.186   2.663 -0.2142 -1.5804 -0.2310
27790SOL     OW86262  10.511   5.603  10.447  0.8065  0.2303  1.0170
27790SOL    HW186263  10.515   5.548  10.369  1.8356  2.4102 -0.6059
27790SOL    HW286264  10.603   5.617  10.471  0.8148  3.0616 -0.1496
27791SOL     OW86265   5.524   0.857   8.728  0.1399 -0.0184  0.0633
27791SOL    HW186266   5.571   0.828   8.649  0.5469  0.1556  0.2391
27791SOL    HW286267   5.449   0.799   8.734 -0.4846  0.6397 -1.0539
27792SOL     OW86268   7.667   0.391   0.081 -0.3438  0.4933 -0.2113
27792SOL    HW186269   7.762   0.402   0.082 -0.4830  2.4136  1.8464
27792SOL    HW286270   7.653   0.305   0.042  2.2301  0.1017 -0.4773
27793SOL     OW86271   7.399   2.604   2.601 -1.0215  0.3767  0.4531
27793SOL    HW186272   7.371   2.542   2.667 -3.3128  0.7368 -0.1065
27793SOL    HW286273   7.318   2.644   2.569  0.0551  0.7050 -2.0909
27794SOL     OW86274  10.730   0.171   2.749 -0.4310 -0.3713  0.2076
27794SOL    HW186275  10.715   0.081   2.719  1.5351 -0.6017 -0.2210
27794SOL    HW286276  10.789   0.209   2.684 -1.0159  1.1623  0.5217
27795SOL     OW86277   0.266   5.224   1.463  0.0580 -0.8440  0.1797
27795SOL    HW186278   0.190   5.218   1.522 -0.2491 -1.4836 -0.2798
27795SOL    HW286279   0.311   5.303   1.493 -0.1806 -1.0590  1.1740
27796SOL     OW86280   8.654   1.267   6.170  0.6096 -0.4046 -0.4752
27796SOL    HW186281   8.624   1.350   6.208  1.2706 -0.4019  0.0680
27796SOL    HW286282   8.748   1.267   6.185  0.4961 -1.6813  0.3988
27797SOL     OW86283   2.475   0.606   3.268  0.8086  0.4506 -0.1202
27797SOL    HW186284   2.434   0.637   3.187  0.8139 -2.3463 -1.3310
27797SOL    HW286285   2.508   0.519   3.245  0.2959 -0.7059  3.0780
27798SOL     OW86286   2.977   6.097  10.329 -0.3554  0.6989 -0.0260
27798SOL    HW186287   3.042   6.140  10.272 -0.3698 -0.7245 -1.1764
27798SOL    HW286288   2.895   6.142  10.309 -0.0544  1.3064  0.0874
27799SOL     OW86289   9.603   4.139   8.275 -0.0735  0.0253  0.4507
27799SOL    HW186290   9.581   4.224   8.238  0.5375 -0.1139 -0.2334
27799SOL    HW286291   9.695   4.125   8.253  0.3584 -0.0117  2.1081
27800SOL     OW86292   2.924   2.094   1.250 -0.2388 -0.4382 -0.3329
27800SOL    HW186293   2.891   2.045   1.175 -0.2171  0.1537 -0.7409
27800SOL    HW286294   2.954   2.028   1.311  0.8925 -0.9192 -1.3604
27801SOL     OW86295   2.538   6.515   9.383 -0.1507  0.1941  0.1437
27801SOL    HW186296   2.542   6.432   9.431 -0.1825  2.0434  3.6371
27801SOL    HW286297   2.629   6.533   9.359 -0.2337 -1.1483 -1.3523
27802SOL     OW86298   8.319   7.278   4.850  1.0649  0.0738  0.5979
27802SOL    HW186299   8.224   7.283   4.847  1.1440  1.4841 -0.7500
27802SOL    HW286300   8.342   7.204   4.794  0.7506 -0.8825  1.6990
27803SOL     OW86301   3.145   1.109   7.195 -0.7425 -0.5724  0.3668
27803SOL    HW186302   3.176   1.023   7.224  0.4788 -0.2007  0.2241
27803SOL    HW286303   3.216   1.144   7.142  0.0798  1.7243  2.7158
27804SOL     OW86304   6.954   5.542   7.833 -0.3261  0.0327 -0.0945
27804SOL    HW186305   7.000   5.577   7.909  1.6262 -0.6033 -0.9089
27804SOL    HW286306   6.919   5.458   7.862  1.0651 -0.5619 -0.0725
27805SOL     OW86307   2.191  10.485   2.881  0.3892 -0.2624  0.3691
27805SOL    HW186308   2.150  10.400   2.868 -0.6090  0.1624  0.6416
27805SOL    HW286309   2.168  10.509   2.971 -1.0513  1.1725 -0.3407
27806SOL     OW86310   0.110   2.324   6.141  0.4091 -0.4199 -0.4625
27806SOL    HW186311   0.044   2.339   6.074  0.9688  0.8548 -0.7597
27806SOL    HW286312   0.101   2.232   6.164 -0.6616 -0.5513 -1.3511
27807SOL     OW86313   9.371   1.781   3.355  0.1922 -0.4800  0.2878
27807SOL    HW186314   9.373   1.855   3.415 -0.5683  0.5646 -0.9197
27807SOL    HW286315   9.464   1.764   3.335  0.4489 -0.8475  1.7216
27808SOL     OW86316   3.438   0.758   8.904 -0.3586 -0.5980 -0.6125
27808SOL    HW186317   3.463   0.836   8.854 -4.2272  2.0169  1.0445
27808SOL    HW286318   3.464   0.777   8.994  0.1125 -2.0107 -0.4179
27809SOL     OW86319   0.891   7.225   6.178  0.1013 -0.0218 -0.7379
27809SOL    HW186320   0.961   7.285   6.154  0.4079 -0.3604 -0.7043
27809SOL    HW286321   0.811   7.264   6.141  0.4751 -0.2451 -1.8017
27810SOL     OW86322   3.824   4.884   9.333  1.0953  0.2072  0.8666
27810SOL    HW186323   3.894   4.934   9.291  0.4611 -0.7070 -1.4982
27810SOL    HW286324   3.756   4.878   9.265 -1.1925  0.8319  2.9675
27811SOL     OW86325   3.791   1.928   7.499 -0.0074  0.5028  0.1759
27811SOL    HW186326   3.737   1.886   7.432  2.1611 -1.1899 -0.6201
27811SOL    HW286327   3.764   1.887   7.581  0.9678 -1.3716 -0.3891
27812SOL     OW86328   2.428   3.672   2.353 -1.0877  0.0427  0.0971
27812SOL    HW186329   2.348   3.685   2.302  0.4274 -0.1479 -2.4828
27812SOL    HW286330   2.474   3.601   2.308  1.2365  1.1573  0.5553
27813SOL     OW86331   5.043   2.067   6.643 -0.9685  0.4465 -0.0293
27813SOL    HW186332   5.003   1.980   6.642 -0.3903  0.1083  1.8318
27813SOL    HW286333   5.005   2.109   6.721  1.5343  0.4378  1.2768
27814SOL     OW86334   5.408   9.060   1.977  0.6602 -0.1953  0.1518
27814SOL    HW186335   5.416   8.979   1.927  0.5360 -0.7927  1.0777
27814SOL    HW286336   5.345   9.039   2.047 -0.8820  1.2673 -0.7187
27815SOL     OW86337  10.305   9.892   1.275 -0.8965 -0.6525  0.6389
27815SOL    HW186338  10.242   9.890   1.203  0.3485 -0.6206 -0.4980
27815SOL    HW286339  10.260   9.938   1.345 -1.4913  1.0997 -0.8101
27816SOL     OW86340   3.563   0.748   5.616 -0.1392 -0.1834  0.1430
27816SOL    HW186341   3.483   0.721   5.662 -1.0567  0.1350 -1.2421
27816SOL    HW286342   3.581   0.676   5.555 -0.2632  0.4651 -0.6631
27817SOL     OW86343   3.832   2.394   5.521  0.6713  0.0891  0.1998
27817SOL    HW186344   3.904   2.348   5.478 -0.3444 -1.3942  0.0285
27817SOL    HW286345   3.783   2.326   5.566 -0.8339  1.0177  0.0296
27818SOL     OW86346   4.358   3.911   4.833  0.3636 -0.2407  0.2580
27818SOL    HW186347   4.272   3.874   4.854  0.6617 -0.4992  1.0581
27818SOL    HW286348   4.351   3.937   4.741 -0.7867  0.3450  0.4884
27819SOL     OW86349   8.975   2.019   4.334 -0.2941 -0.3174  0.4822
27819SOL    HW186350   8.927   1.939   4.359 -2.2556 -0.3085 -2.7182
27819SOL    HW286351   9.048   1.988   4.281 -0.3298 -0.0330  0.2668
27820SOL     OW86352   3.534   9.291   8.084 -0.1672  0.2053  0.1349
27820SOL    HW186353   3.495   9.319   8.002  1.1091  2.1089  0.1088
27820SOL    HW286354   3.484   9.337   8.151 -0.8912 -0.9629  0.4296
27821SOL     OW86355   8.536   0.926   3.353  0.5370 -0.0893  0.7298
27821SOL    HW186356   8.448   0.902   3.325  0.0704  1.8271  0.3629
27821SOL    HW286357   8.523   1.007   3.404  2.2849  2.0407 -1.9231
27822SOL     OW86358   8.818   4.920  10.309 -0.2383 -0.1391 -0.4602
27822SOL    HW186359   8.814   5.015  10.316 -1.5539 -0.2643  1.2207
27822SOL    HW286360   8.907   4.901  10.280 -0.5263  1.6598 -2.7666
27823SOL     OW86361   8.385   5.451   2.682  0.5981  0.3152  1.0241
27823SOL    HW186362   8.390   5.537   2.640 -0.1539 -0.0957  0.0526
27823SOL    HW286363   8.300   5.450   2.725 -0.5488 -0.8619 -1.1293
27824SOL     OW86364   0.956   1.824   9.837  0.3409 -0.4489 -0.2308
27824SOL    HW186365   0.899   1.797   9.908 -1.5497 -0.1146 -1.5514
27824SOL    HW286366   1.004   1.744   9.813  1.1331 -0.5172  1.4666
27825SOL     OW86367   5.089   0.396   8.460 -0.1099  0.0380  0.2535
27825SOL    HW186368   5.023   0.463   8.481 -2.2077 -1.6099 -0.6980
27825SOL    HW286369   5.077   0.329   8.527  0.3148 -0.4763 -0.1818
27826SOL     OW86370   0.689   2.711   0.902  0.3075 -0.2245  0.9145
27826SOL    HW186371   0.692   2.618   0.879 -0.0771  0.0222 -0.2446
27826SOL    HW286372   0.712   2.714   0.994  3.6432 -1.1717  0.2367
27827SOL     OW86373   7.998   1.050   4.997  0.6611 -0.1962  0.2427
27827SOL    HW186374   7.955   1.132   5.021 -1.8441 -1.6570  1.0764
27827SOL    HW286375   7.988   0.994   5.074 -0.0391 -2.1736 -1.2049
27828SOL     OW86376   6.051   4.282   7.742  0.3715 -0.0217  0.4202
27828SOL    HW186377   6.010   4.270   7.656 -0.0526 -0.1638  0.6412
27828SOL    HW286378   6.011   4.362   7.776  1.4051  0.6971 -0.0128
27829SOL     OW86379   1.630   7.665  10.620 -0.0083 -0.6278  0.5913
27829SOL    HW186380   1.569   7.635  10.687 -2.0682 -1.1932 -1.4035
27829SOL    HW286381   1.592   7.746  10.586  2.3192  1.0673  1.7081
27830SOL     OW86382   2.593   9.314  10.606  0.1990 -0.2519 -0.2185
27830SOL    HW186383   2.570   9.399  10.644 -0.3078 -1.0484  1.3612
27830SOL    HW286384   2.525   9.254  10.639  0.5147 -1.2580 -1.3427
27831SOL     OW86385  10.112   6.848   2.853 -0.3696  0.5364 -0.0248
27831SOL    HW186386  10.154   6.764   2.836  0.2017  0.3696  1.9341
27831SOL    HW286387  10.163   6.911   2.802  0.6584 -0.0115  0.3016
27832SOL     OW86388   5.058   7.356   5.987  0.4998  0.2717  0.3133
27832SOL    HW186389   5.066   7.315   5.901 -1.0764  1.7521 -0.5962
27832SOL    HW286390   5.019   7.288   6.043  0.0737 -0.2018 -0.5464
27833SOL     OW86391   2.848   0.740   5.401 -0.6691  0.5552 -0.2663
27833SOL    HW186392   2.759   0.734   5.437 -1.6305  0.7812 -2.4510
27833SOL    HW286393   2.880   0.825   5.433 -1.1770  0.4209  0.6429
27834SOL     OW86394   3.312   5.341   9.789 -0.5086  0.1395  0.5887
27834SOL    HW186395   3.300   5.266   9.848 -1.1739  0.6762  1.1576
27834SOL    HW286396   3.225   5.357   9.753 -0.1903  0.0888 -0.2255
27835SOL     OW86397   5.595   8.920   8.600  0.1440 -0.1895  0.5684
27835SOL    HW186398   5.592   8.825   8.612  0.6443  0.0085  2.6053
27835SOL    HW286399   5.519   8.952   8.649 -0.1423  0.4626 -0.2812
27836SOL     OW86400   2.833   3.347   5.344  0.2848 -0.7899 -0.1147
27836SOL    HW186401   2.911   3.316   5.390  0.8741 -1.3059 -1.4321
27836SOL    HW286402   2.772   3.274   5.349  0.1350 -0.6398  0.3156
27837SOL     OW86403   7.580   9.969   8.113 -0.3416 -0.6968 -0.3431
27837SOL    HW186404   7.504   9.911   8.118  0.0756 -1.2267  0.0762
27837SOL    HW286405   7.641   9.923   8.055 -0.7848  0.2687 -1.6245
27838SOL     OW86406  10.294   2.112   4.592  0.1481  0.1444  0.9000
27838SOL    HW186407  10.261   2.031   4.553  0.8226  0.2368  0.1136
27838SOL    HW286408  10.276   2.102   4.686 -1.1572 -0.2508  0.6360
27839SOL     OW86409   0.858   9.724   8.344 -0.3636 -0.3169  0.6731
27839SOL    HW186410   0.905   9.709   8.262 -2.0086 -0.1305 -0.3398
27839SOL    HW286411   0.885   9.812   8.371  0.0472 -0.3015  0.2289
27840SOL     OW86412   7.679   4.494  10.735 -0.2053 -0.2896 -0.0137
27840SOL    HW186413   7.610   4.443  10.777 -0.4564 -2.1111 -2.4491
27840SOL    HW286414   7.756   4.439  10.740 -0.0397 -0.1788 -1.1611
27841SOL     OW86415   7.513   3.192   2.570 -0.5857  0.7906  0.4358
27841SOL    HW186416   7.469   3.266   2.529 -0.6806  2.2049  2.8821
27841SOL    HW286417   7.601   3.224   2.590  0.7992 -1.1402 -2.0078
27842SOL     OW86418   4.879  10.288   4.057 -0.0848  0.7133 -0.5450
27842SOL    HW186419   4.804  10.347   4.062 -0.5508  0.0681  0.4892
27842SOL    HW286420   4.861  10.232   3.981 -0.4816  0.7888 -0.5105
27843SOL     OW86421   6.767   7.009   3.052  0.5908 -0.3978 -0.1978
27843SOL    HW186422   6.843   6.984   3.000 -0.7460 -1.3385 -1.7829
27843SOL    HW286423   6.699   6.947   3.027 -0.6222  0.2151  1.4214
27844SOL     OW86424  10.294   5.771   5.934  0.3910 -0.0806 -0.4787
27844SOL    HW186425  10.341   5.826   5.997 -0.0576 -0.0845 -0.1320
27844SOL    HW286426  10.202   5.794   5.946  0.1318 -1.2688  0.0536
27845SOL     OW86427   8.210   6.424   1.003  0.4292 -0.0418  0.3415
27845SOL    HW186428   8.208   6.378   0.919 -0.6736  0.5530  0.0395
27845SOL    HW286429   8.154   6.372   1.060  1.2805 -0.5189  0.7734
27846SOL     OW86430   7.418   1.436   3.313 -0.1813 -0.0868  0.2109
27846SOL    HW186431   7.489   1.375   3.329  1.4624  1.5874 -0.3779
27846SOL    HW286432   7.354   1.416   3.382 -0.7197 -3.7561 -1.1319
27847SOL     OW86433   3.313   4.014   4.553 -0.1620 -0.8702 -0.1759
27847SOL    HW186434   3.379   3.976   4.495 -0.2329  1.9676 -2.3961
27847SOL    HW286435   3.357   4.091   4.591 -1.2456 -0.6903  0.7480
27848SOL     OW86436   1.817  10.116   6.726 -0.0905  0.0462  0.3048
27848SOL    HW186437   1.874  10.192   6.737 -0.1101  0.1391 -0.2067
27848SOL    HW286438   1.769  10.133   6.645 -0.1505 -0.4760  0.2265
27849SOL     OW86439   2.701   7.762   7.825  0.0459  0.4655  0.0776
27849SOL    HW186440   2.732   7.815   7.898 -0.4540  0.6051  0.1917
27849SOL    HW286441   2.648   7.822   7.772 -1.4020 -0.1439  0.7566
27850SOL     OW86442  10.774   7.802   0.465  0.3669 -0.5931  0.7653
27850SOL    HW186443  10.733   7.867   0.521 -0.2946 -0.8901  0.6364
27850SOL    HW286444  10.703   7.767   0.411  0.9634 -0.3849 -0.1981
27851SOL     OW86445   0.649   5.137   8.749 -0.1649  0.3734  0.0366
27851SOL    HW186446   0.688   5.122   8.836 -0.0022 -1.0987 -0.2684
27851SOL    HW286447   0.725   5.145   8.691 -0.2752  1.3364  0.0060
27852SOL     OW86448   2.171   5.706   8.781  0.4269 -0.3146  0.0238
27852SOL    HW186449   2.204   5.639   8.840  0.1732 -1.6275 -1.2723
27852SOL    HW286450   2.199   5.678   8.694 -0.7530  0.5931 -0.6846
27853SOL     OW86451   1.429   1.883  10.053  0.2182 -0.5721 -0.2346
27853SOL    HW186452   1.388   1.923   9.977 -0.0699 -0.5911 -0.0887
27853SOL    HW286453   1.521   1.873  10.028  0.0957 -0.7167 -0.6375
27854SOL     OW86454   5.352   4.430   0.556 -0.1098 -0.7079  0.3144
27854SOL    HW186455   5.385   4.478   0.632 -0.7988 -0.5912  0.5450
27854SOL    HW286456   5.302   4.357   0.594 -1.5430  0.0829 -0.0037
27855SOL     OW86457  10.604   6.253   3.275  0.2960 -0.5837  0.1698
27855SOL    HW186458  10.698   6.270   3.270  0.3136 -1.1104 -2.1408
27855SOL    HW286459  10.571   6.271   3.187 -1.5458 -1.7489  0.5591
27856SOL     OW86460   4.885  10.759   4.373  0.3561  0.1635 -0.0144
27856SOL    HW186461   4.888  10.794   4.284  1.7615 -1.1007 -0.5007
27856SOL    HW286462   4.937  10.821   4.424 -1.6745  1.7247  0.3043
27857SOL     OW86463   9.119   7.457   7.262  0.3436 -0.1425  0.4994
27857SOL    HW186464   9.086   7.518   7.196 -0.1641  1.0478  1.7961
27857SOL    HW286465   9.132   7.375   7.214 -0.2179  0.6080 -1.0180
27858SOL     OW86466   6.695   5.613   8.815 -0.5982 -0.6091 -0.1070
27858SOL    HW186467   6.695   5.635   8.908 -0.8781 -0.5131 -0.1290
27858SOL    HW286468   6.727   5.693   8.772  0.7524 -1.0681 -0.0023
27859SOL     OW86469   8.910   9.113   1.414  0.1763 -0.1691 -0.0776
27859SOL    HW186470   8.965   9.149   1.484 -0.1188 -0.2270  0.1884
27859SOL    HW286471   8.826   9.097   1.457 -0.4252  1.0442 -0.7593
27860SOL     OW86472   5.749   4.793   0.681 -0.3648 -0.3580 -0.1142
27860SOL    HW186473   5.775   4.784   0.773  1.2872  0.0522 -0.5148
27860SOL    HW286474   5.732   4.703   0.652 -1.2225 -0.4662  0.6508
27861SOL     OW86475   5.240   0.442   6.211 -0.0243  0.1607 -1.1281
27861SOL    HW186476   5.187   0.389   6.152 -0.0565 -0.4835 -0.5314
27861SOL    HW286477   5.328   0.406   6.203 -0.5399 -2.1263  1.5490
27862SOL     OW86478   7.824   4.671   1.618  0.3137  0.3407  0.1316
27862SOL    HW186479   7.790   4.739   1.677 -0.4358 -0.2799  0.4374
27862SOL    HW286480   7.756   4.604   1.618 -1.6733  1.9594 -4.4545
27863SOL     OW86481   4.522   1.657   9.610 -0.4313  0.3337 -0.2587
27863SOL    HW186482   4.555   1.623   9.694 -1.0391  0.2153 -0.0597
27863SOL    HW286483   4.583   1.624   9.545 -0.2159  0.0333  0.0917
27864SOL     OW86484   7.325   2.495   2.886  0.3055 -0.6612 -0.1142
27864SOL    HW186485   7.307   2.460   2.973  0.6328 -0.5166  0.0126
27864SOL    HW286486   7.238   2.512   2.849  0.0840 -2.3634 -0.4983
27865SOL     OW86487   4.458   4.162   7.066  0.0513  0.3299 -0.1232
27865SOL    HW186488   4.535   4.204   7.027 -0.4143  1.8158  0.4779
27865SOL    HW286489   4.416   4.115   6.994 -0.3568  2.3384 -1.2673
27866SOL     OW86490   6.739   1.568   1.301 -0.0597 -0.0266 -0.1573
27866SOL    HW186491   6.721   1.546   1.209 -0.5901  1.4619 -0.4347
27866SOL    HW286492   6.834   1.583   1.303  0.2051 -1.5442 -0.1061
27867SOL     OW86493   7.513   3.700   8.899  0.6550  0.5262 -0.1305
27867SOL    HW186494   7.483   3.766   8.962  0.8888 -1.0177  1.6798
27867SOL    HW286495   7.574   3.747   8.843 -0.4594  2.2436  0.0041
27868SOL     OW86496   6.841   2.868   0.225  0.3594 -0.6385 -0.8185
27868SOL    HW186497   6.826   2.932   0.155 -0.1611 -0.3931 -0.4905
27868SOL    HW286498   6.837   2.783   0.181 -0.8728 -0.5354 -0.9541
27869SOL     OW86499   7.033   8.132   8.055  0.2365  0.1259 -0.2103
27869SOL    HW186500   7.037   8.132   7.959  1.7259  0.8403 -0.1768
27869SOL    HW286501   7.025   8.040   8.079  1.4211 -0.1922 -0.9895
27870SOL     OW86502   3.218   4.560   0.581  0.2367 -0.0012  0.1255
27870SOL    HW186503   3.265   4.502   0.642 -0.7872 -0.4187  0.5366
27870SOL    HW286504   3.264   4.643   0.588 -0.7462  0.4404  2.6808
27871SOL     OW86505   8.357  10.098   9.892  0.0598  0.5216  0.1088
27871SOL    HW186506   8.437  10.067   9.936  0.3328  0.8706 -0.1340
27871SOL    HW286507   8.388  10.132   9.808 -0.5435 -0.8625 -0.7073
27872SOL     OW86508   0.980   0.321   4.536 -0.1179  0.5307 -0.7479
27872SOL    HW186509   0.977   0.246   4.596 -0.5053 -1.3125 -2.9009
27872SOL    HW286510   1.060   0.308   4.486 -1.0765  0.4894 -2.3576
27873SOL     OW86511   2.474   9.275   0.316 -0.1847 -0.1590  0.0185
27873SOL    HW186512   2.470   9.299   0.224 -1.4326 -1.3579 -0.2682
27873SOL    HW286513   2.384   9.284   0.348  0.2651  0.4426  1.1900
27874SOL     OW86514   7.101   6.369   4.008  0.1728 -0.2694 -0.5346
27874SOL    HW186515   7.047   6.416   3.945  0.6532  1.2245  0.1284
27874SOL    HW286516   7.085   6.413   4.091  1.6276 -0.4491 -0.1328
27875SOL     OW86517   1.346   4.889   7.993  0.2281  0.0593 -0.1124
27875SOL    HW186518   1.320   4.895   8.085  1.2338 -0.7733  0.2410
27875SOL    HW286519   1.300   4.811   7.960 -1.2133  1.1207 -0.7109
27876SOL     OW86520   8.073  10.184   8.657  0.2402  0.0840  0.1973
27876SOL    HW186521   8.055  10.261   8.711  0.6901  0.1441  0.2707
27876SOL    HW286522   8.144  10.139   8.703  1.1345  0.5281 -0.7133
27877SOL     OW86523   7.558   0.553   0.725  0.0387  0.5270 -0.3686
27877SOL    HW186524   7.563   0.458   0.723  1.5370  0.5751  0.2322
27877SOL    HW286525   7.589   0.580   0.638  0.1291  0.4848 -0.3494
27878SOL     OW86526   8.096   3.373   2.758  0.0707  0.3199  0.0906
27878SOL    HW186527   8.141   3.441   2.808  0.8866  0.8817 -1.3380
27878SOL    HW286528   8.048   3.421   2.691 -1.6223 -0.3661  0.7580
27879SOL     OW86529   0.518   8.631   4.998 -0.1407  0.0887  0.2609
27879SOL    HW186530   0.527   8.694   4.927  0.1971  0.2895  0.4823
27879SOL    HW286531   0.588   8.653   5.060 -0.3378 -0.1781  0.5862
27880SOL     OW86532   9.367   9.135   7.540 -0.6630 -0.5681 -0.1549
27880SOL    HW186533   9.427   9.141   7.465  1.1995 -0.5497  1.2439
27880SOL    HW286534   9.416   9.084   7.605 -1.5721  0.7394  1.6361
27881SOL     OW86535   2.690   6.114   7.067  0.6003  0.7313 -0.1335
27881SOL    HW186536   2.696   6.021   7.045 -1.1471  0.7323 -0.7155
27881SOL    HW286537   2.627   6.150   7.005  0.4302  2.0846  0.7854
27882SOL     OW86538   8.086   7.604   6.538 -0.2449 -0.5639 -0.0963
27882SOL    HW186539   8.172   7.645   6.548 -0.6652  0.2268  0.3490
27882SOL    HW286540   8.029   7.652   6.598 -0.2989 -3.2440  2.2104
27883SOL     OW86541   2.024  10.656   5.384  0.1267 -0.0303 -0.3063
27883SOL    HW186542   1.929  10.653   5.399 -0.1410  1.0356 -1.6188
27883SOL    HW286543   2.061  10.675   5.470 -0.9040  0.2293  0.0950
27884SOL     OW86544   4.618   7.979   9.760  0.4788  0.2921  0.0881
27884SOL    HW186545   4.677   7.990   9.834 -1.0186 -0.1036  1.4075
27884SOL    HW286546   4.572   8.062   9.753  0.2419  0.1493 -0.0657
27885SOL     OW86547  10.751   5.107   4.972  0.4055 -0.1499 -0.0850
27885SOL    HW186548  10.828   5.056   5.000  0.4991  0.9568  1.8097
27885SOL    HW286549  10.677   5.049   4.989  0.7262 -0.8563 -1.0073
27886SOL     OW86550   2.498   1.817   5.769 -0.0438  0.0580  0.3278
27886SOL    HW186551   2.479   1.862   5.852 -0.7232  2.0076 -0.8386
27886SOL    HW286552   2.507   1.887   5.705 -0.6383 -1.4566 -1.4886
27887SOL     OW86553   1.364   3.449   1.383 -0.5362 -0.0706 -0.0102
27887SOL    HW186554   1.315   3.528   1.406 -0.0530  0.0502  0.6556
27887SOL    HW286555   1.456   3.476   1.388 -0.3684 -0.6644  0.1750
27888SOL     OW86556   7.554   8.180   6.286  0.0751  0.2494 -0.2465
27888SOL    HW186557   7.470   8.137   6.303  0.3711 -0.5359 -0.6957
27888SOL    HW286558   7.560   8.184   6.191  0.6397  0.0990 -0.2229
27889SOL     OW86559   5.480   2.017   7.180 -0.2790 -0.6733  1.1055
27889SOL    HW186560   5.451   2.031   7.090 -1.3939 -0.7312  1.4417
27889SOL    HW286561   5.403   1.985   7.226 -0.0194  0.3244  2.3219
27890SOL     OW86562   9.669   1.130   8.530  0.1061 -0.2076 -0.0699
27890SOL    HW186563   9.657   1.193   8.460 -1.2521 -0.8810 -0.4655
27890SOL    HW286564   9.741   1.166   8.583 -0.3198  1.4038 -0.5528
27891SOL     OW86565   6.066   1.570   5.200  0.5711 -0.8536 -0.2754
27891SOL    HW186566   6.056   1.665   5.205  1.9348 -0.7184  0.3910
27891SOL    HW286567   6.143   1.557   5.144  2.6364 -1.3740  2.4785
27892SOL     OW86568   6.234   8.413   6.153 -0.2436 -0.3012 -0.1392
27892SOL    HW186569   6.167   8.417   6.221  1.3914 -1.0867  1.6170
27892SOL    HW286570   6.264   8.504   6.144  0.7510 -0.4250  1.5402
27893SOL     OW86571   6.388   3.082   6.466  0.1210 -0.1844  0.2936
27893SOL    HW186572   6.384   3.168   6.424  0.7538 -0.7964 -1.0963
27893SOL    HW286573   6.474   3.080   6.509  0.3697 -0.3414 -0.2022
27894SOL     OW86574   6.680  10.171   6.995 -0.0617  0.3200  0.0128
27894SOL    HW186575   6.751  10.224   7.032  1.2430 -0.9285 -0.6217
27894SOL    HW286576   6.661  10.213   6.911 -0.2363  0.7916  0.2821
27895SOL     OW86577  10.153   6.087   2.162 -0.4094  0.0825  0.0595
27895SOL    HW186578  10.142   6.088   2.257  0.3582  1.3088  0.1613
27895SOL    HW286579  10.110   6.167   2.132  1.5093  1.0391 -0.3170
27896SOL     OW86580   3.396   5.239  10.326 -0.3501  0.0177  0.3769
27896SOL    HW186581   3.491   5.229  10.334 -0.3915 -0.9961 -0.2868
27896SOL    HW286582   3.383   5.333  10.316  0.8454 -0.0380 -2.6008
27897SOL     OW86583  10.577   2.600   8.795 -0.1443 -0.0311  0.1706
27897SOL    HW186584  10.609   2.569   8.880  1.8097 -0.5730 -0.7112
27897SOL    HW286585  10.629   2.551   8.731 -0.5556  1.4214 -1.3309
27898SOL     OW86586  10.653   7.538   3.169 -0.0861 -0.2307  0.2739
27898SOL    HW186587  10.624   7.629   3.182  0.0988  0.0332 -1.0175
27898SOL    HW286588  10.730   7.546   3.113 -0.9771 -1.2504 -1.1600
27899SOL     OW86589   4.677   1.919   6.025  0.1943 -0.0752 -0.4187
27899SOL    HW186590   4.637   1.926   5.939 -0.2900 -0.9034 -0.2678
27899SOL    HW286591   4.609   1.949   6.085  1.0747  2.1244 -0.4072
27900SOL     OW86592   8.528   9.774   9.542  0.2588 -0.0291  0.5489
27900SOL    HW186593   8.432   9.770   9.539  0.2119  1.2607 -0.5900
27900SOL    HW286594   8.550   9.754   9.633 -1.3523  3.4732  1.8876
27901SOL     OW86595   3.745   1.782   4.396  0.1691  0.7671  0.3018
27901SOL    HW186596   3.673   1.815   4.343 -0.1160  0.1431  0.2870
27901SOL    HW286597   3.791   1.721   4.339  0.1960  0.5187  0.5849
27902SOL     OW86598   1.878   3.995   7.123  0.2001  0.6248 -0.2672
27902SOL    HW186599   1.923   4.044   7.054  1.3321  0.7691  0.5441
27902SOL    HW286600   1.946   3.939   7.161 -0.9071 -1.1076 -0.7237
27903SOL     OW86601   5.650   9.589   6.916  0.5151  0.3191 -0.1853
27903SOL    HW186602   5.732   9.549   6.946  0.3342 -1.2517 -1.6857
27903SOL    HW286603   5.655   9.678   6.950  2.1397 -0.1766  1.0608
27904SOL     OW86604   9.108   3.435   2.665 -0.8573 -0.4474  0.7861
27904SOL    HW186605   9.014   3.435   2.651 -1.0884 -0.6735  2.1842
27904SOL    HW286606   9.119   3.393   2.750  0.3364  1.6475  1.7291
27905SOL     OW86607   8.229   1.813  10.372  0.2032  0.4446 -0.6784
27905SOL    HW186608   8.246   1.899  10.410  0.2016 -0.2729  1.0766
27905SOL    HW286609   8.145   1.822  10.328 -0.4277  1.0245  0.5929
27906SOL     OW86610   6.888  10.078   9.709  0.0632 -0.7898 -0.3054
27906SOL    HW186611   6.977  10.043   9.710 -0.4749 -2.3129 -1.5707
27906SOL    HW286612   6.834  10.007   9.672 -1.2883  0.9459 -1.8854
27907SOL     OW86613   4.486   0.548   5.725  0.1291 -0.5213 -0.2329
27907SOL    HW186614   4.442   0.579   5.804  1.5710 -0.3677  0.5426
27907SOL    HW286615   4.419   0.554   5.657 -2.3611 -4.0749  1.5728
27908SOL     OW86616   9.173   4.556   5.093  0.3760 -0.0579 -0.1133
27908SOL    HW186617   9.214   4.631   5.136 -1.3747  0.6804  0.3334
27908SOL    HW286618   9.182   4.484   5.156 -1.3382  0.7823  1.1390
27909SOL     OW86619   5.485   8.236   1.031 -0.1110  0.6091  0.5200
27909SOL    HW186620   5.488   8.329   1.050  1.6472  1.0102 -1.2869
27909SOL    HW286621   5.540   8.226   0.952 -0.3340 -1.9216  0.5938
27910SOL     OW86622   1.467   0.070   0.485 -0.1260  0.2199  0.5590
27910SOL    HW186623   1.387   0.112   0.518 -1.7139  0.0502 -2.7338
27910SOL    HW286624   1.458  -0.022   0.509 -0.9889  0.1908  0.1578
27911SOL     OW86625   6.002  10.019   6.505 -0.0887  0.3712  0.6273
27911SOL    HW186626   6.022  10.047   6.594  0.1646  1.0801  0.3581
27911SOL    HW286627   6.087   9.998   6.467 -0.2924 -1.1023  0.9115
27912SOL     OW86628   6.342   9.082   9.592  0.2995  0.1460  0.0203
27912SOL    HW186629   6.410   9.147   9.611  0.5655 -0.2142  0.3207
27912SOL    HW286630   6.269   9.107   9.648  0.8864 -0.5944  1.1535
27913SOL     OW86631   9.709   5.182   1.426 -0.3667 -0.2417 -0.4615
27913SOL    HW186632   9.657   5.262   1.439  0.5285 -0.0665  3.1733
27913SOL    HW286633   9.646   5.111   1.436 -0.8466 -0.0355 -1.8536
27914SOL     OW86634   5.489   7.646   8.969  0.5329  0.5981 -0.0210
27914SOL    HW186635   5.558   7.622   9.032  0.1597 -0.1753  0.1002
27914SOL    HW286636   5.407   7.623   9.013  0.1880  1.4547 -0.1899
27915SOL     OW86637   0.181   8.134   4.878  0.6913  0.0516  0.4464
27915SOL    HW186638   0.246   8.176   4.822 -0.7211  0.8159 -0.6906
27915SOL    HW286639   0.128   8.081   4.818 -1.0638  1.1461  0.9422
27916SOL     OW86640  10.189   3.350   1.865  0.4556  0.2858 -0.4406
27916SOL    HW186641  10.151   3.294   1.798  1.6399 -1.9019  0.6041
27916SOL    HW286642  10.251   3.405   1.818 -1.3455  1.3938 -1.6217
27917SOL     OW86643   3.623   4.881   0.495  0.2405  0.0961  0.3080
27917SOL    HW186644   3.671   4.798   0.487  1.9112  0.9609  0.8025
27917SOL    HW286645   3.612   4.894   0.589  0.2702  0.5906  0.2452
27918SOL     OW86646   3.991   7.274  10.430  0.1061  0.0294  0.1672
27918SOL    HW186647   3.952   7.335  10.368  0.1022  0.2516  0.3840
27918SOL    HW286648   4.084   7.271  10.406  0.0917  0.0630  0.1076
27919SOL     OW86649   3.698   7.574   7.875  0.0172  0.1252 -0.0871
27919SOL    HW186650   3.607   7.554   7.854  0.0836 -0.1699 -0.1026
27919SOL    HW286651   3.729   7.627   7.802 -0.1892  0.3633 -0.0037
27920SOL     OW86652  10.326   6.611   0.698 -0.2766 -0.0196  1.0231
27920SOL    HW186653  10.267   6.613   0.624  0.3326  0.3963  0.5367
27920SOL    HW286654  10.281   6.659   0.768 -0.7310 -0.1728  0.8317
27921SOL     OW86655   9.936   0.302   1.939 -0.1466 -0.0203 -0.1044
27921SOL    HW186656  10.002   0.247   1.982  0.5709 -1.1731 -2.4985
27921SOL    HW286657   9.918   0.258   1.856 -2.2975  1.4706 -0.5204
27922SOL     OW86658   8.223   1.041   0.139 -0.1808  0.4932  0.2436
27922SOL    HW186659   8.250   0.951   0.158  1.0243  0.9569  0.8546
27922SOL    HW286660   8.221   1.046   0.044 -2.8926 -0.9035  0.1285
27923SOL     OW86661   4.326   8.889  10.040  0.1470 -0.0858 -0.6336
27923SOL    HW186662   4.241   8.909  10.079  0.6581  0.2947  0.3058
27923SOL    HW286663   4.331   8.794  10.042 -0.2155 -0.1093 -0.6315
27924SOL     OW86664  10.075   0.456   0.714 -0.2207 -0.1473 -0.0424
27924SOL    HW186665  10.036   0.405   0.786 -0.0598  0.4588  0.4828
27924SOL    HW286666  10.156   0.491   0.751  0.2485 -0.4465 -0.7666
27925SOL     OW86667   2.200   6.243   1.692  0.2279  0.3981  0.2269
27925SOL    HW186668   2.171   6.333   1.678 -0.5261  0.2136  0.5556
27925SOL    HW286669   2.283   6.252   1.740 -0.9155  0.9159  2.2246
27926SOL     OW86670   6.668   9.200   6.587 -0.1375 -0.6826  0.6924
27926SOL    HW186671   6.761   9.218   6.604  0.2345  0.8459 -2.2402
27926SOL    HW286672   6.622   9.275   6.626  0.1804  0.0115 -0.2128
27927SOL     OW86673   4.692   9.780  10.595 -0.0838 -0.1818  0.4814
27927SOL    HW186674   4.745   9.753  10.521  0.3290 -0.1895  0.7737
27927SOL    HW286675   4.755   9.799  10.664 -0.4729 -0.5068  0.9408
27928SOL     OW86676   2.546   3.870   1.072  0.2728  0.1450  0.1878
27928SOL    HW186677   2.515   3.959   1.055 -1.3628 -0.7251 -2.0127
27928SOL    HW286678   2.609   3.853   1.002 -0.4048 -0.8104 -0.2190
27929SOL     OW86679   7.349   3.402   2.433 -0.5036  0.0113  0.7989
27929SOL    HW186680   7.292   3.476   2.410  0.3293  0.6126  0.6152
27929SOL    HW286681   7.369   3.360   2.349  1.6441  1.5467  0.4634
27930SOL     OW86682   4.658   6.669   5.000  0.2284 -0.3906  0.2314
27930SOL    HW186683   4.674   6.762   5.016  0.5899 -0.2780 -0.7256
27930SOL    HW286684   4.591   6.668   4.932 -1.5742 -0.8556  1.9184
27931SOL     OW86685   4.363   8.589   7.073 -0.5549 -0.9679  0.4962
27931SOL    HW186686   4.416   8.552   7.143 -1.7060  0.8770  2.4742
27931SOL    HW286687   4.332   8.673   7.108 -4.1633 -1.5972 -0.7548
27932SOL     OW86688   6.329   0.319   0.154  0.0730  0.2951  0.1657
27932SOL    HW186689   6.411   0.288   0.194  0.4852  1.5939  0.3732
27932SOL    HW286690   6.327   0.275   0.069 -1.4828 -3.5683  1.9598
27933SOL     OW86691   3.942   7.298   0.533 -0.8372 -0.0948  0.5215
27933SOL    HW186692   3.859   7.299   0.485 -0.4157 -1.0433 -0.2684
27933SOL    HW286693   3.957   7.389   0.556 -1.8138  0.1743  0.1681
27934SOL     OW86694   5.992  10.042   9.789 -0.2709  0.9001 -0.2976
27934SOL    HW186695   6.080  10.056   9.755 -0.0947  1.0309  0.2066
27934SOL    HW286696   6.003   9.976   9.857 -0.2142  2.4069  1.2342
27935SOL     OW86697   4.101   2.008   9.300  0.1078 -0.0472  0.0473
27935SOL    HW186698   4.135   1.921   9.321 -2.1282 -0.9873  0.1325
27935SOL    HW286699   4.143   2.032   9.217 -1.1713 -2.4280 -1.3947
27936SOL     OW86700   9.874   9.460   2.398  0.0300 -0.2411 -0.0602
27936SOL    HW186701   9.835   9.493   2.479 -0.4770 -0.5520 -0.1736
27936SOL    HW286702   9.894   9.368   2.416  0.1548 -0.2430 -0.2045
27937SOL     OW86703   2.447   1.483   6.560 -0.1023 -0.4606  0.2521
27937SOL    HW186704   2.397   1.525   6.630  2.9795  0.5030  2.0363
27937SOL    HW286705   2.506   1.423   6.605  1.3440 -0.5191 -1.6035
27938SOL     OW86706   6.822   7.000   6.085 -0.5272  0.1107 -0.0040
27938SOL    HW186707   6.788   6.914   6.060  1.7142 -0.9277  0.2375
27938SOL    HW286708   6.875   6.983   6.163 -1.5261  2.0607  1.1796
27939SOL     OW86709   3.978   9.790   6.096 -0.6656 -0.9660 -0.7280
27939SOL    HW186710   3.983   9.718   6.159  1.1648 -2.2015 -2.1718
27939SOL    HW286711   3.987   9.747   6.011  0.8747  0.9952 -1.6221
27940SOL     OW86712   9.376   5.859   8.092 -0.4427 -0.0469 -0.2163
27940SOL    HW186713   9.385   5.821   8.179 -1.7727 -1.2593 -0.5791
27940SOL    HW286714   9.299   5.915   8.099  0.3000  1.0147 -0.2474
27941SOL     OW86715   6.176   5.456   9.312 -0.3494  0.6144  0.0192
27941SOL    HW186716   6.187   5.469   9.406  0.2681  1.4806 -0.1579
27941SOL    HW286717   6.103   5.394   9.304 -1.3381  1.6015  1.0358
27942SOL     OW86718  10.560   8.180   6.283  0.4477 -0.4795  0.1336
27942SOL    HW186719  10.628   8.122   6.317  0.8391 -0.7321 -1.0411
27942SOL    HW286720  10.605   8.261   6.262 -0.2702  0.7119  2.7294
27943SOL     OW86721   7.744   7.806   4.249  0.8456  0.0672 -0.1508
27943SOL    HW186722   7.827   7.789   4.294  0.5938  0.0871  0.3245
27943SOL    HW286723   7.678   7.803   4.318  0.5137  0.6085 -0.4354
27944SOL     OW86724   4.129   4.245   8.537  0.4060  0.7667 -0.2044
27944SOL    HW186725   4.193   4.286   8.595 -0.3653  3.2084 -0.9506
27944SOL    HW286726   4.180   4.188   8.479  1.4364  0.0207  1.3668
27945SOL     OW86727   5.543   7.616   9.354  0.0640 -0.1634  0.0059
27945SOL    HW186728   5.611   7.645   9.416  0.4110 -2.2119  0.6549
27945SOL    HW286729   5.474   7.580   9.409 -1.2211  1.1056 -0.6959
27946SOL     OW86730   7.366   1.785   2.650 -0.0506 -0.1012  0.8548
27946SOL    HW186731   7.305   1.852   2.619 -0.1512 -0.3733  0.4566
27946SOL    HW286732   7.420   1.830   2.714 -0.6403  0.1562  1.1774
27947SOL     OW86733   7.069   2.318   2.601  0.1361 -0.3435  0.7462
27947SOL    HW186734   7.046   2.406   2.630  0.3710  0.6730 -1.8255
27947SOL    HW286735   7.088   2.328   2.507  0.8208 -3.0224  0.5055
27948SOL     OW86736   0.879   6.426   0.976  0.4209  0.2700 -0.2245
27948SOL    HW186737   0.934   6.398   1.049 -0.8203 -3.3027 -0.5107
27948SOL    HW286738   0.940   6.469   0.916  2.1341  0.0186  1.2516
27949SOL     OW86739   0.459   9.324   3.679  0.0684  0.0396  0.3879
27949SOL    HW186740   0.448   9.339   3.773 -0.1354  0.2731  0.3285
27949SOL    HW286741   0.372   9.339   3.642  0.3503  0.9402  0.0389
27950SOL     OW86742   5.507   3.602   7.450  0.4179 -0.0604 -0.6391
27950SOL    HW186743   5.417   3.632   7.438  0.1556 -1.0944 -1.4185
27950SOL    HW286744   5.539   3.651   7.525 -0.3566  1.2909 -1.1679
27951SOL     OW86745  10.190   5.924   7.213  0.2378 -0.3197 -0.2717
27951SOL    HW186746  10.120   5.886   7.266 -0.4711 -0.7233 -1.4620
27951SOL    HW286747  10.220   5.852   7.158  0.5645  0.2361 -0.8289
27952SOL     OW86748   6.427   9.904   4.584 -0.1368  0.2591 -0.5214
27952SOL    HW186749   6.354   9.940   4.533  0.2880  1.0271 -0.6137
27952SOL    HW286750   6.388   9.881   4.668 -0.6898 -0.3037 -0.9240
27953SOL     OW86751   4.522   9.062   0.055 -0.2719  0.0151 -0.2060
27953SOL    HW186752   4.572   8.997   0.103 -0.1130  0.9920  1.0180
27953SOL    HW286753   4.534   9.040  -0.037  0.0850 -1.4313  0.1724
27954SOL     OW86754   7.416  10.443   5.584 -0.1303 -0.2553 -0.0983
27954SOL    HW186755   7.466  10.379   5.533 -2.3177 -0.8415 -1.6472
27954SOL    HW286756   7.343  10.393   5.621 -1.7279  1.2205 -1.0944
27955SOL     OW86757   2.326   2.210   3.611  0.6726 -0.0472  0.1845
27955SOL    HW186758   2.379   2.223   3.690  0.0856  0.0554  0.5691
27955SOL    HW286759   2.252   2.271   3.622  0.5017 -0.1528 -0.3660
27956SOL     OW86760   1.866   1.011   4.474 -1.1691  0.3897 -0.7358
27956SOL    HW186761   1.799   0.991   4.409 -1.5064 -0.0406 -0.2641
27956SOL    HW286762   1.937   0.950   4.455 -0.7315  1.1108 -1.4853
27957SOL     OW86763   3.134   2.842   2.998 -0.3253 -0.1963 -0.4988
27957SOL    HW186764   3.167   2.922   3.040  0.2549  0.3175 -1.8787
27957SOL    HW286765   3.099   2.872   2.914  0.5206 -1.4858 -1.3310
27958SOL     OW86766   4.521   4.437   1.187  0.5773 -0.0598 -0.3578
27958SOL    HW186767   4.588   4.427   1.119  1.4911  1.8474  0.2049
27958SOL    HW286768   4.566   4.416   1.269  1.7754  4.7539  0.5243
27959SOL     OW86769   7.534   0.422   7.090 -0.0132 -0.8053 -0.0249
27959SOL    HW186770   7.517   0.494   7.151  0.1055 -0.7092 -0.1029
27959SOL    HW286771   7.484   0.348   7.124 -1.9151 -0.0951 -1.1520
27960SOL     OW86772   3.584   9.184   3.325  0.1411  0.2898  0.1225
27960SOL    HW186773   3.551   9.257   3.378 -0.0893 -0.1383  0.5771
27960SOL    HW286774   3.505   9.139   3.295  0.2754  0.4840 -0.5206
27961SOL     OW86775   3.219   3.652   6.119  0.1065  0.1431  0.2812
27961SOL    HW186776   3.221   3.701   6.201  2.0072 -2.0031  1.6456
27961SOL    HW286777   3.132   3.614   6.115 -0.2284  0.8197  0.9554
27962SOL     OW86778   5.002   0.146   1.040 -0.1265 -0.3958  0.5316
27962SOL    HW186779   5.022   0.213   0.975 -0.1060 -2.2383 -1.4457
27962SOL    HW286780   4.932   0.184   1.093 -0.9395  0.7457 -1.2724
27963SOL     OW86781  10.648   2.440   9.371 -0.9813 -0.0366 -0.0170
27963SOL    HW186782  10.690   2.430   9.285 -1.0252 -1.9802  0.1301
27963SOL    HW286783  10.623   2.532   9.375  2.4478  1.0578 -0.4789
27964SOL     OW86784   1.944   4.284   6.779  0.3040 -0.2832  0.0761
27964SOL    HW186785   1.879   4.306   6.845  1.1655 -0.7033  1.0916
27964SOL    HW286786   2.025   4.325   6.810  1.6868 -3.6257  1.4061
27965SOL     OW86787   1.733   3.763   5.532  0.2325  0.4375 -0.4085
27965SOL    HW186788   1.686   3.747   5.614  1.4062  1.5523  0.5285
27965SOL    HW286789   1.734   3.678   5.488 -1.5267  0.1063  0.1185
27966SOL     OW86790   2.619   7.928  10.339  0.4624 -0.1963  0.1513
27966SOL    HW186791   2.604   8.002  10.399  1.0200 -0.9621  1.2881
27966SOL    HW286792   2.673   7.964  10.269  0.8505  0.4526  0.7700
27967SOL     OW86793   1.878   7.553   0.560 -0.4473  0.5136 -0.0646
27967SOL    HW186794   1.798   7.561   0.508 -0.6482  0.3738  0.2193
27967SOL    HW286795   1.916   7.470   0.533 -0.9927  0.0318  0.6138
27968SOL     OW86796   3.051   2.324   6.651 -0.1316 -0.1766 -0.4381
27968SOL    HW186797   3.010   2.326   6.564 -0.3208 -0.9745 -0.3675
27968SOL    HW286798   3.032   2.237   6.685  0.1102  0.0630  0.3300
27969SOL     OW86799   4.599   9.505   2.506 -0.4295  0.1610 -0.1277
27969SOL    HW186800   4.655   9.428   2.494 -0.6850  0.2537 -2.3315
27969SOL    HW286801   4.596   9.547   2.420 -1.2820  1.9768  0.7262
27970SOL     OW86802   6.584   9.440   8.602 -0.2649  0.1496 -0.7416
27970SOL    HW186803   6.612   9.441   8.694 -2.4246  0.1417 -0.0291
27970SOL    HW286804   6.642   9.376   8.560  0.0470 -0.6858  0.8728
27971SOL     OW86805   9.615   3.664   2.206  0.1828 -0.3812 -0.3063
27971SOL    HW186806   9.593   3.586   2.156  2.7356  0.2344 -2.6226
27971SOL    HW286807   9.697   3.642   2.250 -0.5855  0.0650  1.4625
27972SOL     OW86808   9.693   2.721   1.123 -0.4836  0.4391 -0.0050
27972SOL    HW186809   9.740   2.698   1.203 -1.3064  1.2869  0.7462
27972SOL    HW286810   9.689   2.817   1.126 -1.1635  0.4332 -0.6965
27973SOL     OW86811   1.358   0.774   4.873 -0.2146  0.1886  0.1057
27973SOL    HW186812   1.421   0.823   4.926  0.8609  0.6676 -1.5378
27973SOL    HW286813   1.334   0.700   4.928 -0.7465  1.7206  2.0701
27974SOL     OW86814   2.081   3.713   1.567 -0.1810 -0.1137 -0.1590
27974SOL    HW186815   2.057   3.799   1.602  1.7616  0.6679 -0.5863
27974SOL    HW286816   2.177   3.714   1.566 -0.1292 -1.5755 -1.8838
27975SOL     OW86817   1.182   1.756   3.466 -0.9732  0.3545  1.1581
27975SOL    HW186818   1.269   1.737   3.430 -0.4653  0.6096  2.2139
27975SOL    HW286819   1.157   1.677   3.514 -1.1281  0.4488  1.2359
27976SOL     OW86820   8.020   3.496   3.225  0.5503  0.4486  0.0960
27976SOL    HW186821   8.028   3.465   3.315 -0.1160  0.6447  0.2263
27976SOL    HW286822   7.972   3.426   3.179  3.0083 -0.8155 -0.7289
27977SOL     OW86823  10.392   5.070   6.071 -0.2592 -0.1882  0.0543
27977SOL    HW186824  10.449   5.035   6.139 -1.7940  1.0629  2.1033
27977SOL    HW286825  10.425   5.158   6.055  0.1527 -0.5075 -0.9512
27978SOL     OW86826   1.336   2.037   5.762 -0.1538  0.6249  0.0831
27978SOL    HW186827   1.276   2.041   5.688 -0.4107  0.8487  0.3052
27978SOL    HW286828   1.422   2.022   5.722 -0.6440 -2.0549 -0.1221
27979SOL     OW86829   9.995   0.600   7.102 -0.7370  0.0216 -0.2814
27979SOL    HW186830  10.035   0.516   7.127 -0.5874  0.5205  1.2506
27979SOL    HW286831   9.959   0.584   7.015  2.3769 -0.6269 -1.5831
27980SOL     OW86832   2.625   6.022   0.199 -0.3542  0.3481  0.2998
27980SOL    HW186833   2.631   6.077   0.120  0.3796  1.2334  0.9380
27980SOL    HW286834   2.585   6.079   0.264 -1.0427 -0.4112  0.5560
27981SOL     OW86835   7.318   4.617   2.800  0.1045  0.0603 -0.2314
27981SOL    HW186836   7.255   4.690   2.807  0.9297  0.7234  0.6366
27981SOL    HW286837   7.378   4.644   2.731  1.4928  1.1133  1.3034
27982SOL     OW86838   8.710  10.329   2.147  0.1639 -0.2222  0.4896
27982SOL    HW186839   8.640  10.346   2.209 -1.9166 -0.1161 -1.7486
27982SOL    HW286840   8.724  10.412   2.103  0.1215 -0.7754 -0.5987
27983SOL     OW86841   9.658   7.059   8.651  0.0481  0.4543 -0.6042
27983SOL    HW186842   9.663   7.013   8.567 -0.3503 -0.2004 -0.2757
27983SOL    HW286843   9.564   7.059   8.673  0.3495 -1.2391  0.8552
27984SOL     OW86844   0.958   6.140   4.217  0.0509  0.3845 -0.6598
27984SOL    HW186845   0.977   6.051   4.186 -1.3817 -1.1394  2.3447
27984SOL    HW286846   0.869   6.157   4.188 -0.7900 -0.4900  1.2262
27985SOL     OW86847   7.123   0.861   3.942 -0.0320 -0.2665  0.0346
27985SOL    HW186848   7.109   0.850   4.036 -1.8720 -1.7244 -0.3396
27985SOL    HW286849   7.198   0.805   3.922  0.9471  0.7592  0.7504
27986SOL     OW86850   1.775   9.292   5.665 -0.0529 -0.4877 -0.4246
27986SOL    HW186851   1.869   9.281   5.646  0.1670 -0.1206  0.4069
27986SOL    HW286852   1.763   9.386   5.671 -0.0946 -0.5720  1.2260
27987SOL     OW86853   0.928   9.195   5.924 -0.6264  0.6431  0.5743
27987SOL    HW186854   0.989   9.218   5.994  0.2678  1.5727 -0.4876
27987SOL    HW286855   0.981   9.192   5.845 -1.3453 -1.8031  0.1027
27988SOL     OW86856   6.882   9.829   1.331 -0.1176  0.4972  0.3184
27988SOL    HW186857   6.808   9.825   1.270  1.0087  1.1476 -1.1505
27988SOL    HW286858   6.864   9.906   1.386 -0.3660  0.8533 -0.2546
27989SOL     OW86859   0.558   9.178   5.810  0.2707  0.1477 -0.3700
27989SOL    HW186860   0.543   9.210   5.899 -3.8511 -0.7099 -0.5249
27989SOL    HW286861   0.620   9.106   5.820 -0.1317  0.0343  1.8629
27990SOL     OW86862   4.282   7.484   6.881 -0.4693 -0.1899 -0.1244
27990SOL    HW186863   4.354   7.477   6.945  0.3116 -2.4275 -1.1288
27990SOL    HW286864   4.215   7.425   6.915 -1.0067  0.3666 -0.2149
27991SOL     OW86865   5.107   5.006   1.432  0.1926  0.0141  0.3461
27991SOL    HW186866   5.179   4.990   1.371  1.9393 -2.1886  2.7877
27991SOL    HW286867   5.121   5.095   1.463  2.0686 -0.4599  0.9554
27992SOL     OW86868   1.839   9.469   6.315  0.0259  0.0428 -0.0634
27992SOL    HW186869   1.750   9.487   6.285 -0.1174  0.2364  0.4784
27992SOL    HW286870   1.891   9.543   6.282  0.1589 -0.5197 -1.1440
27993SOL     OW86871   1.662   1.506   0.151 -0.4238 -0.5630 -0.4311
27993SOL    HW186872   1.685   1.455   0.073 -0.9998  1.0607 -1.7310
27993SOL    HW286873   1.645   1.594   0.118  0.1361  0.4045  1.6662
27994SOL     OW86874   3.606   7.036   8.305 -0.2950 -0.0501 -0.1638
27994SOL    HW186875   3.659   6.984   8.366 -1.5338 -0.2304  0.8084
27994SOL    HW286876   3.670   7.081   8.249  0.9111  0.5856  1.6446
27995SOL     OW86877   1.104   8.535   9.537 -0.5470 -0.1793  0.1264
27995SOL    HW186878   1.136   8.603   9.596  0.4558 -0.3061 -0.2524
27995SOL    HW286879   1.135   8.453   9.574  0.3586 -0.2393 -0.7162
27996SOL     OW86880   1.394   2.337   2.562 -0.0148 -0.0038  0.3031
27996SOL    HW186881   1.341   2.327   2.484  0.8878  0.6488 -0.4110
27996SOL    HW286882   1.483   2.313   2.535  0.2992  0.1491  1.1412
27997SOL     OW86883   7.987   5.844   3.966 -0.2288 -0.1363  0.4619
27997SOL    HW186884   8.057   5.778   3.958  0.3463  0.6510 -2.4151
27997SOL    HW286885   7.907   5.793   3.979  0.4610 -1.3048  0.2581
27998SOL     OW86886   9.796   3.033   3.359  0.0311 -0.1433 -0.0676
27998SOL    HW186887   9.734   3.012   3.428 -1.9329 -0.5622 -1.8630
27998SOL    HW286888   9.769   3.120   3.328  1.2668  0.3105  0.0538
27999SOL     OW86889   8.125   2.189   2.872 -0.4732 -0.5158  0.5319
27999SOL    HW186890   8.151   2.214   2.960 -0.1401 -0.8039  0.5147
27999SOL    HW286891   8.202   2.146   2.834 -0.7400 -0.7442  0.2392
28000SOL     OW86892   9.060   5.864   7.309  0.2870 -0.5731 -0.0255
28000SOL    HW186893   8.979   5.895   7.350  0.3121 -0.5921  0.0382
28000SOL    HW286894   9.129   5.909   7.357  0.2498  1.0595 -1.4159
28001SOL     OW86895   4.726  10.685   9.734  0.6332 -0.3337  0.1687
28001SOL    HW186896   4.776  10.612   9.770  0.0957 -0.6065  0.3722
28001SOL    HW286897   4.763  10.763   9.776  0.8102 -0.5397  0.4001
28002SOL     OW86898   6.324   8.722   7.760  0.3191 -0.3497  0.4209
28002SOL    HW186899   6.242   8.676   7.775 -0.4060  1.3995  2.1768
28002SOL    HW286900   6.387   8.676   7.816 -0.0428 -0.1637  0.9891
28003SOL     OW86901   8.790   6.756   9.446 -0.2684 -0.4786  0.3422
28003SOL    HW186902   8.843   6.677   9.442 -1.3280 -1.1722 -0.3392
28003SOL    HW286903   8.734   6.752   9.369  0.3460  1.4476 -0.2691
28004SOL     OW86904   8.698   0.109   3.905 -0.3453 -0.2041 -0.2105
28004SOL    HW186905   8.762   0.158   3.957 -0.1352 -0.0631 -0.5950
28004SOL    HW286906   8.731   0.019   3.905 -0.1523 -0.1351 -0.3939
28005SOL     OW86907   3.380   2.594   0.286  0.0815  0.2365  1.0366
28005SOL    HW186908   3.440   2.632   0.221 -0.3807  0.0145  0.4643
28005SOL    HW286909   3.390   2.650   0.363  0.1815  0.8959  0.5589
28006SOL     OW86910   3.190   2.118   8.372 -0.3082 -0.2272  0.6724
28006SOL    HW186911   3.232   2.160   8.297 -0.9299  1.1457  1.0528
28006SOL    HW286912   3.227   2.163   8.448  0.8367 -2.0824  1.2547
28007SOL     OW86913   2.561   1.042   0.124  0.1148 -0.3892  0.0658
28007SOL    HW186914   2.650   1.007   0.124  0.5630  0.6913  0.2628
28007SOL    HW286915   2.535   1.041   0.032  1.3970  1.7728 -0.4016
28008SOL     OW86916   0.455   3.726   5.007 -0.2182 -0.4860 -0.3808
28008SOL    HW186917   0.504   3.733   5.089  1.9416 -1.7461 -1.4834
28008SOL    HW286918   0.367   3.699   5.035  0.4727 -0.9419  1.5190
28009SOL     OW86919   6.647   1.932   8.732  0.0214 -0.1742  0.3292
28009SOL    HW186920   6.647   1.838   8.749 -0.7993 -0.8411 -2.7753
28009SOL    HW286921   6.712   1.945   8.662  0.6346  1.7000  1.1648
28010SOL     OW86922   4.456   7.951   0.104 -0.1020 -0.6172  0.1120
28010SOL    HW186923   4.376   7.937   0.154 -0.0286  0.5584  0.5797
28010SOL    HW286924   4.525   7.909   0.156 -0.1098  0.1281  0.7421
28011SOL     OW86925   5.627   8.018   0.854 -0.2551 -0.0421  0.4595
28011SOL    HW186926   5.655   7.952   0.791 -0.0080  0.0067  0.5186
28011SOL    HW286927   5.533   8.001   0.865 -0.0665 -0.8170  0.9808
28012SOL     OW86928   9.619   1.744   2.177 -0.1423 -0.2419  0.0442
28012SOL    HW186929   9.539   1.714   2.220 -0.6061 -1.0293 -1.2869
28012SOL    HW286930   9.649   1.668   2.126  2.0875 -0.3119  1.3569
28013SOL     OW86931   3.868   9.087   4.749  0.4793 -0.3977  0.1412
28013SOL    HW186932   3.952   9.122   4.720  2.7394 -4.5059  0.9312
28013SOL    HW286933   3.830   9.047   4.671 -1.1094  1.8408 -0.3193
28014SOL     OW86934   6.505   0.898   5.158 -1.0072  0.5377 -0.2951
28014SOL    HW186935   6.490   0.812   5.196  0.1040  0.2203 -0.5250
28014SOL    HW286936   6.497   0.885   5.063  0.4535  0.3793 -0.4192
28015SOL     OW86937   4.856   4.459   8.649  0.0104  0.4581 -0.0058
28015SOL    HW186938   4.808   4.534   8.614  0.8303  0.3189 -1.5169
28015SOL    HW286939   4.790   4.390   8.660 -0.5171  0.9881  0.1790
28016SOL     OW86940  10.276   9.686   1.776 -0.6887  0.2564  0.0613
28016SOL    HW186941  10.203   9.652   1.828 -1.8277  2.9105  0.3572
28016SOL    HW286942  10.314   9.755   1.829 -0.7467  1.8452 -1.8375
28017SOL     OW86943   7.560   4.059   5.559  0.1245 -0.3637 -0.1894
28017SOL    HW186944   7.647   4.098   5.546  0.8236 -1.2848  1.4581
28017SOL    HW286945   7.534   4.030   5.471  0.6173  1.5978 -1.0459
28018SOL     OW86946   8.328   8.580   2.083  0.2242  0.4461  0.6346
28018SOL    HW186947   8.409   8.547   2.121  1.0813  1.6263 -0.0981
28018SOL    HW286948   8.293   8.641   2.148  0.0131  0.0669  0.8772
28019SOL     OW86949   5.051   7.769   4.099 -0.4686 -0.2386 -0.2188
28019SOL    HW186950   5.035   7.852   4.144 -1.8979 -1.2110  1.1951
28019SOL    HW286951   5.142   7.748   4.117 -0.3376  0.6103  0.1263
28020SOL     OW86952   6.090   8.267   1.020  0.5410  0.2708  0.1302
28020SOL    HW186953   6.052   8.221   0.944 -0.8908  1.5252  0.0289
28020SOL    HW286954   6.179   8.289   0.993  0.0393  0.7362 -1.2404
28021SOL     OW86955   5.415   1.545   3.566  0.6886 -0.4024 -0.5149
28021SOL    HW186956   5.468   1.624   3.563 -0.7916  0.6507 -0.0926
28021SOL    HW286957   5.414   1.521   3.659 -2.2550  1.5825  0.1247
28022SOL     OW86958   1.755   1.574  10.640  0.3745 -0.0244 -0.5716
28022SOL    HW186959   1.825   1.598  10.702  0.6396 -1.8960 -0.0916
28022SOL    HW286960   1.693   1.647  10.645 -0.0039 -0.4089  2.5001
28023SOL     OW86961   1.876   0.628   8.283 -0.7747  0.4796  0.2108
28023SOL    HW186962   1.927   0.708   8.292 -1.3940  0.9207 -0.1236
28023SOL    HW286963   1.912   0.569   8.350 -2.3416  2.1079  2.6446
28024SOL     OW86964   4.964   9.852   9.666  0.0183 -0.2829 -0.1182
28024SOL    HW186965   4.958   9.757   9.674 -1.0920 -0.2970 -0.8542
28024SOL    HW286966   4.948   9.885   9.754 -0.6284 -0.7440 -0.0583
28025SOL     OW86967   2.157   9.526   4.732 -0.3974 -0.0188  0.5954
28025SOL    HW186968   2.080   9.581   4.750 -0.4149  0.6478 -1.2868
28025SOL    HW286969   2.193   9.561   4.650  1.2617 -1.0407  0.8455
28026SOL     OW86970   9.733   0.074   2.616 -0.4893 -0.0493 -0.1230
28026SOL    HW186971   9.814   0.119   2.638 -0.0068 -0.5098 -0.9259
28026SOL    HW286972   9.683   0.073   2.698 -1.3485  3.5706 -0.4133
28027SOL     OW86973   6.448   8.630   5.044 -0.1683 -0.2853  0.4189
28027SOL    HW186974   6.532   8.622   5.090 -0.2955  0.5892  0.8290
28027SOL    HW286975   6.473   8.652   4.954  0.0452  0.0751  0.5631
28028SOL     OW86976   3.192   2.943   4.387  0.2108  0.0593  1.0490
28028SOL    HW186977   3.209   2.949   4.293  0.9580  3.0862  1.2875
28028SOL    HW286978   3.264   2.889   4.421  1.4305  1.0889  0.1915
28029SOL     OW86979   0.329   6.454  10.002 -0.4676  0.2533 -0.4782
28029SOL    HW186980   0.349   6.494   9.917  0.0281 -0.8313 -0.8953
28029SOL    HW286981   0.262   6.389   9.982  0.2059 -0.5392 -0.1740
28030SOL     OW86982   1.901   5.303   1.192  0.8347  0.0767 -0.6495
28030SOL    HW186983   1.953   5.345   1.260 -0.1550  0.4006 -0.0709
28030SOL    HW286984   1.939   5.333   1.110  0.6899  1.4161 -0.2408
28031SOL     OW86985   0.669   3.476   2.405 -0.4862  0.2339  0.5780
28031SOL    HW186986   0.661   3.466   2.500 -0.6601  0.5433  0.5975
28031SOL    HW286987   0.689   3.568   2.393  4.5150 -0.5883  0.6262
28032SOL     OW86988   3.994   8.985   3.370 -0.4837  0.2819 -0.1371
28032SOL    HW186989   3.970   9.067   3.328  0.2344  0.5758  0.0150
28032SOL    HW286990   3.911   8.950   3.402 -0.8706  0.6749 -0.6736
28033SOL     OW86991   3.892   2.931   5.474 -0.2425  0.2294  0.4775
28033SOL    HW186992   3.935   2.894   5.397  0.0122  0.0503  0.7033
28033SOL    HW286993   3.960   2.986   5.514 -0.2436 -0.0145  0.8103
28034SOL     OW86994   7.933   2.405   5.469  0.1186 -0.4561 -0.7213
28034SOL    HW186995   7.940   2.370   5.381  1.9429  0.1901 -0.8732
28034SOL    HW286996   7.919   2.499   5.457  1.8879 -0.1179 -0.3671
28035SOL     OW86997   3.744   3.463   8.602 -0.0155 -0.1863  0.0970
28035SOL    HW186998   3.679   3.407   8.560 -0.9345  0.6230  0.3926
28035SOL    HW286999   3.790   3.506   8.530  0.4998 -1.0874 -0.1225
28036SOL     OW87000   8.836   9.221   6.004  0.0113 -0.0652 -0.3022
28036SOL    HW187001   8.819   9.223   6.099  1.8661 -0.6875  0.0793
28036SOL    HW287002   8.778   9.288   5.968 -1.1884 -0.2377  1.1823
28037SOL     OW87003   1.588   8.628   1.163  0.0596 -0.4263 -0.2582
28037SOL    HW187004   1.650   8.701   1.161  0.7802 -1.0276 -0.1924
28037SOL    HW287005   1.544   8.637   1.248 -1.0128  0.8580 -0.9128
28038SOL     OW87006   9.253   2.342   6.582 -0.8120 -0.4787 -0.4237
28038SOL    HW187007   9.256   2.383   6.495 -0.2956  1.6348  0.5209
28038SOL    HW287008   9.247   2.416   6.643  0.5063 -1.8089  1.4321
28039SOL     OW87009  10.532   8.484   4.820 -0.4710  0.1845 -0.5004
28039SOL    HW187010  10.579   8.558   4.859  0.9966 -1.4203  0.9211
28039SOL    HW287011  10.586   8.456   4.747  0.2947 -0.9702  0.4624
28040SOL     OW87012  10.448   5.543   2.089 -0.2951  0.3855  0.1939
28040SOL    HW187013  10.536   5.551   2.125 -1.5503  3.2822  3.1229
28040SOL    HW287014  10.455   5.582   2.002  1.5200 -0.6056 -0.1573
28041SOL     OW87015   6.489   6.957   4.680 -0.6892 -0.2600  0.4106
28041SOL    HW187016   6.477   6.901   4.757  1.4441 -0.7119  0.4969
28041SOL    HW287017   6.441   7.036   4.701 -1.1336 -0.8334  1.7110
28042SOL     OW87018   2.658   3.501   2.248 -0.3853  0.2106 -0.5213
28042SOL    HW187019   2.635   3.446   2.173 -0.6803 -1.5980  0.8339
28042SOL    HW287020   2.710   3.443   2.305  0.1592  1.6500  0.5008
28043SOL     OW87021   9.701   6.367   6.492  0.0249  0.2662 -0.1379
28043SOL    HW187022   9.777   6.378   6.550  0.6662 -0.9290 -0.7122
28043SOL    HW287023   9.658   6.288   6.523 -2.3487  2.0961  1.5899
28044SOL     OW87024   8.827   7.590   4.911  0.0974 -0.1583  0.4634
28044SOL    HW187025   8.824   7.506   4.865  2.1874 -0.3771  0.6591
28044SOL    HW287026   8.834   7.656   4.842  0.9498 -0.3310  0.3792
28045SOL     OW87027   3.361   6.244   9.216  0.0817 -0.5072  0.1619
28045SOL    HW187028   3.284   6.223   9.269  0.1763 -0.6588  0.2378
28045SOL    HW287029   3.343   6.203   9.131 -0.7491  0.9693 -0.4200
28046SOL     OW87030  10.107   8.917   0.545 -0.2500 -0.5707 -0.3710
28046SOL    HW187031  10.035   8.862   0.516 -1.2269 -0.6165  1.9589
28046SOL    HW287032  10.066   8.983   0.601  1.2322  0.8842 -0.9124
28047SOL     OW87033   7.396   8.602   7.926 -0.2484 -0.3454  0.4100
28047SOL    HW187034   7.464   8.537   7.946  0.3768  0.2038  0.0972
28047SOL    HW287035   7.409   8.622   7.834  0.1261  0.8695  0.7149
28048SOL     OW87036   1.831   4.505   5.244  0.2656 -0.0861 -0.1099
28048SOL    HW187037   1.881   4.546   5.314 -0.4143 -0.7097  0.7515
28048SOL    HW287038   1.896   4.484   5.177  1.1797 -0.9759  1.0241
28049SOL     OW87039   8.109   3.888   0.929 -0.2236 -0.3085  0.4112
28049SOL    HW187040   8.159   3.919   0.853 -0.7513  0.4699  0.3603
28049SOL    HW287041   8.174   3.854   0.989  0.2010 -1.0110 -0.4235
28050SOL     OW87042  10.305   5.177   9.634  0.2221 -0.1931  0.3955
28050SOL    HW187043  10.307   5.257   9.686 -1.0768  0.5770 -0.6685
28050SOL    HW287044  10.238   5.123   9.675  2.0252 -1.3836  1.9336
28051SOL     OW87045   4.067   5.153   9.416 -0.5096  0.0228 -0.2794
28051SOL    HW187046   4.043   5.101   9.493  0.9501 -0.0536  0.1513
28051SOL    HW287047   4.038   5.099   9.342  0.0657 -0.9494  0.1812
28052SOL     OW87048   3.794   7.200   0.127  0.2060 -0.5788  0.1410
28052SOL    HW187049   3.802   7.146   0.048  0.9411 -0.0120 -0.1825
28052SOL    HW287050   3.874   7.183   0.176  0.4111  0.1715  0.0697
28053SOL     OW87051   2.165   8.862   1.007 -0.2394 -0.3295 -0.2393
28053SOL    HW187052   2.204   8.783   0.970 -1.7234 -0.9712 -0.5082
28053SOL    HW287053   2.228   8.931   0.988  0.7437 -1.3069 -0.6663
28054SOL     OW87054   8.423   8.434   0.268 -0.0558  0.3678  0.4358
28054SOL    HW187055   8.482   8.360   0.257 -1.3461 -0.9473  1.9884
28054SOL    HW287056   8.434   8.461   0.359 -1.5290  0.3626  0.6383
28055SOL     OW87057   6.472  10.322   6.470  0.2077  0.2191 -0.7781
28055SOL    HW187058   6.392  10.309   6.521  2.0499 -0.3969  2.1549
28055SOL    HW287059   6.473  10.415   6.450 -0.8188  0.3944 -0.0983
28056SOL     OW87060   2.688   3.613   6.371 -0.1300 -0.2827 -0.0902
28056SOL    HW187061   2.603   3.623   6.414  0.1236 -0.3041  0.4240
28056SOL    HW287062   2.719   3.527   6.398  0.8877  0.4588  1.2492
28057SOL     OW87063   3.169  10.306   5.568 -0.3402 -0.1263 -0.3852
28057SOL    HW187064   3.243  10.365   5.580 -0.3846  0.0886 -1.1598
28057SOL    HW287065   3.203  10.235   5.514 -0.8660  0.3132 -1.3172
28058SOL     OW87066   6.046   4.867  10.342  0.2949 -0.1886 -0.7371
28058SOL    HW187067   5.969   4.918  10.317  1.5779  1.9228 -0.6887
28058SOL    HW287068   6.016   4.812  10.414 -0.9363  1.4277  0.0590
28059SOL     OW87069   0.471   5.969   4.910 -0.0521 -0.2346  0.2567
28059SOL    HW187070   0.423   6.008   4.838 -1.8975 -0.2923  1.3821
28059SOL    HW287071   0.487   5.878   4.883 -3.6402 -1.2758  1.1016
28060SOL     OW87072   9.618   9.096   6.084  0.1662 -0.1867 -0.4685
28060SOL    HW187073   9.568   9.175   6.102  0.1985 -0.1292 -0.6281
28060SOL    HW287074   9.572   9.026   6.131  1.4391  0.3002  1.6020
28061SOL     OW87075   4.131   5.046   6.756 -0.5056  0.3783 -0.3339
28061SOL    HW187076   4.194   5.067   6.825  0.2332 -0.0468 -0.8699
28061SOL    HW287077   4.062   5.111   6.766  0.7762  1.8454 -0.7343
28062SOL     OW87078   4.132   3.143   9.603 -0.0618  0.2391 -0.1498
28062SOL    HW187079   4.117   3.059   9.648  0.2217  0.0081 -0.4772
28062SOL    HW287080   4.073   3.141   9.528  1.0480 -0.3648 -1.0442
28063SOL     OW87081   0.447   6.119   7.796 -0.2386 -0.0578  0.0333
28063SOL    HW187082   0.534   6.099   7.760  0.0690 -0.0425  0.7430
28063SOL    HW287083   0.466   6.171   7.874 -0.7497 -1.9296  1.4896
28064SOL     OW87084   2.346   6.970   0.931  0.6452  0.0702  0.3009
28064SOL    HW187085   2.284   6.939   0.996  0.2734 -1.2990 -0.6588
28064SOL    HW287086   2.432   6.961   0.972  0.2736  1.7149  1.5359
28065SOL     OW87087   7.664   4.131   6.477  0.2584  0.0027  0.1399
28065SOL    HW187088   7.753   4.134   6.444  0.3672  0.6491  0.4720
28065SOL    HW287089   7.619   4.066   6.422  0.4228  1.0382 -1.2578
28066SOL     OW87090   6.099   3.866   9.220  0.1479  0.0383 -0.5474
28066SOL    HW187091   6.101   3.952   9.261  0.3311 -0.1356 -0.1881
28066SOL    HW287092   6.140   3.879   9.134  0.2130  0.2987 -0.4755
28067SOL     OW87093   6.191   9.309   4.683 -0.0871  0.1011 -0.0977
28067SOL    HW187094   6.197   9.219   4.716 -1.0747 -0.1780 -0.6331
28067SOL    HW287095   6.256   9.357   4.733 -1.0048 -0.4626  1.7015
28068SOL     OW87096   8.855   9.104   3.179  0.2820  0.0771  0.5996
28068SOL    HW187097   8.922   9.058   3.128  0.0240  1.8234 -1.4550
28068SOL    HW287098   8.793   9.035   3.203  0.2353 -0.8258 -1.8102
28069SOL     OW87099   2.625   3.708   9.879 -0.1013 -0.0310  0.6495
28069SOL    HW187100   2.615   3.665   9.963  1.0129  0.2209  0.9288
28069SOL    HW287101   2.639   3.637   9.816  0.2856 -0.1581  0.8769
28070SOL     OW87102   0.717   4.560   4.296 -0.4362  0.2922 -0.0075
28070SOL    HW187103   0.744   4.637   4.247 -1.7276  0.3841 -0.6167
28070SOL    HW287104   0.669   4.506   4.233  0.8624 -1.2708  0.2692
28071SOL     OW87105   5.869   3.543   7.790  0.1613  0.0427  0.6928
28071SOL    HW187106   5.949   3.534   7.739  1.1399 -0.0627  2.1943
28071SOL    HW287107   5.819   3.464   7.770 -0.4498  0.9283 -1.6448
28072SOL     OW87108   0.113   8.696  10.569 -0.5544 -0.0876  0.0705
28072SOL    HW187109   0.163   8.733  10.496 -1.1470  0.6378  0.0161
28072SOL    HW287110   0.170   8.707  10.645 -0.3433  0.0744 -0.1093
28073SOL     OW87111   1.631  10.094   1.954 -0.0962 -0.2458 -0.0979
28073SOL    HW187112   1.541  10.065   1.950  0.3453 -1.6192 -0.3763
28073SOL    HW287113   1.659  10.072   2.043 -0.2432  0.8703  0.2435
28074SOL     OW87114   7.539   1.268   3.841  0.7569 -0.0439  0.7401
28074SOL    HW187115   7.539   1.183   3.797  2.0299 -0.0273  0.6866
28074SOL    HW287116   7.590   1.325   3.783 -1.1007  1.1151  0.1501
28075SOL     OW87117   2.290   5.936   0.371  0.2221  0.5208 -0.2130
28075SOL    HW187118   2.289   5.943   0.467 -1.5641  1.3334 -0.2362
28075SOL    HW287119   2.346   6.007   0.342 -1.5592  2.1852  0.2023
28076SOL     OW87120   5.478   8.599  10.130  0.0331 -0.3430  0.0514
28076SOL    HW187121   5.514   8.656  10.063  2.9155 -1.3473  0.5654
28076SOL    HW287122   5.491   8.510  10.096  0.8011 -0.8401  1.5033
28077SOL     OW87123   9.306   2.932   2.265 -0.2382 -0.3863 -0.2622
28077SOL    HW187124   9.249   3.003   2.237 -0.2849 -0.7649 -1.1306
28077SOL    HW287125   9.375   2.975   2.316 -0.1664  0.3053 -0.9350
28078SOL     OW87126   3.263   5.402  10.652 -0.3487 -0.4115  0.4344
28078SOL    HW187127   3.235   5.463  10.721  0.6178  0.6637 -0.0959
28078SOL    HW287128   3.182   5.375  10.609 -0.7557  1.1175  0.1857
28079SOL     OW87129   1.020   0.233   1.400 -0.0284 -0.0046 -0.1208
28079SOL    HW187130   0.976   0.200   1.478  1.2484 -0.6486  0.3481
28079SOL    HW287131   1.113   0.216   1.415  0.1908 -0.7832 -2.0796
28080SOL     OW87132   8.336   0.544   9.906  0.4250 -0.1521 -0.0199
28080SOL    HW187133   8.332   0.639   9.909 -1.4943 -0.1975 -0.2459
28080SOL    HW287134   8.253   0.517   9.869  0.9990 -1.9271 -0.1178
28081SOL     OW87135   1.112   1.507   9.446  0.4308 -0.0139 -0.0613
28081SOL    HW187136   1.023   1.525   9.475  0.8924  0.4691  1.1352
28081SOL    HW287137   1.115   1.538   9.356  0.2087  2.9295  0.8183
28082SOL     OW87138   3.098   0.164   3.548 -0.0936 -0.5806  0.8170
28082SOL    HW187139   3.171   0.213   3.586  0.0988  0.6128 -0.9611
28082SOL    HW287140   3.026   0.175   3.610  0.4356  0.6090  1.2564
28083SOL     OW87141   7.423   3.512   1.663  0.2841  0.2082  0.6170
28083SOL    HW187142   7.471   3.595   1.663  0.0555  0.3533  1.6597
28083SOL    HW287143   7.468   3.458   1.727 -0.3845  0.0173  0.9352
28084SOL     OW87144   4.886   8.062   1.006 -0.4028 -0.3058 -0.2119
28084SOL    HW187145   4.792   8.077   0.995 -0.5995 -0.8772  0.5716
28084SOL    HW287146   4.894   8.020   1.092  0.7507  1.3821  0.5761
28085SOL     OW87147   0.651   5.737   9.223  0.1899 -0.1182 -0.5873
28085SOL    HW187148   0.633   5.826   9.254 -0.0254 -0.0850 -0.8019
28085SOL    HW287149   0.596   5.680   9.276  1.2813 -0.2531  0.4367
28086SOL     OW87150   6.409   9.976   6.078 -0.3354  0.2133 -0.1207
28086SOL    HW187151   6.448   9.997   6.163 -0.9381  1.0073 -0.0309
28086SOL    HW287152   6.376  10.059   6.045 -1.1752 -0.2939 -0.5937
28087SOL     OW87153   5.078   5.916   9.292  0.5513  0.2363  0.0505
28087SOL    HW187154   5.089   5.972   9.369  0.2338 -1.4202  1.3763
28087SOL    HW287155   5.029   5.840   9.325 -0.5749 -0.0238 -2.0420
28088SOL     OW87156  10.410  10.528   4.376  0.4492  0.5682  0.4707
28088SOL    HW187157  10.380  10.538   4.467 -0.4095  1.7729  0.0934
28088SOL    HW287158  10.455  10.610   4.358  1.9466 -0.2798  0.2609
28089SOL     OW87159   2.009   9.292   3.216 -0.3289  0.3727 -0.1401
28089SOL    HW187160   1.949   9.221   3.193 -1.0678 -0.1898  2.9959
28089SOL    HW287161   1.959   9.372   3.202 -2.3110 -0.1063  3.1022
28090SOL     OW87162   2.322   9.200   5.017 -0.2691  0.9186  0.3300
28090SOL    HW187163   2.350   9.277   5.066 -2.9468  3.1993 -1.3812
28090SOL    HW287164   2.240   9.227   4.975  0.5721 -1.5877 -3.4187
28091SOL     OW87165   8.200   7.178   8.163 -0.1675  0.4610 -0.2789
28091SOL    HW187166   8.265   7.233   8.118  1.0987 -0.7705 -0.0117
28091SOL    HW287167   8.224   7.182   8.255 -0.3008 -0.2136 -0.2072
28092SOL     OW87168   7.394   0.566   5.719  0.5727 -0.0560  0.6923
28092SOL    HW187169   7.460   0.503   5.749  1.3155  0.6121  0.4746
28092SOL    HW287170   7.327   0.564   5.787 -1.3144 -3.7991 -0.9380
28093SOL     OW87171   1.685   8.970   9.429 -0.4196 -0.0809 -0.4572
28093SOL    HW187172   1.716   9.033   9.365  0.1783  0.2644  0.1666
28093SOL    HW287173   1.613   9.015   9.474 -0.4333 -0.0966 -0.4625
28094SOL     OW87174   0.399   5.520   4.647 -0.0906 -0.3682 -0.0133
28094SOL    HW187175   0.312   5.502   4.611 -0.8088 -0.4384  1.6536
28094SOL    HW287176   0.442   5.434   4.651 -0.6764 -0.6340  0.9091
28095SOL     OW87177   1.262   4.802   6.665  0.4649  0.2967  0.2029
28095SOL    HW187178   1.288   4.724   6.616 -0.7262  0.6973 -1.1675
28095SOL    HW287179   1.185   4.773   6.715  1.2089  0.0994  1.2688
28096SOL     OW87180   8.273   1.069   6.901 -0.3190  0.2121 -0.5253
28096SOL    HW187181   8.218   0.992   6.917 -0.2752 -0.0642 -1.5749
28096SOL    HW287182   8.352   1.033   6.861 -0.6222  0.8555 -1.7509
28097SOL     OW87183   9.149   2.133   6.921 -0.0841 -0.0249  0.5450
28097SOL    HW187184   9.065   2.092   6.943 -0.1723  0.7028  1.6539
28097SOL    HW287185   9.165   2.108   6.830 -1.5360 -0.1203  0.2913
28098SOL     OW87186   2.045  10.546   5.053  0.1085 -0.1569  0.0754
28098SOL    HW187187   1.979  10.479   5.033 -0.9126  0.4467  1.2922
28098SOL    HW287188   1.995  10.618   5.093  1.1296  1.4875 -1.4741
28099SOL     OW87189   0.289   3.396   4.817  0.0298 -0.9091  0.1845
28099SOL    HW187190   0.308   3.317   4.867  1.8486 -0.6809 -0.1020
28099SOL    HW287191   0.374   3.428   4.787 -0.5302  1.7443  1.1375
28100SOL     OW87192   6.508   7.836   0.002 -0.5434  0.2880 -0.1463
28100SOL    HW187193   6.438   7.902   0.004 -0.2855  0.5651 -0.2619
28100SOL    HW287194   6.587   7.885  -0.020  0.0063  0.2668  1.6002
28101SOL     OW87195   6.059   3.091  10.479  0.4043 -0.1618 -0.6208
28101SOL    HW187196   6.101   3.145  10.546 -1.2840  1.5515 -0.8451
28101SOL    HW287197   6.111   3.107  10.400  0.5599  0.3077 -0.4295
28102SOL     OW87198   9.989   9.341   6.262  0.2288 -0.1381 -0.0018
28102SOL    HW187199   9.905   9.371   6.227 -0.7659 -2.5710  0.0992
28102SOL    HW287200   9.984   9.360   6.356  1.1596  2.5558 -0.4140
28103SOL     OW87201   6.293   0.738   4.185 -0.3725 -0.2766 -0.2737
28103SOL    HW187202   6.335   0.654   4.204 -0.0849 -0.1321 -0.2641
28103SOL    HW287203   6.287   0.782   4.270 -0.2634 -0.1716 -0.3188
28104SOL     OW87204   7.103   0.495  10.550 -0.3243 -0.0978 -0.3266
28104SOL    HW187205   7.118   0.416  10.497  0.0766 -0.9277  0.9852
28104SOL    HW287206   7.190   0.535  10.558 -0.1490 -0.6765  0.7650
28105SOL     OW87207   6.913   6.511   3.807  0.5462  0.3064 -0.2941
28105SOL    HW187208   6.847   6.574   3.836  1.1452  0.5745  0.5067
28105SOL    HW287209   6.959   6.556   3.736  0.5830  0.5417 -0.1218
28106SOL     OW87210   3.321   9.512   2.832  0.0856 -0.0742 -0.5005
28106SOL    HW187211   3.307   9.421   2.807  1.2175 -0.6101  0.6777
28106SOL    HW287212   3.330   9.559   2.750  0.3495 -1.1825 -1.1224
28107SOL     OW87213   1.327   8.034   0.050 -0.6715 -0.2631 -0.1309
28107SOL    HW187214   1.315   7.944   0.079 -1.0178  0.1006  0.9088
28107SOL    HW287215   1.268   8.085   0.106  2.2288  1.0680  1.9792
28108SOL     OW87216   8.807   7.562  10.273 -0.1981 -0.6849 -0.1887
28108SOL    HW187217   8.855   7.480  10.264  1.6077  0.4030 -1.1119
28108SOL    HW287218   8.737   7.556  10.208  1.1367 -0.7266 -1.6864
28109SOL     OW87219   8.715   4.607   6.041 -0.1962  0.5337 -0.3369
28109SOL    HW187220   8.679   4.661   5.971 -0.5929  0.7954  0.0700
28109SOL    HW287221   8.713   4.518   6.005  1.0813  0.8489 -1.2649
28110SOL     OW87222   4.796   6.470   1.135 -0.1708  0.8847  0.2967
28110SOL    HW187223   4.741   6.538   1.095 -3.1903 -1.4129  0.1902
28110SOL    HW287224   4.755   6.454   1.220 -1.8762 -3.0653 -1.0139
28111SOL     OW87225   0.220  10.444   8.031  0.0173 -0.2775 -0.0151
28111SOL    HW187226   0.210  10.447   7.936 -2.4222  1.2568  0.2049
28111SOL    HW287227   0.173  10.364   8.057 -1.5293  0.6164  0.0502
28112SOL     OW87228   9.520   2.353   0.412  0.4124  0.9084  0.6122
28112SOL    HW187229   9.506   2.354   0.318 -1.2408  1.5631  0.8417
28112SOL    HW287230   9.605   2.397   0.424  1.1465 -0.0964 -0.6041
28113SOL     OW87231   4.333   2.679  10.453 -0.1294 -0.5589 -0.2131
28113SOL    HW187232   4.284   2.756  10.424 -1.7663 -1.1199  0.9253
28113SOL    HW287233   4.318   2.614  10.383 -0.7901 -0.6238 -0.0227
28114SOL     OW87234  10.218   6.683   7.027 -0.0116 -0.4542  0.1009
28114SOL    HW187235  10.169   6.765   7.032 -0.0077 -0.4553  0.1515
28114SOL    HW287236  10.243   6.664   7.117 -0.4246 -0.7616  0.1500
28115SOL     OW87237   5.325   3.177  10.315  0.0805 -0.0331 -0.4680
28115SOL    HW187238   5.407   3.175  10.364 -0.2850  1.7178  0.2787
28115SOL    HW287239   5.294   3.267  10.322 -2.1290 -0.7190 -0.3713
28116SOL     OW87240   8.430   2.402   3.153 -0.3820 -0.1580 -0.4657
28116SOL    HW187241   8.464   2.373   3.237 -0.8074  1.9264  0.4893
28116SOL    HW287242   8.407   2.322   3.107 -0.8800 -1.3270  1.7166
28117SOL     OW87243   6.153   7.770   6.434 -0.1015 -0.7873 -0.0818
28117SOL    HW187244   6.233   7.721   6.453  0.3354 -0.3411 -0.6934
28117SOL    HW287245   6.097   7.756   6.510  0.9564 -0.3025  0.8156
28118SOL     OW87246   7.503   8.928   2.305  0.0150  0.6450  0.1278
28118SOL    HW187247   7.428   8.973   2.269  0.5199  2.7893  1.5563
28118SOL    HW287248   7.518   8.853   2.247 -3.0017  0.3090 -0.3345
28119SOL     OW87249   5.058   2.297   2.590 -0.3509  0.1336  0.0729
28119SOL    HW187250   5.019   2.351   2.521 -0.1165 -0.0808 -0.2253
28119SOL    HW287251   5.136   2.259   2.550 -0.4895 -0.3909  0.3030
28120SOL     OW87252   0.276   6.274   3.066  0.5635 -0.3255  0.1710
28120SOL    HW187253   0.290   6.196   3.120  0.6960 -0.9060 -0.6923
28120SOL    HW287254   0.364   6.311   3.056  0.7792 -1.1222 -0.9855
28121SOL     OW87255   0.929  10.690   7.978  0.7748 -0.4056  0.2645
28121SOL    HW187256   0.833  10.689   7.981  0.7027 -2.2170 -0.9895
28121SOL    HW287257   0.952  10.780   7.954 -0.7544 -0.4660 -1.6858
28122SOL     OW87258   9.499   0.527   9.971  0.3840 -0.6399  0.0590
28122SOL    HW187259   9.555   0.517   9.894 -0.8644  0.0624 -0.9780
28122SOL    HW287260   9.416   0.488   9.946 -0.0461 -0.4001  1.0558
28123SOL     OW87261  10.295  10.046  10.499  0.2520  0.6602 -0.5503
28123SOL    HW187262  10.372  10.095  10.470  1.4036 -1.6759 -1.6635
28123SOL    HW287263  10.304   9.960  10.458 -2.6821  0.1087 -0.2566
28124SOL     OW87264  10.740   0.092   5.111  0.2853  0.2443 -0.4157
28124SOL    HW187265  10.687   0.080   5.032 -0.3648 -1.5322  0.2449
28124SOL    HW287266  10.831   0.080   5.081  0.1356  0.6941 -1.0757
28125SOL     OW87267   8.979  10.109   8.067 -0.1820  0.2065  0.3064
28125SOL    HW187268   8.916  10.179   8.085 -0.3920 -0.2137  1.2729
28125SOL    HW287269   8.925  10.030   8.062  0.0119  0.1442 -1.1314
28126SOL     OW87270   9.721   9.061   2.025  0.2722  0.3197  0.0723
28126SOL    HW187271   9.759   8.978   1.995 -0.2578  0.8885 -2.4096
28126SOL    HW287272   9.630   9.039   2.045 -0.5157  0.6016 -2.7224
28127SOL     OW87273   6.178  10.780   9.554  0.0667  0.0080 -0.2111
28127SOL    HW187274   6.202  10.759   9.464 -1.7982  0.1051 -0.7567
28127SOL    HW287275   6.086  10.807   9.550  0.6337  2.5592  1.3309
28128SOL     OW87276   8.061   7.848   7.163  0.2769  0.1466 -0.2107
28128SOL    HW187277   8.143   7.885   7.196  0.5862 -1.0861  0.4680
28128SOL    HW287278   8.041   7.777   7.224 -1.2976  0.4234 -0.3801
28129SOL     OW87279   1.081  10.719   5.870  0.0912 -0.5085 -0.1912
28129SOL    HW187280   1.067  10.700   5.962  0.2534 -3.0585 -0.5930
28129SOL    HW287281   1.165  10.676   5.850  1.6486  2.5915 -0.8961
28130SOL     OW87282  10.418   6.826   9.803  0.0988 -0.5524  0.3220
28130SOL    HW187283  10.472   6.763   9.755  1.0843  0.0025  0.6660
28130SOL    HW287284  10.444   6.814   9.894  0.0753  0.1416  0.4220
28131SOL     OW87285   1.439   3.340   0.904  0.1720  0.2663  0.0654
28131SOL    HW187286   1.532   3.363   0.901  0.6967 -1.7611 -0.9959
28131SOL    HW287287   1.423   3.321   0.997  1.0063 -0.0102  0.1698
28132SOL     OW87288   1.941   4.664   1.821 -0.2723  0.1830 -0.1243
28132SOL    HW187289   1.964   4.757   1.815  0.2017  0.1242  0.6113
28132SOL    HW287290   1.891   4.657   1.903  1.0139 -0.4504  0.6358
28133SOL     OW87291   3.270   5.035   5.188 -0.0349  0.3249  0.1478
28133SOL    HW187292   3.222   5.105   5.232  0.8132  0.2145  1.2959
28133SOL    HW287293   3.236   4.954   5.226 -1.0906  0.0587 -1.2539
28134SOL     OW87294   5.306   1.934   6.722 -0.4667  0.1087 -0.0531
28134SOL    HW187295   5.218   1.970   6.710  0.0487  0.9115 -1.6575
28134SOL    HW287296   5.312   1.864   6.658 -0.0935 -0.2859  0.4051
28135SOL     OW87297   5.755   2.128   7.159 -0.2395 -0.2299  0.1448
28135SOL    HW187298   5.830   2.100   7.106 -0.3506  1.3065 -0.8824
28135SOL    HW287299   5.681   2.079   7.123  0.3202 -2.3074  1.6358
28136SOL     OW87300   0.600   9.686   1.252  0.0709 -0.0554 -0.2755
28136SOL    HW187301   0.649   9.644   1.182 -1.2899 -0.4921 -0.9830
28136SOL    HW287302   0.668   9.715   1.314  1.2596 -0.0624 -1.5289
28137SOL     OW87303   7.847   5.539   2.309 -0.2808  0.1374  0.0340
28137SOL    HW187304   7.885   5.458   2.274 -0.2453  0.2624 -0.2194
28137SOL    HW287305   7.759   5.543   2.271 -0.4417 -0.0061  0.3937
28138SOL     OW87306   9.546   0.583   4.945 -0.0118 -0.1491  0.2281
28138SOL    HW187307   9.556   0.493   4.976 -0.6114  0.2065  1.5424
28138SOL    HW287308   9.616   0.631   4.990  0.5034  0.0103 -0.7044
28139SOL     OW87309   8.471   6.740   3.661 -0.1165  0.0802 -0.2596
28139SOL    HW187310   8.450   6.655   3.700  0.6788  0.1200  0.2927
28139SOL    HW287311   8.477   6.800   3.735 -1.9076  0.9127 -0.7527
28140SOL     OW87312   2.103   3.755   0.640 -0.2941  0.1583  0.1540
28140SOL    HW187313   2.127   3.822   0.704 -2.0596 -0.6445  1.7639
28140SOL    HW287314   2.066   3.804   0.567  1.9770  1.1111 -0.4191
28141SOL     OW87315   7.449   3.931   3.586 -0.1668  0.2083 -0.5203
28141SOL    HW187316   7.510   3.969   3.523 -1.4021  1.9167 -0.7581
28141SOL    HW287317   7.395   3.872   3.535 -0.0613  0.2866 -0.7240
28142SOL     OW87318   2.711   0.192   7.393 -0.0874  0.1709  0.6580
28142SOL    HW187319   2.671   0.106   7.384 -0.0531 -0.0368  2.2353
28142SOL    HW287320   2.804   0.174   7.409  0.0218  0.5149  0.4252
28143SOL     OW87321   4.535   1.029   4.070  0.4216 -0.3114 -0.0371
28143SOL    HW187322   4.595   1.072   4.130 -1.0531 -0.8106  1.9177
28143SOL    HW287323   4.461   1.003   4.125 -0.2144 -2.4136 -1.7394
28144SOL     OW87324   8.430   8.176   3.446  0.0618  0.2267  0.1126
28144SOL    HW187325   8.493   8.112   3.411 -1.1236 -0.9516  0.0298
28144SOL    HW287326   8.463   8.261   3.418  1.3120 -0.3991 -0.3860
28145SOL     OW87327   4.199   8.731   5.245  0.0453  0.6836 -0.1156
28145SOL    HW187328   4.134   8.801   5.247 -1.4858 -0.6347 -1.2207
28145SOL    HW287329   4.190   8.692   5.157  0.4932 -1.1924  0.6240
28146SOL     OW87330   1.243   5.434   6.757 -0.2457 -0.2480  0.0653
28146SOL    HW187331   1.254   5.418   6.664 -0.4850 -0.7385  0.1152
28146SOL    HW287332   1.331   5.457   6.788 -0.5337  2.1183 -0.6645
28147SOL     OW87333   7.745   1.791   7.964  0.1979  0.3701  0.0071
28147SOL    HW187334   7.829   1.799   7.919  0.9894 -0.8425  1.1971
28147SOL    HW287335   7.764   1.737   8.041 -1.7966 -0.5040 -0.0464
28148SOL     OW87336   4.973   4.530   1.463 -0.5208  0.1509  0.4572
28148SOL    HW187337   4.907   4.475   1.422  0.0131  0.1723 -0.4440
28148SOL    HW287338   4.992   4.598   1.398  2.0799 -1.1892 -0.2978
28149SOL     OW87339   7.092   8.759   0.840  0.1919  0.1747 -0.0153
28149SOL    HW187340   7.040   8.757   0.760  0.1529  1.2235 -0.0253
28149SOL    HW287341   7.166   8.816   0.820  2.0280 -2.1952 -0.3795
28150SOL     OW87342   5.895   5.886   8.446 -0.1966 -0.2561  0.0004
28150SOL    HW187343   5.908   5.791   8.455 -0.9410 -0.3748 -0.1002
28150SOL    HW287344   5.801   5.896   8.433 -0.3568  0.6017  1.5318
28151SOL     OW87345   2.277   4.858   4.159 -0.3414 -0.1225  0.3198
28151SOL    HW187346   2.273   4.769   4.125 -0.0113  0.0472 -0.1860
28151SOL    HW287347   2.221   4.909   4.100  0.5258  0.2421 -0.2156
28152SOL     OW87348   7.614   5.223   6.949  0.0097  0.3530  0.5171
28152SOL    HW187349   7.665   5.302   6.968 -0.2409  0.2847  1.5410
28152SOL    HW287350   7.563   5.246   6.872 -2.3332  2.3443  2.4984
28153SOL     OW87351   5.829   2.064   6.221 -0.5336 -0.1521 -0.1604
28153SOL    HW187352   5.857   2.143   6.176 -0.7598  0.7909  1.2854
28153SOL    HW287353   5.909   2.012   6.231 -0.2692  0.1730 -0.5653
28154SOL     OW87354   9.642   8.619   8.724 -0.4432  0.4264  0.0300
28154SOL    HW187355   9.592   8.651   8.649  2.1416  0.7891 -1.6736
28154SOL    HW287356   9.584   8.555   8.766 -3.1433  2.3977 -0.4156
28155SOL     OW87357  10.166   2.256   2.744  0.5792  1.0246 -0.5769
28155SOL    HW187358  10.252   2.218   2.727 -0.3605 -1.8061  0.3851
28155SOL    HW287359  10.163   2.334   2.688  2.5473 -0.5277 -3.1111
28156SOL     OW87360   7.989   2.112   8.071 -0.0153  0.0472  0.2535
28156SOL    HW187361   7.899   2.080   8.078  0.0674 -0.6035 -1.2758
28156SOL    HW287362   7.980   2.204   8.046 -0.3221 -0.5241 -1.9800
28157SOL     OW87363   9.060   0.700   3.244  0.1513  0.2289  0.0630
28157SOL    HW187364   8.992   0.684   3.179 -0.1180 -0.6993  0.5550
28157SOL    HW287365   9.031   0.653   3.322  2.4896 -2.2954 -0.4311
28158SOL     OW87366   9.807   6.841   6.398  0.7596  0.1896 -0.2077
28158SOL    HW187367   9.772   6.755   6.421  0.1637  0.7633  1.1228
28158SOL    HW287368   9.819   6.838   6.303 -1.9673 -0.3916 -0.6023
28159SOL     OW87369  10.465   9.366  10.676  0.5288  0.1611  0.4440
28159SOL    HW187370  10.391   9.410  10.718  0.1165  0.7059 -0.8125
28159SOL    HW287371  10.472   9.282  10.722 -1.6339 -0.4187 -0.1600
28160SOL     OW87372   5.259   4.985   1.180 -0.6297  0.7478  0.2569
28160SOL    HW187373   5.284   5.055   1.120 -0.8836  0.8841  0.3086
28160SOL    HW287374   5.342   4.955   1.217 -0.3428 -0.0746 -0.9611
28161SOL     OW87375   2.469   0.613   4.529 -0.2920 -0.5980  0.2595
28161SOL    HW187376   2.559   0.615   4.562  0.3498 -0.8727 -1.3496
28161SOL    HW287377   2.432   0.532   4.565 -0.2069 -0.0348  1.6483
28162SOL     OW87378   4.511  10.710   1.960 -0.1716 -0.1154 -0.3045
28162SOL    HW187379   4.468  10.776   2.014 -0.2574 -1.2468  1.0483
28162SOL    HW287380   4.579  10.759   1.913 -1.7602  1.3815 -1.1953
28163SOL     OW87381   5.208   3.173   4.611  0.2380 -0.0355 -0.2187
28163SOL    HW187382   5.244   3.085   4.599  0.0334  0.1487 -2.6560
28163SOL    HW287383   5.114   3.160   4.621  0.0727 -0.0607 -1.6577
28164SOL     OW87384   0.139   0.622   2.613 -0.2651  0.2235  0.3853
28164SOL    HW187385   0.091   0.629   2.696 -0.8467  2.7904 -0.0827
28164SOL    HW287386   0.231   0.631   2.639 -0.1706 -1.8519  0.9828
28165SOL     OW87387   4.906   9.097  10.633  0.1990 -0.1599 -0.1706
28165SOL    HW187388   4.816   9.123  10.612  0.0662 -1.2704 -1.0733
28165SOL    HW287389   4.961   9.163  10.591 -0.1442 -0.9875 -2.0035
28166SOL     OW87390   7.080   9.006   3.660  0.1516 -0.3562  0.5481
28166SOL    HW187391   7.130   9.013   3.579 -0.3608  1.1689  0.3303
28166SOL    HW287392   7.091   8.915   3.688 -1.1601 -1.4652 -2.2052
28167SOL     OW87393   9.975   8.786   9.011  0.3333  0.7294  0.2876
28167SOL    HW187394   9.958   8.717   8.947 -0.8608  0.5282  0.7999
28167SOL    HW287395  10.065   8.814   8.993  0.7066 -0.7012 -0.1624
28168SOL     OW87396   0.899   1.109   7.530  1.4804 -0.0147 -0.2891
28168SOL    HW187397   0.891   1.191   7.482 -6.5641 -0.0256 -0.3581
28168SOL    HW287398   0.888   1.134   7.622 -0.5106 -0.8482 -0.2643
28169SOL     OW87399   0.583   2.564  10.478 -0.2917  0.0121 -0.0069
28169SOL    HW187400   0.636   2.486  10.460 -0.6901  0.0359 -1.4560
28169SOL    HW287401   0.493   2.532  10.475 -0.5237  0.7344 -2.0032
28170SOL     OW87402   0.769   8.907   4.438 -0.4885  0.0917 -0.7072
28170SOL    HW187403   0.775   8.972   4.368 -0.3602  0.4223 -0.3919
28170SOL    HW287404   0.738   8.956   4.513  0.6221  0.0038 -0.1777
28171SOL     OW87405   2.399   1.797   9.711  0.1375  0.4026 -0.3263
28171SOL    HW187406   2.308   1.822   9.692 -1.1530 -2.0566  1.8303
28171SOL    HW287407   2.441   1.878   9.738 -1.1394  1.7685 -2.2038
28172SOL     OW87408   8.985   0.506   3.855 -0.0550  0.4690 -0.2068
28172SOL    HW187409   8.931   0.568   3.904 -1.3582 -1.2133  0.5508
28172SOL    HW287410   9.035   0.562   3.794  0.0379  2.4011  1.5155
28173SOL     OW87411   6.802   1.107   3.018 -0.0646  0.2476  0.1932
28173SOL    HW187412   6.721   1.148   3.050  0.7821  2.6380 -0.4957
28173SOL    HW287413   6.800   1.121   2.923  0.1521 -1.6459 -0.1282
28174SOL     OW87414   1.176  10.007   6.219 -0.4142  0.2585  0.5812
28174SOL    HW187415   1.187  10.059   6.139 -0.3804  0.3630  0.6550
28174SOL    HW287416   1.212  10.062   6.289  0.8133 -0.3819  0.4807
28175SOL     OW87417   1.808   8.489   9.034  0.2811 -0.2356  0.4824
28175SOL    HW187418   1.767   8.573   9.055  0.7125  0.2791 -0.6554
28175SOL    HW287419   1.842   8.457   9.117  0.3938  0.8739  0.8734
28176SOL     OW87420   0.732   6.082   2.694 -0.5234 -0.6959 -0.0344
28176SOL    HW187421   0.659   6.119   2.643 -0.1793 -0.2620 -0.2173
28176SOL    HW287422   0.803   6.072   2.631 -0.2458 -0.5971  0.2580
28177SOL     OW87423   6.266   3.365   1.337  0.6653  0.0139 -0.6193
28177SOL    HW187424   6.228   3.452   1.336  1.0655  0.1956 -0.3846
28177SOL    HW287425   6.337   3.370   1.273  0.8874 -0.0465 -0.3792
28178SOL     OW87426   6.930   5.888   2.826 -0.4841 -0.4833  0.1399
28178SOL    HW187427   6.890   5.833   2.759 -1.1212  0.6469 -0.4186
28178SOL    HW287428   7.024   5.884   2.808 -0.3710 -2.4046  0.8965
28179SOL     OW87429   6.881   5.329   2.425 -0.0604  0.0245  0.8086
28179SOL    HW187430   6.891   5.234   2.423 -1.7535 -0.1754  0.4382
28179SOL    HW287431   6.862   5.353   2.334 -2.9605  0.2522  1.3720
28180SOL     OW87432   6.797   2.627   7.658  0.6300  0.3881 -0.0477
28180SOL    HW187433   6.715   2.609   7.704 -0.6274 -0.7444 -2.5068
28180SOL    HW287434   6.862   2.633   7.727 -1.2464 -0.2953  1.9115
28181SOL     OW87435   5.684   8.637   1.990  0.1449  0.3259 -0.5932
28181SOL    HW187436   5.685   8.542   1.978 -0.9005  0.0495  1.1436
28181SOL    HW287437   5.776   8.662   1.992  0.5529 -1.0806  1.6001
28182SOL     OW87438   1.605   5.531   2.913  0.4945 -0.4986 -0.0535
28182SOL    HW187439   1.516   5.560   2.934  0.8652  0.1339  0.6838
28182SOL    HW287440   1.650   5.527   2.998  1.3147 -0.3157 -0.4686
28183SOL     OW87441   5.530  10.307   4.613  0.1567 -0.5738  0.3692
28183SOL    HW187442   5.536  10.213   4.629  0.8474 -0.8134 -1.0965
28183SOL    HW287443   5.461  10.315   4.546 -0.1619  0.0054  0.7610
28184SOL     OW87444   9.788   0.467   1.130  0.4766  0.2815  0.3760
28184SOL    HW187445   9.861   0.447   1.071 -0.2507 -0.5233 -0.2855
28184SOL    HW287446   9.756   0.552   1.100 -1.0000 -0.8938 -1.6041
28185SOL     OW87447   8.466   2.954   9.056  0.1459  0.4761  0.1722
28185SOL    HW187448   8.449   2.869   9.015  2.1556 -0.5067  1.2527
28185SOL    HW287449   8.399   3.012   9.019 -2.3132 -1.9017  0.5569
28186SOL     OW87450   4.676   5.875   8.815  0.0485  0.0071 -0.6295
28186SOL    HW187451   4.750   5.834   8.772  3.0524  3.0144  1.2246
28186SOL    HW287452   4.675   5.838   8.904  1.5457  2.2270  0.4105
28187SOL     OW87453   0.320   9.232  10.335 -0.2377  0.2826  0.5602
28187SOL    HW187454   0.249   9.272  10.385 -3.5850 -0.4685 -3.0229
28187SOL    HW287455   0.305   9.137  10.343 -0.3190  0.1329 -0.9729
28188SOL     OW87456   4.513   0.190   2.530  0.5143  0.0997 -0.1397
28188SOL    HW187457   4.587   0.132   2.543  0.0404 -0.8014 -1.2744
28188SOL    HW287458   4.439   0.132   2.513  0.4544  0.9648 -3.5553
28189SOL     OW87459   5.730  10.198  10.504 -0.8853 -0.0035 -0.0246
28189SOL    HW187460   5.783  10.200  10.584 -2.2211  0.6550  0.8689
28189SOL    HW287461   5.793  10.215  10.434  0.0614  0.9689  1.0207
28190SOL     OW87462   9.878   0.452   2.234  0.2906  0.9451  0.0240
28190SOL    HW187463   9.842   0.449   2.145 -1.0570  0.1426  0.5697
28190SOL    HW287464   9.842   0.375   2.277  0.8879  1.3483  1.2964
28191SOL     OW87465   1.251   5.929   5.728 -0.2918 -0.7618 -0.0176
28191SOL    HW187466   1.267   6.019   5.697  0.8737 -0.4986  1.2600
28191SOL    HW287467   1.195   5.891   5.661  0.1289  0.5582 -1.1805
28192SOL     OW87468   2.064   0.499   2.033 -0.3090 -0.1496 -0.2502
28192SOL    HW187469   2.076   0.410   2.065  3.0680  0.0688 -0.5182
28192SOL    HW287470   2.069   0.491   1.937  3.0486  0.5035 -0.2449
28193SOL     OW87471   5.709   6.164   2.518 -0.1336  0.0818  0.0875
28193SOL    HW187472   5.713   6.094   2.452  1.4879  2.0064 -2.0050
28193SOL    HW287473   5.772   6.137   2.585  0.8301 -0.2551 -0.9240
28194SOL     OW87474   6.722   3.684   1.662 -0.1577 -0.1520  0.0696
28194SOL    HW187475   6.741   3.639   1.744  0.5107  0.1958  0.1076
28194SOL    HW287476   6.646   3.739   1.682 -1.0023 -1.2570  0.0172
28195SOL     OW87477   6.700   0.815   4.748  0.5063  0.5456 -0.0580
28195SOL    HW187478   6.738   0.757   4.682  0.3890 -1.6881  1.7406
28195SOL    HW287479   6.771   0.828   4.812 -0.1831  0.4495  0.7469
28196SOL     OW87480   0.928  10.242   4.140 -0.0960 -0.6738 -0.2023
28196SOL    HW187481   0.836  10.242   4.115 -0.5593  1.2102  1.2736
28196SOL    HW287482   0.929  10.211   4.231  0.0910  3.1539  1.3050
28197SOL     OW87483   3.944  10.353   9.155  0.4604  0.1507 -0.1667
28197SOL    HW187484   4.023  10.362   9.209  0.2986  0.7255 -0.0197
28197SOL    HW287485   3.973  10.376   9.066 -0.0005  2.6828  0.2367
28198SOL     OW87486   9.269   5.051   3.266 -0.3043  0.0966 -0.0638
28198SOL    HW187487   9.232   5.115   3.205 -2.7258 -0.5144  0.6421
28198SOL    HW287488   9.319   5.104   3.329 -0.5294  1.0607 -0.6661
28199SOL     OW87489   4.390   5.162   1.579  0.5559 -0.3233  0.0144
28199SOL    HW187490   4.423   5.080   1.543 -0.0559 -0.9180  0.7715
28199SOL    HW287491   4.317   5.185   1.523  0.5624 -0.4405 -0.0433
28200SOL     OW87492   6.899   0.705   1.440  0.1432  0.7008  0.0706
28200SOL    HW187493   6.849   0.641   1.491  0.0169  1.0907  0.4410
28200SOL    HW287494   6.852   0.711   1.356 -1.9489  2.8800  1.2697
28201SOL     OW87495   5.432   7.007   8.080  0.9080  0.3248  0.0608
28201SOL    HW187496   5.365   7.072   8.061  0.8526  0.9670  2.2249
28201SOL    HW287497   5.502   7.056   8.124  1.5587 -0.8034  0.3349
28202SOL     OW87498   3.701   6.379   3.789  0.5584  0.1678  0.4324
28202SOL    HW187499   3.761   6.336   3.729  0.6891 -0.4322  0.9888
28202SOL    HW287500   3.614   6.362   3.752  0.6423 -0.1060  0.3637
28203SOL     OW87501   6.071   7.323   1.662 -0.8631 -0.3356 -1.0224
28203SOL    HW187502   6.089   7.260   1.593  0.1528  1.1868 -2.2226
28203SOL    HW287503   6.122   7.400   1.638  0.2433 -0.0303  1.8985
28204SOL     OW87504   6.836  10.570   1.486  0.4638 -0.3828 -0.2196
28204SOL    HW187505   6.898  10.542   1.553  0.6027  0.2502 -0.0801
28204SOL    HW287506   6.752  10.574   1.531  0.3547 -0.9990 -0.3496
28205SOL     OW87507   8.622   4.447   3.991 -0.4089 -0.4197  0.3936
28205SOL    HW187508   8.542   4.419   4.035  0.0952 -2.1319  0.2712
28205SOL    HW287509   8.681   4.372   3.997  0.7981  0.4227 -0.4713
28206SOL     OW87510   1.785   5.170   2.127  1.0867  0.1389  0.3398
28206SOL    HW187511   1.760   5.148   2.037  1.3240 -0.9203  0.5189
28206SOL    HW287512   1.871   5.128   2.139  1.5405  1.1402  0.7296
28207SOL     OW87513   9.931   7.650   4.912  0.5307 -0.5695  0.4386
28207SOL    HW187514   9.843   7.688   4.902  0.5978 -0.7982 -1.1889
28207SOL    HW287515   9.979   7.715   4.963  0.7227  1.7879 -2.4516
28208SOL     OW87516   4.849   2.256   9.425 -0.0076 -0.2156  0.3283
28208SOL    HW187517   4.784   2.203   9.471  0.4072 -0.7201  0.3505
28208SOL    HW287518   4.924   2.259   9.485  1.0347 -1.9597 -0.7978
28209SOL     OW87519   5.015   3.608   7.294 -0.3064 -0.5181  0.0190
28209SOL    HW187520   4.988   3.522   7.261 -2.4437 -0.2210  0.7735
28209SOL    HW287521   4.941   3.636   7.347  0.2653  1.8751 -0.3498
28210SOL     OW87522   7.953   7.046   5.859  0.0056  0.0478  0.1106
28210SOL    HW187523   7.947   7.140   5.874 -0.6388 -0.0324  0.4266
28210SOL    HW287524   8.046   7.025   5.868  0.1937  0.6970 -0.2575
28211SOL     OW87525   6.472   5.615   0.009  0.2385  0.2059 -0.2030
28211SOL    HW187526   6.517   5.602  -0.074 -0.0523  2.5034 -0.7685
28211SOL    HW287527   6.540   5.648   0.068 -0.1468  1.3602 -0.3775
28212SOL     OW87528   7.565   6.501   2.771  0.4037  0.1026 -0.5402
28212SOL    HW187529   7.497   6.558   2.735  0.9870  0.4198 -1.1785
28212SOL    HW287530   7.542   6.492   2.864 -0.8519 -0.3165 -0.8701
28213SOL     OW87531  10.324   9.166   8.884 -0.5189 -0.5106  0.0910
28213SOL    HW187532  10.373   9.201   8.809  0.6666  0.6589  1.3383
28213SOL    HW287533  10.241   9.214   8.883 -1.3610 -1.8966 -1.5526
28214SOL     OW87534   0.742   5.057   5.063  0.4487  0.0751 -0.3463
28214SOL    HW187535   0.654   5.092   5.080  0.0806 -0.7540 -0.4975
28214SOL    HW287536   0.737   4.966   5.091  1.7084  0.4076  1.0637
28215SOL     OW87537   0.346   7.824   4.333  0.0081 -0.4127  0.0918
28215SOL    HW187538   0.400   7.794   4.261 -0.5381  0.6178 -0.7804
28215SOL    HW287539   0.256   7.801   4.307 -0.2486  0.4718  0.1704
28216SOL     OW87540   0.903   1.296   2.264 -0.4070  0.4532 -0.7035
28216SOL    HW187541   0.982   1.247   2.240 -0.3650  0.3996 -0.4566
28216SOL    HW287542   0.907   1.302   2.360 -2.5112 -2.7062 -0.2677
28217SOL     OW87543   9.467   0.219   9.917  0.1398  0.0864  0.3533
28217SOL    HW187544   9.467   0.251  10.007  0.6047  0.6729  0.1555
28217SOL    HW287545   9.496   0.128   9.924 -1.3017 -0.3610  0.9370
28218SOL     OW87546   5.491   4.826   8.734  0.0652  0.2722  0.2241
28218SOL    HW187547   5.468   4.796   8.647  0.9533 -1.4922  0.5455
28218SOL    HW287548   5.540   4.907   8.720  1.8769 -0.9766 -1.0993
28219SOL     OW87549   3.356  10.137   3.105 -0.1490  0.6543  0.3039
28219SOL    HW187550   3.273  10.103   3.137  1.2167 -1.1355  2.2492
28219SOL    HW287551   3.382  10.202   3.171 -0.6901  2.3992 -1.1242
28220SOL     OW87552   8.048   6.556   8.510 -0.5925  0.2871  0.3646
28220SOL    HW187553   8.028   6.597   8.426 -0.2918  2.0745  1.1206
28220SOL    HW287554   8.066   6.464   8.488 -0.2228  0.7720 -1.5523
28221SOL     OW87555   1.411   4.527   2.359 -0.3001  0.0926  0.1755
28221SOL    HW187556   1.331   4.542   2.310 -0.5819  0.5427  0.7611
28221SOL    HW287557   1.417   4.602   2.419  1.5482  1.0966 -1.1560
28222SOL     OW87558   6.529   2.913   1.316  0.1212  0.0290 -0.6363
28222SOL    HW187559   6.443   2.872   1.311 -0.7958  1.8670 -0.4426
28222SOL    HW287560   6.572   2.870   1.391 -1.5483  0.7509  0.7850
28223SOL     OW87561   4.726   6.638   6.778  0.1187  0.4344  0.3391
28223SOL    HW187562   4.657   6.626   6.713  1.3915 -0.5048 -0.8973
28223SOL    HW287563   4.699   6.585   6.853 -1.6865  2.0399  0.8950
28224SOL     OW87564   1.559   8.811   0.297 -0.1607  0.2184 -0.9324
28224SOL    HW187565   1.595   8.726   0.320  1.6985  1.5650  1.6117
28224SOL    HW287566   1.464   8.798   0.297  0.1168 -2.2156 -2.4385
28225SOL     OW87567   2.829   1.332   2.570  0.1135 -0.1349  0.4255
28225SOL    HW187568   2.919   1.300   2.575  0.7239  1.4235 -0.0324
28225SOL    HW287569   2.838   1.428   2.566 -1.5936  0.0870  1.1551
28226SOL     OW87570   1.623   9.916   4.004  0.3951  0.1424 -0.4747
28226SOL    HW187571   1.666  10.000   3.988  2.0688 -0.2010  1.8275
28226SOL    HW287572   1.689   9.851   3.983  0.2872 -0.4691  0.9575
28227SOL     OW87573   9.511   0.966   9.967  0.1489  0.8219  0.0367
28227SOL    HW187574   9.452   0.985   9.894 -0.9457  1.0942  0.9777
28227SOL    HW287575   9.529   0.872   9.959  2.1159  1.2616 -2.0631
28228SOL     OW87576   2.443   6.959   2.127 -0.1781  0.2333  0.3028
28228SOL    HW187577   2.484   6.969   2.212 -0.9801  1.2460  0.5822
28228SOL    HW287578   2.401   7.043   2.110  0.8111  0.4166 -1.5553
28229SOL     OW87579   0.406   0.929   2.427 -0.2607 -0.2129 -0.8629
28229SOL    HW187580   0.482   0.981   2.400  1.7321 -1.0184  2.5373
28229SOL    HW287581   0.441   0.840   2.438 -1.2584 -0.3588  2.0168
28230SOL     OW87582   5.936   7.839   4.946 -0.2455  0.6566 -0.6635
28230SOL    HW187583   5.974   7.926   4.964  2.4922 -0.7758  1.1762
28230SOL    HW287584   6.006   7.778   4.967 -1.7895 -2.0343 -2.7142
28231SOL     OW87585   4.709   9.278   2.211 -0.1535 -0.0406  0.1410
28231SOL    HW187586   4.721   9.288   2.306 -0.4783 -1.0548  0.2984
28231SOL    HW287587   4.627   9.323   2.193  1.7671  3.6792 -0.3458
28232SOL     OW87588   0.739   7.648  10.794 -1.0090  0.2847 -0.1746
28232SOL    HW187589   0.714   7.609  10.877 -1.3266  0.8220 -0.0125
28232SOL    HW287590   0.749   7.742  10.813  0.1484  0.2418 -0.4583
28233SOL     OW87591   6.915   8.243   1.324 -0.0427 -0.4450  0.7397
28233SOL    HW187592   6.939   8.218   1.235  0.6832  1.4030  0.3851
28233SOL    HW287593   6.821   8.260   1.319  0.1109  0.2942  0.1441
28234SOL     OW87594   0.274   8.285   0.299 -0.3160  0.0353  0.8013
28234SOL    HW187595   0.345   8.344   0.323 -1.1291 -0.2442  4.4923
28234SOL    HW287596   0.315   8.199   0.290  0.0886  0.2105  0.9749
28235SOL     OW87597   5.346   4.962   3.801 -0.5444  0.2633 -0.1609
28235SOL    HW187598   5.299   5.022   3.859 -0.8324  2.4658 -2.5035
28235SOL    HW287599   5.412   4.921   3.857 -2.1588  0.6207  2.1536
28236SOL     OW87600   7.101   3.812   1.591 -0.4736 -0.7400  0.6727
28236SOL    HW187601   7.153   3.787   1.515  0.8225 -0.2421  1.3666
28236SOL    HW287602   7.163   3.854   1.650 -2.0245  1.8151  0.6434
28237SOL     OW87603   5.560   1.355  10.139  0.2460 -0.4327 -0.1599
28237SOL    HW187604   5.602   1.426  10.090  1.0297 -1.2149 -0.6442
28237SOL    HW287605   5.562   1.385  10.230  1.0037 -0.0343 -0.2948
28238SOL     OW87606   2.576   0.687   9.920  0.0143 -0.3244  0.0665
28238SOL    HW187607   2.636   0.614   9.937  1.2208  0.5613 -0.2038
28238SOL    HW287608   2.528   0.662   9.841 -1.3218 -1.8516  1.3166
28239SOL     OW87609   2.879   8.486  10.527 -0.4009 -1.1638  0.5579
28239SOL    HW187610   2.830   8.440  10.458  0.3706 -1.7273  0.3773
28239SOL    HW287611   2.865   8.433  10.605 -2.0591 -0.0191  1.0920
28240SOL     OW87612   3.333   2.493   8.686 -0.2867  0.5820  0.1823
28240SOL    HW187613   3.405   2.512   8.747 -0.5787 -0.3231  0.8326
28240SOL    HW287614   3.254   2.519   8.733 -0.4004  1.6245 -0.5545
28241SOL     OW87615   6.702   2.288   4.362 -0.1860 -0.3159 -0.6258
28241SOL    HW187616   6.682   2.306   4.270  0.5404 -1.6854 -1.0890
28241SOL    HW287617   6.617   2.272   4.403 -0.4239 -1.1457 -1.4163
28242SOL     OW87618   6.207   8.933   3.424 -0.2908 -0.0349  0.5600
28242SOL    HW187619   6.189   8.895   3.510  0.6891 -1.0566  0.3333
28242SOL    HW287620   6.170   9.021   3.429 -0.0768  0.0021  2.1112
28243SOL     OW87621   3.536   1.878   4.262  0.3278 -0.1498 -0.1406
28243SOL    HW187622   3.557   1.817   4.192 -0.9471 -0.8699  0.0615
28243SOL    HW287623   3.492   1.951   4.218  0.4718 -0.1096 -0.2158
28244SOL     OW87624   7.794   7.101   8.690 -0.4019  0.3558  0.4010
28244SOL    HW187625   7.759   7.028   8.741  0.0297 -0.1452 -0.0035
28244SOL    HW287626   7.765   7.084   8.601 -0.8842  1.0582  0.4170
28245SOL     OW87627   5.384   7.312   6.316  0.0798  0.3838  0.2417
28245SOL    HW187628   5.378   7.224   6.281  0.0463  0.9173 -1.1562
28245SOL    HW287629   5.293   7.340   6.328  0.0822  0.4424  0.1227
28246SOL     OW87630   4.166   0.068   6.199  0.0254 -0.1226  0.3856
28246SOL    HW187631   4.087   0.119   6.212  0.0194 -0.1075  0.2906
28246SOL    HW287632   4.208   0.108   6.122  0.7824  0.7052  1.1952
28247SOL     OW87633   1.792   8.491   6.663  0.4995  0.0049  0.1299
28247SOL    HW187634   1.752   8.566   6.706 -2.9056 -1.1441 -0.7260
28247SOL    HW287635   1.854   8.529   6.601 -0.1927  2.0219  0.6102
28248SOL     OW87636   6.458   1.658   3.207 -0.5227  0.2108 -0.1290
28248SOL    HW187637   6.478   1.748   3.180 -0.3789  0.0656 -0.5101
28248SOL    HW287638   6.538   1.609   3.189 -0.7477 -0.0853 -0.3364
28249SOL     OW87639   5.782   1.965   8.216 -0.1015  0.3015  1.0176
28249SOL    HW187640   5.794   1.970   8.121  0.3111 -0.1552  1.0411
28249SOL    HW287641   5.728   1.887   8.229  1.8268 -1.0749  1.2981
28250SOL     OW87642   5.655   1.445  10.400 -0.4049  0.1383  0.2482
28250SOL    HW187643   5.722   1.513  10.397  0.6925 -0.7254  2.9259
28250SOL    HW287644   5.700   1.368  10.435 -2.3432 -1.0895  0.1887
28251SOL     OW87645   7.795   8.137   1.232 -0.1724  0.0841  0.6346
28251SOL    HW187646   7.824   8.228   1.221  2.1067 -0.5431  0.9534
28251SOL    HW287647   7.871   8.084   1.208 -1.3996 -1.7590  0.5901
28252SOL     OW87648   5.970   1.881   5.237  0.3254  0.5112  0.2429
28252SOL    HW187649   5.957   1.956   5.178  1.4126  1.0048  0.6155
28252SOL    HW287650   5.881   1.846   5.250  0.0962 -0.0677 -2.2492
28253SOL     OW87651   0.460   9.872   1.125  1.0679 -0.5474 -0.7113
28253SOL    HW187652   0.494   9.794   1.168 -1.6951 -2.5351 -1.8405
28253SOL    HW287653   0.456   9.849   1.032  1.0592  1.3094 -1.2154
28254SOL     OW87654   1.809   4.516  10.137  0.4005 -0.1939  0.4239
28254SOL    HW187655   1.749   4.464  10.191 -0.8338  1.7376  1.0167
28254SOL    HW287656   1.752   4.567  10.079  1.4847  1.1923  0.5137
28255SOL     OW87657   1.675   6.819   5.621  0.3867  0.0995 -0.4395
28255SOL    HW187658   1.724   6.852   5.695 -0.5953 -0.1891  0.3698
28255SOL    HW287659   1.721   6.738   5.595  0.7762  0.2443 -0.2016
28256SOL     OW87660   6.851   8.785   5.587  0.3231  0.2135 -0.5985
28256SOL    HW187661   6.825   8.699   5.619  1.0662  0.0694 -0.3679
28256SOL    HW287662   6.808   8.794   5.502  0.1959 -0.3631 -0.5934
28257SOL     OW87663   8.043   1.759   4.100 -0.2973 -0.1791  0.7306
28257SOL    HW187664   8.097   1.781   4.177 -0.9011 -1.2179  1.4680
28257SOL    HW287665   7.954   1.781   4.126 -0.4854 -0.3518  0.2430
28258SOL     OW87666  10.270   7.084   5.025  0.0484 -0.7941 -0.6669
28258SOL    HW187667  10.329   7.009   5.022 -0.7054 -1.4081 -0.3723
28258SOL    HW287668  10.190   7.051   5.065  0.0921  0.4479  0.5407
28259SOL     OW87669   1.707   4.921   7.527  0.1383  0.7105 -0.3419
28259SOL    HW187670   1.669   5.008   7.541 -0.3859  0.3164  0.7611
28259SOL    HW287671   1.799   4.938   7.505  0.0572  1.5369 -0.0751
28260SOL     OW87672   0.022   9.108   8.084 -0.5556 -0.2970  0.4306
28260SOL    HW187673  -0.054   9.130   8.139 -0.9205 -1.4222  0.4024
28260SOL    HW287674  -0.015   9.095   7.997  0.0770  1.8991 -0.2407
28261SOL     OW87675   9.122   9.108   8.178  0.7167  0.1972  0.1420
28261SOL    HW187676   9.106   9.189   8.227 -0.3521 -0.6350  1.2275
28261SOL    HW287677   9.217   9.105   8.167  0.8192  1.3063  0.5954
28262SOL     OW87678   0.557   3.378  10.352  0.2687  0.1393 -0.2263
28262SOL    HW187679   0.487   3.376  10.286 -1.9900 -1.3340  2.0037
28262SOL    HW287680   0.567   3.286  10.379  1.4161  0.6429  1.1695
28263SOL     OW87681   7.054   3.899   9.019 -0.0612 -0.3917  0.2912
28263SOL    HW187682   7.078   3.830   9.081  0.7660 -0.6655 -0.3078
28263SOL    HW287683   7.041   3.853   8.936 -0.3108  0.0725  0.0725
28264SOL     OW87684   9.197   1.714   7.179  0.1307  0.1989 -0.1614
28264SOL    HW187685   9.133   1.677   7.118  0.8758 -1.8045  0.2102
28264SOL    HW287686   9.173   1.678   7.264  0.5381  1.0764  0.3402
28265SOL     OW87687   3.131   6.838   5.783  0.0447  0.3950 -0.1594
28265SOL    HW187688   3.144   6.755   5.829 -0.1783  0.0665 -0.6807
28265SOL    HW287689   3.043   6.865   5.809  0.3744  0.8262  0.5548
28266SOL     OW87690   8.290   1.289   1.875  0.4988  0.0842 -0.4599
28266SOL    HW187691   8.227   1.256   1.939 -1.5093  2.4921 -0.9945
28266SOL    HW287692   8.289   1.225   1.805  1.2734 -1.6221  1.0281
28267SOL     OW87693   8.473   3.918   7.777  0.7545 -0.9664  0.1463
28267SOL    HW187694   8.511   3.917   7.865 -0.5486 -2.3761  0.7324
28267SOL    HW287695   8.509   3.997   7.736  0.0753  0.6729  2.5326
28268SOL     OW87696   8.429   9.687   5.793  0.2244  0.4915  0.3201
28268SOL    HW187697   8.522   9.711   5.796 -0.2346  2.3982  1.5458
28268SOL    HW287698   8.386   9.763   5.753 -0.8438 -0.2887 -0.0735
28269SOL     OW87699   5.891   8.273   1.193 -0.0045 -0.2241  0.2508
28269SOL    HW187700   5.937   8.290   1.111 -2.1054  0.1907 -0.9105
28269SOL    HW287701   5.889   8.178   1.201 -0.6887 -0.3025 -0.7407
28270SOL     OW87702   8.859  10.516   4.278  0.7048  0.2678 -0.1279
28270SOL    HW187703   8.862  10.535   4.372 -0.9518  0.8406 -0.1443
28270SOL    HW287704   8.949  10.526   4.248  1.1384  0.8136  1.2732
28271SOL     OW87705   8.447   7.097   4.691  0.8329 -0.2239  0.3860
28271SOL    HW187706   8.373   7.101   4.631 -0.8100 -0.8496  2.2623
28271SOL    HW287707   8.467   7.004   4.698  3.0806  0.0406 -1.5030
28272SOL     OW87708   4.466  10.203   6.595 -0.3921  0.1805  0.4394
28272SOL    HW187709   4.452  10.298   6.601 -0.1437  0.1667  1.4052
28272SOL    HW287710   4.443  10.170   6.682  1.2608 -0.4052  0.6825
28273SOL     OW87711   5.774   1.684   7.742 -0.4106 -0.0383  0.3404
28273SOL    HW187712   5.821   1.690   7.825  0.6732 -1.1141 -0.1430
28273SOL    HW287713   5.831   1.729   7.679 -0.2471 -0.9106 -0.1612
28274SOL     OW87714   2.713   3.878   6.805 -0.2618  0.1723  0.6624
28274SOL    HW187715   2.791   3.888   6.860  0.4149  0.4381 -0.3198
28274SOL    HW287716   2.735   3.807   6.744  0.5167  2.3138 -1.7372
28275SOL     OW87717   9.890   2.502   7.094 -0.0833 -0.0089  0.5997
28275SOL    HW187718   9.854   2.591   7.098  0.0674  0.0201  1.6927
28275SOL    HW287719   9.898   2.483   7.001  0.8870  1.5362  0.3327
28276SOL     OW87720   0.993   9.223   2.270  0.0493  0.4283  0.2663
28276SOL    HW187721   0.908   9.238   2.229  0.6971  0.5516 -1.0857
28276SOL    HW287722   0.998   9.288   2.340 -0.3998  1.3625 -0.5487
28277SOL     OW87723   4.062   2.829   0.577 -0.0714  0.0412 -0.0123
28277SOL    HW187724   4.151   2.836   0.542  0.5139  0.0040  1.3758
28277SOL    HW287725   4.014   2.778   0.512  1.0932 -0.4689 -0.4954
28278SOL     OW87726  10.457   8.377   9.846 -0.0133  1.0740 -0.2370
28278SOL    HW187727  10.405   8.404   9.922 -2.9949  0.0548 -1.7988
28278SOL    HW287728  10.529   8.326   9.884 -0.0788  2.5049  2.0087
28279SOL     OW87729   9.246   5.403   0.942 -0.6947  0.3353  0.2347
28279SOL    HW187730   9.240   5.469   1.012 -1.5873 -0.6888  1.1608
28279SOL    HW287731   9.225   5.451   0.862 -1.9231  1.0828  0.9666
28280SOL     OW87732   5.210   9.780   1.696 -0.3369 -0.0784  0.1477
28280SOL    HW187733   5.199   9.798   1.602  0.2493 -0.2314  0.0469
28280SOL    HW287734   5.236   9.688   1.700 -0.4399 -0.0946  0.4656
28281SOL     OW87735   1.841   1.929   1.338  0.0773 -0.1425 -0.0696
28281SOL    HW187736   1.888   1.898   1.261 -1.5562 -0.6507 -0.9007
28281SOL    HW287737   1.907   1.977   1.389  1.6277 -1.3883 -0.8395
28282SOL     OW87738  10.464   4.074   7.703  0.0837  0.0285 -0.2909
28282SOL    HW187739  10.531   4.136   7.675  0.1797  0.0433 -0.0356
28282SOL    HW287740  10.395   4.080   7.637  0.6311 -0.4679 -0.9092
28283SOL     OW87741   1.513   6.774   8.949 -0.3914 -0.2888  0.8640
28283SOL    HW187742   1.607   6.757   8.944 -0.5240 -0.6777 -1.3699
28283SOL    HW287743   1.473   6.687   8.945 -0.8703 -0.0208 -1.0198
28284SOL     OW87744   8.783   8.530   4.391  0.0788 -0.3286 -0.0070
28284SOL    HW187745   8.849   8.514   4.324 -0.9327 -1.8744 -0.6918
28284SOL    HW287746   8.738   8.447   4.401 -0.2298  0.0404  2.1590
28285SOL     OW87747   9.937   9.912   6.810  0.5234  0.2225  0.3721
28285SOL    HW187748  10.000   9.943   6.745  0.6091  0.5656  0.6148
28285SOL    HW287749   9.852   9.931   6.771  0.5730  1.3854  0.7986
28286SOL     OW87750   4.719   8.950   2.249 -0.4689  0.3350  0.1326
28286SOL    HW187751   4.784   9.015   2.224  0.4287 -0.5740  0.0710
28286SOL    HW287752   4.647   8.962   2.186 -0.0025  0.7823 -0.3209
28287SOL     OW87753   7.611   3.071   8.797 -0.2093  0.1806 -0.2742
28287SOL    HW187754   7.665   3.055   8.719  0.3176  1.3776 -0.1766
28287SOL    HW287755   7.574   3.158   8.783 -0.5796  0.1626  0.5514
28288SOL     OW87756   2.112   0.033   8.955  0.4084 -0.3164  0.3102
28288SOL    HW187757   2.024   0.007   8.929  0.8039 -3.1514  1.5347
28288SOL    HW287758   2.151   0.067   8.874 -1.4649  0.2086 -0.4499
28289SOL     OW87759   8.641   2.740   6.771 -0.1431  0.1387  0.3837
28289SOL    HW187760   8.575   2.708   6.709 -0.9329  3.4150 -0.6634
28289SOL    HW287761   8.724   2.704   6.738 -0.8813 -0.3399 -1.0222
28290SOL     OW87762   2.819   2.610   5.959  0.0835  0.0662 -0.6632
28290SOL    HW187763   2.876   2.632   6.033 -0.4049 -2.1738  0.4768
28290SOL    HW287764   2.743   2.668   5.970 -0.9277 -1.5724  1.8780
28291SOL     OW87765  10.177   8.660   8.265  0.0308 -0.1010 -0.0262
28291SOL    HW187766  10.122   8.738   8.261 -0.1383 -0.2118  0.1681
28291SOL    HW287767  10.267   8.694   8.267 -0.0520  0.0986  0.3737
28292SOL     OW87768   6.186   4.573   7.056 -0.3948  0.2654  0.0709
28292SOL    HW187769   6.249   4.505   7.031 -1.5678 -0.0011 -2.4587
28292SOL    HW287770   6.116   4.525   7.102  0.1621  0.2258  0.8879
28293SOL     OW87771   9.297  10.477   9.583 -0.2512 -0.2251  0.0012
28293SOL    HW187772   9.348  10.502   9.660 -1.2595  0.0463  0.5952
28293SOL    HW287773   9.315  10.546   9.519 -0.3134  0.1616  0.4004
28294SOL     OW87774   0.890   9.913   1.108 -0.1506  0.9110 -0.1777
28294SOL    HW187775   0.944   9.980   1.151  0.4316  1.0930 -1.1350
28294SOL    HW287776   0.879   9.947   1.019 -1.2466  0.5110 -0.1991
28295SOL     OW87777   5.343   1.768   0.286  0.0218  0.1870 -0.2043
28295SOL    HW187778   5.299   1.846   0.252 -0.6754 -0.3048 -0.4428
28295SOL    HW287779   5.383   1.727   0.210 -1.5620 -0.9283 -0.4655
28296SOL     OW87780   8.508   9.726   3.644  0.2223 -0.6653 -0.3144
28296SOL    HW187781   8.510   9.781   3.722 -0.8047 -0.8662 -0.1273
28296SOL    HW287782   8.594   9.737   3.604  2.0674 -3.0483  2.5388
28297SOL     OW87783   5.047   8.899   9.778 -0.4672  0.2777  0.0715
28297SOL    HW187784   5.091   8.914   9.695  1.0567 -1.1365  0.5735
28297SOL    HW287785   5.110   8.848   9.830 -2.4658 -1.3956  1.0178
28298SOL     OW87786   6.618  10.372   8.897 -0.3564 -0.1309  0.1284
28298SOL    HW187787   6.606  10.340   8.808 -0.7053  1.1568 -0.3151
28298SOL    HW287788   6.529  10.391   8.927 -0.0932  4.0235 -1.0730
28299SOL     OW87789   1.055   9.321   3.392 -0.0624  0.0710  0.2308
28299SOL    HW187790   1.137   9.372   3.394  0.1868 -0.2506 -0.9721
28299SOL    HW287791   1.007   9.356   3.317 -1.4422  0.8420  1.4264
28300SOL     OW87792   1.194   4.587   4.648  0.3225  0.3897  0.2229
28300SOL    HW187793   1.232   4.501   4.630 -0.0729 -0.6759  3.8607
28300SOL    HW287794   1.104   4.580   4.615  0.2562 -0.6512  0.5740
28301SOL     OW87795   2.742   7.453   8.366  0.1866 -0.4867 -0.1657
28301SOL    HW187796   2.789   7.372   8.349 -0.4772 -0.6337 -1.3626
28301SOL    HW287797   2.659   7.425   8.406  0.1314 -0.3726 -0.1995
28302SOL     OW87798   4.666   8.422   6.109 -0.6295  0.5700 -0.3427
28302SOL    HW187799   4.592   8.448   6.165  1.2867  0.3147  2.5337
28302SOL    HW287800   4.659   8.327   6.102 -1.6168  0.7216 -1.7480
28303SOL     OW87801   6.142   1.296   1.996 -0.0653 -0.2381 -0.6999
28303SOL    HW187802   6.094   1.281   2.078  0.4946 -0.3370 -0.3859
28303SOL    HW287803   6.145   1.391   1.987 -0.3598 -0.2318 -0.7466
28304SOL     OW87804   5.925   8.437   8.814 -0.4470  0.3483 -0.2374
28304SOL    HW187805   5.852   8.486   8.853 -1.0896 -0.6586 -0.1136
28304SOL    HW287806   5.950   8.374   8.882 -0.0815  0.0769 -0.6197
28305SOL     OW87807   9.153   0.407   6.938 -0.2173  0.1658  0.7484
28305SOL    HW187808   9.183   0.326   6.981  0.5641 -0.0608 -0.1917
28305SOL    HW287809   9.061   0.391   6.919 -0.5249  0.1791  2.1056
28306SOL     OW87810   3.781   0.813   7.558  0.1382 -0.8900  0.1148
28306SOL    HW187811   3.710   0.754   7.535 -2.2030  0.2661  3.4926
28306SOL    HW287812   3.768   0.890   7.503 -1.8521 -0.3730  1.2054
28307SOL     OW87813   9.464   9.317   4.979  0.0487  0.0741 -0.0278
28307SOL    HW187814   9.515   9.236   4.971  1.3685  0.9934 -1.5664
28307SOL    HW287815   9.387   9.301   4.924  0.6745  0.0939 -0.9471
28308SOL     OW87816   1.707   9.938   8.744  0.2439  0.0918 -0.1079
28308SOL    HW187817   1.614   9.930   8.725 -0.1588  1.2086  1.2112
28308SOL    HW287818   1.729  10.028   8.719  0.1082  1.0151  2.7268
28309SOL     OW87819   7.875  10.791   1.302  0.2846 -0.2963  0.1084
28309SOL    HW187820   7.940  10.736   1.345  2.8091  1.7932 -0.7581
28309SOL    HW287821   7.792  10.769   1.346  1.5205 -3.0637  1.2751
28310SOL     OW87822   9.878   5.698   2.176 -0.1715 -0.2758  0.4159
28310SOL    HW187823   9.829   5.624   2.211 -0.0115 -0.3061  0.5768
28310SOL    HW287824   9.848   5.706   2.085  0.5948 -1.2118  0.0694
28311SOL     OW87825   0.933   9.482  10.536 -0.2821 -0.5990 -0.1907
28311SOL    HW187826   1.003   9.546  10.524 -0.1244 -0.8343 -0.5516
28311SOL    HW287827   0.969   9.400  10.503 -1.2873 -0.3852 -1.9462
28312SOL     OW87828   1.313   2.853   9.966  0.2502 -0.6173  0.4386
28312SOL    HW187829   1.226   2.813   9.968 -0.3153  0.5913  1.3733
28312SOL    HW287830   1.370   2.786   9.928 -1.6287 -0.3708 -3.2836
28313SOL     OW87831   6.509  10.499   7.547 -0.3305  0.0347 -0.2928
28313SOL    HW187832   6.584  10.541   7.503 -2.0175  1.5160 -1.9182
28313SOL    HW287833   6.508  10.538   7.634 -0.5995  1.8739 -1.0718
28314SOL     OW87834   6.548   7.879   8.948 -1.3438 -0.8038 -0.2958
28314SOL    HW187835   6.629   7.842   8.914 -0.9126 -0.0604 -0.0946
28314SOL    HW287836   6.573   7.922   9.030 -2.1660 -1.6221  0.4146
28315SOL     OW87837   3.938   0.649   8.547 -0.0699  0.8523  0.7274
28315SOL    HW187838   3.991   0.573   8.523 -0.6636  0.8144 -0.5601
28315SOL    HW287839   3.849   0.616   8.552 -0.0803  1.0593  2.2153
28316SOL     OW87840   2.794   7.869   8.078  0.7060 -0.5494 -0.0411
28316SOL    HW187841   2.882   7.853   8.114  0.2243 -0.6903  1.1143
28316SOL    HW287842   2.739   7.801   8.117 -0.4133  1.0139  1.2233
28317SOL     OW87843   7.249   5.756  10.706  0.3381  0.0269 -0.5234
28317SOL    HW187844   7.271   5.744  10.614  0.8597 -1.7801 -0.2166
28317SOL    HW287845   7.219   5.846  10.713 -1.1960 -0.2443 -2.7502
28318SOL     OW87846   7.286   2.958   6.536  0.4497 -0.7907 -0.2598
28318SOL    HW187847   7.264   2.865   6.541 -0.9216 -0.4226  2.0864
28318SOL    HW287848   7.206   2.999   6.502  1.2842 -0.5038 -1.9557
28319SOL     OW87849   0.856   0.154   1.619 -0.4359  0.4837 -0.0498
28319SOL    HW187850   0.793   0.225   1.609 -1.3920 -0.4549 -1.0743
28319SOL    HW287851   0.803   0.078   1.641  0.1117 -0.6199 -2.2011
28320SOL     OW87852   8.510  10.446   0.979  0.4719  0.4850 -0.3053
28320SOL    HW187853   8.558  10.462   1.060  1.9981  1.3005 -1.3268
28320SOL    HW287854   8.426  10.411   1.008  1.7333 -1.2239  1.5657
28321SOL     OW87855   5.363   0.433   4.647  0.1437  0.2423 -0.4596
28321SOL    HW187856   5.422   0.380   4.593 -0.1202  0.0781 -0.5894
28321SOL    HW287857   5.329   0.500   4.587  2.4443  2.2098  0.2771
28322SOL     OW87858   5.211   9.477   6.651  0.7129  0.2710  0.4484
28322SOL    HW187859   5.241   9.401   6.701 -1.0047  0.1413  1.3658
28322SOL    HW287860   5.173   9.439   6.571 -2.4869 -0.1911  2.0247
28323SOL     OW87861   7.608  10.354   6.653 -0.2392  0.4889  0.5313
28323SOL    HW187862   7.683  10.347   6.595 -0.3722 -1.3882  0.5169
28323SOL    HW287863   7.605  10.446   6.678  0.5538  1.0945 -1.4406
28324SOL     OW87864   3.942   9.598   9.354 -0.4566  0.1943 -0.0454
28324SOL    HW187865   4.031   9.585   9.321 -1.1054 -1.0348 -1.4249
28324SOL    HW287866   3.921   9.516   9.399  0.4979  1.9132  3.9170
28325SOL     OW87867   1.660   8.855   5.098  0.1697 -0.2879 -0.3362
28325SOL    HW187868   1.684   8.889   5.012  1.0667  0.5183  0.2115
28325SOL    HW287869   1.582   8.905   5.122  0.5850  0.3037 -0.1968
28326SOL     OW87870  10.617   4.722   8.236 -0.1742  0.0547 -0.2414
28326SOL    HW187871  10.561   4.654   8.273 -0.2950 -0.6573 -1.6724
28326SOL    HW287872  10.707   4.690   8.249 -0.0154  1.3011  2.2569
28327SOL     OW87873   7.004   9.420   8.654 -0.5455 -0.7235 -0.2989
28327SOL    HW187874   6.944   9.396   8.584  0.0734 -0.2593 -1.0097
28327SOL    HW287875   7.087   9.378   8.630 -0.6664 -1.6665  0.8548
28328SOL     OW87876   5.174  10.254   2.343 -0.0033 -0.0392  0.1730
28328SOL    HW187877   5.258  10.286   2.310 -0.2736 -1.2530 -1.8949
28328SOL    HW287878   5.193  10.167   2.376 -0.2897  0.0195  0.4935
28329SOL     OW87879   0.751   3.433   5.456  0.3352 -0.4743 -0.4971
28329SOL    HW187880   0.724   3.475   5.538 -1.1993 -1.5492 -0.4216
28329SOL    HW287881   0.834   3.475   5.434  0.2709  0.5461  1.0773
28330SOL     OW87882   4.575   7.845   0.338 -0.2703 -0.4146 -0.2597
28330SOL    HW187883   4.494   7.794   0.336 -0.4563 -0.2413  1.3628
28330SOL    HW287884   4.568   7.898   0.417  0.7480  0.7667 -0.9363
28331SOL     OW87885   6.256   5.536   9.548 -0.0252  0.2309  0.1316
28331SOL    HW187886   6.291   5.623   9.567  0.7283  0.0361 -0.3393
28331SOL    HW287887   6.235   5.499   9.634 -0.0056  0.7384  0.3538
28332SOL     OW87888   6.820   0.715   0.260  0.1464 -0.0596  0.6630
28332SOL    HW187889   6.833   0.716   0.165 -0.7435 -1.5083  0.5101
28332SOL    HW287890   6.736   0.759   0.274  0.4104  0.4060  0.8155
28333SOL     OW87891   7.405   6.505   0.305  0.5747 -0.2966 -0.1834
28333SOL    HW187892   7.423   6.414   0.329  0.2271 -0.2962  0.0916
28333SOL    HW287893   7.413   6.554   0.388  1.3819  0.0242 -0.4385
28334SOL     OW87894   3.531  10.496   9.325 -0.4605  0.0871  0.3066
28334SOL    HW187895   3.474  10.435   9.279  1.4253 -0.3225 -1.6495
28334SOL    HW287896   3.513  10.581   9.285  0.4151 -0.0810 -0.4709
28335SOL     OW87897   7.128   7.957  10.538  0.3926  0.0274  0.1764
28335SOL    HW187898   7.202   7.953  10.478  1.7955 -1.0306  1.8774
28335SOL    HW287899   7.069   7.888  10.508  1.5713 -1.2004  0.5791
28336SOL     OW87900   5.322   9.763   5.065  0.3649 -0.1704 -0.5862
28336SOL    HW187901   5.304   9.834   5.004  0.0415  0.4732  0.2306
28336SOL    HW287902   5.417   9.754   5.065  0.3600 -0.2473 -1.2525
28337SOL     OW87903   4.799   4.761   9.321 -0.0774  0.3428  0.3551
28337SOL    HW187904   4.706   4.778   9.337  0.3326  3.0103  0.4412
28337SOL    HW287905   4.800   4.687   9.261 -2.3809  1.3119 -1.0245
28338SOL     OW87906  10.437   3.315   3.079 -0.0474 -0.0247 -0.4533
28338SOL    HW187907  10.502   3.301   3.010 -1.7016  1.4868 -2.4538
28338SOL    HW287908  10.358   3.273   3.045 -0.4158 -1.0239  1.5170
28339SOL     OW87909   0.188   9.130   0.390  0.0132  0.1820 -0.5374
28339SOL    HW187910   0.264   9.186   0.404 -0.2202  0.5917 -0.8904
28339SOL    HW287911   0.113   9.186   0.410 -0.1905 -0.3429  0.2286
28340SOL     OW87912   6.687   0.197   2.937 -0.3136 -0.6012 -0.3596
28340SOL    HW187913   6.594   0.195   2.961  0.1665  1.7350  2.1568
28340SOL    HW287914   6.715   0.106   2.943 -2.2573 -1.2553 -0.4670
28341SOL     OW87915   6.696   5.385   0.568  0.0863  0.1450  0.1338
28341SOL    HW187916   6.770   5.371   0.509 -0.2328 -1.6157  0.0976
28341SOL    HW287917   6.735   5.395   0.655  0.3462 -3.0348  0.4903
28342SOL     OW87918   0.527   7.678   8.219 -0.4021 -0.0585 -0.5771
28342SOL    HW187919   0.584   7.606   8.193 -1.3671 -0.8090 -0.6469
28342SOL    HW287920   0.556   7.701   8.307 -0.0649 -0.5104 -0.5665
28343SOL     OW87921   2.536   3.502   4.515 -0.2996  0.0313 -0.5495
28343SOL    HW187922   2.539   3.563   4.588  1.3551 -0.0850 -0.4730
28343SOL    HW287923   2.460   3.528   4.464 -0.7632  0.8876  0.5533
28344SOL     OW87924   3.359   4.977   7.677  0.3338 -0.3755  0.0363
28344SOL    HW187925   3.290   5.028   7.635 -0.4575 -2.2972 -1.1319
28344SOL    HW287926   3.429   4.974   7.612 -0.8152 -3.1941 -1.2004
28345SOL     OW87927   2.904   0.635   4.489 -0.3792  0.3578  0.4485
28345SOL    HW187928   2.870   0.553   4.454 -0.5888  0.8982 -0.6614
28345SOL    HW287929   2.998   0.621   4.496 -0.3724  0.1190 -0.0374
28346SOL     OW87930  10.561   1.057   7.320 -0.1938  0.4913  0.1375
28346SOL    HW187931  10.598   1.114   7.253 -0.7822  0.4580 -0.2314
28346SOL    HW287932  10.484   1.018   7.277  0.3272 -0.7647  0.2833
28347SOL     OW87933   4.018  10.298  10.607 -0.2768 -0.2649 -0.6147
28347SOL    HW187934   3.926  10.286  10.631 -0.2852  0.2037 -0.4157
28347SOL    HW287935   4.015  10.326  10.516 -0.4057  1.1654 -0.1814
28348SOL     OW87936   4.894   0.159   9.074  0.1218 -0.2612 -0.1780
28348SOL    HW187937   4.900   0.078   9.024 -1.9894  0.6128 -1.9876
28348SOL    HW287938   4.977   0.204   9.056  1.1324 -1.7712  0.5033
28349SOL     OW87939   6.807   9.870   0.129 -0.6557  0.0626  0.5226
28349SOL    HW187940   6.863   9.804   0.088  0.2649  0.5894  0.8961
28349SOL    HW287941   6.841   9.878   0.218 -1.9532 -0.2977  1.0853
28350SOL     OW87942   0.938   7.349   8.359 -0.1387 -0.4891 -0.5515
28350SOL    HW187943   0.887   7.295   8.419  0.3058 -1.0059 -0.6281
28350SOL    HW287944   1.025   7.354   8.401 -0.0681 -0.1608 -0.7399
28351SOL     OW87945   7.518   9.814   4.846  0.0762  0.8181  0.0621
28351SOL    HW187946   7.555   9.871   4.914 -0.0957  0.2864  0.6081
28351SOL    HW287947   7.424   9.832   4.848 -0.2183 -0.6787  1.4009
28352SOL     OW87948   9.888   2.626   8.197 -0.0913  0.1825 -0.9913
28352SOL    HW187949   9.920   2.558   8.257 -1.2118  0.9807  0.5628
28352SOL    HW287950   9.793   2.623   8.205 -0.2458  0.6601 -2.3763
28353SOL     OW87951   4.159   4.568   6.768 -0.8756 -0.2050  0.2543
28353SOL    HW187952   4.138   4.524   6.685 -1.0844 -0.7505  0.5892
28353SOL    HW287953   4.215   4.505   6.814 -1.4828 -0.2781  0.9029
28354SOL     OW87954  10.413   1.945   5.598 -0.1182 -0.5140 -0.5910
28354SOL    HW187955  10.468   1.985   5.666  0.8549  0.2897 -1.8068
28354SOL    HW287956  10.389   1.859   5.634  2.4300 -1.1492 -0.2317
28355SOL     OW87957   1.043   6.594   8.030  0.0666  0.0094 -0.1221
28355SOL    HW187958   0.999   6.513   8.056  0.0904 -0.2883 -0.9991
28355SOL    HW287959   1.110   6.607   8.097 -1.0529  0.2459  0.9959
28356SOL     OW87960   5.328   1.726   8.543  0.8061  0.3381 -0.1719
28356SOL    HW187961   5.364   1.683   8.621 -0.7950 -2.0422 -0.6348
28356SOL    HW287962   5.340   1.663   8.473 -0.5873  1.1470 -1.1842
28357SOL     OW87963  10.482   0.569   2.799 -0.5880 -0.6427  0.0265
28357SOL    HW187964  10.522   0.616   2.726 -0.1730  0.1929  0.7728
28357SOL    HW287965  10.552   0.514   2.835 -0.6611 -0.6910  0.0982
28358SOL     OW87966   3.874   3.128   6.439 -0.2623  0.1580 -0.0293
28358SOL    HW187967   3.967   3.104   6.441 -0.6935 -2.2185 -2.3577
28358SOL    HW287968   3.873   3.217   6.404  1.1472  0.9323  1.7382
28359SOL     OW87969   0.631   3.834   8.929 -0.3702  0.0134  0.3708
28359SOL    HW187970   0.603   3.917   8.890 -1.7198  1.0373  3.2681
28359SOL    HW287971   0.564   3.771   8.903 -0.6445  0.4127  0.1008
28360SOL     OW87972   2.153   2.420   7.023 -0.3604 -0.3502 -0.6421
28360SOL    HW187973   2.157   2.446   6.931  1.7950 -2.1176 -1.1351
28360SOL    HW287974   2.244   2.399   7.046 -0.6358  1.1399  2.2702
28361SOL     OW87975   2.854   2.174   6.437  0.0490 -0.1017  0.2062
28361SOL    HW187976   2.791   2.206   6.374  0.0924 -0.4885 -0.0355
28361SOL    HW287977   2.803   2.122   6.499  0.3142 -1.8034 -0.9061
28362SOL     OW87978   3.109   8.614   9.253 -0.2398 -0.3974  0.5098
28362SOL    HW187979   3.173   8.574   9.312 -1.0287 -0.4096  1.3810
28362SOL    HW287980   3.040   8.646   9.311 -1.0882 -0.4991 -0.4193
28363SOL     OW87981   2.566   0.269  10.626 -0.4118  0.2134 -0.1218
28363SOL    HW187982   2.652   0.281  10.585 -1.0969  0.1735 -1.6458
28363SOL    HW287983   2.537   0.183  10.596 -1.7891  1.0103 -1.2118
28364SOL     OW87984   6.388   2.628   3.590 -0.1728 -0.3574 -0.7768
28364SOL    HW187985   6.415   2.701   3.535 -0.3026 -0.7967 -1.4246
28364SOL    HW287986   6.449   2.631   3.665  0.8346 -0.5362 -1.5701
28365SOL     OW87987   7.107  10.393  10.048  0.2728 -0.2186  0.1193
28365SOL    HW187988   7.016  10.363  10.040 -0.6187  2.0343  0.8881
28365SOL    HW287989   7.121  10.446   9.969  0.5914  0.1789  0.4379
28366SOL     OW87990   0.688   1.000   3.995 -0.3187  0.6448 -0.2085
28366SOL    HW187991   0.688   0.978   3.902  1.4112  2.8633 -0.8352
28366SOL    HW287992   0.747   0.936   4.035 -0.7896 -0.1017 -0.6826
28367SOL     OW87993   6.046  10.143   7.805  0.0428  0.5145 -0.1753
28367SOL    HW187994   5.999  10.063   7.828 -0.3346  0.5051 -0.9606
28367SOL    HW287995   6.136  10.113   7.789  0.1015  0.3838  0.3816
28368SOL     OW87996   8.287   7.045   8.933 -0.3272  0.4563 -0.3846
28368SOL    HW187997   8.350   6.978   8.959 -0.5058  0.2503 -0.4843
28368SOL    HW287998   8.282   7.038   8.838 -2.5839 -1.4303 -0.2065
28369SOL     OW87999   3.291  10.207   4.769 -0.8612  0.1231 -0.1852
28369SOL    HW188000   3.271  10.221   4.861  0.3309 -1.2840  0.3309
28369SOL    HW288001   3.265  10.288   4.726  1.0042  1.8758  1.7846
28370SOL     OW88002   7.827   6.412   9.841  0.5930  0.3077 -0.6136
28370SOL    HW188003   7.890   6.468   9.888 -0.3276  1.4814 -0.7389
28370SOL    HW288004   7.789   6.357   9.910  0.7841  0.5263 -0.3265
28371SOL     OW88005   3.382   0.860   9.837 -0.0944  0.1370  0.4095
28371SOL    HW188006   3.443   0.883   9.908  2.4115 -2.4697 -0.6778
28371SOL    HW288007   3.314   0.927   9.841  2.5648  3.0155  2.0772
28372SOL     OW88008   1.372   7.992   6.675  0.6283  0.6169 -0.0302
28372SOL    HW188009   1.451   7.969   6.626  1.7455  0.4911  1.7079
28372SOL    HW288010   1.393   8.077   6.715 -0.0918  0.5561  0.4951
28373SOL     OW88011   3.875   8.281   6.115 -0.4455  0.4119 -0.8658
28373SOL    HW188012   3.968   8.280   6.092 -0.1609 -1.3408  0.1812
28373SOL    HW288013   3.865   8.355   6.175  0.6770 -0.4366  0.4173
28374SOL     OW88014   7.139   8.598  10.676  0.5078  0.1015 -0.3215
28374SOL    HW188015   7.229   8.565  10.674  0.4549 -0.1672  0.9401
28374SOL    HW288016   7.086   8.526  10.643  0.8458  0.7178 -2.3537
28375SOL     OW88017  10.748   8.637   6.726  0.1338 -0.1392  0.3147
28375SOL    HW188018  10.740   8.593   6.642 -0.6528 -0.0032  0.3175
28375SOL    HW288019  10.662   8.628   6.767  0.0636  1.0926  0.4640
28376SOL     OW88020   2.675   1.048  10.122 -0.4497 -0.2137  0.4365
28376SOL    HW188021   2.710   1.129  10.159 -1.5629  0.8226 -0.6679
28376SOL    HW288022   2.688   1.057  10.028 -0.8627 -1.1851  0.2746
28377SOL     OW88023   3.040   2.665   6.801 -0.2108  0.1668  0.4813
28377SOL    HW188024   2.976   2.595   6.809  0.3942 -0.5110 -0.3554
28377SOL    HW288025   3.040   2.687   6.708  0.2312  0.6764  0.5952
28378SOL     OW88026   1.047   3.105   7.599 -0.1428 -0.7201  0.6419
28378SOL    HW188027   0.967   3.105   7.651 -0.5419 -0.7016  0.0373
28378SOL    HW288028   1.071   3.197   7.592 -0.5376 -0.6471  0.1310
28379SOL     OW88029   7.621   1.104   9.992  0.7574  0.0823  0.2103
28379SOL    HW188030   7.662   1.019  10.006 -1.1521 -0.8052  0.7506
28379SOL    HW288031   7.684   1.168  10.026  2.4115 -1.0444 -0.6013
28380SOL     OW88032   3.524   3.748   9.864  0.4124 -0.3969 -0.1690
28380SOL    HW188033   3.586   3.821   9.859 -0.6300  0.4273 -2.5961
28380SOL    HW288034   3.551   3.699   9.941  1.0766  2.6160  1.6733
28381SOL     OW88035   3.665   5.944   5.584 -0.5149 -0.2959 -0.8155
28381SOL    HW188036   3.754   5.978   5.591 -0.4465 -0.5311 -0.5193
28381SOL    HW288037   3.645   5.912   5.671  0.1693 -2.8383 -1.4934
28382SOL     OW88038   0.665   6.581   5.761  0.5228  0.3000 -0.2324
28382SOL    HW188039   0.574   6.610   5.763  0.0114 -0.9397 -2.2590
28382SOL    HW288040   0.664   6.497   5.808  0.5870  0.2163 -0.3795
28383SOL     OW88041   2.357   2.372   4.264 -0.6521 -0.0201  0.2698
28383SOL    HW188042   2.290   2.433   4.294 -1.1104  0.9144 -2.3972
28383SOL    HW288043   2.440   2.411   4.292 -1.0030  1.3004 -0.4659
28384SOL     OW88044   8.437  10.366   0.722 -0.2878 -0.1682 -0.0111
28384SOL    HW188045   8.494  10.290   0.710  1.2046  1.0052 -0.7121
28384SOL    HW288046   8.444  10.387   0.815 -1.8207 -1.6704  0.4998
28385SOL     OW88047   8.929   7.769   3.699  0.0188  0.4176 -1.0285
28385SOL    HW188048   8.893   7.773   3.610  0.3746  0.9328 -1.1536
28385SOL    HW288049   8.858   7.803   3.755  0.2257  1.2136 -1.2488
28386SOL     OW88050   4.803   5.701   7.105 -0.0821 -0.3198 -0.6064
28386SOL    HW188051   4.721   5.667   7.068 -0.7725  0.5393  0.0726
28386SOL    HW288052   4.776   5.776   7.158  1.2302  0.4049 -0.9156
28387SOL     OW88053   8.120   2.566   4.068 -0.3959 -0.5576  0.2745
28387SOL    HW188054   8.144   2.613   3.988 -0.1883  0.1674  0.7483
28387SOL    HW288055   8.201   2.559   4.117 -0.8609  0.7857  1.3134
28388SOL     OW88056   7.065   7.940   3.939 -0.1695 -0.0101 -0.3058
28388SOL    HW188057   7.085   7.848   3.921  1.8593  0.5736 -1.3530
28388SOL    HW288058   7.061   7.945   4.035  3.4788 -0.5754  0.0224
28389SOL     OW88059  10.772   6.995   3.555 -0.3549 -0.2666 -0.2533
28389SOL    HW188060  10.823   7.076   3.556  1.5347 -1.2729  3.1078
28389SOL    HW288061  10.711   7.005   3.628 -0.3741 -1.6874 -0.0596
28390SOL     OW88062   8.493   5.585   3.580 -0.8949 -0.3608  0.2006
28390SOL    HW188063   8.557   5.626   3.639 -1.4288  2.1142 -0.8095
28390SOL    HW288064   8.525   5.605   3.492 -1.6146 -1.5149 -0.3495
28391SOL     OW88065   3.128   2.856   0.115 -0.4632 -0.0881  0.6460
28391SOL    HW188066   3.154   2.870   0.206  0.5577  1.4337  0.1481
28391SOL    HW288067   3.060   2.922   0.099 -0.0523  0.2047  0.0774
28392SOL     OW88068   5.007   2.047   4.944  0.7808  0.1606  0.6790
28392SOL    HW188069   5.075   2.025   5.008 -0.8966  0.2203  2.5420
28392SOL    HW288070   4.957   1.966   4.934  0.9538  0.1828 -0.5294
28393SOL     OW88071   5.306   7.628   6.926 -0.0154 -0.1608  1.2379
28393SOL    HW188072   5.398   7.611   6.947  0.9807  1.6950 -1.0613
28393SOL    HW288073   5.303   7.630   6.830 -2.0934  1.4281  1.2539
28394SOL     OW88074   4.761   8.349   1.879  0.4893  0.4436 -0.2084
28394SOL    HW188075   4.673   8.312   1.880 -0.1142  1.7473 -1.3537
28394SOL    HW288076   4.819   8.273   1.868 -0.5889 -0.3156 -0.8341
28395SOL     OW88077   8.255  10.171   2.569  0.1806  0.0884 -0.4078
28395SOL    HW188078   8.327  10.232   2.552  0.4740 -0.3378 -0.7403
28395SOL    HW288079   8.206  10.210   2.641  0.6032  0.5091 -0.3437
28396SOL     OW88080  10.048   9.317   3.685  0.4350  0.4446 -0.4132
28396SOL    HW188081  10.121   9.257   3.670  0.1035  0.0000 -0.2542
28396SOL    HW288082  10.005   9.284   3.764 -0.7709 -0.1159 -1.2766
28397SOL     OW88083   8.396   3.349   8.457 -0.8773  0.0713 -0.0790
28397SOL    HW188084   8.333   3.338   8.386 -0.7926  0.0156 -0.1449
28397SOL    HW288085   8.459   3.413   8.424  0.8616 -2.0755 -1.2177
28398SOL     OW88086   9.529   4.225   2.640 -0.3933  0.0763  0.9027
28398SOL    HW188087   9.450   4.183   2.607 -0.0095 -1.2815  1.5938
28398SOL    HW288088   9.534   4.309   2.595 -0.2372 -1.3720 -1.9771
28399SOL     OW88089   2.872   4.425   3.434  0.0671  0.5133 -0.0843
28399SOL    HW188090   2.918   4.345   3.459  1.0272  0.8502 -0.6959
28399SOL    HW288091   2.780   4.400   3.427 -0.2216  0.2612  3.1714
28400SOL     OW88092   8.009   4.107   3.704 -0.7784 -0.2828  0.7307
28400SOL    HW188093   7.949   4.086   3.633 -0.1482 -0.3879  0.2149
28400SOL    HW288094   8.033   4.198   3.689  0.5780 -0.7482 -0.1431
28401SOL     OW88095   1.304   5.540   8.272 -0.2349  0.3531 -0.1871
28401SOL    HW188096   1.256   5.622   8.270  1.1201  1.1456 -1.5289
28401SOL    HW288097   1.384   5.560   8.321 -0.5084 -0.5402  0.6607
28402SOL     OW88098   5.337   1.326   6.651  1.2550 -0.3003 -0.6794
28402SOL    HW188099   5.428   1.343   6.627  0.6273  0.8695 -2.4423
28402SOL    HW288100   5.292   1.409   6.633  0.3850  0.3285  3.4243
28403SOL     OW88101   1.752   1.864   6.037 -0.2411  0.1486  0.0456
28403SOL    HW188102   1.784   1.918   6.109 -0.2216  0.6449 -0.3247
28403SOL    HW288103   1.706   1.792   6.079  2.0646 -1.0817  0.6383
28404SOL     OW88104   0.520   6.527   1.007 -0.0133  0.0941  0.0254
28404SOL    HW188105   0.438   6.528   1.056  1.2178 -1.6377  2.3460
28404SOL    HW288106   0.552   6.617   1.012  0.0005  0.0181  2.4248
28405SOL     OW88107   6.592   2.216   8.161 -0.4635  0.0555 -0.7189
28405SOL    HW188108   6.603   2.127   8.192  1.0078  0.2033 -0.7264
28405SOL    HW288109   6.630   2.271   8.230  0.8338  0.5078 -1.7345
28406SOL     OW88110   7.628   6.057   6.284 -0.4190  0.0271 -0.0401
28406SOL    HW188111   7.690   6.001   6.330  1.8058  1.3030 -1.3176
28406SOL    HW288112   7.600   6.005   6.208  1.2124  0.3884 -0.9219
28407SOL     OW88113   1.407   0.470   4.814 -0.2467 -0.2064  0.8910
28407SOL    HW188114   1.329   0.496   4.765  0.2810  0.3104  0.3137
28407SOL    HW288115   1.385   0.490   4.905 -0.1885  1.4744  0.5700
28408SOL     OW88116   5.737  10.783   5.934  0.0453  0.3625 -0.0793
28408SOL    HW188117   5.798  10.853   5.960 -0.4708  0.8577 -0.1838
28408SOL    HW288118   5.656  10.804   5.980 -0.3494  0.2626 -0.7208
28409SOL     OW88119   7.625   8.524   4.025  0.1638 -0.0181 -0.0781
28409SOL    HW188120   7.589   8.495   3.941  0.1770 -0.9670  0.2382
28409SOL    HW288121   7.719   8.513   4.015  0.3582  1.8017 -0.6528
28410SOL     OW88122   1.770   9.569   1.100 -0.3687 -0.1472  0.1877
28410SOL    HW188123   1.742   9.496   1.044 -2.1585  0.7428 -0.1295
28410SOL    HW288124   1.808   9.526   1.176  2.0838 -1.3946 -1.6081
28411SOL     OW88125   1.254   6.274   5.400 -0.0245  0.2364  0.1673
28411SOL    HW188126   1.298   6.191   5.379 -1.2982 -0.8905  1.6560
28411SOL    HW288127   1.323   6.340   5.392  0.9972 -0.9171 -1.2404
28412SOL     OW88128   6.376   4.982   1.137  0.1616 -0.2543 -0.1677
28412SOL    HW188129   6.427   4.987   1.218 -0.3586 -0.4438  0.1755
28412SOL    HW288130   6.335   5.068   1.129 -0.4252 -0.4972  0.1960
28413SOL     OW88131   2.628   2.726   3.890 -0.6695 -0.4973 -0.2892
28413SOL    HW188132   2.713   2.694   3.858 -0.6243  0.9264 -1.7482
28413SOL    HW288133   2.648   2.810   3.932 -0.8275 -2.0398  3.1404
28414SOL     OW88134   3.989   5.267   0.050 -0.3062  0.2334  0.4556
28414SOL    HW188135   4.079   5.239   0.040 -0.5482  0.0514 -1.6372
28414SOL    HW288136   3.941   5.188   0.074 -0.1866 -0.0430 -0.2155
28415SOL     OW88137   4.820   0.143   7.964  0.7064 -0.2338 -0.4258
28415SOL    HW188138   4.814   0.131   8.059 -1.1435  1.4904 -0.2675
28415SOL    HW288139   4.870   0.067   7.934  1.7317 -0.5921  1.9565
28416SOL     OW88140   5.067   8.758   2.190 -0.6850  0.4415  0.6128
28416SOL    HW188141   5.077   8.730   2.280 -2.7146  0.6221  0.9586
28416SOL    HW288142   5.069   8.854   2.194 -0.3125  0.4428  0.4053
28417SOL     OW88143   4.565   6.825  10.427 -0.9651  0.1110  0.4514
28417SOL    HW188144   4.476   6.810  10.460 -0.4936 -0.6092  1.4334
28417SOL    HW288145   4.593   6.740  10.394 -1.3058  0.7373 -1.6012
28418SOL     OW88146   7.361   1.172   9.178  0.3565 -0.4078 -0.1843
28418SOL    HW188147   7.412   1.222   9.242  0.4581 -0.7116 -0.0273
28418SOL    HW288148   7.273   1.170   9.215  0.1804  0.2825 -0.5500
28419SOL     OW88149   2.101   9.203   7.063 -0.1214 -0.0827  0.2988
28419SOL    HW188150   2.191   9.200   7.094  0.6156  0.3035 -1.6246
28419SOL    HW288151   2.107   9.177   6.971 -1.3605  3.7916 -1.0807
28420SOL     OW88152   7.257  10.364   7.141  0.1136  0.3146 -0.2393
28420SOL    HW188153   7.300  10.361   7.226  0.5548 -0.6310 -0.4780
28420SOL    HW288154   7.270  10.454   7.111 -1.6983  1.2216  1.4889
28421SOL     OW88155   6.650  10.272   6.731 -0.3604 -0.0696  0.0855
28421SOL    HW188156   6.681  10.357   6.763 -1.0968  1.2224 -2.3620
28421SOL    HW288157   6.606  10.292   6.648  1.8728 -3.1378 -2.0742
28422SOL     OW88158   0.177   1.581   5.641 -0.1483  0.0893 -0.6319
28422SOL    HW188159   0.242   1.616   5.580  0.3215  2.1426  0.9096
28422SOL    HW288160   0.098   1.633   5.624  0.7205  2.5716  2.0673
28423SOL     OW88161   5.969   4.819   8.156  0.3031  0.2496 -0.1365
28423SOL    HW188162   6.060   4.840   8.176  0.4712  1.0445 -1.6197
28423SOL    HW288163   5.919   4.858   8.228  1.0739  0.4477  0.3007
28424SOL     OW88164   2.825   2.381   2.724  0.0465  0.3629  0.0026
28424SOL    HW188165   2.743   2.333   2.715 -0.9220  1.7151  1.2316
28424SOL    HW288166   2.883   2.342   2.658 -0.3767 -3.0114  1.3700
28425SOL     OW88167   8.229  10.335   9.998 -0.2474 -0.4330 -0.3313
28425SOL    HW188168   8.295  10.277   9.960  1.1395 -0.3005  1.7378
28425SOL    HW288169   8.156  10.276  10.020 -1.0525 -0.5310 -2.9014
28426SOL     OW88170   6.102   2.929   5.899 -0.2998 -0.3260 -0.4649
28426SOL    HW188171   6.120   2.874   5.976 -1.0627 -0.7696 -0.6005
28426SOL    HW288172   6.188   2.944   5.860 -0.1711 -2.4094 -1.0944
28427SOL     OW88173   0.398   6.250   6.718 -0.6444 -0.2348  0.1563
28427SOL    HW188174   0.409   6.160   6.686  3.2281  0.2824 -0.4890
28427SOL    HW288175   0.401   6.303   6.638  3.1222  0.6995  0.7410
28428SOL     OW88176   6.001   1.520   1.476  0.4702  0.2775 -0.1066
28428SOL    HW188177   6.088   1.556   1.466  0.1204  0.9348 -0.8104
28428SOL    HW288178   5.980   1.482   1.391  0.8715 -1.7302  0.6325
28429SOL     OW88179   5.021   5.986   6.943 -0.4928  0.2272 -0.4279
28429SOL    HW188180   4.983   6.036   7.015  0.5154  0.2557  0.0938
28429SOL    HW288181   5.108   6.023   6.930 -0.2280 -0.5267 -0.8938
28430SOL     OW88182   7.804   9.703   6.587  0.2716  0.3575  0.1121
28430SOL    HW188183   7.719   9.665   6.563 -0.2962  1.8412 -0.3125
28430SOL    HW288184   7.783   9.773   6.649  1.1219  1.0834 -0.4012
28431SOL     OW88185  10.292   0.277   8.472  0.1581  0.1424  0.0344
28431SOL    HW188186  10.335   0.354   8.510  0.1961 -0.5593  1.4838
28431SOL    HW288187  10.250   0.310   8.393  0.6463  1.5377  0.3209
28432SOL     OW88188   4.976   9.508   4.549  0.3600  0.3192  0.0682
28432SOL    HW188189   4.965   9.438   4.613  1.1097 -0.2222 -0.3750
28432SOL    HW288190   4.890   9.548   4.541 -0.0303 -0.4218  0.4833
28433SOL     OW88191   4.704   5.520   8.505 -0.3437  0.0076 -0.6758
28433SOL    HW188192   4.637   5.581   8.475  0.4621  1.0819 -0.3502
28433SOL    HW288193   4.732   5.475   8.425  0.2190  1.2650 -1.2262
28434SOL     OW88194   8.145   0.513   6.171 -0.5710 -0.4760 -0.3068
28434SOL    HW188195   8.132   0.597   6.217  0.6402 -0.9346  0.9216
28434SOL    HW288196   8.210   0.467   6.224  0.5747 -1.2140 -2.2785
28435SOL     OW88197   5.700   9.947  10.367  0.3027 -0.2862  0.5930
28435SOL    HW188198   5.638   9.912  10.432 -0.6815  0.2800 -0.0141
28435SOL    HW288199   5.730  10.030  10.406 -1.2761  0.7120 -0.1904
28436SOL     OW88200   7.869   4.497   5.286 -0.5351 -0.6083  0.0829
28436SOL    HW188201   7.874   4.437   5.212 -2.7777 -2.5362  1.3730
28436SOL    HW288202   7.960   4.525   5.301  0.1921 -1.4927 -2.2599
28437SOL     OW88203   8.787   3.010   7.608  0.2171 -0.6298 -0.4428
28437SOL    HW188204   8.801   2.979   7.697  0.5706  0.5326 -0.0738
28437SOL    HW288205   8.820   2.940   7.552  0.3334 -1.2082  0.3360
28438SOL     OW88206   6.623   2.683   3.738 -0.0347  0.1930 -0.0506
28438SOL    HW188207   6.614   2.648   3.827 -2.0125 -0.3855 -0.4275
28438SOL    HW288208   6.708   2.729   3.739 -0.0399  0.2879  2.1441
28439SOL     OW88209  10.395   6.143   1.572  0.2551  0.0732 -0.4964
28439SOL    HW188210  10.398   6.056   1.611  1.0486  0.6669  0.8173
28439SOL    HW288211  10.310   6.178   1.599  0.1692 -0.0778 -0.5672
28440SOL     OW88212   9.726   4.600   2.314  0.0771  0.1150  0.4290
28440SOL    HW188213   9.806   4.547   2.323 -0.7057 -0.9896  1.2295
28440SOL    HW288214   9.754   4.677   2.265  1.3984 -0.7765 -0.3147
28441SOL     OW88215   7.719  10.440   6.193  0.1070 -0.4655  0.7374
28441SOL    HW188216   7.805  10.439   6.150 -0.3486 -0.1080 -0.1947
28441SOL    HW288217   7.666  10.379   6.143 -0.7029  0.6468  0.1887
28442SOL     OW88218   1.082   7.715   4.077 -0.1860 -0.0685 -0.1038
28442SOL    HW188219   1.008   7.739   4.134 -0.0238  1.1851 -0.4024
28442SOL    HW288220   1.147   7.783   4.092  1.2869 -1.5949  0.7650
28443SOL     OW88221   2.846   2.510   0.347 -0.0789  0.1673 -0.0671
28443SOL    HW188222   2.897   2.429   0.344 -1.3042 -0.6174 -0.3979
28443SOL    HW288223   2.841   2.538   0.255 -0.5934  0.0003 -0.0948
28444SOL     OW88224   3.772   0.725   9.842 -0.0128  0.1703  0.1529
28444SOL    HW188225   3.681   0.714   9.870  0.3452 -1.0971  0.8871
28444SOL    HW288226   3.768   0.730   9.747 -1.0545  2.4478  0.2565
28445SOL     OW88227   9.769   7.240   6.808  0.0160  0.2938 -0.0585
28445SOL    HW188228   9.849   7.194   6.786 -0.7545 -0.4946 -1.3547
28445SOL    HW288229   9.756   7.223   6.901  0.5350 -0.8602 -0.1822
28446SOL     OW88230   8.404   9.862   1.089  0.2576 -0.1908 -0.2385
28446SOL    HW188231   8.403   9.890   0.998 -0.5727 -0.9710 -0.4836
28446SOL    HW288232   8.321   9.895   1.125  0.9634  0.8716  0.4917
28447SOL     OW88233   9.694   3.037   1.580  0.0281  0.1337 -0.1312
28447SOL    HW188234   9.653   3.083   1.506 -0.9957  2.2041  1.5805
28447SOL    HW288235   9.633   2.966   1.601 -1.3692  1.4935  0.6500
28448SOL     OW88236   3.936   2.132  10.741  0.3924 -0.0675  0.0826
28448SOL    HW188237   4.005   2.085  10.693  0.4930  0.6331 -0.4894
28448SOL    HW288238   3.876   2.064  10.770  1.1722 -0.6615  0.3263
28449SOL     OW88239   5.266   8.263   0.198 -0.5383  0.2689  0.4323
28449SOL    HW188240   5.180   8.303   0.197 -0.4242  0.5679 -1.2666
28449SOL    HW288241   5.250   8.171   0.176 -0.4613  0.2740  0.3500
28450SOL     OW88242   7.210   2.446   7.575 -0.5031 -0.6862 -0.6272
28450SOL    HW188243   7.142   2.507   7.603 -0.2741 -0.4506 -0.5861
28450SOL    HW288244   7.174   2.359   7.595  0.4718 -0.5100  2.4093
28451SOL     OW88245   6.592   2.718   2.625  0.1206 -0.3116  0.1138
28451SOL    HW188246   6.506   2.740   2.590  0.6739  1.0585 -0.4326
28451SOL    HW288247   6.577   2.702   2.719 -0.8414 -0.9197 -0.1327
28452SOL     OW88248   1.376   1.597   6.685 -0.1327 -0.2089  0.2740
28452SOL    HW188249   1.301   1.625   6.739 -0.5804 -3.0055  1.2696
28452SOL    HW288250   1.341   1.527   6.630  1.0225  0.6751 -1.6934
28453SOL     OW88251   7.276   2.158   7.427  1.0898 -0.1059 -0.3205
28453SOL    HW188252   7.230   2.214   7.364  1.3979  0.4379 -0.0722
28453SOL    HW288253   7.212   2.145   7.498  0.7170 -0.7809 -0.7730
28454SOL     OW88254   6.979   6.189   9.808 -0.0150  0.2414  0.1734
28454SOL    HW188255   6.939   6.215   9.725  1.1587  0.8748 -0.2223
28454SOL    HW288256   6.991   6.271   9.856 -0.5700 -0.1083  0.9176
28455SOL     OW88257   9.647   4.616   7.880  0.2318  0.0501 -0.1900
28455SOL    HW188258   9.648   4.528   7.918 -0.3876 -0.9944 -2.4111
28455SOL    HW288259   9.632   4.675   7.954 -1.3434 -1.8692  1.1123
28456SOL     OW88260   7.573   5.958   6.022 -1.0157 -0.3870 -0.3481
28456SOL    HW188261   7.530   5.875   6.043 -1.0743 -0.2559  0.0616
28456SOL    HW288262   7.604   5.947   5.932  0.0474 -1.3189  0.1051
28457SOL     OW88263   5.119   0.254  10.756  0.2268  0.1666  0.7908
28457SOL    HW188264   5.117   0.232  10.663 -1.2145 -0.5975  0.9712
28457SOL    HW288265   5.206   0.292  10.770 -0.0098  1.5983 -1.1435
28458SOL     OW88266   2.573   9.270   5.969  0.0593  0.3817  0.0031
28458SOL    HW188267   2.516   9.258   5.893 -0.4420 -0.0391  0.4384
28458SOL    HW288268   2.650   9.315   5.935  0.1527 -0.4325 -0.8924
28459SOL     OW88269   0.870   1.311   7.352  0.1140  0.2313  0.4272
28459SOL    HW188270   0.949   1.362   7.373 -0.6682  1.3561  0.7766
28459SOL    HW288271   0.822   1.366   7.290  0.7813 -1.5742 -1.7998
28460SOL     OW88272  10.613   0.163   1.564  0.6394  0.2244 -0.2980
28460SOL    HW188273  10.534   0.134   1.518  0.0728 -0.2284  0.9219
28460SOL    HW288274  10.637   0.245   1.520 -1.0950  0.9019 -0.0590
28461SOL     OW88275   6.000   6.468   9.246  0.0221 -0.4890 -0.0640
28461SOL    HW188276   5.912   6.495   9.219 -0.4471  0.5161  2.2035
28461SOL    HW288277   5.998   6.373   9.242 -0.2323 -0.4464 -2.6309
28462SOL     OW88278   6.568   1.852   0.199 -0.2837  0.3892 -0.1913
28462SOL    HW188279   6.640   1.868   0.260 -0.8185  2.3480 -0.0078
28462SOL    HW288280   6.607   1.860   0.112  0.5102 -2.5407 -0.1909
28463SOL     OW88281  10.225   2.784   2.032 -0.2174 -0.1613  0.2985
28463SOL    HW188282  10.171   2.793   1.954  0.9623  0.7429 -0.4607
28463SOL    HW288283  10.314   2.773   1.998  0.2333 -0.4190  1.5122
28464SOL     OW88284   4.318   2.583   0.916 -0.0135 -0.3115  0.4359
28464SOL    HW188285   4.277   2.659   0.957  0.7968  0.7065 -0.6051
28464SOL    HW288286   4.354   2.534   0.990  0.9123  1.1882  1.0162
28465SOL     OW88287   5.147   3.434  10.515  0.1464  0.4563 -0.5428
28465SOL    HW188288   5.218   3.460  10.455  0.4244 -0.8081 -0.7953
28465SOL    HW288289   5.103   3.362  10.470 -1.0832  0.9860 -0.2192
28466SOL     OW88290   7.921   4.590   3.932  0.6732 -0.0892  0.0624
28466SOL    HW188291   7.879   4.515   3.890 -0.6748  0.5494  0.2517
28466SOL    HW288292   7.957   4.642   3.860 -0.5258  0.3447 -0.2406
28467SOL     OW88293  10.491  10.252   0.308 -0.0949 -0.4969  0.1100
28467SOL    HW188294  10.520  10.236   0.219 -0.7530 -0.7561 -0.0633
28467SOL    HW288295  10.531  10.336   0.332  0.9775 -0.9619 -0.0218
28468SOL     OW88296   9.231   3.152   7.426  0.5382 -0.2716  0.1368
28468SOL    HW188297   9.182   3.087   7.476  1.8738 -0.9763  0.5707
28468SOL    HW288298   9.164   3.201   7.379 -0.4723 -2.9468 -1.4360
28469SOL     OW88299   7.987   9.902   4.997  0.2387  0.3356 -0.5153
28469SOL    HW188300   7.964   9.894   4.904 -1.3398  1.0254 -0.2143
28469SOL    HW288301   7.931   9.973   5.029  0.9171  0.2457  0.9208
28470SOL     OW88302   0.653   4.723  10.102 -0.2592  0.5207  0.0233
28470SOL    HW188303   0.730   4.709  10.158  0.5218  0.8952 -0.9092
28470SOL    HW288304   0.588   4.661  10.134  0.5894 -0.1200  0.5569
28471SOL     OW88305   3.292   4.455   1.240  0.0444 -0.3511  0.3771
28471SOL    HW188306   3.221   4.444   1.303  0.4322 -1.6582  0.6216
28471SOL    HW288307   3.370   4.471   1.294  0.1468 -0.1432  0.1674
28472SOL     OW88308   4.507   8.047   3.241 -0.4171 -0.3744  0.0610
28472SOL    HW188309   4.594   8.086   3.234 -1.9527  3.7626  1.2588
28472SOL    HW288310   4.517   7.979   3.308  2.0220 -0.7151 -0.5492
28473SOL     OW88311   8.720   5.807   9.552 -0.0944 -0.4449 -0.1543
28473SOL    HW188312   8.739   5.898   9.529 -2.8727  0.2678 -0.0555
28473SOL    HW288313   8.676   5.772   9.475 -0.3168 -1.2368  0.3236
28474SOL     OW88314   8.938   0.331   7.793 -0.5861  0.1321 -0.1050
28474SOL    HW188315   9.024   0.338   7.751 -0.2789 -1.9436  0.0555
28474SOL    HW288316   8.925   0.237   7.804 -2.9536  0.3841 -0.2363
28475SOL     OW88317   9.698   8.535  10.103  0.5823 -0.2309 -0.0785
28475SOL    HW188318   9.681   8.440  10.106  0.8501 -0.4401 -2.7777
28475SOL    HW288319   9.665   8.567  10.186 -3.8695 -2.0446 -0.8558
28476SOL     OW88320   8.270   2.789   4.926  0.1538 -0.0859  0.8059
28476SOL    HW188321   8.262   2.696   4.909 -0.3735  0.3662 -1.9035
28476SOL    HW288322   8.244   2.831   4.844  0.0637  2.4674  2.0292
28477SOL     OW88323   5.693   9.834   3.980  0.4000  0.3445 -0.0149
28477SOL    HW188324   5.776   9.790   3.995  0.9635  1.7686  1.2825
28477SOL    HW288325   5.639   9.769   3.935  2.5303 -0.2840 -1.8217
28478SOL     OW88326   3.216   6.931  10.318 -0.2329  0.1283  0.6174
28478SOL    HW188327   3.286   6.991  10.292  0.4826 -1.0409 -0.2386
28478SOL    HW288328   3.239   6.847  10.277 -2.3762 -0.1824 -0.0802
28479SOL     OW88329   0.650   8.174   4.272  0.7406 -0.1038  0.7082
28479SOL    HW188330   0.567   8.127   4.266  0.8118 -0.3216  1.3691
28479SOL    HW288331   0.652   8.230   4.194 -0.0522 -0.0461  0.7258
28480SOL     OW88332   5.104   7.593   8.114 -0.5810 -0.1706  0.4132
28480SOL    HW188333   5.057   7.549   8.185  0.9211  0.8640  2.1375
28480SOL    HW288334   5.196   7.592   8.142 -0.0539  1.0340 -1.1214
28481SOL     OW88335   5.945   1.672   4.775 -0.0277 -0.3224  0.0217
28481SOL    HW188336   5.959   1.579   4.759 -0.1393 -0.3633  0.1545
28481SOL    HW288337   5.891   1.674   4.854 -0.4019 -0.1578 -0.2369
28482SOL     OW88338   3.312   5.967   0.036  0.1748 -0.1486  0.3398
28482SOL    HW188339   3.277   6.049   0.071  0.0033  0.1887 -0.5991
28482SOL    HW288340   3.284   5.901   0.099 -1.6294  0.1993 -0.0157
28483SOL     OW88341  10.780   5.167   1.091 -0.6653  0.0238  0.3785
28483SOL    HW188342  10.716   5.197   1.026  0.0161 -0.3709 -0.5033
28483SOL    HW288343  10.859   5.149   1.040  0.0007  0.0369  1.3764
28484SOL     OW88344  10.190   7.589  10.605 -0.5293  0.3140 -0.5464
28484SOL    HW188345  10.122   7.532  10.570  0.0662  0.1417 -1.4619
28484SOL    HW288346  10.142   7.661  10.645 -1.2621 -0.1151 -0.6276
28485SOL     OW88347   4.678   3.947   3.081  0.3942 -0.3322 -0.1834
28485SOL    HW188348   4.680   3.912   2.992  2.3775 -1.1732  0.1232
28485SOL    HW288349   4.585   3.949   3.105 -0.0174 -2.4751 -1.3778
28486SOL     OW88350  10.596   4.656   3.068 -0.3055  0.6545  0.1673
28486SOL    HW188351  10.691   4.658   3.083 -0.2939  1.2335  0.0180
28486SOL    HW288352  10.562   4.725   3.124 -0.3265  2.5021 -2.0000
28487SOL     OW88353   1.041  10.307   6.045  0.0253 -0.0825  0.1000
28487SOL    HW188354   1.091  10.233   6.012 -1.0118  0.2074 -2.2736
28487SOL    HW288355   0.995  10.272   6.121 -0.7390 -2.0150 -1.1841
28488SOL     OW88356   1.419   3.593  10.685 -0.2583 -0.1739 -0.3623
28488SOL    HW188357   1.468   3.650  10.744  1.7931 -3.2963  1.2166
28488SOL    HW288358   1.330   3.594  10.721 -0.4659  2.2630 -0.7151
28489SOL     OW88359   8.835   1.095   0.217  0.1451 -0.0375 -0.6222
28489SOL    HW188360   8.784   1.073   0.139  0.5164 -0.3317 -0.7819
28489SOL    HW288361   8.807   1.031   0.283  0.5871 -0.4445 -0.8258
28490SOL     OW88362   1.800   0.332   2.089  0.0337 -0.3911 -0.3362
28490SOL    HW188363   1.891   0.307   2.102 -0.0751 -1.1480 -0.9271
28490SOL    HW288364   1.757   0.310   2.171  0.3658 -0.1234 -0.0885
28491SOL     OW88365   2.180   5.399   7.585 -0.0557 -0.0813 -0.1027
28491SOL    HW188366   2.155   5.476   7.535  2.5223  2.1227  1.6897
28491SOL    HW288367   2.276   5.401   7.586  0.0617 -2.2145  1.6732
28492SOL     OW88368   8.369   5.736   5.421  0.1940 -0.1719  0.3051
28492SOL    HW188369   8.343   5.815   5.469  1.0407 -0.7764  1.8291
28492SOL    HW288370   8.463   5.747   5.406  0.0889 -0.3614 -0.5154
28493SOL     OW88371   5.600   9.124  10.208  0.3896  0.1248  0.1198
28493SOL    HW188372   5.552   9.207  10.215 -2.4870 -1.2512 -1.4634
28493SOL    HW288373   5.633   9.124  10.118 -0.5054 -0.8209 -0.2288
28494SOL     OW88374   4.704   8.692  10.192 -0.1249 -0.7255 -0.1411
28494SOL    HW188375   4.623   8.703  10.241  0.6593  0.9428  0.8792
28494SOL    HW288376   4.687   8.733  10.107 -0.4136 -0.5557 -0.0020
28495SOL     OW88377   2.404   9.885   4.745 -0.0775  0.1351  0.0448
28495SOL    HW188378   2.323   9.935   4.740 -0.7028 -0.9320 -1.4063
28495SOL    HW288379   2.381   9.808   4.798  0.0898  0.0093 -0.0652
28496SOL     OW88380   1.389   3.730   7.885 -0.3570 -0.0905  0.3683
28496SOL    HW188381   1.340   3.655   7.851 -2.0761  0.3214  1.8082
28496SOL    HW288382   1.345   3.806   7.847  1.0078  0.2507 -0.6084
28497SOL     OW88383   6.739   4.313   5.726  0.4351 -0.0016 -0.2717
28497SOL    HW188384   6.743   4.218   5.712  0.9075  0.0574 -0.5186
28497SOL    HW288385   6.652   4.327   5.765  0.8097 -0.6714  0.8491
28498SOL     OW88386   0.644   5.328   2.882 -0.1558 -0.3072 -0.1473
28498SOL    HW188387   0.569   5.313   2.825  1.0241  1.1935 -2.2376
28498SOL    HW288388   0.693   5.246   2.880 -0.4862 -0.4970 -0.7471
28499SOL     OW88389   4.552   3.347   1.214 -0.3792 -0.1141  0.4795
28499SOL    HW188390   4.541   3.252   1.200  0.7437 -0.3976  1.4180
28499SOL    HW288391   4.638   3.356   1.253 -0.4220  1.3301  0.3000
28500SOL     OW88392   3.551   8.908   7.498  0.3303 -0.6064 -0.2015
28500SOL    HW188393   3.566   8.902   7.593  1.4530 -0.0952 -0.3290
28500SOL    HW288394   3.466   8.952   7.490 -0.6802 -2.3265  0.5660
28501SOL     OW88395   1.776   6.631   9.914 -0.1115 -0.6796 -0.5791
28501SOL    HW188396   1.758   6.637   9.820  0.2847  1.4154 -0.5686
28501SOL    HW288397   1.871   6.642   9.921 -0.3482  1.3867  0.1533
28502SOL     OW88398   4.513   4.809   9.423  0.2115  0.7221 -0.1809
28502SOL    HW188399   4.499   4.764   9.340  0.0137 -2.3042  1.3616
28502SOL    HW288400   4.436   4.864   9.434  0.1184  0.9773 -1.8326
28503SOL     OW88401   6.410   7.865   6.854 -0.1115  0.5051 -0.0672
28503SOL    HW188402   6.414   7.875   6.949 -0.8446  1.4012 -0.1195
28503SOL    HW288403   6.490   7.908   6.822 -0.1727  0.7602  0.1148
28504SOL     OW88404   5.035   8.644   8.551 -0.0896 -0.1397 -0.2736
28504SOL    HW188405   5.066   8.553   8.559 -1.8072 -0.5916  2.8928
28504SOL    HW288406   4.945   8.642   8.584  0.4640  3.0275  1.8670
28505SOL     OW88407   8.919   8.726   8.328  0.4730  0.1256  0.2268
28505SOL    HW188408   8.887   8.771   8.405  2.9695 -0.5154  1.7488
28505SOL    HW288409   8.906   8.633   8.347  1.9927 -0.0842  0.3621
28506SOL     OW88410   3.232   7.137   1.201  0.1612  0.5522  0.1665
28506SOL    HW188411   3.282   7.139   1.282 -0.1450 -0.4157  0.3932
28506SOL    HW288412   3.298   7.148   1.132  0.7730 -1.0905  0.4403
28507SOL     OW88413   9.393   5.474   8.970  0.0444 -0.0321 -0.0415
28507SOL    HW188414   9.462   5.422   9.012  0.4353  0.7932  0.3531
28507SOL    HW288415   9.325   5.480   9.036  0.2578  0.4643  0.1361
28508SOL     OW88416   1.549   4.060   1.875  0.6642 -1.1092 -0.2717
28508SOL    HW188417   1.525   4.152   1.883  0.9345 -1.0140 -0.5423
28508SOL    HW288418   1.589   4.038   1.959  1.5779 -0.6866 -0.5881
28509SOL     OW88419  10.338   9.240   7.130 -0.5729 -0.3898  0.1960
28509SOL    HW188420  10.334   9.269   7.222  0.3669  2.4598 -0.5549
28509SOL    HW288421  10.416   9.185   7.126  0.3734  0.8291  0.8278
28510SOL     OW88422   0.285   6.233   6.415 -0.2201  0.0196 -0.2365
28510SOL    HW188423   0.303   6.317   6.372  1.4876  0.4959  1.2852
28510SOL    HW288424   0.211   6.252   6.473  0.6349  0.6988  0.6555
28511SOL     OW88425   8.695   7.443   3.873  0.6411  0.6702 -0.8264
28511SOL    HW188426   8.708   7.363   3.924  0.4743  1.0500 -0.1695
28511SOL    HW288427   8.777   7.492   3.884  0.9445  0.3680 -1.6532
28512SOL     OW88428   2.147   8.417   4.235 -0.1132  0.4328  0.3496
28512SOL    HW188429   2.187   8.456   4.313  0.0368  2.2719 -0.6129
28512SOL    HW288430   2.217   8.416   4.170 -0.2644 -1.0102  0.1813
28513SOL     OW88431   7.104  10.627   0.303 -0.4528  0.0692  0.3254
28513SOL    HW188432   7.154  10.558   0.346  0.5952 -0.6180 -1.9045
28513SOL    HW288433   7.034  10.581   0.256 -0.9736  0.7201  0.4385
28514SOL     OW88434   6.679   0.824   1.063  0.0416  0.5102 -1.1092
28514SOL    HW188435   6.743   0.895   1.063  2.7358 -1.7662 -0.4668
28514SOL    HW288436   6.700   0.772   0.985 -1.1752 -0.1927 -0.9964
28515SOL     OW88437   1.418   0.864   8.255 -0.8020 -0.4390  0.1246
28515SOL    HW188438   1.476   0.914   8.198 -0.1923 -1.4130 -0.1462
28515SOL    HW288439   1.428   0.903   8.342  0.8975 -1.0682  0.2546
28516SOL     OW88440   9.543   6.118   6.453  0.1076 -0.3724  0.1021
28516SOL    HW188441   9.474   6.126   6.519 -1.3109 -1.2157 -1.2005
28516SOL    HW288442   9.594   6.042   6.480 -1.4227 -1.6882 -0.5398
28517SOL     OW88443   6.990   6.147   1.052 -0.4622 -0.3083 -0.4493
28517SOL    HW188444   6.901   6.142   1.088  0.0365  1.0955  1.1133
28517SOL    HW288445   7.043   6.097   1.114  0.0401 -0.0520 -0.6712
28518SOL     OW88446   0.696   6.427   7.829 -0.3466 -0.5097 -0.3153
28518SOL    HW188447   0.697   6.489   7.756 -2.8322 -0.8325 -0.7276
28518SOL    HW288448   0.653   6.475   7.900 -2.0299 -1.6048 -0.5446
28519SOL     OW88449   0.284   6.435   4.721  0.0765  0.0973  0.6646
28519SOL    HW188450   0.275   6.422   4.815  1.7722 -0.6202  0.7545
28519SOL    HW288451   0.378   6.430   4.705 -0.2538 -0.8687 -1.2179
28520SOL     OW88452  10.397   5.800   1.561 -0.0168  0.0465 -0.0514
28520SOL    HW188453  10.381   5.711   1.529 -1.2223 -1.2181  3.6025
28520SOL    HW288454  10.490   5.802   1.583  0.3584  0.2705 -1.5253
28521SOL     OW88455   7.801   4.880   9.084  0.1886 -0.4837  0.1332
28521SOL    HW188456   7.734   4.921   9.139 -0.5634 -1.6673  0.1515
28521SOL    HW288457   7.752   4.816   9.032  0.7458  1.0027 -2.4118
28522SOL     OW88458   6.334   6.431   1.255  0.1956 -0.0702  0.1138
28522SOL    HW188459   6.264   6.367   1.264  1.3834 -1.4207  0.0421
28522SOL    HW288460   6.349   6.438   1.161 -0.4333  0.9140  0.0680
28523SOL     OW88461  10.743  10.790   3.115 -0.0363  0.3647 -0.6257
28523SOL    HW188462  10.660  10.769   3.157  0.4044  0.3847  0.2797
28523SOL    HW288463  10.781  10.859   3.170  0.4279  0.5911 -1.2147
28524SOL     OW88464  10.576   0.038   6.067 -0.4560  0.4964 -0.0556
28524SOL    HW188465  10.646  -0.024   6.046 -0.0473  0.4262  1.4259
28524SOL    HW288466  10.529   0.050   5.984  1.5530  0.8815 -1.1892
28525SOL     OW88467   6.041   6.727   9.833 -0.1314  0.7254  0.5340
28525SOL    HW188468   5.971   6.761   9.889  0.5137  0.2302  1.6882
28525SOL    HW288469   5.998   6.661   9.778 -1.3058  2.9373 -1.4071
28526SOL     OW88470   2.247   2.740   4.271 -0.5474  0.2746 -0.8571
28526SOL    HW188471   2.266   2.688   4.193 -3.4622 -0.4643 -1.2036
28526SOL    HW288472   2.209   2.678   4.333 -3.0803  1.6656 -0.8521
28527SOL     OW88473   9.897  10.549   8.515  0.0074 -0.2529  0.2800
28527SOL    HW188474   9.806  10.525   8.500 -0.0633  0.0848  0.1584
28527SOL    HW288475   9.914  10.619   8.452  0.0083  0.4984  1.0942
28528SOL     OW88476   7.081   1.064   3.268 -0.3781  0.6356  0.7856
28528SOL    HW188477   7.165   1.104   3.243 -0.6177 -0.0620 -1.3796
28528SOL    HW288478   7.076   1.075   3.363  2.4039  0.2416  1.0597
28529SOL     OW88479   8.396   5.672   7.852 -0.0861 -0.0124 -0.0228
28529SOL    HW188480   8.445   5.706   7.927  0.9444 -1.3373 -0.0589
28529SOL    HW288481   8.304   5.684   7.876  0.2305  0.9157  0.8068
28530SOL     OW88482   0.343   6.935   7.180  0.0122  0.3437  0.2360
28530SOL    HW188483   0.365   6.904   7.093  0.2062 -2.8983  1.3024
28530SOL    HW288484   0.257   6.898   7.198 -0.4929  1.8206  1.0998
28531SOL     OW88485   3.542  10.668   6.741  0.1722  0.1449 -0.3132
28531SOL    HW188486   3.451  10.639   6.749  0.4449 -1.4998 -2.3948
28531SOL    HW288487   3.551  10.736   6.808 -2.4325  0.0223  0.2766
28532SOL     OW88488   3.837   3.552   9.860  0.2983 -0.0272  0.5448
28532SOL    HW188489   3.835   3.499   9.780 -0.9925  1.1370 -0.2369
28532SOL    HW288490   3.906   3.616   9.845  1.3749 -1.0044  1.1957
28533SOL     OW88491  10.726   7.779   4.949 -0.1333 -0.1539  0.0770
28533SOL    HW188492  10.651   7.818   4.903  0.3663 -0.9623 -1.5016
28533SOL    HW288493  10.757   7.848   5.007 -1.7106  0.4109  0.3008
28534SOL     OW88494   2.028   2.868   0.846 -0.0788  0.1521 -0.1614
28534SOL    HW188495   1.939   2.869   0.812 -0.8587 -3.0500  1.4168
28534SOL    HW288496   2.075   2.807   0.789 -0.3944 -2.2691  2.0036
28535SOL     OW88497   9.850   7.329   1.080 -0.0587 -0.1614 -0.2481
28535SOL    HW188498   9.903   7.304   1.004 -1.3381 -0.1430 -1.1831
28535SOL    HW288499   9.772   7.370   1.042  0.1311  1.5719  1.1475
28536SOL     OW88500   3.522   0.515   8.836  0.3280  0.2565  0.1147
28536SOL    HW188501   3.502   0.598   8.877  0.6028  1.0824 -1.3550
28536SOL    HW288502   3.476   0.518   8.752  2.2707 -0.0239 -1.0116
28537SOL     OW88503   0.882   7.549   3.219  0.2941 -0.3273  0.0961
28537SOL    HW188504   0.813   7.490   3.189 -0.0172 -0.4265  0.9847
28537SOL    HW288505   0.848   7.588   3.299  0.8334  0.4479 -0.0436
28538SOL     OW88506   3.468   5.101   9.478  0.3455 -0.9204  0.8173
28538SOL    HW188507   3.548   5.142   9.446 -0.1801 -0.7554 -0.3330
28538SOL    HW288508   3.480   5.008   9.462  0.9641 -1.0858  2.1471
28539SOL     OW88509   3.844   0.411   6.920  0.3091  0.0845  0.6696
28539SOL    HW188510   3.873   0.323   6.896 -0.3102 -0.0836  0.5413
28539SOL    HW288511   3.925   0.456   6.944  0.4768 -1.0600  2.5133
28540SOL     OW88512   7.158   3.067   1.247  0.4444  0.1460 -0.5193
28540SOL    HW188513   7.074   3.105   1.221  1.5200  0.7448 -3.5834
28540SOL    HW288514   7.143   3.032   1.334 -3.4297 -1.0960 -1.4980
28541SOL     OW88515   3.584   2.449   7.199  0.2755 -0.0136  0.1485
28541SOL    HW188516   3.567   2.390   7.125  1.3110  0.3821 -0.4265
28541SOL    HW288517   3.545   2.532   7.172 -1.4801 -0.4684  1.0983
28542SOL     OW88518   0.180   8.663   2.701 -0.1023  0.5376  0.3307
28542SOL    HW188519   0.131   8.711   2.634  1.7709  1.7062 -0.2656
28542SOL    HW288520   0.193   8.726   2.772 -0.8551 -0.2739  1.2313
28543SOL     OW88521   2.019   5.424   6.304  0.2221 -0.2541  0.0968
28543SOL    HW188522   2.084   5.458   6.243  0.7272 -0.0516  0.7408
28543SOL    HW288523   2.011   5.331   6.281  1.9763 -0.6854  1.0795
28544SOL     OW88524   2.513   4.011   7.497  0.2580  0.3595  0.9101
28544SOL    HW188525   2.453   4.077   7.462  0.2007 -0.6552 -1.1031
28544SOL    HW288526   2.460   3.959   7.557 -0.4792  0.4367  0.3385
28545SOL     OW88527   9.770   5.045   6.479  0.7119  0.2570  0.4656
28545SOL    HW188528   9.688   5.088   6.504  0.3563  0.7484 -1.4168
28545SOL    HW288529   9.833   5.073   6.545 -0.4763  0.3950  1.5729
28546SOL     OW88530   9.986   6.804   6.050  0.8227  0.5128  0.1583
28546SOL    HW188531  10.038   6.864   6.103 -0.5047  1.4671  0.4294
28546SOL    HW288532   9.925   6.860   6.003 -0.0972 -0.5784  0.0067
28547SOL     OW88533   5.509   9.161   8.473 -0.6031  0.0434 -0.3164
28547SOL    HW188534   5.526   9.236   8.531 -1.3848 -0.1151  0.1368
28547SOL    HW288535   5.529   9.085   8.527  1.7705 -0.0847 -1.2845
28548SOL     OW88536   8.469   5.732   1.704 -0.6022  0.8767  0.0273
28548SOL    HW188537   8.546   5.764   1.657  1.5541 -2.4227  0.9741
28548SOL    HW288538   8.416   5.690   1.636  1.0150 -1.2220 -0.0448
28549SOL     OW88539   3.158   9.702   3.115 -0.4971 -0.4125 -1.0548
28549SOL    HW188540   3.115   9.617   3.122  1.2620 -1.2064  1.2252
28549SOL    HW288541   3.249   9.681   3.096  0.0344  0.9433 -0.1286
28550SOL     OW88542   3.479  10.154   8.512  0.0075  0.9891 -0.2523
28550SOL    HW188543   3.416  10.142   8.583  0.8302 -2.3157  0.0995
28550SOL    HW288544   3.555  10.194   8.555 -0.1488  0.6710  0.3261
28551SOL     OW88545   9.022   4.587   2.401 -0.5640 -0.1232  0.4308
28551SOL    HW188546   9.026   4.541   2.317 -0.2410  1.4452 -0.4541
28551SOL    HW288547   8.941   4.638   2.396  0.5044  1.6157  0.1504
28552SOL     OW88548   7.039  10.555   4.616  0.5846  0.6491  0.0679
28552SOL    HW188549   7.100  10.573   4.544  0.0031 -1.1163 -0.9324
28552SOL    HW288550   7.032  10.639   4.663  1.5603  1.6569 -1.4749
28553SOL     OW88551   7.616   8.959   8.319 -0.2547 -0.4246  0.7376
28553SOL    HW188552   7.640   9.052   8.325  1.2020 -0.7894  1.0573
28553SOL    HW288553   7.545   8.948   8.382 -0.5503  0.4979  0.5848
28554SOL     OW88554   1.830   1.163   3.312  0.3444 -0.0117  0.3514
28554SOL    HW188555   1.875   1.166   3.227  0.3735  1.9831  0.3838
28554SOL    HW288556   1.807   1.071   3.324  3.8427 -1.0668  0.0618
28555SOL     OW88557   7.066   0.188  10.029 -0.1123 -0.1927  0.1258
28555SOL    HW188558   7.006   0.130   9.980  1.2466 -0.2529 -1.5755
28555SOL    HW288559   7.145   0.135  10.041  0.5307  0.7395  0.0467
28556SOL     OW88560   4.094   3.619   0.544  0.0950  0.1062 -0.5248
28556SOL    HW188561   4.153   3.674   0.595  0.9873  0.3082 -1.7118
28556SOL    HW288562   4.039   3.575   0.609 -0.1006  1.7706  0.4952
28557SOL     OW88563   9.988   3.238   9.983  0.1704 -0.0167  0.4505
28557SOL    HW188564   9.948   3.158   9.948 -0.6350  0.5576  0.0331
28557SOL    HW288565   9.918   3.281  10.031 -0.7170  2.5102 -2.7572
28558SOL     OW88566   5.593   7.992   0.330  0.3478 -0.0493 -1.0491
28558SOL    HW188567   5.510   8.000   0.377  1.0785  0.8946  0.1543
28558SOL    HW288568   5.602   7.899   0.313  0.1144 -0.4818  0.9009
28559SOL     OW88569   2.791   8.734   9.958 -0.6994 -0.4372  0.6174
28559SOL    HW188570   2.855   8.706   9.893  1.4103  3.0265  0.9256
28559SOL    HW288571   2.806   8.677  10.033 -0.0586 -1.5698 -0.3398
28560SOL     OW88572   5.274   1.133   2.608  0.5372  0.0927 -0.2702
28560SOL    HW188573   5.212   1.061   2.598  2.1749 -1.7444  1.9078
28560SOL    HW288574   5.218   1.209   2.627 -1.1335 -1.4627  1.5276
28561SOL     OW88575   2.652   3.404   3.042  0.5098 -0.0233  0.2844
28561SOL    HW188576   2.673   3.350   2.965 -0.5134 -0.8520  0.5637
28561SOL    HW288577   2.622   3.341   3.108  1.2628  0.6907  1.3365
28562SOL     OW88578   3.468   5.403   0.235 -0.2672 -0.0700  0.0144
28562SOL    HW188579   3.548   5.354   0.254 -0.3384 -0.0846  0.2911
28562SOL    HW288580   3.423   5.351   0.169 -0.0780 -0.0958 -0.0941
28563SOL     OW88581   8.710   5.065   7.478  0.2131  0.8489 -0.0416
28563SOL    HW188582   8.760   5.122   7.419  0.8964  0.4490  0.1355
28563SOL    HW288583   8.774   5.035   7.542 -0.1601 -0.0252 -0.0627
28564SOL     OW88584   6.491   0.947   9.804 -0.0142 -0.3931 -0.0309
28564SOL    HW188585   6.426   0.878   9.794 -0.6570  0.0034  1.2582
28564SOL    HW288586   6.478   0.980   9.893  0.7472  0.9085 -0.3770
28565SOL     OW88587  10.540   6.677   4.321  0.0246  0.4013 -0.3438
28565SOL    HW188588  10.515   6.690   4.413  1.7189  1.0874  0.0644
28565SOL    HW288589  10.614   6.617   4.325 -0.9098 -0.8734 -1.4278
28566SOL     OW88590   0.510   0.058   8.968  0.3279 -0.0959 -0.0721
28566SOL    HW188591   0.569   0.053   9.043  0.3903 -0.9931 -0.1762
28566SOL    HW288592   0.425   0.082   9.006  0.1899 -1.2455  0.3909
28567SOL     OW88593   9.748   4.283   0.896 -0.0736  0.2299  0.0356
28567SOL    HW188594   9.830   4.248   0.862  0.5075  1.3894  0.1993
28567SOL    HW288595   9.727   4.226   0.970  1.5091  0.9103  1.0821
28568SOL     OW88596   0.402   2.231  10.511 -0.2210  0.3078  0.4945
28568SOL    HW188597   0.352   2.169  10.563 -2.1883 -0.0212 -1.6560
28568SOL    HW288598   0.337   2.289  10.472  1.2385  1.1958 -0.7706
28569SOL     OW88599   4.342   9.381   8.418 -0.3253  0.0217 -0.3853
28569SOL    HW188600   4.313   9.415   8.503  0.4953 -0.6110  0.1595
28569SOL    HW288601   4.262   9.352   8.376 -0.6485 -0.4786  0.5408
28570SOL     OW88602   1.812   4.556   0.405 -0.6173 -0.0527  0.4107
28570SOL    HW188603   1.773   4.576   0.320 -0.7186  1.2979  0.7564
28570SOL    HW288604   1.859   4.474   0.391 -0.5302  0.2150 -0.9761
28571SOL     OW88605   8.861   4.850   9.424 -0.0588  0.2096 -0.0357
28571SOL    HW188606   8.950   4.842   9.458 -0.2046  0.3248  0.3723
28571SOL    HW288607   8.810   4.787   9.476 -0.0368 -0.5601 -0.9135
28572SOL     OW88608   1.198   1.244   6.714  0.1917 -0.0245 -0.2082
28572SOL    HW188609   1.287   1.270   6.690  0.1316  0.5485  0.1819
28572SOL    HW288610   1.142   1.315   6.681 -0.1145 -0.3298 -0.3581
28573SOL     OW88611   3.946   3.440  10.418 -0.1044 -0.1825  0.4449
28573SOL    HW188612   3.954   3.426  10.513 -0.2836  2.1559  0.8597
28573SOL    HW288613   3.885   3.373  10.389  1.2943 -2.0983  1.6375
28574SOL     OW88614  10.438   9.561   9.519 -0.8950  0.1239 -0.4325
28574SOL    HW188615  10.472   9.534   9.434 -0.9314  3.0055 -1.4715
28574SOL    HW288616  10.507   9.616   9.556 -1.0862 -0.6864  1.2256
28575SOL     OW88617   6.834   9.140   8.031 -0.2280 -0.1650  0.4784
28575SOL    HW188618   6.803   9.103   7.948 -1.9497 -0.3871  1.1950
28575SOL    HW288619   6.822   9.234   8.021 -0.0980 -0.1599  0.3582
28576SOL     OW88620   1.476   0.737   6.679 -0.4402  0.1155  0.0988
28576SOL    HW188621   1.448   0.821   6.643 -0.3063  0.7025  1.3257
28576SOL    HW288622   1.519   0.759   6.762 -1.4093 -1.2504  1.0074
28577SOL     OW88623   5.031   0.136   1.771  0.2134 -0.0978 -0.3774
28577SOL    HW188624   5.119   0.135   1.807 -0.4322 -0.5353  1.2846
28577SOL    HW288625   5.016   0.227   1.746  0.2685  0.5200  1.6591
28578SOL     OW88626   9.616   6.317   6.809 -0.0573 -0.1948 -0.0088
28578SOL    HW188627   9.525   6.307   6.839 -0.1877 -0.8634 -0.5854
28578SOL    HW288628   9.611   6.378   6.736 -0.3052 -1.4835 -1.1153
28579SOL     OW88629   4.964   1.675   5.642 -0.1222  0.1300 -0.4513
28579SOL    HW188630   4.934   1.638   5.725 -1.6391 -1.7184 -1.7211
28579SOL    HW288631   4.929   1.764   5.640 -0.2008  0.1334  0.7972
28580SOL     OW88632   6.259   4.309   2.251  0.1024  0.1325  0.2080
28580SOL    HW188633   6.195   4.364   2.294 -2.7048 -1.9218 -1.0554
28580SOL    HW288634   6.253   4.225   2.296  0.7913 -0.5456 -0.9084
28581SOL     OW88635   5.098   3.040   9.734  0.0453  0.4537  0.2051
28581SOL    HW188636   5.158   3.003   9.799 -2.2896  0.1431  2.3026
28581SOL    HW288637   5.053   2.964   9.697 -1.3100  0.8370  1.0028
28582SOL     OW88638   7.844   5.138   3.764  0.1568  0.1586 -0.0499
28582SOL    HW188639   7.802   5.220   3.789  0.0397 -0.0577  0.4685
28582SOL    HW288640   7.821   5.077   3.833 -1.0409 -0.7413 -1.1938
28583SOL     OW88641   7.927   0.262   7.315 -0.0164  0.6172  0.2720
28583SOL    HW188642   7.864   0.238   7.248  0.0032 -0.2269  0.5436
28583SOL    HW288643   7.901   0.350   7.341  0.3967  1.2374 -1.3154
28584SOL     OW88644   6.236   6.503   8.099 -0.3689  0.3985 -0.6918
28584SOL    HW188645   6.266   6.437   8.161  2.1778  0.4254 -1.7673
28584SOL    HW288646   6.227   6.456   8.016  1.1724  1.2592 -1.3991
28585SOL     OW88647   6.358   5.406   3.881 -0.2075 -0.3500  0.0864
28585SOL    HW188648   6.421   5.388   3.811  0.1752  1.4766 -0.0850
28585SOL    HW288649   6.273   5.401   3.837  0.0490  1.2464 -0.6738
28586SOL     OW88650   8.969   5.269   9.370  0.2237  0.2319  0.1477
28586SOL    HW188651   8.982   5.361   9.348  2.4100 -0.3559 -1.3055
28586SOL    HW288652   8.965   5.225   9.286 -0.0286 -1.1054  0.8401
28587SOL     OW88653   7.523   2.515   6.314 -0.6191 -0.2293 -0.1675
28587SOL    HW188654   7.583   2.510   6.240 -0.6962 -0.2842 -0.2272
28587SOL    HW288655   7.511   2.609   6.329  0.9678 -0.1960  1.0705
28588SOL     OW88656   6.190  10.308   2.039  0.8113 -0.7380  0.2983
28588SOL    HW188657   6.234  10.224   2.036  0.4292 -0.9300 -0.0325
28588SOL    HW288658   6.099  10.289   2.018  0.1875 -0.5933  2.5742
28589SOL     OW88659   7.210   4.662   8.632  0.2791  0.5998 -0.2562
28589SOL    HW188660   7.208   4.748   8.674  2.6654  0.9982 -0.7664
28589SOL    HW288661   7.226   4.601   8.703 -1.8674  0.4773  0.1693
28590SOL     OW88662   1.670   4.128   4.255  0.0902 -0.1089  0.3291
28590SOL    HW188663   1.765   4.129   4.266  0.1385 -1.6024  0.2342
28590SOL    HW288664   1.645   4.220   4.253  1.2357  0.3695  3.0002
28591SOL     OW88665   3.011   4.550   4.806 -0.3198  0.7284 -0.2673
28591SOL    HW188666   3.041   4.577   4.719 -1.7541  1.2607 -0.6251
28591SOL    HW288667   2.951   4.477   4.788  0.0518  0.2680  0.3516
28592SOL     OW88668   5.383   1.143   5.962  0.0311 -0.2605 -0.6075
28592SOL    HW188669   5.452   1.085   5.929 -0.2458 -0.5070 -0.7633
28592SOL    HW288670   5.370   1.116   6.053  0.2374 -0.1197 -0.5359
28593SOL     OW88671   5.465   8.135   1.936  0.1341  0.1949 -0.3210
28593SOL    HW188672   5.488   8.042   1.944  0.4565  0.2568 -0.5141
28593SOL    HW288673   5.378   8.135   1.897 -0.5620 -0.0654  1.1533
28594SOL     OW88674   6.051   9.248   2.786  0.0926 -0.2014 -0.6790
28594SOL    HW188675   6.010   9.314   2.731 -0.1954 -0.0591 -0.2946
28594SOL    HW288676   6.102   9.195   2.725  0.2029  0.2792 -1.0109
28595SOL     OW88677   6.722   9.879   9.098 -0.1374  0.6620  0.0580
28595SOL    HW188678   6.795   9.941   9.090 -1.1288  1.6883 -1.4689
28595SOL    HW288679   6.737   9.815   9.028  0.8727 -0.9213  1.6134
28596SOL     OW88680   1.609  10.602   1.247 -0.0977  0.3427 -0.2732
28596SOL    HW188681   1.585  10.649   1.167 -0.2169  0.9759  0.1305
28596SOL    HW288682   1.529  10.603   1.301  0.3148  0.9268  0.3398
28597SOL     OW88683   5.931   8.016   7.952  0.4852 -0.0140 -0.4768
28597SOL    HW188684   5.969   7.928   7.948 -0.6556 -0.6268  0.9749
28597SOL    HW288685   5.967   8.053   8.033 -0.3957  0.1626 -0.1582
28598SOL     OW88686   9.311   8.240   8.875  0.2969  0.3818 -0.2601
28598SOL    HW188687   9.244   8.207   8.934  0.2331  1.1788  0.1355
28598SOL    HW288688   9.333   8.326   8.911  0.4249  0.7792 -1.2737
28599SOL     OW88689   2.414   9.463   0.683 -0.2463  0.1749  0.4857
28599SOL    HW188690   2.451   9.478   0.770  0.6788 -0.4768  0.2104
28599SOL    HW288691   2.487   9.431   0.630 -1.0963 -0.7259 -0.1784
28600SOL     OW88692   8.293   5.624   8.512 -0.3093  0.1493  0.1544
28600SOL    HW188693   8.328   5.675   8.439  1.0821 -2.8671 -1.4868
28600SOL    HW288694   8.346   5.651   8.587  0.4768  1.0128 -0.6740
28601SOL     OW88695   3.289   7.582   1.807 -0.1710 -0.0471  0.1914
28601SOL    HW188696   3.239   7.551   1.732 -0.1288  0.6226 -0.1291
28601SOL    HW288697   3.232   7.646   1.849  0.9908  2.0160 -1.1665
28602SOL     OW88698   3.044   9.519   5.791 -0.3523 -0.3682 -0.6066
28602SOL    HW188699   2.994   9.600   5.781 -0.5426 -0.1693  1.5160
28602SOL    HW288700   2.979   9.454   5.815 -0.3588 -1.4706 -3.2946
28603SOL     OW88701   1.422   7.152   8.670  0.1217 -0.1798 -0.7992
28603SOL    HW188702   1.459   7.223   8.618  0.5021 -0.3554 -0.7669
28603SOL    HW288703   1.480   7.078   8.656  0.5259 -0.0904  0.2862
28604SOL     OW88704   7.611   4.066   1.444 -0.0161  0.6800  0.1457
28604SOL    HW188705   7.642   4.090   1.531  2.4581 -1.4651 -0.0332
28604SOL    HW288706   7.682   4.090   1.385  0.7038 -2.6316 -0.5529
28605SOL     OW88707   9.863   0.361   7.333  0.2906  0.3561  0.4699
28605SOL    HW188708   9.947   0.330   7.299  0.2030 -0.0073  0.5907
28605SOL    HW288709   9.883   0.395   7.420 -0.2179 -2.6697  1.8848
28606SOL     OW88710   1.481   4.527   1.861 -0.0163 -0.0286  0.2722
28606SOL    HW188711   1.505   4.619   1.870 -0.6373  0.4884 -2.5134
28606SOL    HW288712   1.463   4.516   1.768 -1.9034 -2.5018  0.8320
28607SOL     OW88713   2.850   5.999   8.101 -0.1998 -0.0326 -0.4000
28607SOL    HW188714   2.830   5.906   8.091  0.4813 -0.1494 -0.7918
28607SOL    HW288715   2.885   6.007   8.190 -1.1022  0.0128 -0.0464
28608SOL     OW88716   9.190   9.965   6.090 -0.4683 -0.0654 -0.1678
28608SOL    HW188717   9.216   9.891   6.035 -0.7005 -1.2790  1.2722
28608SOL    HW288718   9.251   9.963   6.164 -0.2118  1.4689 -0.2979
28609SOL     OW88719   2.277   7.399   0.735 -0.0426  0.0368  0.0310
28609SOL    HW188720   2.200   7.453   0.753 -0.2308 -0.2398  0.0569
28609SOL    HW288721   2.327   7.448   0.670  1.0997  1.5164  1.9147
28610SOL     OW88722   5.669  10.171   8.805 -0.3020 -0.6949 -0.3978
28610SOL    HW188723   5.680  10.099   8.743 -0.6623 -0.2206 -1.0214
28610SOL    HW288724   5.583  10.157   8.845 -0.0147 -1.0720  0.0928
28611SOL     OW88725  10.085   3.905  10.717  0.6214 -0.2191  0.5821
28611SOL    HW188726  10.027   3.944  10.652  0.2146 -0.2006  0.9512
28611SOL    HW288727  10.026   3.856  10.775  0.8927  0.3449  1.3544
28612SOL     OW88728   6.158   3.949   1.985  0.4487  0.2832  0.2167
28612SOL    HW188729   6.239   3.991   1.957  0.6218  0.1806  0.5518
28612SOL    HW288730   6.131   3.896   1.910  0.1630  1.0724 -0.2534
28613SOL     OW88731   9.980   5.660   6.179 -0.3044 -0.6498 -0.0462
28613SOL    HW188732   9.886   5.669   6.163 -0.4176 -0.6211  0.6112
28613SOL    HW288733  10.020   5.730   6.127 -0.6393 -0.7347 -0.4187
28614SOL     OW88734   5.834   3.280   7.420 -0.5556 -0.6608  0.2152
28614SOL    HW188735   5.807   3.269   7.511  2.0405  1.3822  1.3608
28614SOL    HW288736   5.831   3.375   7.406  0.4295 -0.8293 -1.3834
28615SOL     OW88737   7.026   8.892   0.612  0.0682 -0.6463 -0.0584
28615SOL    HW188738   7.000   8.916   0.523  0.9090  1.8380  0.2703
28615SOL    HW288739   7.114   8.929   0.622 -0.1645 -0.5125  1.9144
28616SOL     OW88740   5.113   5.793   1.155 -0.2656 -0.2576  0.3451
28616SOL    HW188741   5.110   5.888   1.149  0.3315 -0.1702  1.2906
28616SOL    HW288742   5.087   5.763   1.067 -1.8191  0.7301  0.4284
28617SOL     OW88743   9.922   5.601   1.121  0.1468  0.7290  0.1209
28617SOL    HW188744   9.843   5.560   1.158  0.4883  0.1160  0.1797
28617SOL    HW288745   9.936   5.679   1.175 -0.7402  1.1677 -0.2441
28618SOL     OW88746   8.215   1.520   4.878 -0.3658 -0.6975  0.2004
28618SOL    HW188747   8.290   1.489   4.930  0.5723  0.8440 -0.1658
28618SOL    HW288748   8.245   1.515   4.787 -0.5119  0.4319  0.0840
28619SOL     OW88749  10.129   0.161   4.428  0.0028 -0.9712 -0.3565
28619SOL    HW188750  10.113   0.255   4.419 -2.3332 -1.1190  1.4489
28619SOL    HW288751  10.155   0.133   4.341  2.7060  1.6316 -0.5688
28620SOL     OW88752   9.086   9.185   1.893  0.5762 -0.6611 -0.6421
28620SOL    HW188753   9.039   9.215   1.971  1.6805 -0.0102 -0.2029
28620SOL    HW288754   9.145   9.117   1.925  1.4989  0.0625 -0.7764
28621SOL     OW88755   6.221   4.487   0.027  0.3168 -0.4091 -0.4237
28621SOL    HW188756   6.141   4.513   0.072 -0.4292 -0.4538 -1.6529
28621SOL    HW288757   6.190   4.432  -0.046  1.6009 -1.8575  0.0750
28622SOL     OW88758  10.363   1.458   7.156 -0.2888 -0.3022  0.1625
28622SOL    HW188759  10.323   1.392   7.100  0.5676 -0.1389 -0.6716
28622SOL    HW288760  10.292   1.487   7.213 -0.5565 -2.2848  0.8962
28623SOL     OW88761   1.841   4.459   1.660 -0.2604 -0.1150  0.0653
28623SOL    HW188762   1.878   4.544   1.684 -0.5904 -0.3869  1.5902
28623SOL    HW288763   1.782   4.437   1.731 -1.2555 -0.9891 -0.9930
28624SOL     OW88764   5.657   6.273   1.656 -0.3661 -0.0243 -0.2434
28624SOL    HW188765   5.728   6.335   1.636 -1.2182  2.0954  2.6839
28624SOL    HW288766   5.583   6.329   1.681 -1.6578 -2.2223  1.1134
28625SOL     OW88767   2.021   7.997   3.228 -0.3534 -0.0222 -0.2411
28625SOL    HW188768   1.996   8.035   3.144  0.3700  0.4768 -0.2461
28625SOL    HW288769   2.114   8.020   3.238 -0.4094 -0.1357  0.6568
28626SOL     OW88770  10.664   1.163   2.604 -0.8038 -0.4823  0.0558
28626SOL    HW188771  10.684   1.249   2.639 -1.0410  0.1616 -1.3390
28626SOL    HW288772  10.720   1.153   2.527 -1.9229 -0.8770 -0.7498
28627SOL     OW88773   1.724   9.986   5.292 -0.2985 -0.3985 -0.8711
28627SOL    HW188774   1.697   9.949   5.376  0.9485 -2.9706 -1.5126
28627SOL    HW288775   1.753  10.075   5.314 -1.8603 -0.2809  1.0398
28628SOL     OW88776   5.965   7.075   7.735  0.2447 -0.3867  0.3767
28628SOL    HW188777   6.046   7.031   7.761  0.6750 -1.3010 -2.2620
28628SOL    HW288778   5.993   7.143   7.675 -0.7217  1.5147  1.9520
28629SOL     OW88779   0.814   2.996   1.094  0.1200  0.4322 -0.1501
28629SOL    HW188780   0.764   2.920   1.123 -0.4992  1.3091  1.2192
28629SOL    HW288781   0.850   2.971   1.009 -3.1062 -0.1060 -1.5208
28630SOL     OW88782   4.656   6.765   9.931  0.1828 -0.3020 -0.9708
28630SOL    HW188783   4.639   6.832   9.998 -1.1031 -0.9422 -0.6306
28630SOL    HW288784   4.751   6.755   9.931  0.2329  0.0106  0.4677
28631SOL     OW88785   9.898   2.486   2.877 -0.3002 -0.3201 -0.2596
28631SOL    HW188786   9.911   2.399   2.916  1.1776 -0.5459 -1.1530
28631SOL    HW288787   9.810   2.482   2.839  0.0326 -1.7404 -0.9825
28632SOL     OW88788   4.557   0.414   8.678  0.2253  0.2796  0.0870
28632SOL    HW188789   4.525   0.331   8.714 -1.6072  1.7263  2.0100
28632SOL    HW288790   4.602   0.456   8.751  1.2170  0.9769 -0.8959
28633SOL     OW88791   2.209   2.359   4.638  0.0507 -0.3452  0.1308
28633SOL    HW188792   2.145   2.386   4.703 -2.3643 -1.3309 -1.6759
28633SOL    HW288793   2.260   2.290   4.680 -2.1134 -1.6677  0.6797
28634SOL     OW88794   8.800   5.625   8.575 -0.2920 -0.0901 -0.1115
28634SOL    HW188795   8.818   5.715   8.604 -0.2617  0.6947 -2.4094
28634SOL    HW288796   8.851   5.571   8.635  2.7471  1.6114 -0.9429
28635SOL     OW88797   4.368   3.393   1.758  0.1645  0.0723  0.2315
28635SOL    HW188798   4.414   3.416   1.677 -2.5171  0.4863 -1.2884
28635SOL    HW288799   4.321   3.312   1.737 -0.0707 -0.1852  1.6248
28636SOL     OW88800   4.984   3.749   8.829 -0.9570  0.0440 -0.3029
28636SOL    HW188801   4.918   3.681   8.817 -1.1686 -0.1650  1.7048
28636SOL    HW288802   5.048   3.710   8.888 -0.9085  1.4550  0.6128
28637SOL     OW88803   0.370   1.853   2.379  0.2883 -0.4382 -0.4125
28637SOL    HW188804   0.339   1.893   2.460 -0.7835 -0.3005 -0.8768
28637SOL    HW288805   0.449   1.903   2.357 -0.3231  0.6145 -0.3125
28638SOL     OW88806   5.844   4.044   0.734  0.4673 -0.0120  0.9583
28638SOL    HW188807   5.775   4.083   0.680  0.7733  2.4842  2.1928
28638SOL    HW288808   5.797   4.011   0.811  0.5303  0.9260  1.4108
28639SOL     OW88809   7.550   2.135   8.509 -0.2945 -0.6987  0.4976
28639SOL    HW188810   7.597   2.081   8.571 -0.9018  0.5598  2.1217
28639SOL    HW288811   7.618   2.191   8.470  0.0231 -1.1840  0.3449
28640SOL     OW88812  10.071   6.963   5.168  0.1363  0.0347  0.3136
28640SOL    HW188813  10.026   6.881   5.149 -1.1651  0.8600 -0.3126
28640SOL    HW288814  10.064   6.974   5.263  0.4845 -0.6631  0.4218
28641SOL     OW88815   9.776   4.887   5.806  0.8079 -0.1223 -0.0474
28641SOL    HW188816   9.797   4.940   5.883  0.4143 -0.8887  0.5947
28641SOL    HW288817   9.840   4.817   5.806  0.5467 -0.3643 -0.1822
28642SOL     OW88818  10.500   9.826   7.339 -0.1832 -0.4647 -0.1035
28642SOL    HW188819  10.450   9.860   7.413  0.9300  4.3980 -1.2303
28642SOL    HW288820  10.434   9.807   7.272 -0.8745  1.2816  0.0348
28643SOL     OW88821   1.484   5.101   5.599  0.4863 -0.0238 -0.0339
28643SOL    HW188822   1.463   5.181   5.647 -0.7301  0.4672 -1.2991
28643SOL    HW288823   1.579   5.099   5.595  0.5549  0.9175  0.7387
28644SOL     OW88824   2.668   6.941   6.726 -0.1667  0.7012 -0.0253
28644SOL    HW188825   2.723   6.930   6.803  0.3677  0.8767 -0.3795
28644SOL    HW288826   2.578   6.939   6.760  0.0035 -0.9400  0.3910
28645SOL     OW88827   8.671   6.972   6.076 -0.1845 -0.6921  0.3865
28645SOL    HW188828   8.670   7.006   6.166 -0.4934  0.4771 -0.0352
28645SOL    HW288829   8.650   7.048   6.022  2.5416 -0.7335 -0.9071
28646SOL     OW88830   0.693   8.149   5.404  0.4133  0.0326  1.0360
28646SOL    HW188831   0.630   8.081   5.431 -0.8149  0.6431 -0.1459
28646SOL    HW288832   0.758   8.101   5.353  0.8092 -0.5827  2.0970
28647SOL     OW88833   8.588   6.131   3.664  0.0280 -0.2106  0.3049
28647SOL    HW188834   8.592   6.187   3.741 -0.3868  0.5060 -0.1871
28647SOL    HW288835   8.573   6.191   3.590  0.2341 -0.8972 -0.3139
28648SOL     OW88836   7.321   8.403   7.335 -0.2541  0.3185 -0.2080
28648SOL    HW188837   7.302   8.310   7.349 -0.1793  0.2791 -0.3663
28648SOL    HW288838   7.344   8.436   7.421 -0.9846  0.3516 -0.0119
28649SOL     OW88839   1.103   8.945   9.735 -0.4538  0.2883  0.3084
28649SOL    HW188840   1.164   8.961   9.807 -0.7244  0.5357  0.4838
28649SOL    HW288841   1.025   8.995   9.758 -1.7091 -1.9865  1.3724
28650SOL     OW88842   2.574   6.495   7.468 -0.0231  0.3453 -0.0405
28650SOL    HW188843   2.500   6.553   7.449 -1.9463 -0.4638  4.0372
28650SOL    HW288844   2.554   6.415   7.420 -0.4454  0.9753 -0.9519
28651SOL     OW88845   6.690   0.567   8.308 -0.3981  0.2063 -0.4416
28651SOL    HW188846   6.617   0.618   8.342  0.4979  1.4427 -0.2924
28651SOL    HW288847   6.735   0.534   8.385 -0.1106  0.4681 -0.4940
28652SOL     OW88848   0.276   3.327  10.601 -0.0704 -0.0848  0.2833
28652SOL    HW188849   0.334   3.313  10.526 -0.9421 -1.3386 -0.1778
28652SOL    HW288850   0.191   3.346  10.562 -0.0521  1.5598  0.9559
28653SOL     OW88851   2.552   5.754   2.196  0.5049 -0.2455  1.0772
28653SOL    HW188852   2.584   5.664   2.191 -0.4345 -0.5591 -2.9374
28653SOL    HW288853   2.629   5.808   2.182  0.7416 -0.5469  1.2066
28654SOL     OW88854   2.302   1.216   1.694  0.3382 -0.1899  0.5386
28654SOL    HW188855   2.374   1.216   1.756 -1.1946 -3.1871  2.5931
28654SOL    HW288856   2.229   1.255   1.742 -0.1615  0.1381 -0.4567
28655SOL     OW88857   6.352   7.563   6.472 -0.0843  0.6392  0.1769
28655SOL    HW188858   6.399   7.613   6.405  0.2690 -0.2567 -0.2509
28655SOL    HW288859   6.340   7.476   6.434  0.1534  0.1042  1.2891
28656SOL     OW88860   4.924   0.479   7.397 -0.3680  0.0518  0.3750
28656SOL    HW188861   4.910   0.561   7.443  0.9103 -0.2823  1.4126
28656SOL    HW288862   4.849   0.425   7.422 -1.6276  1.1124 -0.9256
28657SOL     OW88863   1.577   2.450   8.814 -0.0110 -0.1468  0.5323
28657SOL    HW188864   1.548   2.359   8.808  1.0462 -0.4725  0.0881
28657SOL    HW288865   1.508   2.500   8.770 -0.2317 -0.8227  0.0947
28658SOL     OW88866   5.485   5.625   9.406  0.4339  0.1877  0.4316
28658SOL    HW188867   5.551   5.687   9.374 -0.7365  1.3361  0.1555
28658SOL    HW288868   5.430   5.677   9.465 -1.2647 -0.2575 -0.6949
28659SOL     OW88869   9.794   9.456   7.914  0.0497  0.0651  0.0611
28659SOL    HW188870   9.761   9.538   7.876  1.0882 -0.0240 -1.1015
28659SOL    HW288871   9.730   9.434   7.981 -0.2897  1.8002  0.3665
28660SOL     OW88872   2.242   8.097   7.002  0.7002  0.2975  0.1917
28660SOL    HW188873   2.238   8.001   6.999 -0.7895  0.2197  2.1414
28660SOL    HW288874   2.223   8.118   7.094  0.2634  2.4858 -0.3535
28661SOL     OW88875   5.243   8.436   1.458 -0.0895  0.0864 -0.2496
28661SOL    HW188876   5.222   8.394   1.541 -1.1600 -0.5659 -0.8241
28661SOL    HW288877   5.282   8.520   1.483 -0.2067 -0.1840  0.9010
28662SOL     OW88878   7.128   3.867   3.729  0.3322 -0.3374 -0.0659
28662SOL    HW188879   7.190   3.858   3.802  0.0038  0.7304  0.3669
28662SOL    HW288880   7.119   3.778   3.694  2.8929 -0.3988 -0.7978
28663SOL     OW88881  10.560   5.423   6.168  0.0629  0.0400 -0.3095
28663SOL    HW188882  10.597   5.336   6.187 -0.1649 -0.0638 -0.3361
28663SOL    HW288883  10.614   5.484   6.218  0.0898 -0.1381 -0.1216
28664SOL     OW88884   2.494   9.729   3.100 -0.4966 -0.0370 -0.1931
28664SOL    HW188885   2.554   9.668   3.145 -1.0210 -1.4656 -1.3500
28664SOL    HW288886   2.528   9.734   3.011 -1.2294  0.3617 -0.4536
28665SOL     OW88887   7.617   1.186   0.216 -0.4271 -0.6606  0.4590
28665SOL    HW188888   7.525   1.178   0.241 -0.8181 -2.4745 -1.3103
28665SOL    HW288889   7.646   1.096   0.204  1.1496 -0.0504 -0.4975
28666SOL     OW88890   6.065   1.600   9.388 -0.3209 -0.4572  0.1370
28666SOL    HW188891   6.079   1.695   9.380  0.6290 -0.4543  1.4283
28666SOL    HW288892   6.130   1.572   9.452 -2.2586 -1.5594  1.7371
28667SOL     OW88893   1.657   6.407   8.757 -0.4211  0.5096 -0.1363
28667SOL    HW188894   1.671   6.313   8.748 -0.8868  0.4256 -0.0121
28667SOL    HW288895   1.605   6.431   8.680  0.1705  0.7742 -0.4680
28668SOL     OW88896   0.761   4.111   2.848 -0.0625  0.0083 -0.0575
28668SOL    HW188897   0.743   4.030   2.894  1.9487 -0.4943 -0.0751
28668SOL    HW288898   0.779   4.084   2.758  1.1955  0.3717  0.0632
28669SOL     OW88899   5.025   9.835   0.428  0.0964 -0.4590  0.8290
28669SOL    HW188900   5.076   9.846   0.508  1.1814 -0.3537  0.1467
28669SOL    HW288901   5.037   9.743   0.404 -1.1421 -0.7749  1.3800
28670SOL     OW88902   3.550   4.059   4.417  0.3652 -0.1714  0.2056
28670SOL    HW188903   3.601   4.075   4.338  0.0279 -0.7733 -0.1420
28670SOL    HW288904   3.593   3.984   4.458 -1.7203 -2.4377 -1.4565
28671SOL     OW88905   8.506   0.528   8.325  0.1593 -0.2027  0.1810
28671SOL    HW188906   8.469   0.546   8.411 -0.3929 -0.2041 -0.0535
28671SOL    HW288907   8.601   0.532   8.338  0.0750  0.0891  0.7243
28672SOL     OW88908   2.580   3.094   1.214  0.3473  0.0019 -0.4698
28672SOL    HW188909   2.553   3.009   1.246 -0.2717  0.7205  1.0074
28672SOL    HW288910   2.675   3.095   1.224  0.2204  0.0213  0.9805
28673SOL     OW88911   5.941   4.268   8.117  0.0940 -0.0103 -0.4407
28673SOL    HW188912   5.926   4.362   8.111  0.4439  0.1574  0.9789
28673SOL    HW288913   6.025   4.255   8.073 -0.0327  0.3048 -0.7873
28674SOL     OW88914  10.363   6.928   9.064 -0.5725  0.5667  0.8454
28674SOL    HW188915  10.412   7.005   9.035  0.1585 -0.1525  0.1193
28674SOL    HW288916  10.382   6.921   9.157 -0.1525  0.9131  0.7893
28675SOL     OW88917   7.129   8.411   8.081 -0.6211  0.1746 -0.3229
28675SOL    HW188918   7.140   8.469   8.006  0.2383  1.0890  0.4907
28675SOL    HW288919   7.034   8.396   8.086 -0.7558  0.6980 -1.1446
28676SOL     OW88920   5.082   2.223   8.641 -0.3229 -0.5263 -0.2784
28676SOL    HW188921   5.152   2.162   8.667  0.1166  1.3016  3.4451
28676SOL    HW288922   5.128   2.294   8.597  0.0092 -0.0976  0.7280
28677SOL     OW88923  10.186   9.628   8.349 -0.0729  0.1415  0.6300
28677SOL    HW188924  10.237   9.708   8.360 -0.6508  0.5275  0.5390
28677SOL    HW288925  10.176   9.594   8.438  0.7652 -0.2142  0.6029
28678SOL     OW88926   7.093   0.294   8.969  0.4643  0.3574  0.2251
28678SOL    HW188927   7.108   0.270   9.060 -1.1036  0.8215  0.6348
28678SOL    HW288928   7.027   0.232   8.938 -0.9007  1.7587  0.2020
28679SOL     OW88929   2.189   1.371   1.505 -0.3302  0.3567 -0.3822
28679SOL    HW188930   2.257   1.433   1.479  0.4062  0.3004  1.2669
28679SOL    HW288931   2.233   1.311   1.565 -1.6170 -0.2881 -0.0435
28680SOL     OW88932   6.767   1.588  10.443 -0.2423  0.0440 -0.4203
28680SOL    HW188933   6.793   1.672  10.480  1.2389 -0.6905  0.2974
28680SOL    HW288934   6.848   1.549  10.411 -0.7984 -1.3532 -0.2298
28681SOL     OW88935   6.538   7.090   1.391 -0.0550 -0.0927  0.0402
28681SOL    HW188936   6.518   7.025   1.460  1.2172  0.5024  1.0116
28681SOL    HW288937   6.602   7.149   1.432  1.8340 -0.5343 -2.1036
28682SOL     OW88938   4.662   1.352   8.931  0.2597  1.3863  0.2755
28682SOL    HW188939   4.660   1.277   8.873 -3.5218  0.8332  0.8360
28682SOL    HW288940   4.754   1.378   8.935  1.1678 -0.8274 -2.9038
28683SOL     OW88941   5.710   2.272   0.004  0.1913  0.1454  0.3153
28683SOL    HW188942   5.679   2.243   0.090 -0.7424  2.0147  0.6429
28683SOL    HW288943   5.671   2.209  -0.057  0.6103 -1.0213  1.1931
28684SOL     OW88944   4.015   7.426   8.909 -0.4122  0.4171 -0.0477
28684SOL    HW188945   3.935   7.409   8.861 -0.7747  0.1881  0.6264
28684SOL    HW288946   4.075   7.357   8.883 -1.1342 -0.6372  1.0072
28685SOL     OW88947   4.498   0.492   5.119 -0.3554  0.2768 -0.0934
28685SOL    HW188948   4.503   0.503   5.024  0.1942  0.3793 -0.0598
28685SOL    HW288949   4.446   0.413   5.132  1.2540 -0.9230 -0.5559
28686SOL     OW88950   4.275   4.876   0.604  0.2750 -0.3808  0.4339
28686SOL    HW188951   4.225   4.948   0.643  0.4180  0.1436 -0.3330
28686SOL    HW288952   4.294   4.905   0.515 -1.5667 -2.2472 -0.6697
28687SOL     OW88953   9.109   3.671   9.581  0.2170 -0.1221 -0.0380
28687SOL    HW188954   9.052   3.621   9.524 -0.5643 -0.0433  0.6568
28687SOL    HW288955   9.052   3.701   9.652  1.0451  0.2553  0.4847
28688SOL     OW88956   5.201   0.918   8.966 -0.0333 -0.4371  0.2298
28688SOL    HW188957   5.222   0.852   8.901 -1.6562  1.9847 -3.0845
28688SOL    HW288958   5.239   0.999   8.931 -0.7861  0.9688  2.4367
28689SOL     OW88959   9.039   4.479   5.770  0.1835 -0.1682 -0.3422
28689SOL    HW188960   9.069   4.401   5.723 -0.9887 -0.7980 -0.0740
28689SOL    HW288961   8.969   4.515   5.715 -0.3425 -0.2006  0.2924
28690SOL     OW88962   0.057   1.894   9.399 -0.0910 -0.5390 -0.5168
28690SOL    HW188963   0.099   1.976   9.372  0.4419 -0.4103  0.6629
28690SOL    HW288964   0.022   1.913   9.486 -1.6434 -0.9910 -1.0119
28691SOL     OW88965   9.631   8.755   5.291  0.1310  0.1350  0.6680
28691SOL    HW188966   9.537   8.766   5.300 -0.2360 -1.4591 -0.6605
28691SOL    HW288967   9.653   8.681   5.347  0.1425 -1.0465 -0.8381
28692SOL     OW88968  10.138   8.897   5.841 -0.0017  0.2070 -0.1467
28692SOL    HW188969  10.214   8.952   5.857 -1.5055  1.8228  2.0156
28692SOL    HW288970  10.067   8.958   5.823 -1.7640 -0.9283  2.4139
28693SOL     OW88971   1.797   8.512   1.482 -0.5330 -0.1263  0.3446
28693SOL    HW188972   1.714   8.559   1.493 -0.2899  0.0357  1.6067
28693SOL    HW288973   1.771   8.422   1.462 -1.0416 -0.2934  1.6612
28694SOL     OW88974   1.514   1.244   9.524  0.2154  0.0547 -0.1503
28694SOL    HW188975   1.565   1.317   9.488  0.7998  0.5905  1.6656
28694SOL    HW288976   1.577   1.173   9.535  0.0887 -0.0365 -0.0018
28695SOL     OW88977   3.692   5.219   9.423 -0.0603  0.6047  0.6878
28695SOL    HW188978   3.763   5.242   9.484  0.4834  2.7216 -0.6595
28695SOL    HW288979   3.737   5.188   9.344 -0.6672  0.7710  0.2687
28696SOL     OW88980   4.799   7.588   7.659 -0.1999 -0.3498 -0.2776
28696SOL    HW188981   4.817   7.615   7.569  0.3796  2.5323  0.6178
28696SOL    HW288982   4.869   7.527   7.681 -0.1061 -0.7515 -1.5995
28697SOL     OW88983   5.892   7.948   2.691  0.3638  0.1572 -0.3296
28697SOL    HW188984   5.799   7.929   2.702  0.7437 -1.2630  0.5582
28697SOL    HW288985   5.936   7.904   2.763  1.9107 -0.6209 -1.6618
28698SOL     OW88986   7.774   6.599   7.734 -0.3361  0.2029  0.3987
28698SOL    HW188987   7.816   6.681   7.757  0.9135 -0.1467 -0.5446
28698SOL    HW288988   7.830   6.560   7.667 -0.9455 -1.3754  0.7379
28699SOL     OW88989   2.025   0.867   1.404  0.0224  0.8086 -0.4715
28699SOL    HW188990   2.066   0.879   1.490  0.0224 -0.4038 -0.2857
28699SOL    HW288991   1.954   0.930   1.403  0.1700  1.0039  0.3314
28700SOL     OW88992   8.012   3.674   0.473  0.1169 -0.3467 -0.6567
28700SOL    HW188993   7.926   3.693   0.436  0.1110 -2.2725 -1.7306
28700SOL    HW288994   8.070   3.738   0.432 -0.8763  1.6387  0.8188
28701SOL     OW88995   1.854   5.891   0.409 -0.5600  0.2797 -0.6031
28701SOL    HW188996   1.765   5.921   0.426 -0.4609 -0.1327  0.7547
28701SOL    HW288997   1.860   5.807   0.455  0.1592 -0.2845 -1.6816
28702SOL     OW88998   8.294   1.646   7.303  0.0264 -0.1109 -0.3976
28702SOL    HW188999   8.343   1.698   7.367  0.5463 -1.5112  0.3797
28702SOL    HW289000   8.336   1.665   7.219  0.0286  0.9050 -0.1844
28703SOL     OW89001   4.611   0.203   9.079 -0.1133 -0.3814 -0.3622
28703SOL    HW189002   4.622   0.121   9.127 -2.5688 -0.0885  0.8239
28703SOL    HW289003   4.700   0.235   9.067  0.7283 -1.5757  2.0667
28704SOL     OW89004   4.084   6.861   9.317 -0.2057 -0.4273  0.2458
28704SOL    HW189005   4.003   6.894   9.358  1.5015  1.3980  2.4406
28704SOL    HW289006   4.077   6.766   9.323 -2.2260 -0.3298  0.2334
28705SOL     OW89007  10.356   7.704   8.386 -0.2492  0.5700  0.2556
28705SOL    HW189008  10.412   7.723   8.311 -0.6230  3.2306  0.5845
28705SOL    HW289009  10.410   7.649   8.443  0.6196 -0.1052 -1.1675
28706SOL     OW89010   8.612   8.892   5.406 -1.1114  0.6769 -0.6688
28706SOL    HW189011   8.702   8.869   5.383 -1.0116  0.9950 -0.6148
28706SOL    HW289012   8.580   8.818   5.457 -0.4015  1.1514  0.5159
28707SOL     OW89013   9.373   0.913   6.172  0.0178 -0.3096  0.1741
28707SOL    HW189014   9.342   0.940   6.086 -0.6254 -0.4488  0.3575
28707SOL    HW289015   9.463   0.885   6.157 -0.0838 -0.3144 -0.4517
28708SOL     OW89016   5.285   2.860   1.355 -0.1323 -0.3358 -0.1287
28708SOL    HW189017   5.202   2.830   1.317  0.4547  0.1338 -1.8608
28708SOL    HW289018   5.352   2.827   1.295  1.0648 -1.7045  1.8518
28709SOL     OW89019   5.131   6.267   5.917  0.0124 -0.3801 -0.2100
28709SOL    HW189020   5.044   6.227   5.924 -0.1729  0.0182 -0.1627
28709SOL    HW289021   5.151   6.296   6.006 -0.7116  1.3523 -0.5552
28710SOL     OW89022   9.724  10.749   7.673  0.3964  0.3837 -0.1987
28710SOL    HW189023   9.738  10.828   7.726  0.9747  0.6890 -0.7933
28710SOL    HW289024   9.668  10.777   7.601  1.5271  0.5387 -1.0436
28711SOL     OW89025   3.072   5.537   0.045 -0.6886 -0.0821 -0.1116
28711SOL    HW189026   2.993   5.539  -0.009 -1.8193 -0.1463  1.4551
28711SOL    HW289027   3.053   5.471   0.112  0.7129 -0.1009  0.2925
28712SOL     OW89028   2.901  10.161   7.149  0.3046 -0.2302 -0.1831
28712SOL    HW189029   2.830  10.099   7.165  0.4497 -0.6076 -0.9124
28712SOL    HW289030   2.933  10.185   7.235 -1.0910  0.4073  0.1979
28713SOL     OW89031   2.085   2.099   6.987  0.2217  1.0682 -0.0211
28713SOL    HW189032   2.165   2.097   7.040  0.7602  1.9148 -0.7617
28713SOL    HW289033   2.030   2.165   7.030  0.1452  0.8684  0.1873
28714SOL     OW89034   1.144   3.537   3.389 -0.1919 -0.8950  0.2628
28714SOL    HW189035   1.083   3.473   3.351 -0.0229 -2.7238  2.8241
28714SOL    HW289036   1.117   3.545   3.480  1.0650  1.2362  0.5186
28715SOL     OW89037   0.251   1.028   3.275 -0.1969  0.1931  0.1971
28715SOL    HW189038   0.159   1.005   3.272  0.0276 -1.0631  1.8381
28715SOL    HW289039   0.298   0.945   3.267  0.8768  0.8888 -1.6768
28716SOL     OW89040   0.507   5.493  10.747  0.0670 -0.3375  0.2310
28716SOL    HW189041   0.446   5.421  10.760  0.3517 -0.7213 -0.5121
28716SOL    HW289042   0.533   5.486  10.655  1.5477 -0.4326  0.6357
28717SOL     OW89043   0.907   1.264   2.894 -0.1728 -0.2809  0.3055
28717SOL    HW189044   0.903   1.319   2.972  0.7590 -0.3248  0.3892
28717SOL    HW289045   0.997   1.272   2.863 -0.2648 -1.0714 -0.1887
28718SOL     OW89046   4.629   3.432   4.691  0.1214 -0.4366 -0.5760
28718SOL    HW189047   4.714   3.418   4.733  0.5701 -0.5335 -1.4998
28718SOL    HW289048   4.566   3.420   4.762  0.9299  1.1803  0.4806
28719SOL     OW89049   2.798   9.292   9.672 -0.3638  0.1640  0.4119
28719SOL    HW189050   2.833   9.248   9.594 -2.2914 -0.2262 -0.2887
28719SOL    HW289051   2.716   9.331   9.642 -0.4508  1.1991  1.9265
28720SOL     OW89052   3.713   7.012   5.817  0.3077  0.3705  0.3842
28720SOL    HW189053   3.650   6.999   5.888 -0.2875  0.5634 -0.1090
28720SOL    HW289054   3.698   6.939   5.757  0.5968  0.3806  0.2973
28721SOL     OW89055   0.995   4.055   1.390 -0.4391  0.5419 -0.0489
28721SOL    HW189056   1.035   4.103   1.317 -0.4966  0.5746 -0.0586
28721SOL    HW289057   0.910   4.027   1.358 -0.0164 -0.4018 -0.3790
28722SOL     OW89058   4.504   6.493   5.756 -0.4572 -0.3014  0.1565
28722SOL    HW189059   4.551   6.525   5.833  0.8674  1.1319 -1.1554
28722SOL    HW289060   4.552   6.414   5.730  0.2696  0.2515 -0.2345
28723SOL     OW89061   5.880   0.293   5.192  0.1218  0.2834  0.2806
28723SOL    HW189062   5.813   0.331   5.249 -1.3369 -1.5555 -0.1155
28723SOL    HW289063   5.899   0.207   5.231 -1.6364 -1.4663 -2.4140
28724SOL     OW89064   3.190   6.566   6.216 -0.4065 -0.0702  0.2038
28724SOL    HW189065   3.140   6.484   6.208 -0.7132  0.1458 -0.1637
28724SOL    HW289066   3.278   6.544   6.186 -0.3958 -0.3511  0.4413
28725SOL     OW89067   4.537   3.185   5.860  0.5278  0.3783  0.6676
28725SOL    HW189068   4.601   3.217   5.924 -0.5559 -0.7523  2.3924
28725SOL    HW289069   4.465   3.152   5.912 -1.7941  2.1365 -1.2133
28726SOL     OW89070   5.448   4.326   2.868 -0.5436  0.1022  0.5583
28726SOL    HW189071   5.543   4.318   2.877 -0.4408  0.9862  0.3575
28726SOL    HW289072   5.436   4.359   2.779 -0.9903  0.8053  0.8777
28727SOL     OW89073   2.855   7.718   1.820 -0.2577 -0.5140 -0.1945
28727SOL    HW189074   2.804   7.758   1.890 -1.3988 -0.6115 -0.9589
28727SOL    HW289075   2.835   7.624   1.827 -1.2237 -0.4076 -1.3072
28728SOL     OW89076  10.076   7.861   5.235 -0.3369  0.1913 -0.0333
28728SOL    HW189077  10.080   7.957   5.236 -0.1800  0.2228 -1.3486
28728SOL    HW289078   9.995   7.841   5.189  1.6283 -0.2133 -3.7377
28729SOL     OW89079   7.911   5.920   3.651  0.1910  0.1360 -0.1137
28729SOL    HW189080   7.831   5.921   3.705  0.6094  0.9480  0.5134
28729SOL    HW289081   7.890   5.861   3.579 -1.0801  0.5407 -0.1057
28730SOL     OW89082   0.969   0.565   1.677  0.8372 -0.2711 -0.1488
28730SOL    HW189083   0.896   0.589   1.619  0.3617  0.8676  0.8851
28730SOL    HW289084   1.047   0.577   1.623  0.5572  2.7112 -0.0195
28731SOL     OW89085   2.862   9.696   5.037 -0.4986 -0.5318 -0.4613
28731SOL    HW189086   2.833   9.714   4.948  0.4148 -0.5007 -0.7605
28731SOL    HW289087   2.796   9.737   5.093 -0.6657  0.1097 -1.1210
28732SOL     OW89088   4.205   2.852   5.608 -0.1258 -0.1445 -0.2350
28732SOL    HW189089   4.150   2.879   5.681 -0.2532  0.7612 -0.6466
28732SOL    HW289090   4.233   2.934   5.568  1.3059 -0.5876 -0.2044
28733SOL     OW89091   8.290   8.564   8.783  0.3952  0.5821  0.2989
28733SOL    HW189092   8.287   8.500   8.854  1.0780  1.7935  1.4407
28733SOL    HW289093   8.314   8.646   8.825 -1.1560  1.7707 -1.0214
28734SOL     OW89094   5.480   8.426   4.898  0.0534 -0.4343 -0.2175
28734SOL    HW189095   5.518   8.463   4.978  0.1383 -1.2887  0.1482
28734SOL    HW289096   5.430   8.498   4.860  0.6020  0.1897  0.2263
28735SOL     OW89097   3.788   9.030   0.387 -0.2385 -0.4389 -0.7743
28735SOL    HW189098   3.759   9.116   0.355  0.3279 -0.3342 -1.0233
28735SOL    HW289099   3.796   8.977   0.308 -0.2723 -0.6255 -0.6529
28736SOL     OW89100   7.080   5.000   7.989  0.5252  0.5657  0.0702
28736SOL    HW189101   7.083   4.992   8.084 -0.2562 -0.1330  0.0441
28736SOL    HW289102   7.097   5.093   7.972 -3.1649  1.6183  1.1345
28737SOL     OW89103   4.364   2.217   5.455 -0.2570 -0.0329 -0.5716
28737SOL    HW189104   4.280   2.239   5.415 -1.1437  0.9322  1.6683
28737SOL    HW289105   4.370   2.122   5.446  0.1106  0.1858 -3.7857
28738SOL     OW89106   9.157   9.640   9.123  0.3427 -0.3715  0.5886
28738SOL    HW189107   9.205   9.712   9.163 -0.9297  0.8127  0.0752
28738SOL    HW289108   9.067   9.650   9.154 -0.2896 -0.4943 -1.0783
28739SOL     OW89109   4.222   4.340   0.275  0.2572  0.2009 -0.7416
28739SOL    HW189110   4.154   4.392   0.317  0.0739 -0.8442  0.3333
28739SOL    HW289111   4.180   4.302   0.198 -0.1591  0.1693 -0.4999
28740SOL     OW89112   6.540   1.374  10.477  0.2795 -0.5028  0.6182
28740SOL    HW189113   6.606   1.433  10.440  0.3989 -1.4181 -0.6964
28740SOL    HW289114   6.588   1.292  10.494 -0.6424 -1.4925 -1.2083
28741SOL     OW89115   5.234   0.624   9.107  0.1743 -0.7040  0.4854
28741SOL    HW189116   5.158   0.581   9.147 -2.4209  0.9091 -2.2959
28741SOL    HW289117   5.247   0.704   9.158 -0.9096 -0.3187  0.1760
28742SOL     OW89118   6.874   1.833   2.740 -0.0218  0.4791 -0.1783
28742SOL    HW189119   6.835   1.821   2.827 -0.3107  0.1151 -0.3588
28742SOL    HW289120   6.859   1.926   2.720  2.0338  1.1838  1.1183
28743SOL     OW89121   9.066  10.786   5.025 -0.0872  0.7351  0.0755
28743SOL    HW189122   8.982  10.820   5.056 -0.8822 -1.9352  1.1562
28743SOL    HW289123   9.104  10.741   5.101  1.7782  0.8746 -0.7133
28744SOL     OW89124   1.425   5.156   7.302  0.2523 -0.0290  0.3995
28744SOL    HW189125   1.361   5.105   7.351 -0.1487  0.2560  0.1703
28744SOL    HW289126   1.381   5.179   7.220  1.0217 -0.7558 -0.2355
28745SOL     OW89127   3.777   6.365   1.719 -0.0187 -0.5504 -0.0511
28745SOL    HW189128   3.729   6.324   1.647 -0.8324  0.2080  0.0351
28745SOL    HW289129   3.726   6.343   1.797 -0.5365  0.6571 -0.0112
28746SOL     OW89130   5.821   0.398   2.068 -0.0989  0.2905 -0.0700
28746SOL    HW189131   5.843   0.409   2.161  2.1320  1.8220 -0.7022
28746SOL    HW289132   5.851   0.309   2.048 -1.4973 -0.4319  0.8533
28747SOL     OW89133   8.058   4.863   1.032  0.3646  0.0413 -0.5449
28747SOL    HW189134   8.043   4.774   1.065  2.3469 -0.5987 -1.2594
28747SOL    HW289135   8.045   4.919   1.109  0.3988 -0.9915  0.2382
28748SOL     OW89136   2.238   9.398   5.820 -0.3285  0.4578 -0.3472
28748SOL    HW189137   2.248   9.464   5.888 -1.7460  0.4621 -0.1068
28748SOL    HW289138   2.213   9.319   5.866 -0.2254  0.1774 -0.7646
28749SOL     OW89139   2.263   2.168  10.290  0.1407  0.0587  0.1291
28749SOL    HW189140   2.266   2.083  10.247 -0.6000 -0.2765  0.7109
28749SOL    HW289141   2.236   2.229  10.221  1.0562 -0.0951 -0.3863
28750SOL     OW89142   4.419   6.239   8.679 -0.3833  0.2040 -0.3031
28750SOL    HW189143   4.510   6.267   8.680 -0.3724  0.1745  0.3718
28750SOL    HW289144   4.424   6.143   8.678 -0.2537 -0.1142  4.4653
28751SOL     OW89145   2.409   6.284   1.241 -0.1070  0.2388  0.2903
28751SOL    HW189146   2.356   6.361   1.263 -0.1781  0.1970  0.2673
28751SOL    HW289147   2.383   6.263   1.151 -0.4132 -0.0782  0.4490
28752SOL     OW89148   0.808   1.340   6.512  0.2061  0.3521 -0.3452
28752SOL    HW189149   0.822   1.253   6.550 -2.9171  0.2850  0.9504
28752SOL    HW289150   0.791   1.323   6.419  1.9914 -0.1228 -0.6141
28753SOL     OW89151   7.870   5.326   9.839 -0.1141  0.4477 -0.0669
28753SOL    HW189152   7.927   5.387   9.885  0.7382 -0.4386  0.1068
28753SOL    HW289153   7.930   5.259   9.804 -1.0203 -0.3765 -0.0985
28754SOL     OW89154   9.434   3.697   0.092  0.0774 -0.3205 -0.1050
28754SOL    HW189155   9.395   3.785   0.083  0.8548  0.0387 -0.0011
28754SOL    HW289156   9.525   3.713   0.115  0.2533 -1.1634 -0.1833
28755SOL     OW89157   7.361   9.009   4.170  0.1368  0.4274 -0.3262
28755SOL    HW189158   7.435   8.980   4.115  1.7447  0.0472  1.8991
28755SOL    HW289159   7.403   9.048   4.247 -2.0199  2.1420  0.0707
28756SOL     OW89160   1.091   0.820   6.265 -0.3116  0.2280  0.0431
28756SOL    HW189161   1.004   0.819   6.304 -0.8836  3.1463 -0.8621
28756SOL    HW289162   1.130   0.901   6.297  0.0326  1.6260 -3.4786
28757SOL     OW89163   5.583   7.552  10.295  0.0816  0.8481 -0.3690
28757SOL    HW189164   5.625   7.592  10.219 -1.4971  0.8165 -1.3143
28757SOL    HW289165   5.489   7.562  10.278 -0.3327  1.6286  2.0198
28758SOL     OW89166   4.046   2.281   9.787  0.0417 -0.2369 -0.4575
28758SOL    HW189167   4.055   2.247   9.698  0.7551  1.0328 -0.9039
28758SOL    HW289168   3.952   2.286   9.802 -0.1187 -2.7143 -0.2047
28759SOL     OW89169   7.517   0.760   1.230 -0.2953 -0.3578 -0.4938
28759SOL    HW189170   7.463   0.706   1.289  1.4339 -1.7780 -0.1270
28759SOL    HW289171   7.546   0.698   1.163 -0.4495  0.7668 -1.6212
28760SOL     OW89172   6.063   0.446   8.309  0.6326 -0.2170 -0.1196
28760SOL    HW189173   6.097   0.524   8.267 -0.1411  0.3961  0.3696
28760SOL    HW289174   6.027   0.394   8.237  2.0316 -0.6049 -0.5700
28761SOL     OW89175  10.707   7.887   2.604  0.2787 -0.5236 -0.5658
28761SOL    HW189176  10.705   7.796   2.575  2.1851 -0.2587 -1.7182
28761SOL    HW289177  10.678   7.884   2.696  0.5640 -2.3151 -0.4997
28762SOL     OW89178   4.453   9.676   4.587 -0.0076  0.2103 -0.4289
28762SOL    HW189179   4.416   9.646   4.504 -0.0503  1.3763 -0.8584
28762SOL    HW289180   4.526   9.617   4.604 -0.2232 -0.2654 -1.1041
28763SOL     OW89181   8.922   4.684   5.019 -0.2532  0.2316  0.0230
28763SOL    HW189182   8.874   4.703   5.100  0.0606 -0.3936  0.3680
28763SOL    HW289183   8.981   4.612   5.043 -0.8248 -0.6142 -1.0112
28764SOL     OW89184   5.882   9.462   4.346  0.6281  0.5327  0.3022
28764SOL    HW189185   5.934   9.389   4.381  1.0466  0.8013  0.2526
28764SOL    HW289186   5.793   9.445   4.376  0.5755 -0.4144 -0.3665
28765SOL     OW89187   0.333   3.485   3.716  0.1331 -0.0804  0.5328
28765SOL    HW189188   0.277   3.410   3.735  0.9136 -0.8832 -0.2146
28765SOL    HW289189   0.404   3.449   3.663  1.8110  0.7210  2.0988
28766SOL     OW89190   2.784   0.267   9.435 -0.5795  0.7355  0.1356
28766SOL    HW189191   2.771   0.172   9.431 -1.1499  0.8039  0.3561
28766SOL    HW289192   2.752   0.292   9.521  0.0368  1.0618  0.2781
28767SOL     OW89193  10.701   0.496   5.486 -0.1047  0.1456  0.1182
28767SOL    HW189194  10.738   0.415   5.449 -0.4314 -0.2157  0.5762
28767SOL    HW289195  10.754   0.566   5.448  0.6172 -0.3261  0.2373
28768SOL     OW89196   8.794   3.536   1.270  0.0207 -0.0718  0.1862
28768SOL    HW189197   8.736   3.565   1.339 -1.1605 -0.7553 -0.4819
28768SOL    HW289198   8.735   3.507   1.199  1.1760  0.1736 -0.9169
28769SOL     OW89199  10.640   2.306   5.685 -0.9577 -0.1516  0.1144
28769SOL    HW189200  10.550   2.274   5.680 -1.2579  0.7779 -0.9171
28769SOL    HW289201  10.634   2.389   5.733 -0.5610 -0.3562  0.5288
28770SOL     OW89202   0.374   8.731   5.484 -0.3672  0.1404 -0.2825
28770SOL    HW189203   0.453   8.694   5.444 -0.0329  0.7547 -0.2122
28770SOL    HW289204   0.333   8.658   5.530 -0.6572 -0.5570 -1.5734
28771SOL     OW89205   5.530   3.562   8.576 -0.0001 -0.6966  0.7913
28771SOL    HW189206   5.439   3.573   8.603 -0.1400  0.9309 -0.2520
28771SOL    HW289207   5.525   3.518   8.491  0.0073  1.6339 -0.4905
28772SOL     OW89208   6.037   5.921   2.527  0.5009  0.2602  0.6199
28772SOL    HW189209   5.975   5.968   2.583 -0.1908 -1.0501  1.0039
28772SOL    HW289210   5.986   5.896   2.450  1.1996  1.2148 -0.1806
28773SOL     OW89211   0.631   4.727   6.672  0.3561 -0.2080  0.5113
28773SOL    HW189212   0.617   4.819   6.650  2.2164  0.1408  0.6277
28773SOL    HW289213   0.660   4.728   6.763  1.5645 -0.7652  0.1577
28774SOL     OW89214   5.352  10.402   0.091  0.1853  0.4098 -0.2172
28774SOL    HW189215   5.273  10.373   0.136 -1.1827  1.5268 -1.7804
28774SOL    HW289216   5.411  10.428   0.162 -1.3826  0.9328  0.9660
28775SOL     OW89217   6.978   7.806   9.035  0.2497 -0.3098  0.8191
28775SOL    HW189218   7.063   7.850   9.044  0.9334 -1.4459  0.0441
28775SOL    HW289219   6.984   7.732   9.094 -0.2452 -0.3391  0.8284
28776SOL     OW89220  10.422   5.823   5.396  0.1607 -0.5345  0.1609
28776SOL    HW189221  10.428   5.851   5.304 -0.3829 -0.6046  0.1037
28776SOL    HW289222  10.390   5.900   5.442  0.4240 -0.5032  0.2911
28777SOL     OW89223   0.385   2.358   0.486  0.2521  0.2185  0.1077
28777SOL    HW189224   0.390   2.330   0.395  0.3072  0.7067 -0.0446
28777SOL    HW289225   0.321   2.299   0.526  0.0443  0.1547 -0.3104
28778SOL     OW89226   1.381   3.147   7.702  0.2425  0.8367 -0.7999
28778SOL    HW189227   1.292   3.171   7.730  0.1416  0.3178 -0.6686
28778SOL    HW289228   1.394   3.193   7.619 -0.8353 -0.5037 -1.7647
28779SOL     OW89229   2.670   7.496   7.905  0.0322  0.1298 -0.6036
28779SOL    HW189230   2.665   7.566   7.840  0.3907  0.4158 -0.3251
28779SOL    HW289231   2.758   7.460   7.895 -0.3882 -0.7711 -1.2425
28780SOL     OW89232   9.418  10.441   3.493  0.1700  0.4419  0.1769
28780SOL    HW189233   9.378  10.365   3.452  0.2399  0.9107 -0.8062
28780SOL    HW289234   9.454  10.409   3.575 -1.4215 -0.1733  0.6562
28781SOL     OW89235   9.624   0.680   0.702 -0.4922 -0.0166  0.1384
28781SOL    HW189236   9.596   0.666   0.611  1.8060 -0.3674 -0.5843
28781SOL    HW289237   9.719   0.683   0.697 -0.2449 -1.1907  2.7050
28782SOL     OW89238   1.099   0.836   9.269 -0.1776  0.1170  0.2425
28782SOL    HW189239   1.105   0.871   9.357  0.5949 -1.7337  0.9917
28782SOL    HW289240   1.178   0.782   9.260 -0.2560  0.2556 -1.5742
28783SOL     OW89241   8.999   8.110   4.164  0.4903 -0.5967 -0.2468
28783SOL    HW189242   9.020   8.116   4.071 -1.2735 -1.0353 -0.6985
28783SOL    HW289243   8.913   8.151   4.172  0.4444 -0.9101  1.1392
28784SOL     OW89244   4.076   6.662   5.933 -0.2553  0.0661  0.1370
28784SOL    HW189245   3.995   6.707   5.911 -2.1825 -2.2990  1.9215
28784SOL    HW289246   4.098   6.693   6.021  0.1882 -0.0628  0.0744
28785SOL     OW89247  10.661   5.436   6.506  0.2670 -0.1165  0.4250
28785SOL    HW189248  10.714   5.357   6.500  0.8757  0.3210 -0.1624
28785SOL    HW289249  10.614   5.428   6.589 -0.0119 -1.2835  0.1677
28786SOL     OW89250   4.882   9.326   3.001  0.1862 -0.2995  0.0304
28786SOL    HW189251   4.904   9.289   3.087  0.1653  0.2108  0.2575
28786SOL    HW289252   4.878   9.420   3.016  1.1757 -0.1111 -0.7426
28787SOL     OW89253   7.812   5.383   9.271 -0.3793  0.2721 -0.3826
28787SOL    HW189254   7.818   5.358   9.179 -1.4285  1.2882 -0.7457
28787SOL    HW289255   7.796   5.477   9.270 -1.2202  0.1714  0.8136
28788SOL     OW89256   9.110   2.064   3.745 -0.0716 -0.4550  0.0327
28788SOL    HW189257   9.107   2.152   3.784  1.1420 -0.9023  1.2257
28788SOL    HW289258   9.155   2.077   3.661 -0.3013  0.1272 -0.0102
28789SOL     OW89259   8.358   5.043   8.861 -0.3830 -0.4402 -0.2695
28789SOL    HW189260   8.345   5.020   8.769 -0.8325  0.4725 -0.4462
28789SOL    HW289261   8.274   5.026   8.903 -0.7376  0.8665 -0.4120
28790SOL     OW89262  10.566   9.231  10.459 -0.1114 -0.5045  0.0396
28790SOL    HW189263  10.493   9.185  10.418 -1.9495  2.2480 -0.0080
28790SOL    HW289264  10.531   9.264  10.542  1.5669 -0.4172  0.7583
28791SOL     OW89265   4.912   1.445   2.491  0.4680  0.9140  0.0679
28791SOL    HW189266   4.816   1.447   2.483  0.4036 -0.5087  0.3962
28791SOL    HW289267   4.933   1.529   2.532 -0.5204  1.7690 -1.0667
28792SOL     OW89268  10.341  10.377   0.062  0.1871  0.2279  0.4017
28792SOL    HW189269  10.418  10.331   0.028 -0.3026  0.1319 -0.5923
28792SOL    HW289270  10.361  10.391   0.155  1.4063  0.2078  0.1621
28793SOL     OW89271   8.130   6.038   0.716  0.3528  0.3976 -0.5463
28793SOL    HW189272   8.216   6.065   0.685 -0.2509  0.7896 -1.9565
28793SOL    HW289273   8.109   5.960   0.664  0.1173 -0.0692  0.2343
28794SOL     OW89274   7.571   3.426   9.017  0.2647  0.0569  0.5407
28794SOL    HW189275   7.576   3.412   9.111  0.9126  1.2994  0.7010
28794SOL    HW289276   7.581   3.520   9.005  3.9328 -0.3765 -0.9998
28795SOL     OW89277   2.758   7.959   2.186  0.5723 -0.4340  0.1860
28795SOL    HW189278   2.844   7.996   2.165  0.9271 -0.9720  0.6678
28795SOL    HW289279   2.736   7.905   2.110  1.3332 -1.4619  0.6679
28796SOL     OW89280   2.905   8.953  10.743  0.4721  0.2582  0.2189
28796SOL    HW189281   2.978   8.905  10.702 -0.0679 -2.3126  1.9928
28796SOL    HW289282   2.881   9.020  10.679  0.9473 -2.2456 -2.8179
28797SOL     OW89283   7.945   5.611   4.228  0.1814  0.2224 -0.3089
28797SOL    HW189284   7.873   5.554   4.254  0.4359  0.4094  0.8678
28797SOL    HW289285   7.913   5.656   4.150 -0.4240 -0.7269 -0.6272
28798SOL     OW89286   3.651   7.350   0.763 -0.5240  0.1591 -0.4582
28798SOL    HW189287   3.602   7.428   0.788  0.5251  0.9922 -0.9256
28798SOL    HW289288   3.655   7.354   0.667  0.2549 -0.0227 -0.4374
28799SOL     OW89289   4.856   2.444  10.562  0.2878  0.0143 -0.4745
28799SOL    HW189290   4.765   2.437  10.593  0.3267 -0.1695 -0.4061
28799SOL    HW289291   4.909   2.425  10.639  0.4027  1.7434 -0.0824
28800SOL     OW89292   9.753   7.532   9.341 -0.7608  0.2793  0.2539
28800SOL    HW189293   9.772   7.597   9.273  0.8544  0.8707  1.2209
28800SOL    HW289294   9.719   7.583   9.415  1.0910  0.1743  1.2437
28801SOL     OW89295   7.142   6.178   0.338  0.1457  0.6327  0.0420
28801SOL    HW189296   7.232   6.210   0.339  0.9807 -1.5029 -0.8823
28801SOL    HW289297   7.110   6.193   0.427  0.8184  2.9150 -0.0533
28802SOL     OW89298   3.578   1.364   9.445 -0.0244  0.0534  0.1840
28802SOL    HW189299   3.556   1.314   9.523 -3.3684  1.2034  0.1859
28802SOL    HW289300   3.508   1.343   9.383  1.4309  0.6865 -1.7782
28803SOL     OW89301   4.088   4.967  10.205 -0.0040 -0.2963 -0.3765
28803SOL    HW189302   4.181   4.964  10.227  0.2417 -0.6444 -1.4277
28803SOL    HW289303   4.086   4.983  10.111 -1.0257  0.6353 -0.2111
28804SOL     OW89304   4.396   3.923   4.559  0.1172  0.5376  0.2382
28804SOL    HW189305   4.472   3.914   4.500  1.4672  0.7220  1.8812
28804SOL    HW289306   4.357   4.007   4.535  1.2617  1.0972  0.2804
28805SOL     OW89307   4.928   4.094   0.254 -0.5061  0.0073  0.1210
28805SOL    HW189308   4.872   4.022   0.225 -0.1255 -1.1917  2.0874
28805SOL    HW289309   4.899   4.111   0.344  0.2913  1.4346  0.1275
28806SOL     OW89310   6.058   7.270   7.571 -0.3396  0.4371  0.7051
28806SOL    HW189311   6.045   7.346   7.514 -0.6884  1.0651  1.5843
28806SOL    HW289312   6.118   7.213   7.523 -1.1604  0.6151 -0.5672
28807SOL     OW89313   6.488   9.004   2.743 -0.0871  0.7578  0.3032
28807SOL    HW189314   6.464   8.916   2.711  1.5175  0.8421 -1.3030
28807SOL    HW289315   6.419   9.026   2.806 -2.2167 -0.4062 -1.4542
28808SOL     OW89316   0.175   3.079   9.605 -0.6196 -0.0370  0.2302
28808SOL    HW189317   0.194   3.063   9.512  1.0468  0.3448  0.4805
28808SOL    HW289318   0.170   3.174   9.612 -0.3844 -0.0517  0.5950
28809SOL     OW89319  10.363   4.140   8.890 -0.0822 -0.4165 -0.7350
28809SOL    HW189320  10.425   4.190   8.944 -0.8580  1.5024 -1.5249
28809SOL    HW289321  10.369   4.050   8.923 -0.1014  0.5374  2.1733
28810SOL     OW89322   0.408   7.826   6.221 -0.3936  0.5639  0.2171
28810SOL    HW189323   0.448   7.859   6.302 -0.7339 -0.4158  0.8033
28810SOL    HW289324   0.325   7.872   6.214 -0.2573  0.8225  0.2981
28811SOL     OW89325   5.297   4.095   3.771  0.2529  0.3318 -0.0369
28811SOL    HW189326   5.272   4.105   3.679 -0.0259  0.6449  0.0699
28811SOL    HW289327   5.327   4.005   3.777  2.2716  0.8990 -0.8926
28812SOL     OW89328   7.895   3.267   7.889  0.3176 -0.0241  0.3955
28812SOL    HW189329   7.988   3.277   7.867  0.0256  0.8226 -0.4910
28812SOL    HW289330   7.866   3.355   7.912 -0.3115 -0.2591  0.5142
28813SOL     OW89331   5.908   5.198   5.316 -0.1539 -0.0746  0.0325
28813SOL    HW189332   5.970   5.127   5.330  1.6979  1.0374 -1.8566
28813SOL    HW289333   5.863   5.175   5.235 -1.8334 -0.5514  1.0505
28814SOL     OW89334   1.559   5.486   9.245 -0.2233 -0.0953 -0.4076
28814SOL    HW189335   1.500   5.544   9.195  2.1060  1.9037 -1.0634
28814SOL    HW289336   1.631   5.469   9.185  2.1227  1.4321  1.8045
28815SOL     OW89337   7.886   4.048   3.970 -0.7642  0.2345 -0.5760
28815SOL    HW189338   7.916   4.048   3.879 -2.6403  1.0699 -1.2546
28815SOL    HW289339   7.842   3.964   3.980  0.9000 -0.6004  0.1380
28816SOL     OW89340   6.940   5.488   7.396 -0.6843 -0.4920 -0.5628
28816SOL    HW189341   7.030   5.520   7.397 -1.1146  0.7763  0.7000
28816SOL    HW289342   6.927   5.455   7.307  0.7806 -0.0033 -0.9857
28817SOL     OW89343   7.187   8.243   6.577 -0.6009 -0.2845  0.2887
28817SOL    HW189344   7.128   8.178   6.539 -0.4267 -0.0555 -0.3832
28817SOL    HW289345   7.133   8.291   6.639 -0.8326 -0.8065  0.4959
28818SOL     OW89346   7.112   1.257   7.228 -0.0289 -0.3877  0.0647
28818SOL    HW189347   7.195   1.265   7.276  1.5261  0.6140 -2.5885
28818SOL    HW289348   7.138   1.234   7.139 -2.7505 -1.5354 -0.5398
28819SOL     OW89349   9.398   7.753   9.874  0.4449 -0.4184 -0.0487
28819SOL    HW189350   9.450   7.812   9.820 -1.8358 -1.4214 -3.6528
28819SOL    HW289351   9.445   7.671   9.873  0.5066 -0.3789 -0.3736
28820SOL     OW89352   9.799   2.094   2.177  0.3576  0.1926 -0.1278
28820SOL    HW189353   9.819   2.046   2.097  0.3545 -0.5179  0.2804
28820SOL    HW289354   9.848   2.048   2.245 -1.1920 -0.4718  0.6025
28821SOL     OW89355   4.941   6.544  10.044  0.8115 -0.0479  0.2878
28821SOL    HW189356   4.935   6.527   9.950  1.5945 -0.6710  0.3392
28821SOL    HW289357   5.010   6.610  10.052 -0.3438  1.1948  0.3123
28822SOL     OW89358   1.976   0.279  10.016 -0.1354 -0.2421  0.2104
28822SOL    HW189359   2.069   0.262  10.029  0.5731  1.1918 -2.2297
28822SOL    HW289360   1.947   0.210   9.956 -0.3298 -0.0164  0.0390
28823SOL     OW89361   9.155   2.641   9.353 -0.1122 -0.2880  0.0158
28823SOL    HW189362   9.181   2.585   9.426  0.2764  0.8006  0.7473
28823SOL    HW289363   9.155   2.584   9.277  0.1041 -1.3070  0.7650
28824SOL     OW89364   0.840   1.558   9.506  0.6412 -0.0496 -0.2995
28824SOL    HW189365   0.795   1.591   9.583  0.7949 -0.2915 -0.1045
28824SOL    HW289366   0.773   1.555   9.438 -0.0988 -2.0269  0.4286
28825SOL     OW89367   0.773   4.047   8.068 -0.3890 -0.0009 -0.4371
28825SOL    HW189368   0.796   4.139   8.059 -2.4105  0.4613 -1.5579
28825SOL    HW289369   0.856   4.003   8.085  0.6533  1.9801 -0.0721
28826SOL     OW89370   8.296   6.797   4.219 -0.0090  0.1134  0.5345
28826SOL    HW189371   8.215   6.828   4.258 -0.5603  0.2602 -0.6740
28826SOL    HW289372   8.337   6.875   4.182 -0.7507 -0.3093 -1.3448
28827SOL     OW89373   8.517   9.048   7.237 -0.4403 -0.0632 -0.0123
28827SOL    HW189374   8.474   8.975   7.193 -0.1871  0.3191 -0.9177
28827SOL    HW289375   8.538   9.014   7.324 -2.0284 -0.4474  0.2480
28828SOL     OW89376   2.371   4.887   6.145 -0.1921  0.4020  0.2373
28828SOL    HW189377   2.429   4.827   6.191  0.2814  1.3179  0.8719
28828SOL    HW289378   2.407   4.892   6.057 -0.7814 -0.9387 -0.1053
28829SOL     OW89379   7.452   7.723   3.312  0.0560 -0.2273 -0.0299
28829SOL    HW189380   7.461   7.782   3.237  1.9342 -1.0341 -0.4785
28829SOL    HW289381   7.536   7.730   3.358 -0.5521 -0.8103  1.2158
28830SOL     OW89382  10.382   5.546   0.664  0.4206 -0.0117  0.0362
28830SOL    HW189383  10.296   5.521   0.700 -0.4972  2.3434 -0.3553
28830SOL    HW289384  10.383   5.641   0.670  3.0706  0.0061  0.0578
28831SOL     OW89385   3.090   2.092   6.324 -0.1504  0.8680 -0.3704
28831SOL    HW189386   3.006   2.127   6.354 -0.0958  0.3862  0.3490
28831SOL    HW289387   3.067   2.026   6.259 -0.4874 -1.3724  1.9097
28832SOL     OW89388   7.375   6.041   1.388 -0.3512  0.2277 -0.3851
28832SOL    HW189389   7.364   6.025   1.294 -0.2688  0.2584 -0.3999
28832SOL    HW289390   7.286   6.034   1.424 -0.1583 -1.5116 -0.1860
28833SOL     OW89391   3.128   1.263   8.147 -0.1838 -0.0200  0.1663
28833SOL    HW189392   3.073   1.185   8.153 -1.1816  0.5172 -1.5351
28833SOL    HW289393   3.215   1.230   8.127  0.4024 -0.9289  3.4977
28834SOL     OW89394   4.339   1.877   5.872 -0.0029 -0.1294 -0.4103
28834SOL    HW189395   4.331   1.842   5.960  3.4380  1.4517  0.7271
28834SOL    HW289396   4.281   1.953   5.870 -0.5182 -0.5048  0.2884
28835SOL     OW89397   3.214  10.782   9.940 -0.7456  0.5529  0.9324
28835SOL    HW189398   3.208  10.873   9.912  1.3568  0.3253 -0.4478
28835SOL    HW289399   3.190  10.731   9.862  0.4639 -0.0681  0.9453
28836SOL     OW89400  10.346   5.817   0.626  0.4395  0.1986  0.5821
28836SOL    HW189401  10.287   5.829   0.552 -0.3615 -0.3142  1.1311
28836SOL    HW289402  10.342   5.900   0.673  1.3373  0.7098 -0.2062
28837SOL     OW89403   2.844  10.220   9.652 -0.3189 -0.6006  0.6229
28837SOL    HW189404   2.885  10.134   9.638  0.3015 -0.2626  0.3588
28837SOL    HW289405   2.773  10.202   9.714 -1.5551 -1.6952 -1.0134
28838SOL     OW89406   8.185   6.932   1.572 -0.4137  0.5089  0.1221
28838SOL    HW189407   8.233   6.855   1.540  1.7556  1.5522  0.6892
28838SOL    HW289408   8.116   6.895   1.627  0.8189 -1.0677  0.7122
28839SOL     OW89409   9.649   2.345   9.458  0.0448 -0.3786 -0.0854
28839SOL    HW189410   9.636   2.370   9.549 -0.4387  0.0864 -0.2728
28839SOL    HW289411   9.723   2.398   9.429 -0.9987  0.9025 -0.4906
28840SOL     OW89412   8.735   8.639   1.076 -0.0365  0.1110 -0.1985
28840SOL    HW189413   8.712   8.621   0.985 -1.9344  1.2629 -0.0148
28840SOL    HW289414   8.731   8.735   1.083  1.0745  0.1042  0.8615
28841SOL     OW89415   7.006   7.174   3.725  0.1498 -0.0152 -0.0996
28841SOL    HW189416   6.985   7.246   3.785 -0.2944 -0.4852  0.3117
28841SOL    HW289417   6.977   7.095   3.771  2.0298 -0.6299  0.1445
28842SOL     OW89418   6.570   1.767   2.663  0.1427  0.3298  0.3086
28842SOL    HW189419   6.569   1.753   2.569  1.8252  3.0955 -0.2060
28842SOL    HW289420   6.477   1.764   2.689 -0.2606 -1.8521 -1.1160
28843SOL     OW89421   1.470   5.890   8.869 -0.0646 -0.0909  0.0593
28843SOL    HW189422   1.418   5.824   8.824 -0.8853  0.0012  0.8336
28843SOL    HW289423   1.538   5.841   8.915 -0.0171 -0.2907 -0.2205
28844SOL     OW89424   4.077   0.401   8.503 -0.3177  0.1836  0.6294
28844SOL    HW189425   4.107   0.310   8.503 -1.3506 -0.1845  1.8891
28844SOL    HW289426   4.022   0.408   8.425 -0.0138 -0.1978  0.3791
28845SOL     OW89427   8.422  10.231   7.123 -0.2056 -0.1975  0.1246
28845SOL    HW189428   8.331  10.238   7.150 -0.8269 -0.4928 -1.7280
28845SOL    HW289429   8.427  10.146   7.078  0.7715  0.1582 -0.4722
28846SOL     OW89430   3.941   0.545   4.593  0.1262  0.1037  0.1655
28846SOL    HW189431   4.028   0.575   4.620  0.2626  2.4380 -2.3426
28846SOL    HW289432   3.958   0.484   4.521 -0.2189  1.8976 -1.5243
28847SOL     OW89433   3.020   2.133   5.266  0.2266  0.0912 -0.2763
28847SOL    HW189434   3.058   2.218   5.243 -0.8692  0.8022  0.4284
28847SOL    HW289435   3.086   2.091   5.320 -0.0430  1.4341  1.1846
28848SOL     OW89436   6.477   0.996   7.476 -0.4565 -1.1228  0.1988
28848SOL    HW189437   6.520   1.028   7.397  2.2338 -2.1364  1.1509
28848SOL    HW289438   6.397   0.953   7.445 -0.3622 -0.0154 -1.7448
28849SOL     OW89439   8.801   1.804   5.357  0.0225 -0.1594  0.0073
28849SOL    HW189440   8.858   1.791   5.433 -0.9257  0.7514  0.9122
28849SOL    HW289441   8.847   1.867   5.302  1.1168 -1.4750 -0.6461
28850SOL     OW89442   0.626   7.420   5.750 -0.0909 -0.0274  0.2490
28850SOL    HW189443   0.653   7.469   5.828 -0.7130  0.5771  0.0948
28850SOL    HW289444   0.696   7.436   5.687 -0.4110  0.8906  0.1108
28851SOL     OW89445   9.579   0.080   2.881 -1.0054 -0.5270  0.5356
28851SOL    HW189446   9.511   0.022   2.914 -2.5356  0.8363 -0.0600
28851SOL    HW289447   9.565   0.163   2.927  0.7961 -0.4200  0.9964
28852SOL     OW89448   4.893   1.711   0.638  0.2845 -0.2372  0.1964
28852SOL    HW189449   4.861   1.778   0.698 -0.6075 -0.8460  0.4142
28852SOL    HW289450   4.888   1.629   0.687  2.2690 -0.3647  0.2678
28853SOL     OW89451   3.761   4.402  10.579  0.3195  0.1465 -0.2588
28853SOL    HW189452   3.703   4.333  10.546 -0.4137  1.3589 -1.6507
28853SOL    HW289453   3.838   4.398  10.522 -0.0793  0.9790 -0.8664
28854SOL     OW89454   0.609  10.260   9.960 -0.3791 -0.7189 -0.3805
28854SOL    HW189455   0.544  10.318   9.999  0.7270  1.1177 -1.1314
28854SOL    HW289456   0.682  10.261  10.022 -0.0806 -0.7430 -0.7268
28855SOL     OW89457   0.587   8.734   4.350  0.1101 -0.0796  0.6695
28855SOL    HW189458   0.511   8.792   4.356  0.7126  0.6215  2.1703
28855SOL    HW289459   0.656   8.780   4.398  1.5564 -0.6090 -0.7976
28856SOL     OW89460   4.970   7.893   5.804 -0.3398  0.6116  0.2213
28856SOL    HW189461   4.991   7.881   5.896 -3.7606  0.3179  1.1015
28856SOL    HW289462   4.961   7.804   5.769 -0.2901  0.7169 -0.0665
28857SOL     OW89463  10.231   4.175   0.951  0.1249 -0.1828  0.7117
28857SOL    HW189464  10.201   4.223   1.028  1.1524 -0.2623  1.1760
28857SOL    HW289465  10.247   4.086   0.983  0.0581 -0.3517  0.2866
28858SOL     OW89466  10.251   3.329  10.092  0.2842  0.6798  0.5270
28858SOL    HW189467  10.216   3.391  10.155 -0.5223  1.9009 -1.0591
28858SOL    HW289468  10.175   3.298  10.043  1.1206  2.0234 -1.7952
28859SOL     OW89469   9.408   0.485   2.290  0.0416 -0.5418  0.0298
28859SOL    HW189470   9.342   0.541   2.330 -0.1862  0.0503 -1.1170
28859SOL    HW289471   9.489   0.505   2.336 -0.3677 -0.5012  0.7422
28860SOL     OW89472  10.376   3.962   6.327 -0.0474 -0.3778  1.2221
28860SOL    HW189473  10.458   3.964   6.378 -0.9160 -1.2786  2.7104
28860SOL    HW289474  10.343   4.052   6.332  0.9827  0.0787  0.3306
28861SOL     OW89475   9.256   1.292   1.937  0.0346 -0.1678 -0.1750
28861SOL    HW189476   9.199   1.356   1.980  1.8643  0.2377  1.8631
28861SOL    HW289477   9.318   1.345   1.886  1.8421 -0.1520  1.8815
28862SOL     OW89478   6.527   5.007   2.688  0.4764  0.3414 -0.4958
28862SOL    HW189479   6.529   5.097   2.658  0.2385  0.1423 -1.1101
28862SOL    HW289480   6.454   5.004   2.750 -0.2138  0.3250 -1.2889
28863SOL     OW89481   8.252   0.236   0.033 -0.0960  0.2730 -0.4555
28863SOL    HW189482   8.181   0.180   0.001 -1.5711  1.2396  0.9693
28863SOL    HW289483   8.306   0.179   0.087 -0.2445 -0.3043 -0.9149
28864SOL     OW89484   8.653   3.024   2.807  0.5998 -0.2212 -0.7648
28864SOL    HW189485   8.658   2.955   2.873 -1.6970  2.0931  2.1326
28864SOL    HW289486   8.568   3.011   2.766 -0.8648  1.9790  1.3526
28865SOL     OW89487   7.396   6.155   7.565  0.0926 -0.0224 -0.1045
28865SOL    HW189488   7.479   6.157   7.516  1.3407 -0.4379  1.8910
28865SOL    HW289489   7.373   6.247   7.577  1.4018  0.1907  1.0757
28866SOL     OW89490   9.624   7.594   4.502  0.1121 -0.2025  0.4977
28866SOL    HW189491   9.701   7.541   4.523  0.4410 -0.5002 -1.3060
28866SOL    HW289492   9.602   7.569   4.412 -1.6409  0.4366  0.7243
28867SOL     OW89493   9.372   9.430   9.980  0.4135  0.2308  0.0844
28867SOL    HW189494   9.352   9.339   9.956  0.6584  0.3477 -0.5784
28867SOL    HW289495   9.461   9.426  10.016  1.3203  0.5123 -1.9691
28868SOL     OW89496  10.483   5.159   9.114 -0.3000  0.5280  0.2758
28868SOL    HW189497  10.548   5.090   9.121 -3.0775 -2.4263 -0.6719
28868SOL    HW289498  10.455   5.176   9.204  0.9803  1.0743  0.5878
28869SOL     OW89499   1.357  10.766   9.635 -0.3714  1.1431 -0.1736
28869SOL    HW189500   1.279  10.749   9.582 -0.3177 -0.3115  0.1726
28869SOL    HW289501   1.347  10.710   9.712  0.0180  2.5159  0.9202
28870SOL     OW89502   7.288   5.815   8.248  0.2655 -0.2793 -0.6963
28870SOL    HW189503   7.238   5.763   8.185  0.4677  0.4262 -1.4632
28870SOL    HW289504   7.379   5.800   8.225  0.3333  2.4348 -2.7155
28871SOL     OW89505   6.451   7.159   1.718 -0.1010  0.2068 -0.0953
28871SOL    HW189506   6.386   7.176   1.649  0.0251 -0.9466 -0.5233
28871SOL    HW289507   6.502   7.086   1.684  1.2941  0.9502  0.3385
28872SOL     OW89508   1.346   2.596   9.135  0.5588 -0.1087 -0.2645
28872SOL    HW189509   1.289   2.559   9.203  0.3022  1.3742  0.3622
28872SOL    HW289510   1.432   2.557   9.153  0.0851 -1.2190 -0.3015
28873SOL     OW89511   5.590   8.952   3.040 -0.0184  0.7072  0.2352
28873SOL    HW189512   5.508   8.911   3.068 -0.5230  1.7449  0.3381
28873SOL    HW289513   5.633   8.977   3.121  0.5750 -0.1471  0.1908
28874SOL     OW89514   3.475   4.423   8.731 -0.1021  0.2697 -0.3787
28874SOL    HW189515   3.550   4.465   8.772 -0.2882 -0.3076  0.5914
28874SOL    HW289516   3.512   4.348   8.684 -0.3257 -2.0913  2.9084
28875SOL     OW89517   4.631   5.025   9.529  0.0705  0.0916 -0.0556
28875SOL    HW189518   4.668   5.052   9.445 -0.3163  0.7071 -0.0374
28875SOL    HW289519   4.571   4.953   9.507  0.9161 -0.6023 -0.1391
28876SOL     OW89520  10.755   0.349   9.381 -0.3919 -0.4597  0.2479
28876SOL    HW189521  10.800   0.288   9.440 -0.5618  1.1051  2.0965
28876SOL    HW289522  10.799   0.432   9.395  1.0483 -0.4247 -3.5912
28877SOL     OW89523   7.077  10.016   1.056  0.0510  0.1894 -0.0183
28877SOL    HW189524   7.066   9.930   1.016 -1.1954  0.0946  0.4934
28877SOL    HW289525   7.147  10.004   1.120 -1.0071 -0.7976  0.9921
28878SOL     OW89526   2.483   6.046   7.709 -0.2189 -0.1699  0.0707
28878SOL    HW189527   2.395   6.009   7.704  0.1634 -1.1306  0.2571
28878SOL    HW289528   2.517   6.014   7.793  0.3877  0.0132 -0.1075
28879SOL     OW89529   1.781   8.683   5.984 -0.5880  0.0129  0.4271
28879SOL    HW189530   1.771   8.755   6.046 -1.9165 -1.3241  1.8381
28879SOL    HW289531   1.876   8.678   5.968 -0.2187  0.4327  2.3298
28880SOL     OW89532   5.258   2.775   7.794  0.2640 -0.0890 -0.1226
28880SOL    HW189533   5.274   2.697   7.740  0.5079 -0.2900  0.2362
28880SOL    HW289534   5.258   2.848   7.731  1.2218 -0.2408 -0.3199
28881SOL     OW89535   6.236   1.328  10.432  0.5127  0.0492  0.3510
28881SOL    HW189536   6.320   1.288  10.409 -0.2667 -1.5805  0.1969
28881SOL    HW289537   6.234   1.327  10.528 -0.0944 -1.6998  0.3607
28882SOL     OW89538   6.356   6.499   0.079  0.1925 -0.3807 -0.3176
28882SOL    HW189539   6.282   6.446   0.109 -0.8985  1.0470 -0.3916
28882SOL    HW289540   6.431   6.464   0.127 -0.8966 -0.4735  1.4249
28883SOL     OW89541  10.794   8.135   6.491  0.4313  0.5966  0.1459
28883SOL    HW189542  10.847   8.212   6.469 -2.0335  1.8208 -1.9632
28883SOL    HW289543  10.754   8.157   6.575  2.0854  0.2223  1.0881
28884SOL     OW89544   4.574   9.908   4.730  0.4244 -0.5811 -0.0797
28884SOL    HW189545   4.615   9.829   4.695  1.3479  0.1506 -0.6952
28884SOL    HW289546   4.520   9.941   4.658  1.0232  0.0172 -0.2672
28885SOL     OW89547   9.614  10.307  10.254 -0.1293  0.4695  0.3260
28885SOL    HW189548   9.610  10.272  10.343  0.6286  0.1494  0.2384
28885SOL    HW289549   9.621  10.230  10.198 -3.5428  0.4470 -0.2843
28886SOL     OW89550   6.191   7.429   1.898 -0.1714 -0.3644  0.4782
28886SOL    HW189551   6.161   7.338   1.895  1.3993 -0.8837 -0.5193
28886SOL    HW289552   6.241   7.434   1.979  2.0559 -1.2174 -0.7527
28887SOL     OW89553   5.950   8.215   9.573 -0.1298  0.2194 -0.3595
28887SOL    HW189554   5.992   8.172   9.498 -1.9323 -0.1385 -1.2212
28887SOL    HW289555   5.921   8.299   9.539 -0.2284  0.4036  0.1832
28888SOL     OW89556   2.878   2.057   0.978 -0.5603 -0.0274  0.0988
28888SOL    HW189557   2.881   2.124   0.910 -1.8692 -0.2146 -0.1745
28888SOL    HW289558   2.822   1.989   0.942  0.1623 -0.9458  0.6681
28889SOL     OW89559   9.092   8.380   7.907 -0.4473 -0.3091  0.2945
28889SOL    HW189560   9.038   8.318   7.858 -0.2228 -0.7876  0.6451
28889SOL    HW289561   9.147   8.422   7.842 -0.9567 -0.1081 -0.0140
28890SOL     OW89562   4.234   7.071   5.542  0.2240 -0.0441 -0.2756
28890SOL    HW189563   4.215   7.164   5.529  0.3229 -0.0855 -0.7548
28890SOL    HW289564   4.329   7.068   5.554  0.0349  0.1042  1.5667
28891SOL     OW89565   0.462   1.911  10.339 -0.0909 -0.2332 -0.2088
28891SOL    HW189566   0.441   1.818  10.331 -0.1406 -0.2418  0.0068
28891SOL    HW289567   0.389   1.956  10.298 -1.3769 -0.2095  1.9564
28892SOL     OW89568   4.842   8.541   8.715  0.0671 -0.2198  0.0939
28892SOL    HW189569   4.767   8.547   8.774 -0.4411  1.0418 -0.6310
28892SOL    HW289570   4.889   8.462   8.742 -0.2797  0.1910  2.0201
28893SOL     OW89571   9.439   3.844   7.516 -0.1480 -0.0011  0.5077
28893SOL    HW189572   9.429   3.753   7.545  2.5797  0.0888  2.0408
28893SOL    HW289573   9.465   3.892   7.595  1.3959  1.5259 -0.8471
28894SOL     OW89574   8.446   5.234   2.543  0.1757  0.3371  0.0309
28894SOL    HW189575   8.387   5.263   2.474  2.1624  0.6837 -1.5970
28894SOL    HW289576   8.449   5.308   2.604 -0.6924  0.4923 -0.1032
28895SOL     OW89577   3.531   6.268   8.194 -0.7647 -0.1577 -0.2202
28895SOL    HW189578   3.442   6.268   8.228 -1.4204  1.7660 -1.7562
28895SOL    HW289579   3.586   6.288   8.270 -1.6377 -1.1388  0.6930
28896SOL     OW89580   0.703   4.748   4.566 -0.0431 -0.1749 -0.0846
28896SOL    HW189581   0.703   4.839   4.597 -0.3766 -0.3096  0.3082
28896SOL    HW289582   0.624   4.741   4.513 -0.4862 -0.4790  0.6049
28897SOL     OW89583   4.789   4.343   0.266  0.0010  0.0496  0.7921
28897SOL    HW189584   4.839   4.283   0.211 -0.0617  0.1829  0.5883
28897SOL    HW289585   4.804   4.312   0.355 -0.6028 -0.7079  0.6457
28898SOL     OW89586   8.779   9.986   5.475  0.7490 -0.1440 -0.4221
28898SOL    HW189587   8.849   9.957   5.533  0.8300 -0.9138 -0.8962
28898SOL    HW289588   8.720   9.911   5.468 -0.1580  0.5024  0.0075
28899SOL     OW89589   5.718   3.307   5.695 -0.0485  1.2765  0.3998
28899SOL    HW189590   5.806   3.331   5.725 -0.1761  1.1290  0.9115
28899SOL    HW289591   5.689   3.242   5.759  0.4776 -0.6518 -1.2357
28900SOL     OW89592   1.602  10.345   6.707  0.0901  0.4899  0.5020
28900SOL    HW189593   1.640  10.430   6.724 -0.3796  1.3031 -2.1206
28900SOL    HW289594   1.526  10.363   6.652 -0.2472 -1.5924  0.1923
28901SOL     OW89595   7.662   9.097   5.815  0.0056  0.0849 -0.1124
28901SOL    HW189596   7.748   9.114   5.778  0.0917 -2.2490 -1.1241
28901SOL    HW289597   7.678   9.087   5.909  0.5815  1.0496 -0.0907
28902SOL     OW89598   8.812   7.498   9.594 -0.1589 -0.3772  0.0752
28902SOL    HW189599   8.776   7.505   9.505  0.0213  0.7411  0.0738
28902SOL    HW289600   8.820   7.589   9.624  1.6072 -0.6246  0.4878
28903SOL     OW89601   3.700   8.251   6.789  1.0464 -0.4116  0.2368
28903SOL    HW189602   3.671   8.182   6.730  0.9136 -0.5927  0.5152
28903SOL    HW289603   3.650   8.328   6.761  2.7100  0.1282 -1.4506
28904SOL     OW89604   7.119   9.380   9.322 -0.6543  0.1939  0.3455
28904SOL    HW189605   7.035   9.395   9.279 -0.4827  0.0395 -0.0498
28904SOL    HW289606   7.184   9.404   9.256 -0.3656 -1.5855 -0.0708
28905SOL     OW89607   3.343   9.822   6.180 -0.2365 -0.4282  0.5025
28905SOL    HW189608   3.323   9.731   6.156 -0.3598 -0.3701  0.3829
28905SOL    HW289609   3.434   9.835   6.152 -0.2846 -0.4523  0.3326
28906SOL     OW89610   3.949   1.854   4.583  0.1155 -0.0249 -0.4350
28906SOL    HW189611   3.870   1.868   4.530 -0.4796  1.0212  0.6696
28906SOL    HW289612   3.980   1.943   4.602 -0.3572 -0.3129  1.9162
28907SOL     OW89613   6.872   6.177   7.934 -0.4868  0.2783 -0.2137
28907SOL    HW189614   6.843   6.262   7.902 -1.1030 -0.8431 -2.8981
28907SOL    HW289615   6.890   6.126   7.855  0.7780 -1.8093  1.2995
28908SOL     OW89616   6.231   9.869   8.939 -0.3790 -0.2957 -0.0394
28908SOL    HW189617   6.141   9.837   8.933 -0.4709  0.1507 -1.1773
28908SOL    HW289618   6.244   9.921   8.860  1.5587 -2.0923 -1.0018
28909SOL     OW89619   5.402   9.159   3.870  0.4960 -0.5253  0.6744
28909SOL    HW189620   5.423   9.144   3.778 -2.0896 -2.3589  0.2740
28909SOL    HW289621   5.455   9.094   3.917  0.0339 -1.2285  0.2399
28910SOL     OW89622   1.660   6.534   8.018 -0.4838  0.0551 -0.4835
28910SOL    HW189623   1.573   6.498   8.005 -0.2662 -0.8597  0.4974
28910SOL    HW289624   1.701   6.529   7.931 -1.4077  0.5413 -0.9601
28911SOL     OW89625   7.894   0.636   9.030  0.0895  0.1826  0.0364
28911SOL    HW189626   7.966   0.698   9.015  0.3596 -0.3904 -1.1943
28911SOL    HW289627   7.859   0.660   9.115  0.4940  1.7331 -0.2018
28912SOL     OW89628   6.337   1.170   8.674 -0.3471 -0.2777  0.1820
28912SOL    HW189629   6.310   1.261   8.670  2.0153  0.4644 -0.7097
28912SOL    HW289630   6.268   1.122   8.629 -0.0796  1.5120 -2.3022
28913SOL     OW89631   8.808   2.585   1.296  0.0661 -0.3206  0.0791
28913SOL    HW189632   8.794   2.534   1.216  0.8842  1.1560 -1.0468
28913SOL    HW289633   8.880   2.540   1.340  0.4678 -0.4208 -0.6545
28914SOL     OW89634   5.877   2.266   6.765 -0.2373  0.6268 -0.5398
28914SOL    HW189635   5.938   2.224   6.704 -0.6860 -1.1173  0.1367
28914SOL    HW289636   5.905   2.357   6.770  2.1061 -0.0491 -0.4966
28915SOL     OW89637   1.846   6.415   1.735 -1.1575 -0.0831 -0.6815
28915SOL    HW189638   1.912   6.434   1.669 -0.1884 -2.8454 -0.6262
28915SOL    HW289639   1.885   6.446   1.817  1.1914 -3.4830 -0.2998
28916SOL     OW89640  10.008   5.715  10.014 -0.1228  0.2948  0.7117
28916SOL    HW189641   9.983   5.624  10.032 -0.1200  0.1588  0.0408
28916SOL    HW289642   9.927   5.756   9.982  0.1053  0.2766  0.0996
28917SOL     OW89643   7.105   0.334   5.817 -0.3337  0.0546 -0.3211
28917SOL    HW189644   7.193   0.339   5.779 -0.1293  2.0368  0.2986
28917SOL    HW289645   7.050   0.380   5.754 -0.3589  1.5046  0.7104
28918SOL     OW89646   3.221   4.385   2.592 -0.2794  0.6739 -0.2737
28918SOL    HW189647   3.305   4.340   2.598 -1.0577 -0.9041 -0.7991
28918SOL    HW289648   3.206   4.418   2.681  0.3776  0.0030  0.1004
28919SOL     OW89649   9.284   7.306   9.821 -0.1744  0.0118  0.2513
28919SOL    HW189650   9.338   7.286   9.897  0.1367  0.0903  0.0513
28919SOL    HW289651   9.316   7.391   9.791 -1.1700  0.6094  0.8144
28920SOL     OW89652   2.575   8.610   0.811  0.6234 -0.0391 -0.5586
28920SOL    HW189653   2.553   8.669   0.739  1.0028  1.7223  0.6965
28920SOL    HW289654   2.669   8.624   0.825  0.0736  1.7348  1.9816
28921SOL     OW89655   7.227   0.212   3.325  0.4450  0.8590 -0.1753
28921SOL    HW189656   7.190   0.236   3.240 -0.5463 -0.0388 -0.0156
28921SOL    HW289657   7.239   0.295   3.371 -1.2367  1.2080 -0.3053
28922SOL     OW89658   9.312   2.722   0.368  0.0633  0.3459  0.2111
28922SOL    HW189659   9.235   2.673   0.341 -0.2693  1.0295 -0.0898
28922SOL    HW289660   9.322   2.702   0.461  0.1023 -0.5131  0.0317
28923SOL     OW89661  10.156   9.116   7.746  0.4678 -0.0184 -0.5854
28923SOL    HW189662  10.122   9.143   7.831  2.7412  1.2615  0.0140
28923SOL    HW289663  10.119   9.179   7.684 -0.7353 -0.6051 -0.4872
28924SOL     OW89664   0.892   4.802   9.356  0.6966 -0.1524  0.0931
28924SOL    HW189665   0.807   4.845   9.358  0.9986  0.4414  1.1606
28924SOL    HW289666   0.938   4.842   9.283 -0.4194 -1.4832 -1.4011
28925SOL     OW89667   3.638   9.527   2.144 -0.6902 -0.0761  0.3653
28925SOL    HW189668   3.696   9.459   2.109 -0.5290 -0.1913  0.8436
28925SOL    HW289669   3.693   9.578   2.203 -1.1108 -0.2903  0.9592
28926SOL     OW89670   5.193   0.936   9.842 -0.1670  0.2074  0.0264
28926SOL    HW189671   5.165   0.874   9.909  1.2770 -0.4682  0.0315
28926SOL    HW289672   5.118   0.996   9.832 -1.2996 -1.0810  0.5381
28927SOL     OW89673   3.532   2.020   2.356  0.4208  0.0596  0.7186
28927SOL    HW189674   3.528   2.110   2.325 -0.2763 -0.6488 -1.4785
28927SOL    HW289675   3.620   2.011   2.392  1.5552  0.9021 -1.6025
28928SOL     OW89676   5.876   6.824   6.443 -0.2497  0.2528 -0.1989
28928SOL    HW189677   5.884   6.771   6.522  0.8248 -0.4490 -0.7635
28928SOL    HW289678   5.958   6.811   6.397 -0.4503  1.4787 -0.9360
28929SOL     OW89679   0.385   6.726   5.683  0.4628 -0.3092 -0.0958
28929SOL    HW189680   0.322   6.783   5.727 -0.0348 -0.7846 -0.1840
28929SOL    HW289681   0.456   6.785   5.657 -0.8841  0.6557 -1.8476
28930SOL     OW89682   6.406   4.548   0.958 -1.0174  0.1541 -0.1999
28930SOL    HW189683   6.334   4.610   0.970 -0.9930  0.2499 -0.5397
28930SOL    HW289684   6.364   4.462   0.960 -0.9585  0.1391  0.9879
28931SOL     OW89685   8.870   2.206   6.079  0.1263 -0.0427 -0.2401
28931SOL    HW189686   8.919   2.124   6.090  1.5485  0.7734 -0.2004
28931SOL    HW289687   8.883   2.252   6.162 -0.7324  0.2075 -0.2328
28932SOL     OW89688   0.465   6.981   0.413 -0.2076  0.3805 -0.3415
28932SOL    HW189689   0.405   7.007   0.484  0.5579 -2.0896  1.3197
28932SOL    HW289690   0.414   6.920   0.360  0.1012  0.0303 -0.2415
28933SOL     OW89691   4.485   9.638   5.020 -0.4171  0.7550 -0.3008
28933SOL    HW189692   4.476   9.545   5.041  1.0300 -0.3633 -3.8121
28933SOL    HW289693   4.414   9.657   4.959  0.3965  1.3846 -1.0974
28934SOL     OW89694   8.160   2.096  10.394  0.5761 -0.3982 -0.0296
28934SOL    HW189695   8.140   2.090  10.301  0.5034 -1.0168  0.0208
28934SOL    HW289696   8.075   2.110  10.436  0.7246  1.0231 -0.1305
28935SOL     OW89697   9.724   6.955   0.160  0.1620  0.2002  0.2305
28935SOL    HW189698   9.687   6.874   0.124  1.2163 -0.6556  1.0132
28935SOL    HW289699   9.653   7.019   0.153 -0.8302 -0.9015 -0.0159
28936SOL     OW89700   2.536   1.757   1.594  0.7029  0.6816 -0.3198
28936SOL    HW189701   2.613   1.750   1.650  0.1371 -0.2721  0.3669
28936SOL    HW289702   2.487   1.831   1.630  0.9462  0.8525 -0.3333
28937SOL     OW89703   2.674  10.191   2.401  0.1191  0.2966  0.1968
28937SOL    HW189704   2.741  10.128   2.428  0.2046 -0.2358 -1.2040
28937SOL    HW289705   2.718  10.248   2.338 -0.6266  0.1889 -0.4363
28938SOL     OW89706   0.073   6.937   9.668 -0.6063 -0.4515  0.3004
28938SOL    HW189707   0.015   7.001   9.709 -2.6773 -2.1095  0.1544
28938SOL    HW289708   0.137   6.916   9.736 -1.6905 -0.3853  1.3761
28939SOL     OW89709   3.625   6.634   0.570  0.5239 -0.1719  0.5316
28939SOL    HW189710   3.578   6.551   0.580  2.1608 -1.5465 -2.1322
28939SOL    HW289711   3.566   6.688   0.517  0.9256 -1.0618 -0.8874
28940SOL     OW89712   7.695   4.143   0.596  0.2127 -0.1020  0.3444
28940SOL    HW189713   7.748   4.075   0.638  0.1211  0.0423  0.6910
28940SOL    HW289714   7.617   4.150   0.651 -0.9773 -1.5063 -1.0427
28941SOL     OW89715   8.320   5.314   8.241  0.5925 -0.2047 -0.2502
28941SOL    HW189716   8.328   5.312   8.336  1.4463 -0.0218 -0.3098
28941SOL    HW289717   8.235   5.355   8.225 -1.2844 -3.4794  0.4575
28942SOL     OW89718   7.029   9.231   4.167 -0.3536  0.4424 -0.2452
28942SOL    HW189719   7.048   9.323   4.149 -2.0075  0.8004 -0.3571
28942SOL    HW289720   7.031   9.188   4.081  1.8511  0.0356 -0.0441
28943SOL     OW89721   5.012   3.052   4.227  0.1721  0.0822  0.5419
28943SOL    HW189722   5.048   3.118   4.167  1.5620 -0.4908  0.7302
28943SOL    HW289723   4.935   3.095   4.264  0.7005  1.3861  0.2076
28944SOL     OW89724   6.363   6.305  10.152  0.1562  0.3791 -0.5925
28944SOL    HW189725   6.295   6.268  10.209 -0.4967 -0.0608 -1.6270
28944SOL    HW289726   6.438   6.319  10.210 -0.9400  1.2502  0.6596
28945SOL     OW89727   7.450   7.361   2.683  0.1099  0.2471 -0.5875
28945SOL    HW189728   7.487   7.281   2.720 -3.2109 -0.5771  1.2919
28945SOL    HW289729   7.426   7.337   2.593 -1.9619 -1.3653  0.3181
28946SOL     OW89730   7.818   7.028   0.956  0.3376 -0.3014  0.6804
28946SOL    HW189731   7.831   7.023   1.051  3.2186 -0.3357  0.3788
28946SOL    HW289732   7.902   7.001   0.919 -0.8669 -0.7851 -1.9195
28947SOL     OW89733   2.119   0.834   8.927 -0.0743 -0.0414 -0.1116
28947SOL    HW189734   2.193   0.774   8.938  2.0731  2.4064 -0.0300
28947SOL    HW289735   2.078   0.838   9.013  1.0314  0.1233  0.4278
28948SOL     OW89736   4.910  10.039   6.164  0.2980 -0.2941  0.1242
28948SOL    HW189737   4.962  10.013   6.088  1.2959 -2.0260  1.3155
28948SOL    HW289738   4.850   9.966   6.179  0.0579  0.0535  0.9591
28949SOL     OW89739   8.389   9.036   5.289  0.1023 -0.2375 -0.1201
28949SOL    HW189740   8.346   9.097   5.348  0.0508 -0.4795  0.0955
28949SOL    HW289741   8.471   9.013   5.334  0.0064 -0.5149 -0.0858
28950SOL     OW89742   6.074   1.940   6.716 -0.1062  0.8028 -0.3697
28950SOL    HW189743   6.037   1.985   6.791 -1.8212 -1.6117  0.3656
28950SOL    HW289744   6.002   1.934   6.653  0.6318  0.7851 -1.2367
28951SOL     OW89745   7.751   9.584   3.290  0.2741 -0.2664 -0.0635
28951SOL    HW189746   7.738   9.601   3.383  0.9875  0.1725 -0.0370
28951SOL    HW289747   7.738   9.490   3.281 -3.0972  0.0738 -0.0916
28952SOL     OW89748   8.553   6.299   3.410  0.2843  0.0579  0.3825
28952SOL    HW189749   8.607   6.369   3.449 -1.2612  0.6735  1.5275
28952SOL    HW289750   8.477   6.344   3.375 -1.1709 -1.0818  1.9053
28953SOL     OW89751   0.109   2.810   9.420  0.3041 -0.1544 -0.0799
28953SOL    HW189752   0.146   2.723   9.435  1.8911  0.5807  0.4955
28953SOL    HW289753   0.102   2.849   9.507 -1.4652 -0.1025 -0.2246
28954SOL     OW89754   0.432   7.406   7.338  0.9214 -0.3772 -0.4301
28954SOL    HW189755   0.400   7.345   7.272  1.8372 -0.9405 -0.3745
28954SOL    HW289756   0.460   7.483   7.288  1.0714 -0.5668 -0.6380
28955SOL     OW89757   2.059   7.115   7.749 -0.0753 -1.2130  0.3421
28955SOL    HW189758   1.965   7.102   7.760 -0.6335  1.0601 -1.0634
28955SOL    HW289759   2.088   7.154   7.832 -0.3961 -1.7167  0.6987
28956SOL     OW89760   5.905   2.566   0.171  0.6669  0.0918  0.0413
28956SOL    HW189761   5.992   2.532   0.149  0.1287 -2.2158  1.1094
28956SOL    HW289762   5.875   2.609   0.091  2.2518 -0.2458 -0.7780
28957SOL     OW89763   4.760   4.201   8.313 -0.0957 -0.6706  0.1352
28957SOL    HW189764   4.788   4.289   8.287 -2.6556  0.0224 -0.5800
28957SOL    HW289765   4.795   4.144   8.245 -1.2777  0.2914 -1.3468
28958SOL     OW89766   2.610   8.074   0.721 -0.2124 -0.2075 -0.1595
28958SOL    HW189767   2.581   8.165   0.733 -1.6883 -0.6375 -0.3372
28958SOL    HW289768   2.641   8.070   0.631  1.8973  0.6229  0.4544
28959SOL     OW89769   0.550   2.377   0.943 -0.0965 -0.0646 -0.6710
28959SOL    HW189770   0.615   2.330   0.995 -0.3677 -0.8981 -1.0765
28959SOL    HW289771   0.528   2.454   0.996 -0.4045 -0.9246  0.4625
28960SOL     OW89772  10.737   6.489   5.396 -0.3878  0.6619  0.1394
28960SOL    HW189773  10.713   6.575   5.431  0.4165  0.4801  1.1793
28960SOL    HW289774  10.691   6.426   5.451 -0.4989  0.4087 -0.2400
28961SOL     OW89775   2.911  10.591   4.365  0.0561 -0.3892  0.1409
28961SOL    HW189776   2.960  10.596   4.283 -0.1114  0.0090  0.0643
28961SOL    HW289777   2.819  10.592   4.338  0.0018 -0.8936  0.2972
28962SOL     OW89778   1.639   6.248   6.653  0.1391  0.4489 -0.3413
28962SOL    HW189779   1.586   6.224   6.577 -0.6986  1.8651 -0.2432
28962SOL    HW289780   1.728   6.225   6.628 -0.1632  0.5598 -1.6097
28963SOL     OW89781   2.832   3.637   0.097 -0.2171 -0.3168  0.3040
28963SOL    HW189782   2.865   3.669   0.181  1.0651  1.5305 -0.8568
28963SOL    HW289783   2.737   3.630   0.110  0.0216 -0.7840  2.1004
28964SOL     OW89784   7.256   3.244   3.767 -0.7197 -0.1961  0.2693
28964SOL    HW189785   7.236   3.302   3.840 -0.1952  1.1305 -0.5940
28964SOL    HW289786   7.224   3.158   3.795 -1.2988  0.4443  1.6896
28965SOL     OW89787   7.969   0.583   1.991 -0.4896 -0.2687 -0.3574
28965SOL    HW189788   8.045   0.538   1.955 -0.0826  0.5904 -0.5909
28965SOL    HW289789   7.929   0.627   1.917 -1.2923 -0.8105 -0.2552
28966SOL     OW89790   9.348  10.207   1.913  0.7307  0.0654 -0.4841
28966SOL    HW189791   9.397  10.281   1.878  0.1769  0.7878  0.2403
28966SOL    HW289792   9.266  10.206   1.863  1.6471 -1.4875 -2.0931
28967SOL     OW89793   7.817   4.027   0.286 -0.6222  0.0552 -0.3246
28967SOL    HW189794   7.775   4.110   0.305  0.8020  0.3978  1.6798
28967SOL    HW289795   7.781   3.999   0.202 -2.1875  1.9765 -0.3309
28968SOL     OW89796   0.521   5.285  10.245 -0.3413 -0.2056  0.0546
28968SOL    HW189797   0.587   5.222  10.215 -0.0308  0.2640 -0.2730
28968SOL    HW289798   0.567   5.369  10.245 -1.0075  0.1689 -0.4137
28969SOL     OW89799   6.262   0.087   5.894 -0.0105 -0.5612  0.1599
28969SOL    HW189800   6.245   0.026   5.822  0.2982 -0.5633  0.0873
28969SOL    HW289801   6.310   0.159   5.853  0.2664 -0.6167  0.3835
28970SOL     OW89802   2.137   8.319   2.875  0.0178  0.0271  0.1707
28970SOL    HW189803   2.047   8.317   2.908  0.4672 -1.5454  1.4055
28970SOL    HW289804   2.186   8.262   2.934  1.6624  0.1492 -1.0018
28971SOL     OW89805   3.642   5.327  10.079 -0.1012  0.9999  0.2822
28971SOL    HW189806   3.735   5.333  10.054  0.1517  0.5756  1.0986
28971SOL    HW289807   3.631   5.398  10.142 -0.1504  0.5969  0.7276
28972SOL     OW89808   5.372   8.078   4.080 -0.3570  0.2281 -0.0003
28972SOL    HW189809   5.375   8.174   4.089  1.6910  0.2960 -0.7972
28972SOL    HW289810   5.328   8.048   4.159 -0.0836  1.7751  0.7850
28973SOL     OW89811   9.108   9.624   2.991  0.2155 -0.6250 -0.0086
28973SOL    HW189812   9.036   9.637   2.930  0.0967  1.1141  0.4628
28973SOL    HW289813   9.186   9.616   2.936  0.1301  1.0627 -0.4278
28974SOL     OW89814   3.540   1.477   6.189  0.1323 -0.3176  0.1200
28974SOL    HW189815   3.554   1.440   6.102 -1.4200 -0.4898 -0.0875
28974SOL    HW289816   3.446   1.466   6.205  0.4967 -0.8782  2.0923
28975SOL     OW89817   1.426   2.808   3.974 -0.3769 -0.1585 -0.5196
28975SOL    HW189818   1.383   2.729   3.941  0.6544 -0.4900 -1.1018
28975SOL    HW289819   1.451   2.786   4.064 -2.9865  0.6668  0.5033
28976SOL     OW89820   3.005   4.701   5.512  0.2625  0.8831  0.1699
28976SOL    HW189821   3.061   4.652   5.572 -1.3927 -0.5467  0.6040
28976SOL    HW289822   2.981   4.638   5.444 -0.5041  1.5924 -0.2344
28977SOL     OW89823   0.726   3.178   5.610  0.1716 -0.0272  0.4929
28977SOL    HW189824   0.643   3.209   5.646  0.0706 -0.3833  0.5700
28977SOL    HW289825   0.748   3.242   5.542  0.2778  0.5584  1.0652
28978SOL     OW89826   1.386  10.537   0.395 -0.4363 -0.1565 -0.0905
28978SOL    HW189827   1.350  10.486   0.467  0.8442  1.1957  1.6066
28978SOL    HW289828   1.314  10.592   0.365 -1.3793 -1.7401 -0.8877
28979SOL     OW89829  10.664   7.203   0.608 -0.4474  0.0097 -0.2852
28979SOL    HW189830  10.591   7.216   0.669  2.0369  1.2025  2.6913
28979SOL    HW289831  10.660   7.279   0.550  1.9224  3.9102  3.9773
28980SOL     OW89832   9.489   5.615   7.346 -0.1559  0.0441 -0.2107
28980SOL    HW189833   9.400   5.629   7.380 -0.2879  0.1293 -0.5872
28980SOL    HW289834   9.491   5.663   7.264  0.4804  0.6476  0.1457
28981SOL     OW89835   6.380   8.678   1.439  0.7001  0.1904 -0.6425
28981SOL    HW189836   6.447   8.683   1.371  1.4305 -0.1995  0.0388
28981SOL    HW289837   6.411   8.610   1.499 -0.0572  0.3551 -0.0451
28982SOL     OW89838   6.220   2.516   5.014 -0.4355  0.6244  0.1414
28982SOL    HW189839   6.173   2.448   5.062  0.8232 -0.3701  0.0196
28982SOL    HW289840   6.238   2.583   5.080 -0.3676  0.1402  0.6247
28983SOL     OW89841   7.979   0.994   0.639  0.2250  0.0947  0.3126
28983SOL    HW189842   8.039   0.972   0.709  1.1928 -1.3232 -0.8905
28983SOL    HW289843   7.892   0.984   0.678  0.7318 -0.9465  1.2423
28984SOL     OW89844  10.668   3.823   6.205  0.2856 -0.3760 -0.5014
28984SOL    HW189845  10.647   3.857   6.292  2.3920  0.6733 -0.3430
28984SOL    HW289846  10.673   3.901   6.150  0.8766 -0.8379 -1.1214
28985SOL     OW89847   6.263  10.390   0.015 -0.6488  0.4506 -0.0682
28985SOL    HW189848   6.205  10.358   0.085  0.2247  0.6351  0.7583
28985SOL    HW289849   6.257  10.485   0.020  0.7368  0.5098  0.9187
28986SOL     OW89850   2.512   0.243   5.560 -0.0951  0.3458 -0.0605
28986SOL    HW189851   2.599   0.213   5.534  0.0891  0.4220  0.4505
28986SOL    HW289852   2.476   0.284   5.481 -0.1979 -0.8450 -0.6507
28987SOL     OW89853   0.109   5.212   4.176  0.0775 -0.2908 -0.5956
28987SOL    HW189854   0.056   5.158   4.235  2.0309 -1.2813  0.3662
28987SOL    HW289855   0.128   5.155   4.102 -0.1787  0.0607 -0.9355
28988SOL     OW89856   4.727   1.391  10.758  0.0601 -0.4786 -0.0326
28988SOL    HW189857   4.781   1.333  10.812 -0.4682 -0.1111  0.9168
28988SOL    HW289858   4.701   1.462  10.818 -0.7286 -0.1796 -0.7095
28989SOL     OW89859   3.616   1.827   3.142 -0.6109 -0.8575  0.4226
28989SOL    HW189860   3.625   1.766   3.069 -1.0105 -0.2605 -0.1415
28989SOL    HW289861   3.626   1.773   3.220  0.8288 -1.3435 -0.0691
28990SOL     OW89862   6.073   7.847   3.895 -0.3579 -0.0765 -0.0813
28990SOL    HW189863   6.130   7.782   3.936 -0.1942  1.6630  2.6892
28990SOL    HW289864   6.004   7.795   3.854 -0.3683 -2.0246  2.1809
28991SOL     OW89865   4.250   5.328   6.941  0.4566  0.2712  0.0111
28991SOL    HW189866   4.206   5.412   6.928 -0.2948 -0.0422  0.4623
28991SOL    HW289867   4.307   5.343   7.017  0.5190  0.4474 -0.0705
28992SOL     OW89868   7.684   0.396   4.772  0.1617 -0.0792  0.0751
28992SOL    HW189869   7.719   0.312   4.802 -1.2088 -1.4811 -1.9935
28992SOL    HW289870   7.596   0.400   4.810  0.8345  1.3590  1.6429
28993SOL     OW89871   9.167  10.663   3.286 -0.2103 -0.5393  0.1973
28993SOL    HW189872   9.174  10.585   3.341  0.2858 -0.8174 -0.2588
28993SOL    HW289873   9.136  10.630   3.202 -1.8385 -0.0052  0.5561
28994SOL     OW89874   5.312   2.959   8.740 -0.8327  0.3479  0.0052
28994SOL    HW189875   5.318   2.864   8.729 -0.3879  0.1475  1.6570
28994SOL    HW289876   5.328   2.994   8.652  0.0970 -1.0662 -0.4343
28995SOL     OW89877   4.281   9.813   8.076 -0.2255  0.0166 -0.6707
28995SOL    HW189878   4.212   9.752   8.098 -0.8007  0.1129 -2.1036
28995SOL    HW289879   4.328   9.828   8.158 -1.4537 -0.6044  0.1606
28996SOL     OW89880   8.966   1.330   6.479 -0.4805 -0.2695  0.3750
28996SOL    HW189881   8.937   1.421   6.482 -1.5421 -0.6122  1.1277
28996SOL    HW289882   8.939   1.293   6.563  1.2779 -0.8962  0.7066
28997SOL     OW89883   2.352   8.723   6.881  0.1337 -0.4195  0.1756
28997SOL    HW189884   2.393   8.660   6.941  0.3862 -1.4794 -1.0802
28997SOL    HW289885   2.275   8.754   6.929  0.9259 -0.4037  1.4907
28998SOL     OW89886   4.478   2.892   4.947  0.1347  0.2765 -0.1041
28998SOL    HW189887   4.510   2.970   4.992 -1.7708  0.0919  1.7215
28998SOL    HW289888   4.486   2.822   5.012  1.2134 -0.9578 -1.4964
28999SOL     OW89889   6.025   4.039   5.693 -0.3574 -0.2811 -0.1019
28999SOL    HW189890   5.960   4.017   5.760 -0.0900  2.3012  1.1455
28999SOL    HW289891   6.106   4.052   5.743  0.6945 -1.6045 -1.3906
29000SOL     OW89892   1.996   3.582   5.388  0.3195  0.3402 -0.1335
29000SOL    HW189893   2.016   3.538   5.305 -0.6166 -0.0654 -0.1650
29000SOL    HW289894   1.900   3.580   5.393  0.3493  0.7054  0.7801
29001SOL     OW89895   0.901   3.642   6.776  0.2578  0.0828  0.5793
29001SOL    HW189896   0.926   3.726   6.815  0.2540  1.0550 -1.3658
29001SOL    HW289897   0.981   3.610   6.735  0.0615 -0.4861  0.6298
29002SOL     OW89898   0.806   4.294   9.191  0.0133 -0.5533  0.2060
29002SOL    HW189899   0.814   4.323   9.100 -0.3179 -1.4756 -0.1207
29002SOL    HW289900   0.808   4.376   9.242 -1.2535  0.0909 -0.7172
29003SOL     OW89901   8.719   1.257   5.883 -0.4793 -0.6696 -0.2643
29003SOL    HW189902   8.717   1.346   5.848  2.7127 -0.2423  0.3667
29003SOL    HW289903   8.689   1.266   5.974  1.7307  0.1959  0.4357
29004SOL     OW89904   5.874   1.714   9.750  0.0709 -0.7720 -0.4284
29004SOL    HW189905   5.879   1.788   9.811 -1.1454 -1.0451  0.0259
29004SOL    HW289906   5.917   1.746   9.670  0.3378  0.1174  0.0565
29005SOL     OW89907  10.244   8.099   7.272  0.0822  0.2701 -0.2656
29005SOL    HW189908  10.179   8.051   7.323  0.0160 -1.8184 -2.1621
29005SOL    HW289909  10.235   8.190   7.301 -2.9163 -0.1103  0.3269
29006SOL     OW89910   0.566   0.940   4.664 -0.5580  0.3782 -0.0938
29006SOL    HW189911   0.552   0.942   4.759  0.1883  1.1192  0.0105
29006SOL    HW289912   0.578   0.847   4.643  1.3587  0.3530  0.8729
29007SOL     OW89913   9.065   5.956   5.032  0.1285 -0.3022 -0.1353
29007SOL    HW189914   9.008   5.922   4.962 -0.3278 -0.4501  0.3050
29007SOL    HW289915   9.024   5.927   5.113 -0.7459  1.9861  0.3054
29008SOL     OW89916   4.416   6.644   1.925 -0.3883 -0.1220 -0.0108
29008SOL    HW189917   4.347   6.581   1.901  0.6618 -1.9341  1.4548
29008SOL    HW289918   4.471   6.596   1.987  0.2947  2.3941  1.4536
29009SOL     OW89919   9.480  10.279   2.138 -0.6221  0.4878 -0.1814
29009SOL    HW189920   9.424  10.248   2.067 -0.9984 -2.0675  1.0942
29009SOL    HW289921   9.430  10.352   2.176 -0.0162  2.4898 -2.9208
29010SOL     OW89922   4.842   1.666   1.288  0.1763  0.5808 -0.5852
29010SOL    HW189923   4.763   1.681   1.235  0.1051 -0.3357 -0.7570
29010SOL    HW289924   4.914   1.696   1.232  0.0066  0.7299 -0.7257
29011SOL     OW89925   8.378   4.615   0.300  0.0714 -0.3603  0.6829
29011SOL    HW189926   8.458   4.620   0.247  0.7455  0.2004  1.7181
29011SOL    HW289927   8.399   4.550   0.367  0.4101  1.1752  2.1385
29012SOL     OW89928   8.312   2.644   9.969  0.5553 -0.0945  0.3903
29012SOL    HW189929   8.278   2.584  10.035  2.2414 -0.4844  0.9702
29012SOL    HW289930   8.386   2.687  10.012 -1.0449  3.0525  0.2814
29013SOL     OW89931   6.359   5.160  10.121 -0.0072  0.4777  0.0450
29013SOL    HW189932   6.429   5.111  10.078 -0.9161 -1.0751  0.2658
29013SOL    HW289933   6.300   5.185  10.050  1.0768  2.3974 -0.2365
29014SOL     OW89934   9.959   4.993  10.160  0.0108  0.2135  0.1238
29014SOL    HW189935  10.036   4.937  10.150  0.6256  1.0063  0.3143
29014SOL    HW289936   9.970   5.035  10.245 -0.8337  0.0357  0.3285
29015SOL     OW89937   6.322   8.941   3.160  0.4246 -0.3235 -0.1019
29015SOL    HW189938   6.415   8.958   3.175 -0.2746  3.4331  0.9248
29015SOL    HW289939   6.288   8.916   3.246 -0.3348  3.6392  0.9400
29016SOL     OW89940   3.005   4.312   1.894 -0.0021 -0.1296 -0.4945
29016SOL    HW189941   3.013   4.407   1.900 -1.0725  0.1390 -2.4328
29016SOL    HW289942   2.914   4.298   1.866  0.2304 -1.6998 -0.5300
29017SOL     OW89943   1.014   4.731   9.890  0.2684 -0.3609 -0.1503
29017SOL    HW189944   0.995   4.778   9.809  2.1018 -0.1281 -0.5013
29017SOL    HW289945   0.938   4.676   9.905 -0.5264  0.3271 -1.5010
29018SOL     OW89946   3.304   7.999   4.430  0.8686  0.1603 -0.0468
29018SOL    HW189947   3.214   8.014   4.457  0.7257 -0.4102 -0.2025
29018SOL    HW289948   3.311   7.904   4.419  1.4757  0.2013 -0.0729
29019SOL     OW89949   0.157   9.387   3.654 -0.4138  0.2529  0.5452
29019SOL    HW189950   0.070   9.418   3.630 -0.3606  0.5180  0.6912
29019SOL    HW289951   0.142   9.299   3.689 -0.6928  0.5072  1.0830
29020SOL     OW89952   6.910   1.470   1.787  0.5890 -0.0333 -0.0615
29020SOL    HW189953   6.942   1.409   1.720 -0.9769  2.0945 -2.9726
29020SOL    HW289954   6.888   1.413   1.862  2.9680 -2.4755 -1.0484
29021SOL     OW89955   1.675   4.277   9.987  0.1990  0.3082  0.1703
29021SOL    HW189956   1.769   4.289   9.999  0.3425  2.2756 -2.0796
29021SOL    HW289957   1.654   4.197  10.035  2.9941 -0.1488  0.7900
29022SOL     OW89958  10.538   8.819   8.746 -0.1047 -0.1802 -0.2667
29022SOL    HW189959  10.514   8.731   8.776  0.5647 -0.5878 -0.8852
29022SOL    HW289960  10.551   8.869   8.827  0.0602 -0.8079  0.1000
29023SOL     OW89961   0.100   1.448   4.893  0.5665  0.4880 -0.5183
29023SOL    HW189962   0.070   1.464   4.804  0.0527  0.3142 -0.3834
29023SOL    HW289963   0.153   1.369   4.888 -1.0533 -0.6504 -0.3662
29024SOL     OW89964   0.516   1.101   2.760  0.1480  0.9171  0.1080
29024SOL    HW189965   0.543   1.146   2.680  0.7480  1.3311  0.5324
29024SOL    HW289966   0.424   1.122   2.770 -0.6305 -1.1113 -1.7775
29025SOL     OW89967   2.552   8.784   7.860  0.3367  0.3807 -0.2075
29025SOL    HW189968   2.494   8.834   7.917 -0.3169  0.3019 -0.8004
29025SOL    HW289969   2.573   8.706   7.910  0.8327  0.9201  0.4566
29026SOL     OW89970  10.167   3.546   5.274  0.6446  0.1427 -0.2086
29026SOL    HW189971  10.138   3.475   5.331 -1.1048  0.5577 -0.5113
29026SOL    HW289972  10.207   3.610   5.334  1.7869 -0.8381  0.1176
29027SOL     OW89973   3.842   8.269   3.476 -0.2992  0.3473 -0.0518
29027SOL    HW189974   3.880   8.292   3.391  0.3290 -1.7912 -0.3982
29027SOL    HW289975   3.828   8.353   3.520  0.4547  1.4249 -1.8026
29028SOL     OW89976   8.256   3.729   1.670 -0.4296  0.3589  0.8249
29028SOL    HW189977   8.343   3.763   1.652 -0.5886  0.7635  0.7956
29028SOL    HW289978   8.259   3.697   1.760 -0.2463  0.3489  0.8143
29029SOL     OW89979   5.781  10.309   2.191 -0.0178  0.0993 -0.1528
29029SOL    HW189980   5.803  10.310   2.098 -0.4729  1.7039 -0.2924
29029SOL    HW289981   5.802  10.221   2.221  1.3187 -0.0658 -1.4874
29030SOL     OW89982   8.483   2.326   3.417 -0.0625 -0.3572 -0.0723
29030SOL    HW189983   8.545   2.392   3.447  0.6319 -0.3032 -1.5374
29030SOL    HW289984   8.487   2.257   3.483  1.0050 -0.0171  0.2406
29031SOL     OW89985  10.778   0.083   8.863 -0.1726 -0.5615  0.0209
29031SOL    HW189986  10.833   0.130   8.801  0.8252  1.3240  2.1784
29031SOL    HW289987  10.695   0.069   8.817  0.8790 -0.2217 -2.0640
29032SOL     OW89988   6.030   5.886   0.698  0.0656 -0.5431 -0.2456
29032SOL    HW189989   6.053   5.870   0.606 -0.4016  0.1147 -0.4918
29032SOL    HW289990   5.939   5.916   0.694  0.1937 -0.0472  0.3879
29033SOL     OW89991   5.374   3.221   8.241  0.1111 -0.4447 -0.8145
29033SOL    HW189992   5.372   3.288   8.173  0.2808  0.2895 -0.1110
29033SOL    HW289993   5.314   3.153   8.210  0.0757 -0.0556 -1.6219
29034SOL     OW89994   0.281   6.223   8.469 -0.5117  0.2579 -0.7391
29034SOL    HW189995   0.370   6.194   8.489 -1.0120 -1.7176 -1.0981
29034SOL    HW289996   0.233   6.209   8.551 -0.4463  1.6101 -0.4540
29035SOL     OW89997   9.285   2.395   8.149 -0.1647  0.1806 -0.0893
29035SOL    HW189998   9.288   2.435   8.062 -0.4798 -1.8772 -1.1064
29035SOL    HW289999   9.254   2.306   8.134  1.9797 -1.0126  1.8353
29036SOL     OW90000   3.174   6.144   0.746  0.1439  0.2425 -0.7556
29036SOL    HW190001   3.227   6.090   0.688  1.0055  0.8199 -0.5325
29036SOL    HW290002   3.096   6.166   0.695  0.1282 -0.5952 -1.1011
29037SOL     OW90003   2.563   2.683  10.001 -0.4176  0.0469 -0.2846
29037SOL    HW190004   2.648   2.691   9.956 -1.6735 -0.8440 -3.0451
29037SOL    HW290005   2.506   2.744   9.955 -1.5785 -0.2385  0.7403
29038SOL     OW90006  10.359   5.228   6.611  0.2129  0.1202 -0.2941
29038SOL    HW190007  10.292   5.259   6.672 -0.0455 -0.9163 -0.0261
29038SOL    HW290008  10.352   5.287   6.536  0.2382  1.1396  0.4947
29039SOL     OW90009   5.453   9.599   9.779  0.0162 -0.5655 -0.3841
29039SOL    HW190010   5.384   9.534   9.792 -1.0327  0.8613  1.7885
29039SOL    HW290011   5.528   9.565   9.827  0.9290 -2.0987 -2.7156
29040SOL     OW90012   7.139   9.857   3.119  0.0029 -0.1097  0.5126
29040SOL    HW190013   7.144   9.889   3.209  2.6473  1.8734 -0.2173
29040SOL    HW290014   7.106   9.931   3.068  1.3086 -0.1955 -0.5209
29041SOL     OW90015   3.415   8.917   0.659  0.1326  0.3442  0.2286
29041SOL    HW190016   3.446   8.985   0.719 -0.0364  1.1687 -0.5931
29041SOL    HW290017   3.462   8.934   0.577 -1.5801  0.8921 -0.6869
29042SOL     OW90018   8.708   1.815   8.855 -0.0653  0.4438 -0.1755
29042SOL    HW190019   8.709   1.820   8.759  0.4812  1.9007 -0.1234
29042SOL    HW290020   8.799   1.832   8.880 -0.7974  4.0867  0.6828
29043SOL     OW90021   8.981   1.302   2.958 -0.3917 -0.0991  0.0207
29043SOL    HW190022   9.020   1.272   3.040  0.1268 -0.5354 -0.3813
29043SOL    HW290023   8.912   1.239   2.939 -0.7648  0.2145  0.3094
29044SOL     OW90024   7.758   5.130  10.070  0.8117  0.4093  0.0850
29044SOL    HW190025   7.789   5.213  10.032  1.0230  0.3509  0.1296
29044SOL    HW290026   7.819   5.064  10.036  0.0135  0.1069 -0.8077
29045SOL     OW90027   9.026   0.496   2.725  0.4896 -0.3706 -0.0489
29045SOL    HW190028   9.059   0.585   2.709 -0.5328  0.3029  1.3495
29045SOL    HW290029   8.931   0.503   2.712  0.3344 -1.1321  0.6053
29046SOL     OW90030   0.073   2.430   8.633 -0.2946  0.4432  0.2355
29046SOL    HW190031   0.054   2.356   8.691 -0.1660  0.0153 -0.2632
29046SOL    HW290032   0.156   2.408   8.592 -0.5253  0.6085 -0.3280
29047SOL     OW90033   5.178   8.275   1.659 -0.0158  0.2538 -0.0445
29047SOL    HW190034   5.176   8.321   1.743 -0.2747  1.5179 -0.7144
29047SOL    HW290035   5.182   8.183   1.683  0.2895  0.5914  1.3562
29048SOL     OW90036   8.790   9.076  10.202 -0.0746 -0.2495  0.6988
29048SOL    HW190037   8.807   8.986  10.177 -1.9422 -0.3481 -0.3353
29048SOL    HW290038   8.813   9.128  10.125 -0.6193 -0.0028  0.6993
29049SOL     OW90039   3.305   1.114  10.155 -0.4096 -0.7516 -0.3280
29049SOL    HW190040   3.392   1.093  10.189 -0.4113 -0.7804 -0.3415
29049SOL    HW290041   3.321   1.147  10.067 -0.3579 -0.1738 -0.1095
29050SOL     OW90042   0.200   9.343   2.432  0.5162 -0.1067 -0.6799
29050SOL    HW190043   0.284   9.350   2.385  0.6705  2.1093 -0.1642
29050SOL    HW290044   0.163   9.431   2.430 -0.7766 -0.5483  0.9910
29051SOL     OW90045   5.168   1.407   3.498  0.0894  0.2249  0.2762
29051SOL    HW190046   5.241   1.468   3.505  1.5554 -1.4180 -0.2236
29051SOL    HW290047   5.201   1.325   3.532 -1.9049 -0.3073  1.0997
29052SOL     OW90048   3.696   8.640  10.411  0.3191 -0.2028 -0.6038
29052SOL    HW190049   3.684   8.733  10.390 -0.1530 -0.6426 -2.4243
29052SOL    HW290050   3.723   8.600  10.328 -1.1189 -1.9920 -0.2558
29053SOL     OW90051   5.943   3.991   6.546  0.4469 -0.6919  0.1455
29053SOL    HW190052   5.878   4.008   6.615  0.8033 -1.2029  0.6093
29053SOL    HW290053   5.978   3.904   6.567  1.4324 -0.3322  0.0191
29054SOL     OW90054   6.832   6.447   6.743  0.6867 -0.7216  0.3968
29054SOL    HW190055   6.900   6.453   6.676  0.3839 -1.7779 -0.0200
29054SOL    HW290056   6.870   6.492   6.819  1.1349  0.2636 -0.3787
29055SOL     OW90057  10.547   3.369   0.931 -0.7966  0.0566 -0.0742
29055SOL    HW190058  10.600   3.428   0.985  0.6470  0.1024 -1.4888
29055SOL    HW290059  10.505   3.310   0.995  1.4032 -0.3532  1.1008
29056SOL     OW90060   3.170   4.756   7.716  0.1828 -0.2286  0.6379
29056SOL    HW190061   3.172   4.851   7.706  1.3101 -0.1230  1.5946
29056SOL    HW290062   3.195   4.740   7.807  0.8646 -1.4552  0.2765
29057SOL     OW90063   4.509   9.490   6.878  0.2722 -0.0943 -0.3915
29057SOL    HW190064   4.566   9.545   6.931 -1.3501  0.3562  0.9542
29057SOL    HW290065   4.454   9.443   6.941  0.3225 -1.8613 -1.5763
29058SOL     OW90066   1.656   6.127   9.633 -0.0296  0.4178 -0.0969
29058SOL    HW190067   1.702   6.084   9.561  0.2349  1.6532 -0.6874
29058SOL    HW290068   1.564   6.106   9.619  0.0636  0.3160 -0.5651
29059SOL     OW90069   0.637   5.981   0.340 -0.0282 -0.5022  0.1471
29059SOL    HW190070   0.547   6.014   0.331 -1.3472 -3.1011  2.0702
29059SOL    HW290071   0.678   6.039   0.404 -1.4974 -1.1482  1.7465
29060SOL     OW90072   1.023   0.724   3.772 -0.2299  0.1258  0.3687
29060SOL    HW190073   1.091   0.779   3.732 -0.5064  0.4817  0.3849
29060SOL    HW290074   0.965   0.701   3.700  0.5079 -1.1005  0.1327
29061SOL     OW90075   8.334   2.053   8.844 -0.1731 -0.7049 -0.4317
29061SOL    HW190076   8.376   2.097   8.770 -0.4207 -1.1129 -0.8200
29061SOL    HW290077   8.313   1.965   8.811  0.7111 -1.2682  0.4725
29062SOL     OW90078   1.058   9.873   4.466  0.2033 -0.1612 -0.2266
29062SOL    HW190079   1.110   9.811   4.415  1.2678 -0.0832  0.7271
29062SOL    HW290080   0.983   9.821   4.496  0.2348 -0.5444 -0.7747
29063SOL     OW90081   9.858  10.601   7.280 -0.4889 -0.2145 -0.3750
29063SOL    HW190082   9.900  10.580   7.363 -0.1303 -0.7831 -0.6941
29063SOL    HW290083   9.823  10.518   7.248 -0.8701  0.0476 -0.6606
29064SOL     OW90084   3.645   8.770   2.308 -0.5030  0.3563  0.0322
29064SOL    HW190085   3.657   8.832   2.380 -0.6439 -0.0971  0.4516
29064SOL    HW290086   3.724   8.716   2.308 -0.6006  0.2105 -0.0087
29065SOL     OW90087   2.705   3.479   9.233  0.2066 -0.6472 -0.2606
29065SOL    HW190088   2.666   3.407   9.283  2.1562 -0.1148  2.2272
29065SOL    HW290089   2.787   3.497   9.277 -0.2307  3.2102 -0.7141
29066SOL     OW90090   5.305   4.291   2.389 -0.2152  0.1712 -0.2484
29066SOL    HW190091   5.392   4.265   2.418 -0.4708  0.5735  0.9345
29066SOL    HW290092   5.320   4.337   2.306  0.6063 -0.4367 -0.4530
29067SOL     OW90093   2.202   0.462  10.228 -0.2146  0.1606  0.1565
29067SOL    HW190094   2.283   0.440  10.274  0.1029  3.0240  1.1611
29067SOL    HW290095   2.219   0.440  10.136  1.5357  0.2599  0.4294
29068SOL     OW90096   8.103   1.326   0.149 -0.6735 -0.2337  0.0915
29068SOL    HW190097   8.197   1.346   0.158 -0.8545  0.2776  0.9558
29068SOL    HW290098   8.098   1.231   0.156 -0.2442 -0.2475  0.2369
29069SOL     OW90099   6.476   1.277   8.430 -0.3599  0.5258 -0.3410
29069SOL    HW190100   6.433   1.250   8.349  1.0922 -0.8948 -0.7095
29069SOL    HW290101   6.457   1.207   8.492  0.6945  0.2661 -0.2797
29070SOL     OW90102   4.418   6.825   1.186  0.4110  0.4495 -0.2680
29070SOL    HW190103   4.416   6.894   1.252 -1.4425 -1.4784  1.8725
29070SOL    HW290104   4.508   6.792   1.189  0.2090 -0.0706  1.9346
29071SOL     OW90105   7.250   9.064   5.055 -0.1990  0.1600 -0.0866
29071SOL    HW190106   7.266   9.003   5.128 -2.1441  1.9984  2.0546
29071SOL    HW290107   7.177   9.118   5.085  0.6980  2.8377 -2.2982
29072SOL     OW90108   3.535   7.547   7.158 -0.1614 -0.1381  0.0029
29072SOL    HW190109   3.555   7.512   7.245 -0.7887  2.2374  1.1858
29072SOL    HW290110   3.517   7.469   7.105  1.3403 -1.7373  1.6602
29073SOL     OW90111   3.963  10.388   4.948  0.6866 -0.2475  0.2014
29073SOL    HW190112   3.955  10.463   5.007  0.1334  0.7712 -1.0963
29073SOL    HW290113   3.913  10.318   4.990 -0.2551  0.6585  0.6386
29074SOL     OW90114   4.596   9.795   6.318 -0.1077  0.5122  0.1866
29074SOL    HW190115   4.651   9.761   6.248 -1.4024  0.9967 -1.1282
29074SOL    HW290116   4.636   9.879   6.341  2.3791 -1.1945  2.5879
29075SOL     OW90117   5.825   3.218   8.028  0.5425  0.4384  0.5131
29075SOL    HW190118   5.822   3.122   8.032  1.0689  0.4186  0.4822
29075SOL    HW290119   5.794   3.246   8.115 -0.1117  0.2585  0.3484
29076SOL     OW90120  10.270   1.768   4.808 -0.2502  0.4155 -0.5796
29076SOL    HW190121  10.331   1.754   4.880 -1.1019  0.6303  0.2137
29076SOL    HW290122  10.224   1.849   4.831 -1.5270 -0.2578 -0.6236
29077SOL     OW90123  10.207   0.442   4.638  0.0617 -1.0753 -0.6172
29077SOL    HW190124  10.255   0.371   4.681 -0.4108 -0.4903  0.9515
29077SOL    HW290125  10.272   0.484   4.581  1.3427 -0.5651  1.1276
29078SOL     OW90126   0.817   4.356   4.422 -0.3333  0.0939  0.4432
29078SOL    HW190127   0.821   4.286   4.357  0.0916 -1.1879  1.7793
29078SOL    HW290128   0.781   4.431   4.375 -0.7620 -1.0035 -1.0601
29079SOL     OW90129   3.187   2.436   0.162  0.4489  0.5335 -0.5321
29079SOL    HW190130   3.273   2.448   0.203  0.9058  0.2263 -1.3690
29079SOL    HW290131   3.169   2.520   0.119  0.6006  0.4189 -0.8280
29080SOL     OW90132   0.195   8.300  10.093  0.1269 -0.5324 -0.5795
29080SOL    HW190133   0.121   8.309  10.153 -0.7406  0.9133 -1.8051
29080SOL    HW290134   0.263   8.355  10.131 -0.6124  0.8360 -1.1614
29081SOL     OW90135   3.061   1.837   7.493 -0.3848 -0.6322  0.6540
29081SOL    HW190136   3.105   1.757   7.465  1.4251 -0.6913  3.3259
29081SOL    HW290137   2.996   1.808   7.556  0.0170 -0.0672  1.3483
29082SOL     OW90138  10.177   4.921   6.612  0.6431 -0.0253  0.0702
29082SOL    HW190139  10.108   4.976   6.650  0.6315  0.9393 -1.2980
29082SOL    HW290140  10.175   4.841   6.666 -0.5975  0.5433  0.9292
29083SOL     OW90141   2.032   5.527   7.799 -0.1961  0.1847 -0.0032
29083SOL    HW190142   1.943   5.507   7.772  0.1450  0.9295 -1.9092
29083SOL    HW290143   2.086   5.464   7.750  0.3533  0.1889  0.5920
29084SOL     OW90144   7.051  10.390   6.173  0.0647  0.4863  0.0305
29084SOL    HW190145   7.078  10.346   6.254  0.1508  0.1773 -0.1654
29084SOL    HW290146   6.963  10.357   6.156  0.2939  0.0565 -0.3477
29085SOL     OW90147   6.572   7.511   6.987  0.0298  0.0896 -0.0782
29085SOL    HW190148   6.644   7.562   6.952  0.1040 -1.1572 -1.9369
29085SOL    HW290149   6.504   7.517   6.920  0.1661 -2.4136 -0.5485
29086SOL     OW90150   5.775   3.790   2.887 -0.1373  0.2317 -0.5446
29086SOL    HW190151   5.835   3.773   2.815 -1.4350 -0.1520 -1.5770
29086SOL    HW290152   5.806   3.734   2.958 -1.5434 -3.1433 -2.3596
29087SOL     OW90153   2.710   2.265   1.237 -0.5677  0.1914 -0.0816
29087SOL    HW190154   2.782   2.204   1.256  1.0425  2.3091  1.0881
29087SOL    HW290155   2.707   2.322   1.313 -2.1919  1.4072 -1.0048
29088SOL     OW90156   8.244   1.532  10.007  0.2673 -0.1326  0.9797
29088SOL    HW190157   8.286   1.446  10.000 -0.5283 -0.6649  2.3888
29088SOL    HW290158   8.316   1.594   9.994  1.0618 -1.0083  1.0512
29089SOL     OW90159   2.302   1.081   2.591  0.6307  0.2440  0.3131
29089SOL    HW190160   2.331   1.090   2.500  0.3553 -1.0525  0.0776
29089SOL    HW290161   2.333   0.995   2.618 -0.6622 -0.0615  0.9230
29090SOL     OW90162   0.610   6.384   4.145 -0.5549 -0.1295  0.2759
29090SOL    HW190163   0.542   6.394   4.212 -0.8476  0.0277 -0.0389
29090SOL    HW290164   0.562   6.359   4.066 -0.1170 -1.4277  0.3797
29091SOL     OW90165   6.120   7.855   5.858 -0.2415  0.0359 -0.1072
29091SOL    HW190166   6.208   7.837   5.892  0.3763  4.2621  1.1443
29091SOL    HW290167   6.064   7.855   5.936 -0.6662  0.6520 -0.4025
29092SOL     OW90168   2.273   0.507   3.462  0.3927  0.2364 -0.1961
29092SOL    HW190169   2.296   0.518   3.554 -1.3815  0.4043  0.2469
29092SOL    HW290170   2.340   0.557   3.415  0.9933  0.6160  1.0152
29093SOL     OW90171   3.540   1.963   5.881  0.0094  0.7009  0.5020
29093SOL    HW190172   3.587   1.880   5.882 -1.6029 -0.2505  0.5289
29093SOL    HW290173   3.581   2.015   5.950  2.7691  1.0009 -1.1745
29094SOL     OW90174   9.540   9.260   3.114 -0.6535  0.1814  0.2844
29094SOL    HW190175   9.455   9.232   3.081 -1.3381  0.8984  1.3877
29094SOL    HW290176   9.597   9.184   3.100 -0.9061  0.3750 -2.3574
29095SOL     OW90177   5.715   4.698   6.579 -0.3424  0.2316  0.6955
29095SOL    HW190178   5.640   4.639   6.578 -0.9305  0.9719 -0.3873
29095SOL    HW290179   5.677   4.786   6.581  0.3545  0.7539 -2.6835
29096SOL     OW90180   7.000   9.482   3.850  0.7460 -0.4069 -0.4843
29096SOL    HW190181   6.910   9.455   3.834  0.4008  0.8558 -0.7666
29096SOL    HW290182   7.025   9.437   3.931 -1.2755  1.7653  1.4743
29097SOL     OW90183   3.021   3.704   2.101 -0.0706 -0.0072 -0.4673
29097SOL    HW190184   2.997   3.752   2.181 -0.7167 -0.5137 -0.3473
29097SOL    HW290185   3.109   3.736   2.080 -0.0952  0.5120  0.1559
29098SOL     OW90186   1.257   4.988   7.526  0.4032  0.4959 -0.1031
29098SOL    HW190187   1.222   5.067   7.567  0.6298 -0.1519  1.4033
29098SOL    HW290188   1.212   4.983   7.441  0.3090  2.1609 -0.1813
29099SOL     OW90189   8.484   2.839   3.249 -0.4791 -0.0273 -0.3541
29099SOL    HW190190   8.492   2.749   3.279 -2.0067 -0.4123 -1.0264
29099SOL    HW290191   8.534   2.890   3.313  1.3174 -1.4362 -0.5549
29100SOL     OW90192   9.507   6.363   7.656 -0.5890  0.2475 -0.7871
29100SOL    HW190193   9.479   6.423   7.726 -1.0563  1.0273 -1.6281
29100SOL    HW290194   9.453   6.285   7.670 -1.0345  0.5835 -0.5627
29101SOL     OW90195   5.486   2.121   7.538 -0.1118  0.3476  0.2157
29101SOL    HW190196   5.404   2.078   7.513 -0.2303 -0.4308  1.8275
29101SOL    HW290197   5.504   2.181   7.466 -2.6352  1.2698  0.2325
29102SOL     OW90198   3.391   4.950  10.388 -0.2740  0.0027 -0.2389
29102SOL    HW190199   3.460   4.943  10.454 -0.8167 -1.2250  0.2250
29102SOL    HW290200   3.364   5.042  10.391  2.2509  0.8597 -1.4082
29103SOL     OW90201   5.728   8.289   6.342  0.4772 -0.0331 -0.3231
29103SOL    HW190202   5.704   8.316   6.253  1.4430 -1.0188 -0.9101
29103SOL    HW290203   5.756   8.370   6.385  0.1991  0.4205 -0.9839
29104SOL     OW90204   8.496  10.742   2.308 -0.1682  0.0824 -0.1748
29104SOL    HW190205   8.575  10.795   2.295 -0.4102  0.3267 -0.7097
29104SOL    HW290206   8.441  10.795   2.366 -0.2380  0.2393 -0.3819
29105SOL     OW90207   6.852   2.131   0.665 -0.5109 -0.0595 -0.7176
29105SOL    HW190208   6.943   2.157   0.654 -0.7122  0.8135 -0.3897
29105SOL    HW290209   6.812   2.144   0.579 -0.5305  0.4181 -0.6400
29106SOL     OW90210   8.256   7.227  10.321 -0.1597 -0.6025  0.4526
29106SOL    HW190211   8.287   7.308  10.362 -0.3490 -0.5814  0.5564
29106SOL    HW290212   8.281   7.158  10.382  1.7696 -0.8499 -0.5530
29107SOL     OW90213   1.916   6.118   6.499  0.0557 -0.7923 -0.3646
29107SOL    HW190214   1.870   6.042   6.463 -0.9266  0.8948 -2.9856
29107SOL    HW290215   2.001   6.117   6.454 -0.1859 -0.0645 -0.8524
29108SOL     OW90216   2.016   6.598   9.033  0.7030  0.1481  0.5745
29108SOL    HW190217   2.003   6.586   9.127 -1.5063  0.5414  0.3779
29108SOL    HW290218   2.047   6.513   9.002  0.9655 -0.1340  1.5597
29109SOL     OW90219   3.169   0.332   6.249 -0.7508 -0.2214  0.3392
29109SOL    HW190220   3.104   0.358   6.314 -0.0152  2.1754  0.2262
29109SOL    HW290221   3.154   0.239   6.236 -4.8733  0.3668 -0.5022
29110SOL     OW90222   8.866   3.274   0.087  0.4225  0.0772  0.1686
29110SOL    HW190223   8.808   3.201   0.109  0.9106  0.1414  1.8606
29110SOL    HW290224   8.858   3.284  -0.008 -1.0721 -0.9582  0.1463
29111SOL     OW90225   4.212   3.508   6.936  0.3510 -0.1380  0.2005
29111SOL    HW190226   4.296   3.477   6.971 -0.4544 -0.9700  1.4515
29111SOL    HW290227   4.201   3.460   6.854  1.2355  0.2093 -0.1317
29112SOL     OW90228  10.069   0.997  10.156  0.3297 -0.2322 -0.8809
29112SOL    HW190229   9.981   0.961  10.167 -0.1875  1.1478 -0.3790
29112SOL    HW290230  10.075   1.017  10.063  0.3679 -0.9529 -1.0394
29113SOL     OW90231   7.705   3.079  10.592 -0.2113 -0.2861 -0.6571
29113SOL    HW190232   7.622   3.120  10.614  0.5865  0.4372  1.1605
29113SOL    HW290233   7.753   3.145  10.542  0.9199  0.9880  1.9425
29114SOL     OW90234  10.791   4.466   6.368 -1.1081 -0.0126 -0.8971
29114SOL    HW190235  10.833   4.548   6.392 -1.5014  0.3339 -1.3656
29114SOL    HW290236  10.835   4.439   6.287 -0.7152 -0.4703 -0.5377
29115SOL     OW90237   4.694   6.955  10.201  0.0957  0.0807 -0.5242
29115SOL    HW190238   4.662   6.923  10.286 -1.5250  1.2713 -0.6474
29115SOL    HW290239   4.783   6.920  10.195  0.5677  0.6391  2.0333
29116SOL     OW90240   7.120   6.561   0.287 -0.0301 -0.3407 -0.3083
29116SOL    HW190241   7.202   6.606   0.268  0.7581 -2.1412 -1.4603
29116SOL    HW290242   7.122   6.546   0.381  0.7193  0.0668 -0.2515
29117SOL     OW90243   1.207   7.831   9.601  0.4804  0.1256  0.0330
29117SOL    HW190244   1.221   7.737   9.611  0.8358  0.1583 -0.1256
29117SOL    HW290245   1.163   7.840   9.516  0.6858  0.1180 -0.0775
29118SOL     OW90246   4.145   1.089   6.855  0.5328 -0.1087  0.1812
29118SOL    HW190247   4.145   1.140   6.774 -0.1881 -2.8060 -1.6289
29118SOL    HW290248   4.067   1.120   6.902 -0.6950 -0.4273 -1.5291
29119SOL     OW90249   3.950   7.594   1.205 -0.3256 -0.1036  0.3719
29119SOL    HW190250   3.903   7.552   1.277  0.0627 -0.0953  0.6322
29119SOL    HW290251   3.883   7.648   1.161 -0.5324  0.0120  0.8164
29120SOL     OW90252   4.138   2.427   4.965 -0.1881  0.0442  0.5244
29120SOL    HW190253   4.131   2.348   4.912 -1.2282 -1.5398  2.8702
29120SOL    HW290254   4.050   2.465   4.965 -0.1937  0.0410  1.0729
29121SOL     OW90255   2.120   2.264   8.174  0.2729  0.9924  0.1360
29121SOL    HW190256   2.050   2.247   8.110  1.1779 -0.3741 -0.5307
29121SOL    HW290257   2.073   2.283   8.255 -0.9267 -0.8534 -0.0516
29122SOL     OW90258  10.093   2.042   8.020  0.6586 -0.0700  0.3713
29122SOL    HW190259  10.119   2.107   8.085  1.6561 -0.2328  0.1549
29122SOL    HW290260  10.145   1.965   8.041 -2.0320 -1.5987  1.9620
29123SOL     OW90261   0.301   1.284   2.404 -0.2279  0.4991 -0.3395
29123SOL    HW190262   0.390   1.274   2.440  0.2318  0.6335 -1.4002
29123SOL    HW290263   0.305   1.363   2.351 -1.2968  1.1141  0.4608
29124SOL     OW90264   2.761   0.915   3.582 -0.0494 -0.0102 -0.1301
29124SOL    HW190265   2.743   0.960   3.664 -1.2511  0.0300 -0.3909
29124SOL    HW290266   2.702   0.840   3.582 -0.6306  0.4170 -1.2757
29125SOL     OW90267   9.751   0.960   3.530  0.4169 -0.4084  0.2274
29125SOL    HW190268   9.675   1.013   3.508  1.5634  1.4912  0.5480
29125SOL    HW290269   9.737   0.877   3.484 -0.9537  0.5571 -1.2155
29126SOL     OW90270  10.090   7.767   8.355 -0.7375  0.6100  0.1082
29126SOL    HW190271  10.184   7.749   8.351 -0.2661  2.9831 -0.9114
29126SOL    HW290272  10.068   7.759   8.448  0.0581 -1.6197  0.1705
29127SOL     OW90273   6.437   9.731   1.472 -0.3505 -0.1871 -0.8220
29127SOL    HW190274   6.504   9.697   1.413 -0.9838 -0.2190 -1.5361
29127SOL    HW290275   6.355   9.697   1.437 -0.7397 -0.2074  0.0819
29128SOL     OW90276   8.251   5.025   0.392 -0.2802 -0.3984 -0.0844
29128SOL    HW190277   8.234   4.938   0.429  0.3304 -0.3671  0.2662
29128SOL    HW290278   8.180   5.037   0.329 -0.6427 -0.9528  0.2037
29129SOL     OW90279   8.991   0.585  10.665 -0.0420  0.2960  0.6663
29129SOL    HW190280   9.005   0.613  10.574 -1.9988  0.7458  0.4607
29129SOL    HW290281   9.058   0.518  10.680 -1.2484 -1.6867 -1.9771
29130SOL     OW90282   8.373   2.623   7.746 -0.1163  0.1880 -0.2479
29130SOL    HW190283   8.316   2.572   7.689 -0.4119 -0.1846  0.3640
29130SOL    HW290284   8.330   2.620   7.831 -0.1962  1.5453 -0.2126
29131SOL     OW90285   3.351   2.007   6.649  0.2506  0.1133  0.8460
29131SOL    HW190286   3.372   1.957   6.569 -1.7099 -0.8820  0.8980
29131SOL    HW290287   3.431   2.003   6.701  1.3509  0.2039 -0.7632
29132SOL     OW90288   8.659  10.317   1.466 -0.2362  0.3984  0.5978
29132SOL    HW190289   8.576  10.365   1.477  0.2409  1.4897 -0.3601
29132SOL    HW290290   8.653  10.245   1.528 -1.6185  0.8559  1.0377
29133SOL     OW90291   8.513   9.246   1.394 -0.2635 -0.3100 -0.0933
29133SOL    HW190292   8.580   9.202   1.445 -0.2071  1.3882  1.4154
29133SOL    HW290293   8.469   9.304   1.457 -0.6816  1.3340 -1.8046
29134SOL     OW90294   2.634   3.290   7.748  0.0611  0.1497 -0.0774
29134SOL    HW190295   2.722   3.317   7.723  0.2410  1.6024  1.8899
29134SOL    HW290296   2.648   3.210   7.799 -0.0090 -0.9018 -1.6453
29135SOL     OW90297   5.142   7.104   9.148  0.1058  0.3556  0.0710
29135SOL    HW190298   5.227   7.111   9.105  1.1923  0.2545  2.1003
29135SOL    HW290299   5.120   7.011   9.143 -1.0899  0.6929 -2.5344
29136SOL     OW90300   7.336   2.354   7.130  0.0722  0.0449 -0.0384
29136SOL    HW190301   7.254   2.304   7.128  1.1332 -1.8974 -3.5208
29136SOL    HW290302   7.316   2.433   7.080  0.0759 -0.0679 -0.2225
29137SOL     OW90303   9.072  10.471   8.060 -0.2875  0.3565 -0.3201
29137SOL    HW190304   9.077  10.565   8.046 -0.5821  0.4912  0.4163
29137SOL    HW290305   9.116  10.432   7.985 -0.7885  1.0603 -0.9840
29138SOL     OW90306   4.336   6.573   5.103 -0.6132 -0.0321  0.2618
29138SOL    HW190307   4.410   6.594   5.160 -0.4456 -1.2165  0.5149
29138SOL    HW290308   4.367   6.593   5.015 -0.2222  0.1050  0.4291
29139SOL     OW90309   7.932  10.631   0.939  0.2970  0.0997  0.4498
29139SOL    HW190310   7.837  10.626   0.929  0.2898  0.0979  0.5173
29139SOL    HW290311   7.964  10.667   0.856  0.1607  0.9564  0.7602
29140SOL     OW90312   6.211   4.368   1.707 -0.6963  0.0517 -0.6744
29140SOL    HW190313   6.238   4.434   1.771  1.3102 -0.6359 -0.7426
29140SOL    HW290314   6.135   4.406   1.664 -1.0529  1.2670  0.9336
29141SOL     OW90315   0.106   0.440  10.739 -0.0066  0.1469 -0.1588
29141SOL    HW190316   0.169   0.390  10.688  2.4465 -0.1520  2.8824
29141SOL    HW290317   0.134   0.531  10.728  0.6487  0.0646  0.7422
29142SOL     OW90318   7.758   1.421   1.099 -0.1863 -0.1430  0.7677
29142SOL    HW190319   7.813   1.406   1.176  0.0487  1.4128  0.9244
29142SOL    HW290320   7.670   1.434   1.135 -0.3278 -0.7611  0.6572
29143SOL     OW90321   5.484   1.929   8.445 -0.4304  0.0191  0.6835
29143SOL    HW190322   5.413   1.864   8.448 -1.1152  0.7216 -0.0421
29143SOL    HW290323   5.561   1.880   8.472 -1.1167 -0.8606  1.1142
29144SOL     OW90324   7.894   5.807  10.548 -0.5211  0.5672  0.3297
29144SOL    HW190325   7.952   5.882  10.538  0.2772  0.0413  0.8188
29144SOL    HW290326   7.839   5.829  10.623 -0.0148  0.5106  0.7286
29145SOL     OW90327   1.223   3.051   7.240  0.0853  0.6190 -0.0594
29145SOL    HW190328   1.236   3.088   7.153  0.6552  1.3153  0.3149
29145SOL    HW290329   1.308   3.059   7.283 -0.1866  0.2645  0.5567
29146SOL     OW90330   7.748  10.434   1.219 -0.2575  0.3296  0.3182
29146SOL    HW190331   7.719  10.516   1.260  1.8890  0.8475  0.9511
29146SOL    HW290332   7.734  10.367   1.286  1.3609  0.8318  1.1931
29147SOL     OW90333   1.774   6.679   8.970  0.2309 -0.0675  0.5765
29147SOL    HW190334   1.749   6.674   8.878 -0.2690 -0.5850  0.7407
29147SOL    HW290335   1.864   6.645   8.972 -0.0672 -0.8931  0.4010
29148SOL     OW90336   9.465   7.918  10.270  0.3129  0.0698  0.2596
29148SOL    HW190337   9.439   7.852  10.207  0.0360 -0.0921  0.5413
29148SOL    HW290338   9.547   7.885  10.308 -0.7803 -1.0746  1.7796
29149SOL     OW90339   9.239   9.756   7.574 -0.3151 -0.1435  0.9151
29149SOL    HW190340   9.186   9.836   7.566 -1.8908 -0.9387  2.6661
29149SOL    HW290341   9.193   9.692   7.521  0.8903  0.0276 -0.4002
29150SOL     OW90342   1.256   8.878   7.287 -0.2846 -0.3938 -0.2929
29150SOL    HW190343   1.241   8.788   7.315  2.1849 -1.0991 -0.9692
29150SOL    HW290344   1.218   8.881   7.199  0.8377 -1.2514 -0.8405
29151SOL     OW90345   8.433   7.272   9.287  0.6045  0.6961  0.3063
29151SOL    HW190346   8.502   7.317   9.238  1.2304 -1.9497 -1.4245
29151SOL    HW290347   8.352   7.310   9.252  1.1095  0.9863 -0.5930
29152SOL     OW90348   6.773  10.096   4.722  0.1357  0.1629 -0.1753
29152SOL    HW190349   6.723  10.055   4.793  0.6690 -1.5362 -0.7209
29152SOL    HW290350   6.706  10.126   4.660 -0.3054 -2.4808 -1.1128
29153SOL     OW90351   6.338   5.321   3.023  0.2272 -0.5928 -0.3527
29153SOL    HW190352   6.418   5.357   2.986 -0.3433 -0.1593 -1.1718
29153SOL    HW290353   6.276   5.318   2.950 -0.5384 -0.8333  0.2889
29154SOL     OW90354   4.732   5.700   0.685 -0.0856 -0.1884  0.6581
29154SOL    HW190355   4.729   5.717   0.779 -1.7472  1.3992  0.3690
29154SOL    HW290356   4.714   5.607   0.677  0.5325 -0.4449  1.9082
29155SOL     OW90357   8.101   1.380   3.574  0.3541  0.3637 -0.1162
29155SOL    HW190358   8.135   1.467   3.591  0.3562  0.4499 -0.5537
29155SOL    HW290359   8.120   1.330   3.654 -0.4266  0.9963  0.4844
29156SOL     OW90360   4.260   5.177   8.630  0.3259 -0.5266 -0.1846
29156SOL    HW190361   4.338   5.204   8.582 -0.2464  0.2403 -0.7007
29156SOL    HW290362   4.197   5.154   8.562  0.1069 -1.1724  0.2313
29157SOL     OW90363   2.947   1.483   0.899  0.3871 -0.2548 -0.2511
29157SOL    HW190364   2.989   1.398   0.885  0.7038 -0.1725  0.1572
29157SOL    HW290365   3.020   1.545   0.903  0.3800 -0.2966  1.8932
29158SOL     OW90366   3.333   1.902   6.940  0.0057  0.2118 -0.6638
29158SOL    HW190367   3.409   1.852   6.970 -0.5642  0.2552  0.9205
29158SOL    HW290368   3.370   1.985   6.909  0.5252  0.9718  1.7376
29159SOL     OW90369   7.136   6.445   8.581 -0.0325 -0.4454 -0.3453
29159SOL    HW190370   7.096   6.429   8.666  3.0279 -2.3803  0.9222
29159SOL    HW290371   7.230   6.446   8.598  0.8008 -2.0996 -3.8143
29160SOL     OW90372   8.889   4.241   6.575 -0.5328 -0.0329  0.4529
29160SOL    HW190373   8.809   4.188   6.565 -0.5588  0.1663 -0.5438
29160SOL    HW290374   8.954   4.194   6.522  0.4382 -0.9806  2.3745
29161SOL     OW90375   9.194   1.896   4.215  0.2682 -0.3691  0.0112
29161SOL    HW190376   9.229   1.924   4.131  1.9359 -0.8969  0.4878
29161SOL    HW290377   9.195   1.801   4.211 -0.1247 -0.3952  0.4504
29162SOL     OW90378   2.721   9.312   6.387 -0.3952  0.0176 -0.4308
29162SOL    HW190379   2.632   9.345   6.397 -1.7152 -3.2925  0.1132
29162SOL    HW290380   2.759   9.318   6.475 -0.5143  0.3712 -0.4040
29163SOL     OW90381   7.874   8.819   4.823  0.1992 -0.1485 -0.2405
29163SOL    HW190382   7.819   8.828   4.901 -0.7809  0.7005 -0.9940
29163SOL    HW290383   7.813   8.825   4.750  1.1067 -0.8794 -1.0900
29164SOL     OW90384   6.700   1.479   4.496 -0.3932  0.2433 -0.2416
29164SOL    HW190385   6.760   1.513   4.430  0.0928 -0.9909 -0.4683
29164SOL    HW290386   6.695   1.385   4.478 -2.4711  0.3168 -0.2876
29165SOL     OW90387   3.987   9.847   4.753  0.7920  0.5362 -0.3015
29165SOL    HW190388   4.005   9.837   4.660  1.7264 -0.1357 -0.0527
29165SOL    HW290389   4.070   9.830   4.797  0.5580  1.5896  0.6280
29166SOL     OW90390   3.914   8.085   2.610 -0.2011 -0.1447 -0.0164
29166SOL    HW190391   4.005   8.056   2.604  0.0515  0.7547 -0.6977
29166SOL    HW290392   3.882   8.047   2.692  0.5540 -1.0850 -0.1432
29167SOL     OW90393   8.821   6.403   3.102 -0.0081 -0.1900 -0.1391
29167SOL    HW190394   8.840   6.309   3.109  0.7812 -0.0343 -0.1231
29167SOL    HW290395   8.783   6.413   3.015 -0.2578 -0.5513 -0.0723
29168SOL     OW90396   4.054   5.002   9.182 -0.4462 -0.3443 -0.1354
29168SOL    HW190397   4.099   5.035   9.104 -1.4242  0.0471 -0.5491
29168SOL    HW290398   4.112   4.932   9.215  1.0724  0.9529  0.0865
29169SOL     OW90399   5.121   7.366   0.835 -0.0887 -0.7278  0.7406
29169SOL    HW190400   5.197   7.311   0.855 -0.4510 -2.4703 -2.0322
29169SOL    HW290401   5.047   7.321   0.874 -0.0491 -0.6070  0.9577
29170SOL     OW90402   6.218   4.442   1.315 -0.1104 -0.5464  0.1952
29170SOL    HW190403   6.138   4.393   1.333 -0.5922 -0.0331 -0.4894
29170SOL    HW290404   6.250   4.407   1.232 -0.5928  0.4319 -0.4277
29171SOL     OW90405   5.651   7.702   4.376 -0.8650 -0.0478 -0.5280
29171SOL    HW190406   5.742   7.676   4.387 -0.6221  0.3059 -1.5999
29171SOL    HW290407   5.623   7.729   4.464  0.5530  1.3765 -0.4643
29172SOL     OW90408   8.467   8.085   6.468  0.0784 -0.0424 -0.6301
29172SOL    HW190409   8.468   8.023   6.395  0.8526  0.6625 -1.2279
29172SOL    HW290410   8.539   8.145   6.451 -0.1217  0.5217  0.3879
29173SOL     OW90411   7.109   0.318   0.179 -0.1962 -0.7239 -0.5079
29173SOL    HW190412   7.142   0.408   0.176 -1.4111 -0.2581 -0.8279
29173SOL    HW290413   7.055   0.315   0.258  0.9783 -1.6114  0.2801
29174SOL     OW90414  10.127   6.417   9.213 -0.4595  0.3219 -0.1837
29174SOL    HW190415  10.218   6.405   9.238 -0.8480  1.0690  1.7333
29174SOL    HW290416  10.102   6.333   9.172  1.1473  0.2442 -1.0797
29175SOL     OW90417   5.076   1.378   2.253 -0.1881  0.2255  0.1070
29175SOL    HW190418   5.029   1.316   2.197 -0.1191 -2.0453  2.3799
29175SOL    HW290419   5.008   1.417   2.308  0.0280  0.6222  0.0965
29176SOL     OW90420   5.638   3.475   9.534 -0.4394 -0.1202  0.4243
29176SOL    HW190421   5.554   3.501   9.572 -0.4591 -0.4907  0.6361
29176SOL    HW290422   5.703   3.519   9.588 -0.3695 -2.4723  2.3945
29177SOL     OW90423   7.826   1.097   1.278 -0.4109  0.3995 -0.6333
29177SOL    HW190424   7.841   1.191   1.290 -0.7423  0.2796  0.8940
29177SOL    HW290425   7.880   1.055   1.345 -0.8093 -0.4756 -0.8447
29178SOL     OW90426   5.276   7.249   8.009  0.5035  0.0949  0.6697
29178SOL    HW190427   5.318   7.275   7.927  2.6846 -1.3699  1.2380
29178SOL    HW290428   5.322   7.298   8.077  1.8216 -1.9423  1.3516
29179SOL     OW90429   2.847   3.013  10.155 -0.1071  0.0259  0.1413
29179SOL    HW190430   2.762   3.036  10.193  1.4573  2.0121  2.8217
29179SOL    HW290431   2.863   3.081  10.090 -0.7178 -0.6194 -0.7080
29180SOL     OW90432   4.230   3.486   8.278  0.1556 -0.0983 -0.0461
29180SOL    HW190433   4.161   3.489   8.211  1.9633  0.4596 -1.9997
29180SOL    HW290434   4.249   3.393   8.288 -1.5279 -0.3543  1.3096
29181SOL     OW90435   8.576   3.670   5.488  0.0666  0.1609 -0.3600
29181SOL    HW190436   8.525   3.625   5.420  1.5220 -0.9682 -0.7504
29181SOL    HW290437   8.644   3.717   5.439  0.0995  0.7268  0.2224
29182SOL     OW90438   3.410   2.981   3.098 -0.0529  0.0002 -0.0658
29182SOL    HW190439   3.317   2.996   3.082  0.1577  0.4132 -0.9493
29182SOL    HW290440   3.418   2.886   3.107 -0.0515 -0.4703 -3.6505
29183SOL     OW90441   9.260   9.938  10.376 -0.2358  0.5626 -0.3593
29183SOL    HW190442   9.173   9.899  10.366 -0.1014 -0.5209  2.1872
29183SOL    HW290443   9.250  10.002  10.447  1.2566 -0.3479  0.7198
29184SOL     OW90444   7.827   0.247   5.949  0.3153  0.1621  0.3589
29184SOL    HW190445   7.748   0.195   5.958 -0.3461  0.8648 -1.1088
29184SOL    HW290446   7.797   0.334   5.924  1.5129  0.6610  0.5635
29185SOL     OW90447   5.736   3.723   8.507  0.6233  0.1406  0.0838
29185SOL    HW190448   5.808   3.660   8.501 -0.9796 -1.8219  0.3804
29185SOL    HW290449   5.661   3.671   8.536 -0.6806  2.3040  0.8559
29186SOL     OW90450   0.834   6.768   5.837 -0.3954 -0.3553  0.5244
29186SOL    HW190451   0.768   6.702   5.817 -1.5972  1.1486 -0.8528
29186SOL    HW290452   0.863   6.799   5.751  0.5506  0.4910  1.1253
29187SOL     OW90453   0.465  10.225   2.718  0.1185  0.3193  0.2266
29187SOL    HW190454   0.435  10.208   2.807 -1.4856  1.6210  0.0054
29187SOL    HW290455   0.403  10.178   2.663 -0.8888  2.0553 -0.2231
29188SOL     OW90456   4.970   2.931   0.861 -0.8765 -0.4045 -0.2402
29188SOL    HW190457   4.926   3.012   0.835  1.1093  1.1455  0.9385
29188SOL    HW290458   5.041   2.959   0.919  0.3825 -2.9274 -0.3989
29189SOL     OW90459   0.357   7.256  10.121  0.2619 -0.4276 -0.3135
29189SOL    HW190460   0.415   7.289  10.052  0.5291  1.4471  0.7289
29189SOL    HW290461   0.312   7.334  10.153 -1.0310 -1.4999  0.5617
29190SOL     OW90462   0.207   2.890   3.507 -0.0299 -0.2599 -0.6000
29190SOL    HW190463   0.206   2.800   3.539 -0.0129  0.3784  1.3324
29190SOL    HW290464   0.255   2.939   3.574  0.5144  1.0974 -1.9198
29191SOL     OW90465   3.770   4.224   4.286  0.1628  0.2470 -0.5153
29191SOL    HW190466   3.861   4.252   4.297  0.6107 -1.2093 -0.2558
29191SOL    HW290467   3.718   4.300   4.311  1.2395 -0.1528  3.7499
29192SOL     OW90468   4.721   5.436   7.686 -0.7616  0.7859 -0.0041
29192SOL    HW190469   4.658   5.407   7.620 -0.0101  3.3694 -2.0211
29192SOL    HW290470   4.723   5.532   7.677  0.6070  1.1101  2.6854
29193SOL     OW90471   7.711  10.617   4.379  0.2053  0.4443 -0.4566
29193SOL    HW190472   7.718  10.692   4.438 -1.4996 -0.8011  1.4251
29193SOL    HW290473   7.687  10.544   4.435  0.5602 -1.2635 -2.4283
29194SOL     OW90474   8.065   1.273   8.190  0.0810 -0.7698 -0.0861
29194SOL    HW190475   8.017   1.345   8.149  2.3492  1.2398  0.5452
29194SOL    HW290476   8.015   1.252   8.268  0.3036  1.4955  0.7402
29195SOL     OW90477   5.504   1.820  10.077  0.4270 -0.2767  0.2651
29195SOL    HW190478   5.513   1.879  10.152 -0.2604 -0.5400  0.5727
29195SOL    HW290479   5.495   1.878  10.001  0.6742 -0.0024  0.4455
29196SOL     OW90480   1.575   0.163   6.501 -0.3919  0.3321 -0.0746
29196SOL    HW190481   1.516   0.117   6.443 -2.2988  0.4145  1.6743
29196SOL    HW290482   1.604   0.240   6.452  0.2708 -0.9902 -1.8381
29197SOL     OW90483   1.558   1.391   1.091 -0.6341 -0.0643  0.3185
29197SOL    HW190484   1.631   1.407   1.152 -0.3778  0.7924 -0.1886
29197SOL    HW290485   1.514   1.476   1.085 -1.5250 -0.5104  0.4120
29198SOL     OW90486   9.110   0.225   9.445  0.1266 -0.0517 -0.3446
29198SOL    HW190487   9.101   0.257   9.355 -0.0330  0.0131 -0.3056
29198SOL    HW290488   9.202   0.201   9.452  0.3624  0.8576 -0.2249
29199SOL     OW90489   4.005   0.639   8.807 -0.0539 -0.1001 -0.8922
29199SOL    HW190490   4.004   0.656   8.713 -1.2815  1.4999 -0.6528
29199SOL    HW290491   3.936   0.575   8.821 -0.9327  0.8165 -0.9317
29200SOL     OW90492   0.223   9.561   5.228 -0.0735 -0.1705 -0.9937
29200SOL    HW190493   0.253   9.502   5.297  2.6612  3.4825  1.3592
29200SOL    HW290494   0.283   9.546   5.155 -0.2431 -1.1118 -0.9545
29201SOL     OW90495   1.347   5.229   8.859 -0.4227 -0.0318 -0.5356
29201SOL    HW190496   1.400   5.164   8.905  1.1800  0.3733 -1.7087
29201SOL    HW290497   1.322   5.185   8.777  0.6910  0.7879 -1.3483
29202SOL     OW90498   4.695   7.844   7.490  0.1598 -0.0226 -0.7590
29202SOL    HW190499   4.658   7.914   7.435  0.2066  0.0418 -0.7086
29202SOL    HW290500   4.786   7.838   7.462  0.2437  0.1696 -0.5280
29203SOL     OW90501   8.970  10.385   7.525  0.5170 -0.2697 -0.1051
29203SOL    HW190502   8.981  10.347   7.612  0.0723  0.1170  0.1255
29203SOL    HW290503   9.048  10.441   7.514 -0.6010  1.6632  1.1037
29204SOL     OW90504   9.481   2.756   0.764  0.2995  0.1055 -0.0143
29204SOL    HW190505   9.416   2.780   0.698  0.0255  1.2152  0.6358
29204SOL    HW290506   9.497   2.663   0.749 -1.4191 -0.2007 -0.2188
29205SOL     OW90507   6.594   9.104   6.916  0.2002 -0.4159 -0.4635
29205SOL    HW190508   6.678   9.138   6.946  0.4557  0.1510 -1.7745
29205SOL    HW290509   6.531   9.137   6.980  0.7426  0.6833 -0.4662
29206SOL     OW90510   8.799   2.774   9.135  0.3212  0.9832  0.0789
29206SOL    HW190511   8.762   2.691   9.105 -1.7469  1.9610 -0.2519
29206SOL    HW290512   8.885   2.751   9.170 -1.0263 -1.6415  1.9809
29207SOL     OW90513   8.109   2.462   6.974  0.2568  0.4391 -0.7036
29207SOL    HW190514   8.169   2.391   6.997 -1.2593 -0.9107 -0.7540
29207SOL    HW290515   8.145   2.499   6.893  0.4064 -1.1206 -1.3818
29208SOL     OW90516   3.852   4.688  10.639  0.0599 -0.5394 -0.5994
29208SOL    HW190517   3.813   4.601  10.631 -0.1310 -0.5215  0.0454
29208SOL    HW290518   3.945   4.672  10.654 -0.0891 -0.6692  0.2655
29209SOL     OW90519   8.196   5.759   9.947 -0.2571 -0.1394 -0.4720
29209SOL    HW190520   8.291   5.754   9.941 -0.2932 -0.9999 -0.5321
29209SOL    HW290521   8.173   5.843   9.908  0.5430  0.5069  0.4100
29210SOL     OW90522   4.499   3.688   5.493  0.3571 -0.2398  0.2283
29210SOL    HW190523   4.429   3.685   5.427  0.2549 -1.1502  0.3719
29210SOL    HW290524   4.518   3.781   5.502  0.2898 -0.0866 -1.0024
29211SOL     OW90525   9.999   2.193   8.605 -0.1303 -0.2693  0.3488
29211SOL    HW190526  10.019   2.230   8.691 -2.0688  1.2565  0.2307
29211SOL    HW290527   9.913   2.230   8.583 -0.6868 -2.3317 -1.2933
29212SOL     OW90528   0.087   0.209   8.251  0.0695 -0.3163 -0.1938
29212SOL    HW190529   0.029   0.213   8.174 -0.1326  1.5454  0.0007
29212SOL    HW290530   0.034   0.167   8.319 -0.0919 -1.0945 -0.7917
29213SOL     OW90531   8.178   0.393   2.913  0.2369  0.6718  0.0505
29213SOL    HW190532   8.213   0.318   2.961  0.1864  0.6945  0.1243
29213SOL    HW290533   8.087   0.399   2.942 -0.3217 -0.3903 -1.3516
29214SOL     OW90534   5.153   2.835   8.299 -0.1165  0.3122 -0.0307
29214SOL    HW190535   5.087   2.779   8.257  0.2859 -0.2409  0.0495
29214SOL    HW290536   5.195   2.778   8.364 -1.4210  1.4504  1.8963
29215SOL     OW90537   2.771   5.205   7.951  0.8414 -0.3873 -0.3986
29215SOL    HW190538   2.848   5.171   7.998 -0.0426 -0.9470  0.6953
29215SOL    HW290539   2.717   5.245   8.019 -0.7151 -1.6510 -0.8232
29216SOL     OW90540   3.977   0.569  10.625 -0.0368 -0.2641  0.1137
29216SOL    HW190541   3.973   0.512  10.548 -1.3483  0.3879 -0.3430
29216SOL    HW290542   4.040   0.637  10.601  1.0209 -1.1222  0.3979
29217SOL     OW90543   2.177   5.285   5.613  0.1096 -0.0754 -0.4073
29217SOL    HW190544   2.168   5.271   5.519 -0.5719 -0.3624 -0.3066
29217SOL    HW290545   2.104   5.342   5.636 -0.4985 -1.0382  0.1525
29218SOL     OW90546   2.742   7.351   4.719  1.0570 -0.2575 -0.2580
29218SOL    HW190547   2.719   7.274   4.770  0.4185 -0.9648 -1.5560
29218SOL    HW290548   2.808   7.321   4.657 -1.1878 -0.6014 -2.7169
29219SOL     OW90549   4.921  10.284   1.417  0.6846 -0.0927 -0.2061
29219SOL    HW190550   4.886  10.348   1.356  1.7901 -1.1684 -2.0854
29219SOL    HW290551   5.011  10.269   1.387  0.3331 -2.8296 -0.1753
29220SOL     OW90552   0.067   1.667   6.378 -0.3320 -0.3025 -0.0174
29220SOL    HW190553   0.008   1.725   6.427 -0.8238 -2.1360  1.7017
29220SOL    HW290554   0.139   1.650   6.439 -0.9045 -2.5646  0.1057
29221SOL     OW90555   9.968   7.181   8.145 -0.3990  0.0613 -0.2734
29221SOL    HW190556  10.043   7.183   8.085  0.4113  0.2557  0.7220
29221SOL    HW290557   9.934   7.270   8.143 -0.3081  0.0949 -0.3497
29222SOL     OW90558   7.420   3.073   1.356  0.2320 -0.3190 -0.4779
29222SOL    HW190559   7.436   3.166   1.376 -1.1934 -0.3053  0.7218
29222SOL    HW290560   7.357   3.075   1.284 -2.9734 -0.2327  2.1227
29223SOL     OW90561   4.947  10.041   7.889 -0.2517 -0.3313 -0.0021
29223SOL    HW190562   5.000  10.058   7.966  0.2674  0.6607 -0.5667
29223SOL    HW290563   4.917  10.127   7.860 -2.7559 -0.8786  0.6920
29224SOL     OW90564   6.503   5.765   5.664  0.1403  0.7330 -0.2872
29224SOL    HW190565   6.569   5.777   5.732  0.7820 -0.1281 -0.7466
29224SOL    HW290566   6.428   5.817   5.695  0.4796  0.5117  0.9894
29225SOL     OW90567   5.552   5.184  10.214 -0.2969  0.0705 -0.1203
29225SOL    HW190568   5.555   5.168  10.308 -1.9504  2.2082  0.3767
29225SOL    HW290569   5.618   5.252  10.199 -0.0685 -0.2343 -0.5166
29226SOL     OW90570   3.578  10.748   7.333 -0.4054 -0.4675 -0.3225
29226SOL    HW190571   3.521  10.792   7.396 -0.3278 -0.5693 -0.1803
29226SOL    HW290572   3.649  10.713   7.386  0.6314  1.0133 -0.6683
29227SOL     OW90573   0.165   9.689  10.234 -0.2037 -0.5142  0.3034
29227SOL    HW190574   0.251   9.660  10.205 -0.5276 -0.4652 -0.7711
29227SOL    HW290575   0.109   9.612  10.224 -0.5046 -0.2565 -0.0184
29228SOL     OW90576   5.396   4.783   8.469  0.1513  0.4384 -0.0764
29228SOL    HW190577   5.438   4.804   8.386  1.0129  1.1773  0.5388
29228SOL    HW290578   5.353   4.699   8.452  0.9816  0.1809 -1.0287
29229SOL     OW90579   1.400  10.359   5.319  0.8467 -1.0203  0.3009
29229SOL    HW190580   1.328  10.347   5.256  0.7129  0.6619  0.0825
29229SOL    HW290581   1.448  10.436   5.287  1.1449 -0.4910  1.8889
29230SOL     OW90582   9.029   2.988   0.786  0.0411  0.1202 -0.5098
29230SOL    HW190583   9.103   2.948   0.832 -0.2182 -1.1259 -1.1342
29230SOL    HW290584   9.036   2.955   0.697 -0.6341  0.8897 -0.8570
29231SOL     OW90585   6.284   8.030   0.047  0.8931 -0.4065  0.2829
29231SOL    HW190586   6.208   8.085   0.068 -0.1012 -1.6556  0.0731
29231SOL    HW290587   6.311   8.059  -0.040  0.8171  0.2100  0.4585
29232SOL     OW90588   7.188   8.816  10.463 -0.0628  0.4514 -0.6066
29232SOL    HW190589   7.141   8.743  10.504  0.3870  0.1843 -0.5634
29232SOL    HW290590   7.119   8.876  10.435 -0.4769 -0.3569 -1.3348
29233SOL     OW90591   3.331   2.361   1.490  0.3392  0.4575  0.1951
29233SOL    HW190592   3.343   2.285   1.434  0.6131  0.7636 -0.1718
29233SOL    HW290593   3.317   2.434   1.429 -0.3315  0.6375  0.5430
29234SOL     OW90594   0.846   4.300   8.023  0.1040 -0.1016 -0.2547
29234SOL    HW190595   0.940   4.315   8.016 -0.0598  0.6883 -0.7753
29234SOL    HW290596   0.806   4.387   8.016 -0.6827 -0.4493 -0.2510
29235SOL     OW90597   8.712   2.358   3.029 -0.0541  0.2671 -0.3085
29235SOL    HW190598   8.673   2.407   3.102 -0.2635  1.4553 -1.1904
29235SOL    HW290599   8.637   2.331   2.976  0.0639 -0.9904  0.1253
29236SOL     OW90600   7.908   7.089   7.258  0.2439 -0.1781  0.4525
29236SOL    HW190601   7.945   7.077   7.345  0.0229  0.0192  0.5760
29236SOL    HW290602   7.955   7.026   7.202  2.6305  1.8328  0.0428
29237SOL     OW90603   2.936   9.195  10.362 -0.1842 -0.9021 -0.8584
29237SOL    HW190604   2.968   9.280  10.392 -0.9688 -0.3664 -1.4898
29237SOL    HW290605   2.954   9.195  10.268 -1.9794 -0.5843 -1.2361
29238SOL     OW90606   7.506   1.616   0.526 -0.2969 -0.2430 -0.3173
29238SOL    HW190607   7.474   1.533   0.489 -3.0705  1.0187 -1.0497
29238SOL    HW290608   7.535   1.666   0.451  1.0924 -0.4001  0.0955
29239SOL     OW90609   3.429   8.908   3.497  0.2773  0.0683 -0.7665
29239SOL    HW190610   3.396   8.820   3.516 -1.5908  0.8490 -0.1448
29239SOL    HW290611   3.402   8.925   3.407 -1.0153  0.6664 -0.2931
29240SOL     OW90612  10.378   4.112   4.397  0.5960  0.0117 -0.5182
29240SOL    HW190613  10.305   4.103   4.459  0.9401  0.5311 -0.0278
29240SOL    HW290614  10.383   4.026   4.354 -1.2248  0.3894 -1.6178
29241SOL     OW90615   7.998  10.185   6.412  0.2269 -0.0904  1.2821
29241SOL    HW190616   7.953  10.255   6.460  1.0513 -0.6868  3.0169
29241SOL    HW290617   8.080  10.173   6.459  0.7856 -1.1852  0.0821
29242SOL     OW90618   2.611   8.013   0.429 -0.4008  0.0389  0.3864
29242SOL    HW190619   2.523   8.018   0.390 -0.4940  3.1438  0.7289
29242SOL    HW290620   2.660   7.956   0.370 -2.0632  0.0151 -1.0556
29243SOL     OW90621   5.586   7.215  10.345 -0.0387 -0.4886  0.2991
29243SOL    HW190622   5.517   7.155  10.373 -0.3073  0.4549  1.7650
29243SOL    HW290623   5.542   7.298  10.329  0.5282 -0.2956 -0.3225
29244SOL     OW90624   0.950   9.032   7.142 -0.8253  0.6030  0.1549
29244SOL    HW190625   0.972   9.079   7.061  1.2051  0.3910  0.5178
29244SOL    HW290626   0.869   8.986   7.122 -0.5124  0.7706 -1.6846
29245SOL     OW90627   8.407   4.922   6.005  0.0514  0.3158 -0.4544
29245SOL    HW190628   8.471   4.956   6.068  0.6398 -1.2219 -0.1882
29245SOL    HW290629   8.357   4.999   5.979  0.1220  1.0962  1.5016
29246SOL     OW90630   1.243   2.877   7.589 -0.1092 -0.0593  0.5297
29246SOL    HW190631   1.177   2.947   7.588 -1.1051 -0.9708  0.7041
29246SOL    HW290632   1.283   2.884   7.675  1.7234  1.9994 -0.3934
29247SOL     OW90633   6.222  10.282   8.686 -0.1962 -0.6521 -0.4566
29247SOL    HW190634   6.260  10.326   8.610  0.9326 -2.2156 -0.8503
29247SOL    HW290635   6.156  10.343   8.719  1.9818  1.8144 -0.3315
29248SOL     OW90636   5.193  10.712   8.929 -0.2768  0.2013  0.6746
29248SOL    HW190637   5.230  10.782   8.875 -0.8979  0.0787  0.0606
29248SOL    HW290638   5.099  10.712   8.907 -0.5225  0.0529  1.6631
29249SOL     OW90639   8.165   5.261  10.279  0.2505  0.1695  0.4030
29249SOL    HW190640   8.123   5.329  10.332  0.8825  0.5535  0.4175
29249SOL    HW290641   8.093   5.204  10.253 -0.6646  1.9725 -1.3385
29250SOL     OW90642   6.312  10.444   7.244 -0.0106 -0.2722 -0.0103
29250SOL    HW190643   6.362  10.485   7.174 -0.6240  0.7337  0.1163
29250SOL    HW290644   6.222  10.471   7.228  0.0507  1.7222  2.2616
29251SOL     OW90645   5.787   4.106   3.763 -0.6280 -0.6861  0.4913
29251SOL    HW190646   5.858   4.154   3.806  1.3736 -2.3713 -0.7302
29251SOL    HW290647   5.755   4.045   3.829 -1.8673  0.9213  1.4422
29252SOL     OW90648   2.844   9.212   8.925  0.2244 -0.0994  0.0399
29252SOL    HW190649   2.789   9.154   8.979 -0.3864  0.8153  0.4287
29252SOL    HW290650   2.815   9.300   8.948  0.9734  0.3583 -0.7228
29253SOL     OW90651   1.784   0.873   3.356  0.2114  0.6423  0.4604
29253SOL    HW190652   1.837   0.868   3.435 -1.6736 -0.1730  1.7492
29253SOL    HW290653   1.759   0.782   3.338  1.0428  0.7341 -1.4338
29254SOL     OW90654   8.735   8.801   9.812 -0.1739 -0.0933  0.0054
29254SOL    HW190655   8.753   8.862   9.883  0.7028 -1.2056  0.7671
29254SOL    HW290656   8.737   8.855   9.733  1.8427  0.6829  0.5323
29255SOL     OW90657   6.258   5.536   0.133  0.2673  0.2570 -0.2694
29255SOL    HW190658   6.280   5.466   0.196 -2.5071  0.1080  0.6440
29255SOL    HW290659   6.341   5.555   0.090  1.4256 -2.6233  0.4327
29256SOL     OW90660   8.695   4.155   6.998 -0.1879  0.3330  0.2667
29256SOL    HW190661   8.627   4.214   7.032  0.5105  0.1172  2.1712
29256SOL    HW290662   8.770   4.213   6.981 -0.2151  0.2981  0.0297
29257SOL     OW90663   6.239  10.721   0.113  0.3109  0.2696 -0.2571
29257SOL    HW190664   6.183  10.697   0.187  2.0147 -1.4300  0.5576
29257SOL    HW290665   6.178  10.746   0.044 -1.3949  0.0286  1.1015
29258SOL     OW90666   3.356   1.083   7.590  0.6640  0.0117  0.5118
29258SOL    HW190667   3.307   1.162   7.563  3.0584  0.7356 -2.1731
29258SOL    HW290668   3.343   1.022   7.518 -1.1155 -2.2094  2.5459
29259SOL     OW90669   6.050   1.980   2.609  0.2755 -0.1417  0.1376
29259SOL    HW190670   6.002   2.060   2.589 -0.0840 -0.1122  1.0611
29259SOL    HW290671   6.060   1.936   2.525  0.1880  0.7120 -0.3277
29260SOL     OW90672   7.847   3.743   2.059  0.0637  0.3625  0.2377
29260SOL    HW190673   7.863   3.828   2.101  1.3880  0.6608 -0.7882
29260SOL    HW290674   7.754   3.745   2.036  0.2263  1.9131 -0.4918
29261SOL     OW90675   0.862   0.502   8.641 -0.0207 -0.1895 -0.6293
29261SOL    HW190676   0.896   0.555   8.712  0.9483 -0.4050 -0.9239
29261SOL    HW290677   0.811   0.563   8.587 -0.8188 -0.0455  0.2712
29262SOL     OW90678   1.243   3.095   5.386 -0.3262 -0.3569  0.1767
29262SOL    HW190679   1.221   3.177   5.431 -0.6104  0.4345 -1.3318
29262SOL    HW290680   1.337   3.085   5.397 -0.1741  0.5704 -0.2535
29263SOL     OW90681   5.764   4.543   3.744  0.3566  0.5254 -0.1593
29263SOL    HW190682   5.774   4.603   3.819 -2.8593 -0.5037  1.2518
29263SOL    HW290683   5.835   4.480   3.755  0.5291  0.9448  1.4824
29264SOL     OW90684   2.307   3.609   2.036 -0.4153  0.8260  0.0509
29264SOL    HW190685   2.277   3.680   1.979  0.5110  0.8303 -0.4511
29264SOL    HW290686   2.314   3.533   1.979 -1.7760  0.2122  0.6668
29265SOL     OW90687   2.443  10.631   3.212 -0.3599 -0.0326 -0.1474
29265SOL    HW190688   2.361  10.592   3.180 -0.5110  1.2385 -1.3755
29265SOL    HW290689   2.511  10.572   3.180 -0.7557 -0.8454  0.4782
29266SOL     OW90690   1.690   0.054   7.097 -0.0608  0.1939 -0.2526
29266SOL    HW190691   1.775   0.096   7.105 -0.0466  0.2927 -0.8875
29266SOL    HW290692   1.636   0.116   7.048 -0.8273  0.5983  1.0449
29267SOL     OW90693   0.038   1.949   4.774  0.1925  0.4346  0.3365
29267SOL    HW190694   0.126   1.936   4.810  0.6384  2.0904 -0.0466
29267SOL    HW290695   0.012   1.862   4.743  2.9933  0.3671 -2.3877
29268SOL     OW90696  10.093   9.024   6.607 -0.0736  0.2708  0.2029
29268SOL    HW190697  10.161   9.067   6.658 -0.9068 -0.0990  1.6787
29268SOL    HW290698  10.141   8.968   6.545  0.9879  2.0116 -0.6441
29269SOL     OW90699   7.524   2.703   0.644  0.1299 -0.2965  0.1737
29269SOL    HW190700   7.522   2.615   0.606 -0.6394  0.5285 -1.8824
29269SOL    HW290701   7.450   2.748   0.603  0.4625  1.2946  1.2290
29270SOL     OW90702   3.384   8.184  10.606  0.1199  0.9355  0.0215
29270SOL    HW190703   3.295   8.206  10.633 -0.2514 -0.2686 -0.1324
29270SOL    HW290704   3.431   8.171  10.688 -0.5236 -0.8802  0.1603
29271SOL     OW90705   3.472   3.059   8.851  0.0957 -0.5227  0.2864
29271SOL    HW190706   3.472   3.038   8.758  2.2151  1.0611 -0.1366
29271SOL    HW290707   3.557   3.030   8.883  0.0906  0.5086  1.3235
29272SOL     OW90708   7.875   2.306   0.869 -0.1600  0.3901  0.0522
29272SOL    HW190709   7.957   2.355   0.868  0.0882 -0.0323 -0.3918
29272SOL    HW290710   7.885   2.244   0.941  0.6140 -0.8283 -1.0572
29273SOL     OW90711  10.278   2.117   7.380  0.6888  0.4080  0.4726
29273SOL    HW190712  10.236   2.062   7.313  1.5135  0.2895  0.0403
29273SOL    HW290713  10.311   2.055   7.445  0.9688  0.4445  0.3635
29274SOL     OW90714   0.548   5.169   2.117  0.0636  0.3135 -0.1878
29274SOL    HW190715   0.564   5.097   2.056  1.0195  0.4746 -0.1411
29274SOL    HW290716   0.630   5.179   2.165 -0.5417  0.4639  0.8384
29275SOL     OW90717   2.834   3.273   9.579 -0.2929 -0.4780 -0.3346
29275SOL    HW190718   2.783   3.252   9.501 -1.6615  2.8944 -0.5125
29275SOL    HW290719   2.921   3.295   9.546 -0.7376  0.4903 -0.9103
29276SOL     OW90720  10.513   7.436   7.139  0.3067 -0.1334  0.2055
29276SOL    HW190721  10.518   7.459   7.046  0.5426 -2.0142 -0.2949
29276SOL    HW290722  10.514   7.340   7.140  1.2469 -0.1497  2.2148
29277SOL     OW90723   3.099   4.011   0.123 -0.4718  0.4431  0.2292
29277SOL    HW190724   3.168   4.074   0.105 -0.0379 -0.0236  0.2180
29277SOL    HW290725   3.056   3.997   0.039 -1.7821  2.1057  0.5869
29278SOL     OW90726   1.807   7.256   1.738  0.1308  0.0179  0.2580
29278SOL    HW190727   1.871   7.191   1.710 -0.0527  0.5105 -1.3822
29278SOL    HW290728   1.855   7.339   1.738  0.1281  0.0427  1.4840
29279SOL     OW90729   7.593  10.606   6.406  0.2220 -0.0775 -0.6596
29279SOL    HW190730   7.633  10.558   6.334  2.1379  0.5025 -0.0232
29279SOL    HW290731   7.647  10.684   6.416 -1.5741  1.1925 -0.2947
29280SOL     OW90732   0.292  10.109  10.116 -0.1425 -0.4391 -0.3320
29280SOL    HW190733   0.375  10.062  10.114 -0.0621 -0.4413  1.4256
29280SOL    HW290734   0.305  10.178  10.181 -1.5406 -0.5016  0.0551
29281SOL     OW90735   9.203   5.417   3.711 -0.3310  0.5473  0.0445
29281SOL    HW190736   9.123   5.438   3.663 -0.9622  0.0927  0.8689
29281SOL    HW290737   9.186   5.331   3.749  0.4536  0.5620  0.4456
29282SOL     OW90738   6.038  10.709   2.499 -0.1960 -0.1975 -0.2744
29282SOL    HW190739   5.978  10.761   2.447  0.5201 -2.1445 -3.3126
29282SOL    HW290740   5.982  10.652   2.551 -0.9781 -0.2535 -1.1557
29283SOL     OW90741   8.861   2.280  10.595  0.0738  0.7975 -0.3025
29283SOL    HW190742   8.944   2.235  10.576  0.4964  1.0008  0.9759
29283SOL    HW290743   8.798   2.210  10.609  0.6097  0.5768  1.1565
29284SOL     OW90744   6.522   2.403   7.149  0.2087  0.3069 -1.1930
29284SOL    HW190745   6.449   2.400   7.210 -0.1219 -0.8818 -1.6137
29284SOL    HW290746   6.580   2.332   7.177  2.3061  2.4920  0.4122
29285SOL     OW90747   5.267   7.243   7.201 -0.8219  0.2544 -0.6959
29285SOL    HW190748   5.263   7.272   7.293 -1.7608  0.0744 -0.6686
29285SOL    HW290749   5.176   7.220   7.180 -0.5455 -0.0514 -1.5615
29286SOL     OW90750   1.234   7.430  10.096  0.7452 -0.1193 -0.2120
29286SOL    HW190751   1.311   7.485  10.082  0.1397  0.9680  0.6080
29286SOL    HW290752   1.201   7.412  10.008  0.6586  1.2662 -0.4850
29287SOL     OW90753   5.493   6.002   5.229 -0.1055  0.1130  0.1723
29287SOL    HW190754   5.553   5.980   5.301  0.3146  1.8999  0.4085
29287SOL    HW290755   5.529   5.955   5.154 -0.3048 -1.4410  0.9909
29288SOL     OW90756   3.200   3.468   9.268 -0.4558  0.2628  0.3669
29288SOL    HW190757   3.254   3.527   9.321  0.1661  2.2580 -2.2875
29288SOL    HW290758   3.251   3.387   9.265  1.1129  1.2135  0.1398
29289SOL     OW90759   8.627  10.282   7.820  0.7668 -0.0388 -0.3270
29289SOL    HW190760   8.592  10.290   7.732  0.6922  0.2663 -0.2699
29289SOL    HW290761   8.557  10.314   7.877  0.6834 -0.5538 -0.1316
29290SOL     OW90762   3.307   9.702   3.583 -0.2997 -0.7419  0.1990
29290SOL    HW190763   3.393   9.684   3.546 -0.1934 -1.2451  0.6719
29290SOL    HW290764   3.247   9.695   3.509 -0.0231 -1.1492  0.0094
29291SOL     OW90765   3.079   5.491   1.954 -0.0127 -0.0959 -0.0104
29291SOL    HW190766   3.124   5.465   2.035 -1.0657 -0.3839  0.5153
29291SOL    HW290767   3.035   5.573   1.977 -0.3700 -0.2147 -0.2661
29292SOL     OW90768   0.452   7.965   3.348 -0.3516 -0.5723  0.3504
29292SOL    HW190769   0.528   7.976   3.404 -0.4852 -1.8064  0.8026
29292SOL    HW290770   0.440   7.870   3.342 -2.1837 -0.4097  0.7698
29293SOL     OW90771   8.679   5.559   1.278 -0.3952 -0.3954  0.0477
29293SOL    HW190772   8.664   5.588   1.188 -0.3560 -0.1244  0.1288
29293SOL    HW290773   8.751   5.496   1.271  1.4173  1.5538  0.2052
29294SOL     OW90774   4.066   9.136   8.722 -0.4734 -0.0223  0.1343
29294SOL    HW190775   4.027   9.110   8.638  0.4312 -0.7905 -0.0648
29294SOL    HW290776   4.110   9.057   8.753  0.6469  0.7228  0.5010
29295SOL     OW90777   1.794   8.306   1.776  0.0581  0.0572  0.0846
29295SOL    HW190778   1.847   8.320   1.855  0.2440 -2.4266  0.4782
29295SOL    HW290779   1.854   8.263   1.715 -0.6185  0.2311 -0.7143
29296SOL     OW90780   6.936   4.169   6.843 -0.0956  0.3049  0.3996
29296SOL    HW190781   7.009   4.113   6.869  0.8326  1.1683 -0.3024
29296SOL    HW290782   6.858   4.122   6.875  0.7230 -0.8029  0.8443
29297SOL     OW90783   1.361   1.241   8.515 -0.5668 -0.5555  0.0804
29297SOL    HW190784   1.400   1.300   8.449 -0.3085 -2.4772 -1.5882
29297SOL    HW290785   1.289   1.292   8.552  1.9855  2.2764  1.6367
29298SOL     OW90786   4.496   4.113   0.634  0.4488  0.3781 -0.2610
29298SOL    HW190787   4.531   4.144   0.718 -0.0786 -0.7576  0.4051
29298SOL    HW290788   4.487   4.192   0.581 -0.0270  1.2492  1.0630
29299SOL     OW90789   9.297   7.726   1.520 -0.3829  0.3738  0.1060
29299SOL    HW190790   9.274   7.795   1.583 -0.3095  1.6199 -1.1872
29299SOL    HW290791   9.328   7.773   1.443 -0.3881 -1.1153 -0.8456
29300SOL     OW90792   2.259   2.525  10.246  0.6220  0.5244  0.0664
29300SOL    HW190793   2.331   2.563  10.296  0.2316 -1.0452  1.9642
29300SOL    HW290794   2.184   2.580  10.266  0.9929  1.4019 -0.8808
29301SOL     OW90795   5.104   4.036   6.576  0.3582 -0.2932 -0.2462
29301SOL    HW190796   5.042   3.990   6.519  1.7166  0.0207 -2.0622
29301SOL    HW290797   5.072   4.126   6.577  0.1604 -0.3616 -0.2858
29302SOL     OW90798  10.510   6.917   1.972 -0.0448 -0.4230  0.0500
29302SOL    HW190799  10.509   6.851   2.040 -1.3139 -0.1701  0.3032
29302SOL    HW290800  10.552   6.993   2.012  1.7961 -1.1496 -0.3684
29303SOL     OW90801   3.298   0.642   4.017 -0.2945 -0.0894  0.5997
29303SOL    HW190802   3.218   0.656   3.966 -0.3707  0.3980  0.8430
29303SOL    HW290803   3.357   0.597   3.957 -1.3020 -1.9425  0.9051
29304SOL     OW90804   1.786   0.053   7.983  0.1618  0.5081  0.4885
29304SOL    HW190805   1.845   0.082   8.053 -0.8840  1.2777  1.0747
29304SOL    HW290806   1.757  -0.034   8.010 -1.1091  1.2487  1.6154
29305SOL     OW90807   8.567   4.415   4.352  0.2712  0.8305  0.2288
29305SOL    HW190808   8.482   4.442   4.386  0.1104 -0.5411  0.9412
29305SOL    HW290809   8.621   4.400   4.429  0.4979 -0.4049 -0.1555
29306SOL     OW90810   9.117   4.725   6.839 -0.5397  0.2025  0.0513
29306SOL    HW190811   9.183   4.732   6.909 -2.3520  0.0357  1.8676
29306SOL    HW290812   9.084   4.814   6.828 -0.4387  0.1829 -0.4412
29307SOL     OW90813   3.424   7.933   4.110  0.1854  0.2339  0.1206
29307SOL    HW190814   3.433   7.840   4.090  1.4699 -0.2592  2.5530
29307SOL    HW290815   3.389   7.934   4.200  1.9400  2.0360  0.8617
29308SOL     OW90816   2.694   4.110   1.357 -0.2597  0.2399 -0.6265
29308SOL    HW190817   2.765   4.138   1.298 -0.3048 -3.1842 -2.6074
29308SOL    HW290818   2.731   4.121   1.445  1.5979  1.2929 -1.4643
29309SOL     OW90819   0.393   4.173   9.073  0.0435 -0.2313 -0.3602
29309SOL    HW190820   0.469   4.149   9.126 -0.7446 -0.0369  0.8896
29309SOL    HW290821   0.355   4.089   9.047  0.3087 -0.3274 -0.4432
29310SOL     OW90822   8.999   5.809   2.956 -0.3202  0.4918  0.1237
29310SOL    HW190823   8.981   5.722   2.993  0.5665  1.0761  2.0212
29310SOL    HW290824   8.921   5.860   2.978  0.1410  0.7958  1.0984
29311SOL     OW90825   6.226  10.693   3.292  0.6024  0.5726 -0.1106
29311SOL    HW190826   6.187  10.656   3.371  0.8845 -0.2279 -0.3404
29311SOL    HW290827   6.302  10.638   3.274 -0.7303 -0.7021 -2.2125
29312SOL     OW90828   9.910   6.980   0.982  0.6953 -0.1039 -0.2189
29312SOL    HW190829   9.856   6.914   0.940  1.0605 -0.3246 -0.3450
29312SOL    HW290830   9.891   7.061   0.934 -0.7884  0.1954  0.8103
29313SOL     OW90831   7.153   7.698   4.566  0.6518 -0.3914  0.5217
29313SOL    HW190832   7.196   7.780   4.542  0.8279 -0.4251  0.7228
29313SOL    HW290833   7.133   7.655   4.483 -1.9752  1.1435  0.2294
29314SOL     OW90834   0.448   2.256   9.819 -0.3645  0.6644  0.7048
29314SOL    HW190835   0.419   2.164   9.819  0.8028  0.2842  1.4465
29314SOL    HW290836   0.382   2.301   9.767 -1.2874 -0.4925  0.8298
29315SOL     OW90837   3.379  10.409   5.296 -0.5132  0.5156 -0.4186
29315SOL    HW190838   3.301  10.357   5.314 -1.5845  1.9343 -0.8491
29315SOL    HW290839   3.373  10.484   5.356  1.5292 -0.2873  0.9139
29316SOL     OW90840   0.511   9.072   7.514 -0.1472 -0.4695  0.0931
29316SOL    HW190841   0.490   9.154   7.558 -3.6611 -1.5415  0.7591
29316SOL    HW290842   0.491   9.088   7.422 -0.7283 -0.5066  0.2067
29317SOL     OW90843   9.362  10.743  10.220 -0.3632  0.5192 -0.3920
29317SOL    HW190844   9.453  10.749  10.248 -0.7565  2.0084  0.6894
29317SOL    HW290845   9.345  10.649  10.211  1.4573  0.2461 -1.3010
29318SOL     OW90846   8.547   1.104   2.626 -0.2187  0.3402  0.6559
29318SOL    HW190847   8.461   1.079   2.660 -1.6007  0.1065 -2.6417
29318SOL    HW290848   8.548   1.200   2.632 -2.0663  0.6350 -1.8637
29319SOL     OW90849   7.059   2.338   0.993 -0.3136 -0.4636  0.2794
29319SOL    HW190850   7.022   2.249   0.986 -0.9466 -0.1713 -0.1224
29319SOL    HW290851   7.129   2.329   1.058 -1.4346 -0.9319  1.4888
29320SOL     OW90852   9.746   4.710   1.589  0.3551  0.5322 -0.3162
29320SOL    HW190853   9.714   4.795   1.619 -0.7710 -0.2988  0.9369
29320SOL    HW290854   9.791   4.729   1.507 -2.0166  2.0136 -1.3778
29321SOL     OW90855   7.532   6.811   0.545  0.6578  0.1829  0.2389
29321SOL    HW190856   7.506   6.857   0.465  1.3889 -0.1242 -0.1886
29321SOL    HW290857   7.620   6.843   0.564 -0.5261  2.3693  2.5418
29322SOL     OW90858   1.885   5.479  10.439 -0.1297  0.6091  0.1152
29322SOL    HW190859   1.842   5.395  10.424 -2.4968  1.6674  0.3806
29322SOL    HW290860   1.915   5.507  10.353  0.1854 -0.2421 -0.0596
29323SOL     OW90861   5.536   1.229   4.139 -0.2320  0.1565  1.1280
29323SOL    HW190862   5.461   1.257   4.192  0.3454  2.2774  0.9004
29323SOL    HW290863   5.577   1.310   4.110 -0.8412 -0.8498 -3.1239
29324SOL     OW90864   1.206   2.946   4.923 -0.0953 -0.3967  0.0067
29324SOL    HW190865   1.162   2.911   5.001  0.2306 -0.0565  0.3471
29324SOL    HW290866   1.137   2.948   4.856 -1.4826  2.9152  1.3048
29325SOL     OW90867   5.838   9.994   1.844  0.6135  0.1229 -0.1618
29325SOL    HW190868   5.777   9.923   1.862  1.2222  0.1088  2.1055
29325SOL    HW290869   5.918   9.950   1.816  0.8153 -0.0915  0.7109
29326SOL     OW90870   7.167   4.609   4.511  0.0165  1.0255 -0.1989
29326SOL    HW190871   7.089   4.557   4.493 -0.2306  0.7925  1.3863
29326SOL    HW290872   7.235   4.571   4.455 -0.9943  1.2625 -1.6247
29327SOL     OW90873   7.458   7.872   1.941  0.1907  0.4009  0.5747
29327SOL    HW190874   7.435   7.965   1.936 -2.3558 -0.2187 -0.4374
29327SOL    HW290875   7.385   7.831   1.987  0.0697 -1.4432 -1.1232
29328SOL     OW90876   3.297   0.065   9.446  0.6466 -0.0537 -0.8267
29328SOL    HW190877   3.366   0.010   9.483  0.0727  1.2289  2.5035
29328SOL    HW290878   3.342   0.145   9.420  0.6928  0.0338 -0.4796
29329SOL     OW90879   8.483   9.855   7.728  0.6159 -0.4844  0.4895
29329SOL    HW190880   8.435   9.905   7.794  2.5450 -0.6681  2.1291
29329SOL    HW290881   8.555   9.912   7.702  1.0991 -1.2534  0.1089
29330SOL     OW90882  10.357   6.956   5.405  0.5004  0.7568 -0.8561
29330SOL    HW190883  10.427   6.898   5.376 -0.1931  0.3299 -1.7460
29330SOL    HW290884  10.285   6.939   5.344  0.1485  2.2917 -0.9158
29331SOL     OW90885   7.261   4.016  10.039 -0.1407  0.3471  0.3674
29331SOL    HW190886   7.229   4.073  10.109  0.3881  1.2515 -0.1124
29331SOL    HW290887   7.212   4.043   9.962 -0.1529 -0.1143  0.2090
29332SOL     OW90888   6.843   7.891   1.933 -0.0009 -0.5491 -0.6006
29332SOL    HW190889   6.766   7.943   1.911  0.2711  0.4128  0.6513
29332SOL    HW290890   6.900   7.899   1.857 -0.6987 -0.4350 -1.1209
29333SOL     OW90891   7.050   5.452   6.855 -0.4340  0.1477  0.2486
29333SOL    HW190892   7.110   5.378   6.846  2.1125  2.2225 -1.5716
29333SOL    HW290893   6.989   5.443   6.781  1.1673  0.8664 -1.2267
29334SOL     OW90894   1.712   6.606   8.379  0.4266  0.0922  0.5886
29334SOL    HW190895   1.797   6.569   8.357  0.5326  0.4063  0.4734
29334SOL    HW290896   1.649   6.539   8.353  0.6228 -0.0290  0.4289
29335SOL     OW90897   8.297   0.999   8.925 -0.5764  0.2274  0.4471
29335SOL    HW190898   8.376   1.052   8.939 -0.4064  0.6116 -1.6529
29335SOL    HW290899   8.240   1.053   8.871 -1.7955 -0.4993  0.9620
29336SOL     OW90900   3.149   4.448   8.612 -0.3581  0.1359  0.2454
29336SOL    HW190901   3.200   4.518   8.571  2.8030 -0.7641  2.2791
29336SOL    HW290902   3.187   4.367   8.579 -0.7504 -0.5804  1.4575
29337SOL     OW90903   0.677   2.480   3.471 -0.1121  0.0023  0.3282
29337SOL    HW190904   0.639   2.556   3.428 -0.2665 -0.5137 -0.4518
29337SOL    HW290905   0.655   2.492   3.564  0.7677  1.4490  0.3899
29338SOL     OW90906   8.286   9.104  10.137  0.0590 -0.0717  0.0720
29338SOL    HW190907   8.328   9.107  10.050  0.1206 -0.8556  0.0688
29338SOL    HW290908   8.330   9.032  10.182  0.1286  0.4273  0.8154
29339SOL     OW90909   0.139  10.612   7.192  0.7385 -0.4303  0.3827
29339SOL    HW190910   0.132  10.568   7.276 -0.2919 -2.1809 -0.5614
29339SOL    HW290911   0.048  10.624   7.163  1.0776 -0.5623 -0.8191
29340SOL     OW90912   2.845   7.284   2.204  0.2812  0.3606  0.7286
29340SOL    HW190913   2.910   7.227   2.164  0.0375  0.7268 -0.1993
29340SOL    HW290914   2.890   7.367   2.218  0.0464  0.5780  0.1916
29341SOL     OW90915   3.329   0.441   8.361  0.1292  0.2476 -0.3067
29341SOL    HW190916   3.285   0.413   8.280 -0.0480  1.7849 -0.7672
29341SOL    HW290917   3.282   0.518   8.389  0.7495  0.2470  0.8024
29342SOL     OW90918   2.922   7.882  10.196 -0.0310  0.2534  0.4127
29342SOL    HW190919   2.921   7.900  10.290 -1.8519 -2.3700  0.9983
29342SOL    HW290920   2.947   7.790  10.189  0.0464  0.3866 -1.6818
29343SOL     OW90921   6.635   4.853   7.463  0.2166 -0.0868  0.0838
29343SOL    HW190922   6.593   4.916   7.404  0.3196 -0.4014 -0.3266
29343SOL    HW290923   6.623   4.891   7.550  1.0662  0.9739 -0.2296
29344SOL     OW90924   7.504   8.213   6.030 -0.3405 -0.0868  0.5315
29344SOL    HW190925   7.418   8.247   6.007 -0.0385  0.5484  0.3229
29344SOL    HW290926   7.561   8.237   5.957  0.1045 -0.1436  0.8504
29345SOL     OW90927   6.062   8.309  10.508 -0.4705  0.3191  0.0694
29345SOL    HW190928   6.019   8.338  10.427 -2.1390 -1.6978  0.1264
29345SOL    HW290929   6.007   8.236  10.538  1.2248 -0.2408  1.9774
29346SOL     OW90930  10.466   5.866  10.263  0.5671  0.0038 -0.7563
29346SOL    HW190931  10.409   5.797  10.229 -0.6154  0.8695 -0.5930
29346SOL    HW290932  10.514   5.824  10.334  0.1637 -0.7478 -0.9118
29347SOL     OW90933   5.092   3.731   0.783 -0.0667 -0.8711 -0.1490
29347SOL    HW190934   5.181   3.763   0.764  0.1569 -0.8704  0.8298
29347SOL    HW290935   5.048   3.729   0.698  0.3089  0.8365 -0.4115
29348SOL     OW90936   9.892   9.672   8.313  0.6389 -0.8417 -0.1340
29348SOL    HW190937   9.933   9.711   8.391  1.3504 -0.7206 -0.5618
29348SOL    HW290938   9.912   9.734   8.242 -1.9546  0.2588 -0.0214
29349SOL     OW90939   0.498   4.300   3.620  0.2291  0.0257 -0.0551
29349SOL    HW190940   0.447   4.251   3.685 -0.2421  3.0919  2.0850
29349SOL    HW290941   0.432   4.328   3.556  0.0281  0.1479  0.2024
29350SOL     OW90942   4.376   1.781   6.121 -0.2082 -0.2010  0.3467
29350SOL    HW190943   4.353   1.840   6.193  0.4935 -0.0304  0.4431
29350SOL    HW290944   4.375   1.693   6.160  2.2984  0.0576  1.1705
29351SOL     OW90945   7.570   6.802   4.144  0.1804  0.4108 -0.7235
29351SOL    HW190946   7.522   6.719   4.139 -0.1659  0.3002  2.5641
29351SOL    HW290947   7.654   6.784   4.101 -0.1288 -1.4524 -0.6379
29352SOL     OW90948   9.469   4.506   5.119  0.4243  0.2314 -0.6800
29352SOL    HW190949   9.468   4.419   5.158 -0.0545  0.6226  0.2086
29352SOL    HW290950   9.429   4.562   5.185 -1.5559  0.7190 -2.1958
29353SOL     OW90951  10.037   2.154   6.531  0.1068 -0.1939 -0.0901
29353SOL    HW190952   9.969   2.217   6.509 -0.5835 -0.5109  1.0708
29353SOL    HW290953   9.999   2.069   6.509  0.7261 -0.2765 -0.8874
29354SOL     OW90954   7.568   2.099   9.219  0.1508 -0.3096 -0.1886
29354SOL    HW190955   7.662   2.078   9.224  0.0966 -0.9629 -1.6311
29354SOL    HW290956   7.564   2.180   9.169  0.0451  0.7910  1.5303
29355SOL     OW90957   4.247   4.024   9.119 -0.5417 -0.1521  0.2764
29355SOL    HW190958   4.230   4.064   9.034 -1.7774 -0.0964  0.5283
29355SOL    HW290959   4.329   3.975   9.107  0.9861  2.3060 -0.0759
29356SOL     OW90960   7.985   7.771   7.775 -0.0593 -0.0912  0.2393
29356SOL    HW190961   8.020   7.848   7.819  0.6780  0.2634 -0.9065
29356SOL    HW290962   7.892   7.787   7.766 -0.1397  0.0285  1.2527
29357SOL     OW90963   4.178  10.570   5.873  0.3443  0.0143  0.3696
29357SOL    HW190964   4.140  10.536   5.955  0.7235 -1.9301 -0.2123
29357SOL    HW290965   4.102  10.587   5.817  0.1356 -3.0519 -0.4795
29358SOL     OW90966   5.807   9.384   5.426 -0.1429 -0.0688 -0.2118
29358SOL    HW190967   5.898   9.394   5.399  0.2599 -0.1773  1.0638
29358SOL    HW290968   5.811   9.362   5.519 -1.4394 -1.0849 -0.3715
29359SOL     OW90969   8.959   7.092   8.608 -0.0799 -0.4016 -0.5675
29359SOL    HW190970   8.918   7.141   8.536 -0.6546 -0.2833 -0.1713
29359SOL    HW290971   8.885   7.069   8.665  0.5863  1.5321  1.2211
29360SOL     OW90972   3.719   5.448   6.836  0.1853 -0.3452  0.5559
29360SOL    HW190973   3.661   5.399   6.894  0.0091  0.5946  1.1811
29360SOL    HW290974   3.667   5.464   6.758 -0.4243  0.5236  1.1260
29361SOL     OW90975   7.404   1.723   3.421  0.2593 -0.2328  0.0106
29361SOL    HW190976   7.449   1.644   3.393 -0.3870 -0.3332 -0.7760
29361SOL    HW290977   7.449   1.750   3.501  1.3995 -0.5922 -0.4974
29362SOL     OW90978   3.364   4.543   0.988  0.5251  0.1667 -0.2793
29362SOL    HW190979   3.429   4.596   1.034 -1.4756  1.4334  1.2505
29362SOL    HW290980   3.309   4.507   1.058 -0.8683 -0.2521 -1.5494
29363SOL     OW90981   3.891   6.707   7.710  0.3810  0.2062  0.5970
29363SOL    HW190982   3.905   6.664   7.626 -0.2345 -1.0423  1.1053
29363SOL    HW290983   3.970   6.688   7.760 -0.8325 -2.5980  1.7061
29364SOL     OW90984   0.918   6.487   6.013 -0.5771 -0.0154 -0.0272
29364SOL    HW190985   0.838   6.538   5.999 -1.3337 -0.5583  2.0306
29364SOL    HW290986   0.895   6.424   6.081  1.6176 -0.1391  0.6748
29365SOL     OW90987   2.969   2.001   9.511  0.2383  0.4402  0.4199
29365SOL    HW190988   2.917   1.933   9.470  2.1703 -1.0751  0.3392
29365SOL    HW290989   3.013   1.958   9.584 -0.4347  2.2466  1.9917
29366SOL     OW90990   1.090   0.911   8.059 -0.6634  0.1363  0.0543
29366SOL    HW190991   1.152   0.879   7.993 -0.4331  1.1442 -0.2455
29366SOL    HW290992   1.085   0.840   8.124  2.4067  0.7598  1.1672
29367SOL     OW90993   6.091   9.232   1.832 -0.2587  0.2231  0.2670
29367SOL    HW190994   6.161   9.170   1.810 -0.9412 -0.9852  1.3318
29367SOL    HW290995   6.031   9.228   1.758  0.2276  0.4131 -0.1411
29368SOL     OW90996   3.924  10.599  10.054 -0.2356 -0.3925  0.2759
29368SOL    HW190997   3.847  10.544  10.066  0.0046 -0.7705  0.1054
29368SOL    HW290998   3.994  10.537  10.033  0.4518 -0.2213  1.8783
29369SOL     OW90999  10.363   5.023   7.713 -0.3109  0.5914 -0.0739
29369SOL    HW191000  10.391   5.102   7.667  0.6566  0.6582  0.5983
29369SOL    HW291001  10.293   4.987   7.659 -0.9296  2.0298 -0.2748
29370SOL     OW91002   8.061   4.376   3.688  0.3091 -0.4013  0.3035
29370SOL    HW191003   8.150   4.400   3.714  0.2021 -1.0606  1.3122
29370SOL    HW291004   8.043   4.431   3.612  1.4253  0.0361  0.3375
29371SOL     OW91005   3.390   0.264   3.334 -0.1304 -0.8260  0.1022
29371SOL    HW191006   3.409   0.351   3.300  0.5462 -0.7855  0.5662
29371SOL    HW291007   3.358   0.215   3.259 -2.3076  0.3318  0.1929
29372SOL     OW91008   9.003   3.543   3.140 -0.2505  0.1396  0.3567
29372SOL    HW191009   8.972   3.556   3.050  3.0000  0.6444 -0.8491
29372SOL    HW291010   8.957   3.609   3.191 -1.7323  0.2667 -1.0600
29373SOL     OW91011   3.672   3.413  10.307 -0.2953 -0.0720 -0.5793
29373SOL    HW191012   3.597   3.455  10.349 -0.8750  1.1224 -2.6222
29373SOL    HW291013   3.641   3.325  10.285  0.6446 -1.4676  2.9655
29374SOL     OW91014   7.167   8.053   9.874  0.0982 -0.0446 -0.0516
29374SOL    HW191015   7.109   8.039   9.799 -0.1861 -0.5942  0.2648
29374SOL    HW291016   7.253   8.070   9.835 -0.3384  1.1616 -0.5340
29375SOL     OW91017   4.200   3.857   5.749 -1.0644 -0.1526 -0.1965
29375SOL    HW191018   4.141   3.923   5.712 -0.8683 -1.3289 -2.8207
29375SOL    HW291019   4.193   3.783   5.690 -2.1112 -3.0614  3.2238
29376SOL     OW91020   1.254   1.490   0.948  0.2107  0.0218  0.2375
29376SOL    HW191021   1.313   1.554   0.909 -0.2404 -0.2800 -0.9957
29376SOL    HW291022   1.265   1.411   0.895 -0.6570 -0.3083  0.5220
29377SOL     OW91023   1.265   7.387   7.195 -0.0062 -0.0702  0.1095
29377SOL    HW191024   1.221   7.347   7.269  1.6585 -2.2028  0.0523
29377SOL    HW291025   1.295   7.313   7.142  1.9032  1.2895 -0.8371
29378SOL     OW91026   2.339   4.824   6.794  1.0503  0.0283  0.5000
29378SOL    HW191027   2.307   4.828   6.884 -1.3015 -0.1713 -0.2658
29378SOL    HW291028   2.260   4.816   6.741  2.0731  3.3235 -1.8531
29379SOL     OW91029   5.463   3.614   3.068 -0.0932  0.1419 -0.3907
29379SOL    HW191030   5.389   3.566   3.030 -0.7709  0.6222  0.2787
29379SOL    HW291031   5.535   3.551   3.069 -0.4029 -0.2457 -1.3354
29380SOL     OW91032   6.723   0.127   5.662  0.4696  0.5437  0.2008
29380SOL    HW191033   6.750   0.212   5.627  0.2015 -0.3695 -2.4506
29380SOL    HW291034   6.805   0.085   5.687  0.8759  0.6261 -0.9157
29381SOL     OW91035   9.503   0.211   8.259  0.0326 -0.0386 -0.6204
29381SOL    HW191036   9.596   0.207   8.283  0.5902 -2.2607 -2.7651
29381SOL    HW291037   9.462   0.257   8.332  2.5391 -0.5330  1.2500
29382SOL     OW91038   5.988   7.316   9.824  0.1627 -0.1897  0.1368
29382SOL    HW191039   6.053   7.264   9.777  2.3478  1.7987  0.7787
29382SOL    HW291040   5.908   7.310   9.771  1.2427 -1.5929 -1.4089
29383SOL     OW91041   1.911   2.482   1.659  0.1425  0.2831 -0.2650
29383SOL    HW191042   1.982   2.418   1.667  0.0961 -0.2145 -2.8129
29383SOL    HW291043   1.935   2.553   1.717  1.0519 -1.2881  1.3920
29384SOL     OW91044   3.409   4.707   4.214 -0.5809 -0.2039  0.4165
29384SOL    HW191045   3.389   4.614   4.225 -2.1085 -0.0380 -0.6735
29384SOL    HW291046   3.501   4.714   4.239 -0.4667 -1.9721  0.6720
29385SOL     OW91047   3.227   7.667  10.232  0.7287  0.1341  0.0599
29385SOL    HW191048   3.219   7.738  10.168  0.3189 -0.4958 -0.6108
29385SOL    HW291049   3.138   7.633  10.241  0.8858 -0.1586  0.5346
29386SOL     OW91050   2.967   2.900   6.926  0.1277  0.3664 -0.2940
29386SOL    HW191051   2.971   2.806   6.906  0.6708  0.3937 -0.3207
29386SOL    HW291052   3.031   2.913   6.996 -1.1052  0.4397  0.8493
29387SOL     OW91053   2.520   7.091   7.759  0.5015 -0.0259 -0.0574
29387SOL    HW191054   2.481   7.047   7.835 -0.0168  0.3677 -0.0879
29387SOL    HW291055   2.454   7.082   7.690 -0.3004  2.0709  0.3557
29388SOL     OW91056   6.391  10.082   2.765 -0.2353  0.1502 -0.6866
29388SOL    HW191057   6.444  10.159   2.785  0.8672 -0.3400 -1.6111
29388SOL    HW291058   6.431  10.012   2.817 -1.9710  0.4005  1.0973
29389SOL     OW91059   5.804  10.768   4.540 -0.1774 -0.3079 -0.6327
29389SOL    HW191060   5.825  10.791   4.631 -2.4945  0.6665 -0.2678
29389SOL    HW291061   5.723  10.718   4.547  1.1725 -2.8570 -2.0014
29390SOL     OW91062   2.664   2.425   3.497 -0.6654 -0.0139 -0.8865
29390SOL    HW191063   2.679   2.466   3.412 -0.8581 -0.8156 -1.3147
29390SOL    HW291064   2.744   2.377   3.516 -0.0255  1.3721  0.1090
29391SOL     OW91065   4.080   6.300   0.312 -0.2918  0.1375 -0.0728
29391SOL    HW191066   4.019   6.373   0.316 -0.0233  0.3684 -0.1535
29391SOL    HW291067   4.131   6.316   0.233 -0.0242  0.0289  0.0772
29392SOL     OW91068  10.361   2.407  10.267  0.6409  0.3299 -0.0549
29392SOL    HW191069  10.397   2.494  10.251  0.1314  0.3646 -1.0503
29392SOL    HW291070  10.409   2.349  10.209  0.8063 -0.0287  0.4265
29393SOL     OW91071   8.054   6.414  10.323 -0.1440 -0.5459  0.1123
29393SOL    HW191072   8.041   6.402  10.417 -1.0211  0.5499  0.1551
29393SOL    HW291073   8.129   6.360  10.302  1.0712  0.4140  1.7484
29394SOL     OW91074   2.150   4.497   6.517 -0.0340 -0.6858  0.0661
29394SOL    HW191075   2.081   4.561   6.530  0.4956  0.0180 -0.4950
29394SOL    HW291076   2.160   4.491   6.422  0.2103 -1.2823  0.1253
29395SOL     OW91077   4.046   6.700   6.644 -0.1589  0.1419 -0.7458
29395SOL    HW191078   4.000   6.784   6.644 -1.4973 -0.5718 -0.7653
29395SOL    HW291079   4.031   6.665   6.556  2.1966  0.7943 -1.4965
29396SOL     OW91080   9.894   4.697   7.546  0.3185 -0.2308 -0.0270
29396SOL    HW191081   9.879   4.698   7.452  0.3299  3.9022 -0.1872
29396SOL    HW291082   9.819   4.650   7.582 -1.1172  0.3980 -1.9994
29397SOL     OW91083   1.550   7.982   2.858 -0.1846 -0.2814 -0.3708
29397SOL    HW191084   1.613   8.026   2.800  0.0169  1.1696  0.8914
29397SOL    HW291085   1.465   8.002   2.820  0.0185 -0.7360 -1.0802
29398SOL     OW91086   0.228   2.459   9.869 -0.1549  0.8135 -0.0318
29398SOL    HW191087   0.293   2.465   9.799 -1.0308  0.6483 -0.8794
29398SOL    HW291088   0.233   2.544   9.914 -0.0385  1.1724 -0.7079
29399SOL     OW91089   9.281  10.214  10.261 -0.3140 -0.4832 -0.4751
29399SOL    HW191090   9.370  10.206  10.295 -0.2803 -1.0119 -0.6695
29399SOL    HW291091   9.229  10.154  10.314 -1.5837  3.1292  2.8513
29400SOL     OW91092   1.894  10.041   4.937 -0.0205 -0.0462  0.3634
29400SOL    HW191093   1.884   9.968   4.876  0.7916  0.0037  0.1491
29400SOL    HW291094   1.814  10.092   4.927 -1.1963 -1.5574  1.4350
29401SOL     OW91095   7.236   8.815  10.156 -0.3028  0.1423  0.4678
29401SOL    HW191096   7.159   8.787  10.204 -0.4844  1.2912  0.8650
29401SOL    HW291097   7.205   8.832  10.067 -0.0795 -1.4060  0.0582
29402SOL     OW91098   3.893   8.701   8.467  0.2969  0.5631  0.2515
29402SOL    HW191099   3.880   8.784   8.513 -2.2615 -0.2509  1.2066
29402SOL    HW291100   3.805   8.662   8.463  0.8192 -0.5869 -3.1677
29403SOL     OW91101   1.905   3.213   8.581 -0.4284  0.2163 -0.4667
29403SOL    HW191102   1.967   3.244   8.514 -1.3029  3.8888  0.2310
29403SOL    HW291103   1.955   3.148   8.631  1.8851  0.9473 -1.6873
29404SOL     OW91104   0.886   4.734   5.682 -0.5318  0.1577 -0.1515
29404SOL    HW191105   0.960   4.793   5.696  0.2686 -1.0790  1.0641
29404SOL    HW291106   0.846   4.765   5.601  0.0059  2.1943  0.2918
29405SOL     OW91107   3.220   7.285   6.236 -0.3639 -0.2113 -0.6791
29405SOL    HW191108   3.289   7.273   6.171  0.6767  2.7054 -0.2402
29405SOL    HW291109   3.258   7.248   6.317 -0.0159 -0.1618 -0.8174
29406SOL     OW91110   0.300   7.954   4.631 -0.3610  0.2517 -0.1526
29406SOL    HW191111   0.383   7.945   4.585 -0.0515  1.5147  0.1059
29406SOL    HW291112   0.234   7.926   4.568  0.2793 -1.3558 -0.1546
29407SOL     OW91113   6.655   8.392   8.281  0.7308  0.0261 -0.0009
29407SOL    HW191114   6.604   8.346   8.214  1.7036 -0.9896 -0.0695
29407SOL    HW291115   6.601   8.387   8.360  0.4672 -0.5118 -0.2116
29408SOL     OW91116   0.231   5.684   9.541 -0.4099  0.3035  0.3484
29408SOL    HW191117   0.211   5.708   9.631  0.9265 -0.0927  0.7768
29408SOL    HW291118   0.277   5.760   9.505  1.6180 -0.6029  0.9288
29409SOL     OW91119   7.523   9.265   8.103 -0.0212 -0.1399  0.0026
29409SOL    HW191120   7.473   9.200   8.153 -1.2233  0.0317 -0.9427
29409SOL    HW291121   7.586   9.300   8.166  1.1274 -2.6699  0.3990
29410SOL     OW91122   8.163   8.904   3.705 -0.2469 -0.4103 -0.3981
29410SOL    HW191123   8.226   8.888   3.776  1.7411 -0.5398 -2.0906
29410SOL    HW291124   8.087   8.850   3.728  0.4900 -0.7753  1.3965
29411SOL     OW91125   5.192  10.004   0.263 -0.0079 -0.3542  0.8048
29411SOL    HW191126   5.118   9.965   0.309 -1.1531 -0.0191 -0.6560
29411SOL    HW291127   5.222   9.935   0.203  0.0129 -0.0393  0.4536
29412SOL     OW91128   4.087   8.008   8.109  0.1926 -0.0045 -0.0858
29412SOL    HW191129   4.078   8.083   8.168 -1.5165 -0.1165 -0.1553
29412SOL    HW291130   3.999   7.995   8.073  0.1160 -2.7658  0.8448
29413SOL     OW91131   4.424   3.528   0.052  0.0977 -0.0993 -0.2226
29413SOL    HW191132   4.421   3.504  -0.040  3.0717 -2.6680  0.1716
29413SOL    HW291133   4.468   3.613   0.054  0.1309 -0.0881 -1.1474
29414SOL     OW91134   4.792   9.828   0.036  0.2557  0.3065 -0.0676
29414SOL    HW191135   4.779   9.749   0.088 -0.7301  0.0330 -0.7092
29414SOL    HW291136   4.809   9.897   0.101 -0.5482 -0.1058  0.5928
29415SOL     OW91137   3.043   8.032   4.504  0.2678  0.0770  0.4346
29415SOL    HW191138   2.997   8.071   4.579  1.1414 -0.1855  1.1137
29415SOL    HW291139   3.007   8.079   4.429  0.2065  1.1576  1.1085
29416SOL     OW91140   5.058   4.511   3.584 -0.1835  0.3914  0.4122
29416SOL    HW191141   5.086   4.447   3.518 -0.4179 -0.2154  0.8892
29416SOL    HW291142   5.127   4.508   3.650 -1.7023 -1.8023  2.0693
29417SOL     OW91143   1.371   7.174   1.299  0.1296  0.3882  0.0244
29417SOL    HW191144   1.413   7.252   1.335 -1.1479  0.5823  1.1959
29417SOL    HW291145   1.285   7.172   1.341 -0.7432 -0.4141 -1.6910
29418SOL     OW91146   3.611   1.247   0.588 -0.4522 -0.0898  0.4569
29418SOL    HW191147   3.601   1.181   0.519  1.3361 -1.1295  1.1113
29418SOL    HW291148   3.638   1.326   0.542  0.9261 -0.8225 -0.0661
29419SOL     OW91149   1.807  10.629   6.155 -0.0622 -0.9966  0.1516
29419SOL    HW191150   1.766  10.715   6.140  0.4497 -1.0331 -1.6919
29419SOL    HW291151   1.901  10.648   6.160 -0.0783 -1.2030  2.0677
29420SOL     OW91152   6.909   9.731   2.227  0.2982 -0.2197  0.1034
29420SOL    HW191153   6.968   9.782   2.171  1.7129 -0.6665  1.1317
29420SOL    HW291154   6.887   9.790   2.299  1.6757 -0.8937  1.1214
29421SOL     OW91155   6.496   8.807   7.564  0.0112  0.0696  0.1572
29421SOL    HW191156   6.446   8.818   7.645  0.9001  1.0521  0.5926
29421SOL    HW291157   6.434   8.765   7.504 -0.4255 -1.4804  1.5817
29422SOL     OW91158   2.007  10.459   1.533  0.3730  0.4273 -1.0088
29422SOL    HW191159   1.979  10.429   1.447 -0.3632  1.1209 -1.0235
29422SOL    HW291160   1.926  10.484   1.577  0.8941  1.7980 -0.7892
29423SOL     OW91161   5.744   8.528   3.082  0.3008 -0.2910  0.2551
29423SOL    HW191162   5.696   8.555   3.160  1.3635  0.0876  0.7911
29423SOL    HW291163   5.730   8.600   3.020  2.3017  1.1163  1.3315
29424SOL     OW91164   5.556  10.591   7.626 -0.3015  0.0087 -0.0616
29424SOL    HW191165   5.639  10.613   7.582  0.3608 -0.4572  0.9216
29424SOL    HW291166   5.516  10.676   7.645  0.9131  0.3251  1.2335
29425SOL     OW91167   5.694   7.056   5.307 -0.1583 -0.1780 -0.7127
29425SOL    HW191168   5.686   7.147   5.337 -0.7292 -0.9255  1.6249
29425SOL    HW291169   5.787   7.036   5.316 -0.0774  0.0749 -0.9576
29426SOL     OW91170   7.597  10.671   5.197 -0.1490  0.2539 -0.1612
29426SOL    HW191171   7.682  10.698   5.230 -0.0245 -1.7931  1.4312
29426SOL    HW291172   7.592  10.577   5.217 -2.7603  0.2995 -0.1689
29427SOL     OW91173   8.441   5.237   3.985 -0.4226  0.0948 -0.2351
29427SOL    HW191174   8.355   5.205   3.955 -0.9515 -0.8079  2.0485
29427SOL    HW291175   8.451   5.322   3.942 -1.2367 -0.9157 -2.6080
29428SOL     OW91176   9.869   0.978   9.084 -0.0651  0.7562  0.0086
29428SOL    HW191177   9.962   0.960   9.067  0.1740  1.0883  0.9203
29428SOL    HW291178   9.869   1.060   9.132 -0.9283  1.4629 -1.1263
29429SOL     OW91179   3.176   8.710   0.924 -0.4735 -0.4566  0.8567
29429SOL    HW191180   3.141   8.624   0.902  0.9866 -0.8752  0.0399
29429SOL    HW291181   3.099   8.761   0.951 -1.3988 -1.9127  1.0762
29430SOL     OW91182   5.768   2.332   0.899 -0.0242  0.2467 -0.5300
29430SOL    HW191183   5.758   2.424   0.875 -0.7807  0.2744 -0.1315
29430SOL    HW291184   5.759   2.285   0.816  0.7312  0.5498 -0.7884
29431SOL     OW91185   4.114   3.411   8.734 -0.4524  0.4273  0.0720
29431SOL    HW191186   4.197   3.408   8.688 -1.2008 -2.0894 -1.3297
29431SOL    HW291187   4.088   3.503   8.733  1.1550  0.9111 -1.5731
29432SOL     OW91188   5.597   4.830  10.785  0.2684  0.4534 -0.0946
29432SOL    HW191189   5.674   4.775  10.795  0.0806  0.3862  1.0849
29432SOL    HW291190   5.621   4.913  10.827 -1.0631 -0.3367  2.4516
29433SOL     OW91191   4.126   5.087   8.400 -0.4403  0.4603 -0.1706
29433SOL    HW191192   4.128   4.999   8.364 -1.3915  0.5446 -0.4589
29433SOL    HW291193   4.157   5.143   8.329 -2.0743  0.5987 -0.8033
29434SOL     OW91194   4.651   7.961   4.474  0.7966  0.0666  1.1830
29434SOL    HW191195   4.658   7.882   4.527 -0.3231 -0.4535  0.5874
29434SOL    HW291196   4.651   8.032   4.538 -1.2719 -0.5818  1.9874
29435SOL     OW91197   0.367   4.785   1.559 -0.0917 -0.3284 -0.2744
29435SOL    HW191198   0.298   4.809   1.621  0.7672  1.5103  0.0311
29435SOL    HW291199   0.319   4.761   1.479 -1.1138  2.2874 -0.5351
29436SOL     OW91200   9.689   4.005   2.517 -0.4267 -0.2261 -0.2238
29436SOL    HW191201   9.659   4.074   2.577 -0.0647  1.5381 -1.9494
29436SOL    HW291202   9.635   3.929   2.538 -1.7862  0.9855  0.8894
29437SOL     OW91203   8.591   2.933   4.422 -0.1433 -0.2586 -0.0388
29437SOL    HW191204   8.591   2.899   4.512 -0.3436 -4.2266 -1.3227
29437SOL    HW291205   8.676   2.976   4.412  0.0046 -0.0042  1.9564
29438SOL     OW91206   6.863   7.608  10.732 -0.5133  0.1875  0.1192
29438SOL    HW191207   6.921   7.629  10.806 -0.9021 -0.0649  0.5010
29438SOL    HW291208   6.776   7.631  10.762 -0.7393 -0.3788 -0.0751
29439SOL     OW91209   4.706   4.445   6.768 -0.2652 -0.1792  0.0388
29439SOL    HW191210   4.647   4.521   6.770  1.9963  1.7581 -1.7477
29439SOL    HW291211   4.700   4.412   6.678 -0.1936 -1.3298  0.4350
29440SOL     OW91212   6.088   0.087   2.731  0.1884  0.6986 -0.0083
29440SOL    HW191213   6.141   0.024   2.780 -2.0396 -0.3315  1.2155
29440SOL    HW291214   6.109   0.069   2.639  2.4816  0.8848  0.4016
29441SOL     OW91215   7.221   9.561   7.101  0.0506 -0.1986 -0.0948
29441SOL    HW191216   7.258   9.539   7.016 -0.4970 -0.0862 -0.3662
29441SOL    HW291217   7.236   9.484   7.155 -0.5722 -0.6919 -0.6164
29442SOL     OW91218   7.379   6.707   2.600  0.3683  0.1667 -0.1689
29442SOL    HW191219   7.383   6.665   2.514 -1.8649  0.4310 -0.4581
29442SOL    HW291220   7.351   6.797   2.581  1.2082  0.6386  0.7460
29443SOL     OW91221  10.437   5.039   4.259 -0.7331  0.9713 -0.3715
29443SOL    HW191222  10.457   4.959   4.210  0.8516  2.2075 -1.8769
29443SOL    HW291223  10.488   5.031   4.339  1.7268  1.6482 -1.7629
29444SOL     OW91224   9.997   8.265   4.313  0.9113 -0.0347 -0.2421
29444SOL    HW191225  10.080   8.268   4.267  1.6114  1.7244  1.0305
29444SOL    HW291226   9.937   8.315   4.258  1.1612  0.1818 -0.3213
29445SOL     OW91227  10.060   3.186   7.136  0.3383 -0.6158  0.1480
29445SOL    HW191228  10.088   3.095   7.126 -0.0414 -0.6040 -1.3654
29445SOL    HW291229  10.071   3.223   7.048 -0.2497  0.5866  0.5660
29446SOL     OW91230   0.173   8.729   9.982 -0.5283  0.0780 -0.2001
29446SOL    HW191231   0.245   8.666   9.974 -0.1720  0.1765  1.6638
29446SOL    HW291232   0.096   8.683   9.948  0.2369 -0.3248 -1.4566
29447SOL     OW91233   3.561   0.298   8.987  1.0599 -0.1512  0.9930
29447SOL    HW191234   3.623   0.325   9.055  2.7393  0.8916 -0.8531
29447SOL    HW291235   3.538   0.379   8.942 -2.7194 -0.3030  2.3498
29448SOL     OW91236   5.856   2.488   1.919  0.5966 -0.1164 -0.3950
29448SOL    HW191237   5.828   2.400   1.896  0.8284 -0.3942  0.3624
29448SOL    HW291238   5.835   2.497   2.012  0.0605  0.8312 -0.5975
29449SOL     OW91239   6.808   2.332   3.818  0.1509 -0.4736 -0.0499
29449SOL    HW191240   6.896   2.304   3.844 -0.6268  0.4262  4.2808
29449SOL    HW291241   6.814   2.428   3.815 -0.6905 -0.4057  0.3180
29450SOL     OW91242   2.665   5.100   7.295  0.6685 -0.2621  1.0561
29450SOL    HW191243   2.665   5.100   7.391 -0.3797  0.2338  1.0743
29450SOL    HW291244   2.596   5.162   7.271  0.5358 -0.7905 -0.0169
29451SOL     OW91245   9.125   4.297   3.503  0.6170  0.0567 -0.6251
29451SOL    HW191246   9.150   4.258   3.587 -1.2103  0.8832  0.3771
29451SOL    HW291247   9.148   4.390   3.512  2.1005 -0.1542 -1.7966
29452SOL     OW91248   1.067   7.486   0.463  0.2263  0.1940  0.1071
29452SOL    HW191249   1.106   7.425   0.525 -1.4004 -0.9956  0.0098
29452SOL    HW291250   0.985   7.513   0.503  0.3097  1.3268 -0.4414
29453SOL     OW91251   4.365   2.969   3.454 -0.3875  0.0938 -0.2900
29453SOL    HW191252   4.310   3.026   3.507  0.7794  1.9255 -0.9531
29453SOL    HW291253   4.427   2.931   3.516  0.8151  2.0262 -0.2600
29454SOL     OW91254   1.982   0.879   8.323 -0.3917 -0.0487  0.7665
29454SOL    HW191255   2.064   0.923   8.344 -0.1477  0.3744 -0.9513
29454SOL    HW291256   1.913   0.942   8.347 -0.0779  0.9673 -0.9016
29455SOL     OW91257   5.907   2.215   2.044  0.7342 -0.0157  0.3508
29455SOL    HW191258   5.867   2.297   2.074 -1.9634 -0.8177 -0.7510
29455SOL    HW291259   5.859   2.147   2.091  1.7949 -1.0218  0.0028
29456SOL     OW91260   1.195   6.491   3.321  0.0189  0.1836  0.2945
29456SOL    HW191261   1.265   6.519   3.263  1.5172 -0.8651  1.5239
29456SOL    HW291262   1.200   6.551   3.396  1.1575 -1.2960  1.4524
29457SOL     OW91263   2.123   5.706   1.567  0.4145  0.6011 -0.1036
29457SOL    HW191264   2.146   5.720   1.659 -0.1535  3.3422 -0.2911
29457SOL    HW291265   2.207   5.712   1.521  0.5168  0.7527  0.0993
29458SOL     OW91266   8.418   7.088   0.417  0.5095 -0.5402  0.3271
29458SOL    HW191267   8.492   7.095   0.356  0.5518 -2.5986  0.0633
29458SOL    HW291268   8.418   7.172   0.464  1.8477  0.2337 -0.9567
29459SOL     OW91269   8.520   1.226   2.009  0.9328  0.1550 -0.0213
29459SOL    HW191270   8.539   1.293   2.075 -0.4240  1.8687 -1.2599
29459SOL    HW291271   8.441   1.258   1.965  2.2269 -0.4779 -3.0134
29460SOL     OW91272   4.250   6.708  10.500 -0.2646 -0.0879  0.3523
29460SOL    HW191273   4.225   6.640  10.563  2.0208  0.2112  1.7118
29460SOL    HW291274   4.167   6.746  10.471 -1.5609 -2.8225  0.2129
29461SOL     OW91275   3.707   4.624   5.048  0.1281  0.1124 -0.2042
29461SOL    HW191276   3.782   4.575   5.080 -0.0114  0.0394  0.0109
29461SOL    HW291277   3.685   4.683   5.119 -0.3281 -0.2142 -0.0728
29462SOL     OW91278   6.830   3.175   6.126  0.7641  0.4509 -0.2443
29462SOL    HW191279   6.826   3.107   6.192 -0.4430  1.2850  0.5941
29462SOL    HW291280   6.923   3.186   6.107  1.0783 -0.2647  0.8135
29463SOL     OW91281   1.589  10.108   6.544 -0.5111  0.4420  0.0165
29463SOL    HW191282   1.572  10.187   6.596 -1.8637  0.4783 -0.4425
29463SOL    HW291283   1.639  10.140   6.469  2.3252  0.2465  1.6924
29464SOL     OW91284   7.370   0.460   4.212 -0.4819 -0.6424 -0.0544
29464SOL    HW191285   7.294   0.425   4.258  1.1580 -2.1528  1.7102
29464SOL    HW291286   7.369   0.554   4.231 -0.2887 -1.0846  2.6046
29465SOL     OW91287   2.905   1.929   1.672  0.3019 -0.3384  0.3362
29465SOL    HW191288   2.970   1.991   1.705  1.1334 -0.9242 -0.1467
29465SOL    HW291289   2.827   1.982   1.657  0.4103  0.2362  1.6558
29466SOL     OW91290   8.113   5.580   3.903 -0.5269 -0.0080 -0.3008
29466SOL    HW191291   8.128   5.486   3.917  4.7854  0.8123  2.6091
29466SOL    HW291292   8.140   5.596   3.813  2.7010 -0.9521  0.3658
29467SOL     OW91293   6.499   5.576   9.388  0.5511 -0.0456 -0.5206
29467SOL    HW191294   6.442   5.524   9.445  1.6485 -1.2946 -0.5355
29467SOL    HW291295   6.457   5.572   9.302  0.3329 -0.4348 -0.3973
29468SOL     OW91296   3.381   7.630   5.552  0.5635  0.0529  0.3085
29468SOL    HW191297   3.460   7.634   5.607  0.2953 -0.1456  0.7153
29468SOL    HW291298   3.410   7.661   5.466  0.8126  1.1120  0.7630
29469SOL     OW91299   5.834   0.146   1.932  0.1069 -0.3270  0.1683
29469SOL    HW191300   5.882   0.093   1.994  0.8399 -1.1712 -1.0684
29469SOL    HW291301   5.901   0.189   1.879 -0.4934  0.4292 -0.0107
29470SOL     OW91302   3.878   7.382   2.025  0.1197  0.2925 -0.0535
29470SOL    HW191303   3.956   7.331   2.050  1.0991  0.1899 -2.9768
29470SOL    HW291304   3.905   7.473   2.035 -0.5025  0.2926  1.9537
29471SOL     OW91305   0.732   1.393  10.032 -0.5802 -0.5396  0.2673
29471SOL    HW191306   0.752   1.319  10.090 -1.3985 -1.2258 -0.3052
29471SOL    HW291307   0.640   1.413  10.050  0.2403  2.0038  2.2365
29472SOL     OW91308   7.065   1.169   6.239 -0.3214  0.1335 -0.0721
29472SOL    HW191309   7.014   1.104   6.190 -1.3660 -3.2353  4.7449
29472SOL    HW291310   6.999   1.218   6.288  0.7471  0.7796  0.7457
29473SOL     OW91311   1.790   6.223   0.139 -0.0057 -0.0693 -0.1994
29473SOL    HW191312   1.711   6.260   0.179 -0.0137 -0.6837  0.3671
29473SOL    HW291313   1.843   6.299   0.115 -0.4283  0.3294  0.1161
29474SOL     OW91314   3.619   1.865   1.664  0.5086 -0.2963 -0.8595
29474SOL    HW191315   3.683   1.870   1.734  1.0068 -0.3368 -1.3044
29474SOL    HW291316   3.627   1.775   1.630 -0.7289 -0.7398 -0.0481
29475SOL     OW91317   1.535   4.886  10.218 -0.4303 -0.0892 -0.5343
29475SOL    HW191318   1.582   4.917  10.140  0.2104  0.0986 -0.0839
29475SOL    HW291319   1.520   4.966  10.269 -0.6739 -0.2405 -0.3692
29476SOL     OW91320   8.165   6.895   9.200  0.0930 -0.0815 -0.3067
29476SOL    HW191321   8.239   6.916   9.257  0.1767 -0.6370 -0.2013
29476SOL    HW291322   8.204   6.848   9.126 -0.1694 -0.5664 -0.1471
29477SOL     OW91323   1.516   7.011   7.111  0.4618 -0.5725 -0.6654
29477SOL    HW191324   1.494   6.931   7.158  3.4413 -0.6148  0.8952
29477SOL    HW291325   1.543   6.980   7.024 -0.1439 -1.0712 -0.6797
29478SOL     OW91326  10.629   9.956   4.358  0.9370 -0.0950  0.2921
29478SOL    HW191327  10.647   9.976   4.266  1.0205  0.1261  0.3552
29478SOL    HW291328  10.664  10.032   4.405  2.2896 -0.8984  0.6296
29479SOL     OW91329   3.947   5.893   5.884 -0.1672  0.5042 -0.6196
29479SOL    HW191330   3.973   5.961   5.822 -0.4110  0.1140 -1.1515
29479SOL    HW291331   3.991   5.814   5.853 -1.1192  0.0732 -0.9032
29480SOL     OW91332   0.905   2.382   0.927 -0.1449 -0.0062 -0.1802
29480SOL    HW191333   0.855   2.301   0.936 -1.5165  0.8813  0.4421
29480SOL    HW291334   0.995   2.353   0.914 -0.4334 -1.6140  1.1040
29481SOL     OW91335   8.130   7.639   9.716 -0.8367 -0.2284  0.0628
29481SOL    HW191336   8.073   7.699   9.764  1.6562  2.1986  0.2374
29481SOL    HW291337   8.218   7.656   9.751  0.5143 -1.2117 -2.5845
29482SOL     OW91338   8.529   5.189   3.365 -0.2712  0.0033  0.1667
29482SOL    HW191339   8.516   5.118   3.429  2.4896 -0.8902 -0.1262
29482SOL    HW291340   8.559   5.263   3.418 -1.6067  0.4699  0.2920
29483SOL     OW91341   4.420   1.060   1.470 -0.4468 -0.5152 -0.2761
29483SOL    HW191342   4.461   1.126   1.414  1.2806 -1.3415 -0.0430
29483SOL    HW291343   4.415   1.102   1.556 -0.2238 -0.3553 -0.3387
29484SOL     OW91344   6.916   5.112   5.638 -0.4078  0.6071 -0.7737
29484SOL    HW191345   6.856   5.038   5.627 -0.9136  0.5398  1.7607
29484SOL    HW291346   6.859   5.189   5.635 -0.4347  0.6356  0.1120
29485SOL     OW91347   5.225   0.252   4.957  0.1311 -0.0984 -0.0621
29485SOL    HW191348   5.206   0.311   5.030  0.5077  0.1945 -0.1979
29485SOL    HW291349   5.150   0.193   4.953  0.5590 -0.7624  1.2009
29486SOL     OW91350   6.860   7.284   9.600 -0.3974  0.4203 -0.4954
29486SOL    HW191351   6.837   7.336   9.523 -2.9435 -0.9331 -0.7609
29486SOL    HW291352   6.787   7.223   9.610  1.7323 -2.1321  0.6736
29487SOL     OW91353   3.588   9.172   6.286 -0.2240 -0.4129  0.0123
29487SOL    HW191354   3.646   9.217   6.225 -1.8073  0.5018 -0.9072
29487SOL    HW291355   3.523   9.129   6.230  0.3050 -2.5931  0.9340
29488SOL     OW91356   6.145   4.291  10.664  0.2177 -0.3673 -0.3656
29488SOL    HW191357   6.083   4.220  10.677  0.9904 -0.7190  1.9763
29488SOL    HW291358   6.231   4.251  10.678  0.7406  0.7947 -0.0924
29489SOL     OW91359   0.621   1.186   0.062  0.0285  0.2491 -0.4564
29489SOL    HW191360   0.693   1.240   0.095  0.4360 -0.3320 -0.3881
29489SOL    HW291361   0.563   1.249   0.018  0.7006  0.6864 -0.7324
29490SOL     OW91362   1.255   5.692   1.238 -0.0006 -0.1045  0.8066
29490SOL    HW191363   1.163   5.715   1.227  0.1449  1.1037  1.7765
29490SOL    HW291364   1.303   5.768   1.204  0.5268  0.8174  3.3262
29491SOL     OW91365   6.803   1.121   4.623  0.2794  0.1074 -0.7250
29491SOL    HW191366   6.856   1.047   4.652 -1.6438 -1.1841 -0.3010
29491SOL    HW291367   6.858   1.166   4.559  2.3257 -0.4182  0.5544
29492SOL     OW91368   5.574   6.133   6.910 -0.3038  0.4467 -0.4331
29492SOL    HW191369   5.608   6.218   6.882 -2.3438  1.5632  0.2524
29492SOL    HW291370   5.547   6.090   6.828 -0.9298  1.2450 -0.6609
29493SOL     OW91371   0.402   7.934   5.855  0.6114  0.1318 -0.3147
29493SOL    HW191372   0.401   7.998   5.784  0.8148 -0.6062 -0.9976
29493SOL    HW291373   0.313   7.899   5.859  0.6723 -0.0384 -0.4094
29494SOL     OW91374  10.537   2.086   0.917 -0.1175  0.7841  0.4499
29494SOL    HW191375  10.457   2.044   0.885 -1.1896  0.3889  3.3502
29494SOL    HW291376  10.505   2.157   0.973  1.4995  0.1997  2.2082
29495SOL     OW91377   6.829  10.002   8.243  0.4428  0.2140  0.5807
29495SOL    HW191378   6.756   9.947   8.216 -0.2770  1.5857 -0.3850
29495SOL    HW291379   6.874  10.024   8.161  1.4422  0.0951  1.0760
29496SOL     OW91380   7.335   2.989   8.028  0.2424  0.0155  0.4164
29496SOL    HW191381   7.266   2.934   8.065 -1.2645  1.4009 -0.1911
29496SOL    HW291382   7.402   2.992   8.095 -0.5613 -0.8848  1.2955
29497SOL     OW91383   2.127   8.209   6.773 -0.2407  0.3760 -0.1884
29497SOL    HW191384   2.115   8.147   6.702 -1.0286 -0.4372  0.6252
29497SOL    HW291385   2.189   8.167   6.833  0.0114  0.8189 -0.1358
29498SOL     OW91386   9.897   4.186   8.531  0.4849 -0.0309 -0.0447
29498SOL    HW191387   9.892   4.246   8.457  0.3091 -0.6907 -0.5776
29498SOL    HW291388   9.911   4.242   8.607 -0.3421  0.7351 -0.4433
29499SOL     OW91389   4.568   5.646   7.918 -0.5370  0.0385  0.5079
29499SOL    HW191390   4.657   5.633   7.885 -0.4429  0.9354  0.3863
29499SOL    HW291391   4.576   5.717   7.982 -1.3802  1.1178 -0.5389
29500SOL     OW91392   2.928   9.374   7.182  0.6874  0.1033 -0.4011
29500SOL    HW191393   2.993   9.306   7.162 -0.8066 -0.2696 -5.5501
29500SOL    HW291394   2.853   9.325   7.215  0.8414 -0.3367 -0.6798
29501SOL     OW91395   2.035   0.250   4.807  0.1415 -0.1495 -0.2891
29501SOL    HW191396   2.053   0.216   4.895  1.7504 -0.8106 -0.8328
29501SOL    HW291397   2.064   0.181   4.748 -0.8172  0.3282 -1.3580
29502SOL     OW91398   1.236   7.124   1.070 -0.5856 -0.5356 -0.1716
29502SOL    HW191399   1.283   7.165   1.143 -0.5875 -0.1640 -0.3757
29502SOL    HW291400   1.143   7.142   1.089 -0.5959 -0.5760 -0.1838
29503SOL     OW91401  10.024   7.239  10.790 -0.0544 -0.5330  0.2160
29503SOL    HW191402   9.984   7.310  10.739 -0.4128 -0.9366 -0.0805
29503SOL    HW291403  10.118   7.251  10.779 -0.1235 -0.6008 -0.5422
29504SOL     OW91404   0.049   5.094   9.236 -0.2268  0.6053  0.5770
29504SOL    HW191405   0.078   5.098   9.145 -1.6297  0.2589  0.0792
29504SOL    HW291406  -0.022   5.029   9.235  1.6829 -1.6592  2.4799
29505SOL     OW91407   0.513   4.678   3.542 -0.1865  0.1345  0.3662
29505SOL    HW191408   0.500   4.759   3.493  0.5176 -0.4329 -0.7804
29505SOL    HW291409   0.606   4.659   3.536  0.2537  0.8424  3.2503
29506SOL     OW91410   9.767   6.235   1.287  0.1626  0.7306  1.0577
29506SOL    HW191411   9.856   6.207   1.264 -0.5708 -0.6580 -0.1880
29506SOL    HW291412   9.773   6.331   1.290  1.2672  0.7848 -1.0047
29507SOL     OW91413   8.489   3.851   5.676  0.7470  0.1191 -0.3730
29507SOL    HW191414   8.498   3.786   5.607  0.6097 -0.1472 -0.1401
29507SOL    HW291415   8.436   3.808   5.743  0.5363  0.5205 -0.2800
29508SOL     OW91416   6.421   8.710   5.677 -0.0335 -0.0797 -0.3423
29508SOL    HW191417   6.409   8.778   5.611  1.3053  0.7132  0.2058
29508SOL    HW291418   6.332   8.687   5.704 -0.5613  0.2641 -1.7053
29509SOL     OW91419   9.142  10.365   8.633  0.4469 -0.3791 -0.4631
29509SOL    HW191420   9.146  10.395   8.542  0.9739  1.4318  0.1080
29509SOL    HW291421   9.125  10.271   8.627  0.0406 -0.2204 -2.4156
29510SOL     OW91422   8.864   7.272   6.793 -0.7759  0.2156  0.5362
29510SOL    HW191423   8.800   7.206   6.818 -0.1992 -1.0910 -1.1984
29510SOL    HW291424   8.815   7.336   6.741 -0.7528 -0.6555 -0.5894
29511SOL     OW91425  10.233   4.532   5.740  0.2533  0.4964  0.0080
29511SOL    HW191426  10.253   4.545   5.832  1.8759  1.4973 -0.4415
29511SOL    HW291427  10.220   4.437   5.731 -1.4777  0.5547  1.5078
29512SOL     OW91428   3.417   5.139   8.851  0.1739  0.1137  0.1144
29512SOL    HW191429   3.384   5.227   8.869  0.6395 -0.0702  2.1190
29512SOL    HW291430   3.484   5.124   8.918  0.6116 -1.5017 -0.6274
29513SOL     OW91431   2.616   1.953   6.285 -0.2971 -0.5179  0.5419
29513SOL    HW191432   2.670   1.978   6.360 -0.6551  1.5960  0.1452
29513SOL    HW291433   2.635   1.860   6.273  1.6521 -0.3338  1.7013
29514SOL     OW91434   7.783   5.666   3.819 -0.6713  0.0753  0.4365
29514SOL    HW191435   7.842   5.624   3.756 -0.0785  0.1820  0.9098
29514SOL    HW291436   7.700   5.676   3.772 -0.4091 -0.3808 -0.1284
29515SOL     OW91437   9.832   0.440   6.269  0.0256  0.1440 -0.0600
29515SOL    HW191438   9.751   0.447   6.218  0.3099 -0.4162 -0.5990
29515SOL    HW291439   9.864   0.529   6.276 -1.6681  0.6753  1.8677
29516SOL     OW91440   6.472   1.819   8.394 -0.3278  0.3304  0.9870
29516SOL    HW191441   6.396   1.793   8.447 -1.3845 -1.3167 -1.1840
29516SOL    HW291442   6.493   1.741   8.343  1.3317  1.5133 -0.2055
29517SOL     OW91443   2.516   0.746   0.102  0.1011 -0.1710 -0.3326
29517SOL    HW191444   2.603   0.785   0.093 -0.0585  0.6195  1.2788
29517SOL    HW291445   2.479   0.749   0.013  1.9869 -1.2221 -1.1880
29518SOL     OW91446   9.018   8.719   5.891  0.1480  0.1844 -0.4366
29518SOL    HW191447   9.026   8.726   5.796 -0.7424 -0.5300 -0.5914
29518SOL    HW291448   8.989   8.805   5.919  0.8815  0.5392 -0.7530
29519SOL     OW91449   4.569   9.632   6.645 -0.5118 -0.1213 -0.1036
29519SOL    HW191450   4.552   9.582   6.724 -2.8211 -0.6815 -0.8956
29519SOL    HW291451   4.523   9.715   6.658  0.2340  0.3433 -0.3228
29520SOL     OW91452   3.129   4.284   2.149  0.0474 -0.2970 -0.3013
29520SOL    HW191453   3.168   4.364   2.186 -3.6080  0.9793  1.2448
29520SOL    HW291454   3.117   4.304   2.057 -1.8462  1.5042  0.2672
29521SOL     OW91455   0.736   0.485   2.092  0.3860 -0.4505  0.2439
29521SOL    HW191456   0.679   0.512   2.020  0.1606  1.4691  1.0670
29521SOL    HW291457   0.825   0.493   2.057  0.3606  1.9339  0.5351
29522SOL     OW91458   3.267   6.324   8.315 -0.1718 -1.0221  0.1106
29522SOL    HW191459   3.211   6.377   8.258  1.2038  0.5817  0.1992
29522SOL    HW291460   3.222   6.324   8.399  0.7648  1.7595  0.6884
29523SOL     OW91461   5.017   4.910   9.365  0.3490 -0.5638 -0.4915
29523SOL    HW191462   4.958   4.840   9.339 -0.5954  0.0500 -0.0532
29523SOL    HW291463   5.088   4.908   9.300  0.3349 -1.9076 -0.4793
29524SOL     OW91464   9.548   9.615   0.328 -0.1138  0.3508 -0.6915
29524SOL    HW191465   9.468   9.663   0.307  0.6337  2.1760  0.4463
29524SOL    HW291466   9.618   9.667   0.289  0.7498  0.3734  0.8374
29525SOL     OW91467   2.803   1.667   1.148  0.4807 -0.5129  0.5222
29525SOL    HW191468   2.742   1.619   1.092  0.5461 -1.6748  1.4085
29525SOL    HW291469   2.749   1.730   1.195  0.3346  0.0473 -0.3757
29526SOL     OW91470   3.978  10.582   8.619  0.4700  1.3162 -0.1326
29526SOL    HW191471   3.926  10.615   8.692  0.4835 -0.3835  0.6947
29526SOL    HW291472   3.936  10.617   8.541 -1.6227  0.4016  0.5278
29527SOL     OW91473   5.928   7.564   0.242 -0.3233 -0.0912 -0.2858
29527SOL    HW191474   5.977   7.490   0.278  0.1708  0.2328 -0.2809
29527SOL    HW291475   5.976   7.641   0.272 -1.0675  0.2482  0.0459
29528SOL     OW91476  10.036   0.037   9.432  0.2772  0.1078 -0.0567
29528SOL    HW191477  10.002  -0.008   9.355  0.4464 -0.5886  0.2617
29528SOL    HW291478   9.971   0.105   9.451 -0.7983 -0.9931  0.3550
29529SOL     OW91479   9.165   8.234   5.862 -0.1870 -0.3131  0.5041
29529SOL    HW191480   9.160   8.329   5.871  0.6910 -0.3436  1.5563
29529SOL    HW291481   9.239   8.219   5.803 -0.2096 -0.3457  0.4838
29530SOL     OW91482   2.975   5.313   6.340  0.3336  0.0434 -0.0914
29530SOL    HW191483   3.066   5.311   6.311  0.1197 -2.4711 -0.7658
29530SOL    HW291484   2.925   5.339   6.262  0.2913 -0.8354 -0.3661
29531SOL     OW91485   3.051   6.497   7.687  0.1006 -0.6228 -0.3356
29531SOL    HW191486   3.089   6.566   7.632  0.0323  0.6806  1.2115
29531SOL    HW291487   3.002   6.442   7.625  0.8661  0.1999 -1.7226
29532SOL     OW91488   1.694   8.177  10.510 -0.3096 -0.0479  0.0677
29532SOL    HW191489   1.716   8.268  10.529 -3.8581  0.6687  1.5715
29532SOL    HW291490   1.667   8.141  10.594  2.0399 -2.9317 -0.2611
29533SOL     OW91491   0.546   3.479   6.951 -0.0707 -0.1037  0.0268
29533SOL    HW191492   0.470   3.531   6.926  0.6520  1.4506  0.8833
29533SOL    HW291493   0.534   3.462   7.045  1.3394  1.5188  0.5569
29534SOL     OW91494   8.777   9.929   8.138  0.0480  0.8280  0.3080
29534SOL    HW191495   8.776   9.919   8.233 -2.6068 -0.0957  0.2571
29534SOL    HW291496   8.719  10.003   8.120  0.1008  0.6638 -0.6120
29535SOL     OW91497   0.892   3.699   3.115  0.1345 -0.2928  0.0666
29535SOL    HW191498   0.878   3.679   3.023 -1.8927 -3.2851  0.8721
29535SOL    HW291499   0.864   3.790   3.125  0.6962  0.1843 -2.2867
29536SOL     OW91500   9.907   3.672   9.124  0.7324 -0.5427  0.7048
29536SOL    HW191501   9.827   3.724   9.126  0.7180 -0.5753  0.9867
29536SOL    HW291502   9.877   3.581   9.124  0.7770 -0.5741  1.8396
29537SOL     OW91503   3.940   9.333   4.905  0.4952 -0.2416  0.2371
29537SOL    HW191504   3.946   9.421   4.870  2.1024 -0.4536 -0.1069
29537SOL    HW291505   3.869   9.292   4.856  1.2770  0.1385 -1.2549
29538SOL     OW91506   2.888   2.259   3.200 -0.5298 -0.0233  0.0219
29538SOL    HW191507   2.935   2.267   3.117 -1.9189 -1.4950 -0.9753
29538SOL    HW291508   2.940   2.197   3.250 -2.1361 -3.0573 -1.7727
29539SOL     OW91509   9.797   2.680   5.634  0.1489  0.2794 -0.2586
29539SOL    HW191510   9.813   2.610   5.571 -0.6127 -0.1389 -0.0022
29539SOL    HW291511   9.868   2.671   5.698  0.7574  0.5219 -0.8854
29540SOL     OW91512   9.336  10.097   3.080  0.2392 -0.2436 -0.3758
29540SOL    HW191513   9.386  10.079   3.160  1.2466 -0.8356 -1.1034
29540SOL    HW291514   9.384  10.168   3.038 -0.0397 -0.2278 -0.6681
29541SOL     OW91515  10.449   6.715   6.862  0.1833  0.2761 -0.2405
29541SOL    HW191516  10.391   6.697   6.936  1.0760 -0.2705  0.3420
29541SOL    HW291517  10.454   6.632   6.815  0.9792  0.1396  0.0678
29542SOL     OW91518   6.436   5.471   1.106  0.0280  0.1249  0.3600
29542SOL    HW191519   6.494   5.398   1.123 -0.2046 -0.2452 -0.3872
29542SOL    HW291520   6.452   5.532   1.178 -0.1573 -0.8795  1.2811
29543SOL     OW91521   8.058   6.703  10.267 -0.1437 -1.0968  0.2653
29543SOL    HW191522   8.077   6.615  10.299  0.0756 -0.3359  2.3871
29543SOL    HW291523   7.971   6.723  10.302 -0.3671 -0.6248 -0.5454
29544SOL     OW91524   8.151   0.154   1.015 -0.0235  0.2904 -0.3477
29544SOL    HW191525   8.164   0.059   1.012  0.1072  0.3311 -1.7819
29544SOL    HW291526   8.056   0.165   1.018 -0.0291  0.1198  0.2537
29545SOL     OW91527  10.633   2.371   2.926 -0.0523  0.1154  0.5209
29545SOL    HW191528  10.643   2.458   2.889  2.9612  0.5638  2.0811
29545SOL    HW291529  10.539   2.363   2.944 -0.9576  1.6065 -2.7562
29546SOL     OW91530   9.820   1.168   2.719 -0.1357 -0.0120  0.7073
29546SOL    HW191531   9.865   1.172   2.803  1.1018 -0.5982  0.1066
29546SOL    HW291532   9.840   1.252   2.677 -0.1577 -0.0060  0.7088
29547SOL     OW91533   6.880   8.896   4.181  0.1327 -0.0427 -0.3293
29547SOL    HW191534   6.868   8.991   4.188  0.1448 -0.0556 -0.1203
29547SOL    HW291535   6.847   8.862   4.264 -0.7985 -0.3090 -0.8001
29548SOL     OW91536   3.889   0.048   9.019  0.5792  0.6006 -0.0945
29548SOL    HW191537   3.903   0.130   9.065  0.2128  0.6954 -0.1462
29548SOL    HW291538   3.949  -0.014   9.060  0.4723  0.7614  0.3032
29549SOL     OW91539   4.835  10.685   9.485  0.3955  0.9096  0.9855
29549SOL    HW191540   4.784  10.671   9.565  1.4867 -0.0527  1.5521
29549SOL    HW291541   4.845  10.598   9.447 -0.7294  1.4362 -0.6434
29550SOL     OW91542   0.971   5.921   8.365  0.2050  0.1064  0.4022
29550SOL    HW191543   0.936   5.981   8.299  0.5896 -0.1149 -0.0075
29550SOL    HW291544   0.895   5.898   8.419  0.1853  1.5260  1.0319
29551SOL     OW91545   5.471   6.891   6.596 -0.2818 -0.2267  0.2907
29551SOL    HW191546   5.453   6.808   6.640 -2.5349  0.2838  0.4782
29551SOL    HW291547   5.477   6.868   6.503 -0.3391 -0.6892  0.4013
29552SOL     OW91548   1.025   6.068  10.252  0.0673  0.6467  0.2113
29552SOL    HW191549   1.062   5.982  10.269  0.6228  0.7834 -0.2589
29552SOL    HW291550   1.098   6.129  10.267  0.2828  0.8619 -1.4523
29553SOL     OW91551   7.381   6.132   3.397 -0.2740 -0.3277  0.4905
29553SOL    HW191552   7.304   6.171   3.439  0.2584  1.3097  0.0478
29553SOL    HW291553   7.358   6.040   3.384 -1.5743 -0.2033  1.6869
29554SOL     OW91554   2.065   4.075   7.411 -0.3926  0.1736  0.3453
29554SOL    HW191555   2.081   4.077   7.505  0.2544  1.2546  0.2278
29554SOL    HW291556   2.086   3.985   7.385  0.0158  0.0300  1.1388
29555SOL     OW91557   7.222  10.536   1.436 -0.7518 -0.1300 -0.2495
29555SOL    HW191558   7.217  10.545   1.341 -2.1872  1.1964 -0.0907
29555SOL    HW291559   7.309  10.570   1.459 -0.5103 -0.1889 -1.0466
29556SOL     OW91560   2.076   7.726   6.633 -0.1509 -0.5152 -0.0346
29556SOL    HW191561   2.013   7.699   6.565  0.3249  1.3161 -1.2925
29556SOL    HW291562   2.162   7.711   6.594  0.1575 -0.7001  0.7028
29557SOL     OW91563   9.926   2.272   3.036  0.0896 -0.2081  0.0399
29557SOL    HW191564   9.947   2.310   3.121 -1.4433  0.1048  0.3093
29557SOL    HW291565   9.998   2.213   3.018 -0.2563 -1.4064  2.2468
29558SOL     OW91566   9.476   9.399   5.265  0.0149 -0.3753  0.2922
29558SOL    HW191567   9.394   9.448   5.268  1.3734  2.0153  0.7568
29558SOL    HW291568   9.470   9.347   5.184 -1.5824  0.3931 -0.1199
29559SOL     OW91569   0.924   0.153   6.945 -0.1304  0.2192 -0.9428
29559SOL    HW191570   0.850   0.187   6.895 -0.9014 -0.2123 -0.1207
29559SOL    HW291571   0.987   0.225   6.947 -0.0798  0.2497 -2.5067
29560SOL     OW91572   1.317   7.038   7.573 -0.3320  0.1209  0.7604
29560SOL    HW191573   1.371   7.112   7.600  0.2312  0.2839 -0.7105
29560SOL    HW291574   1.322   6.977   7.646 -0.3683  1.2990  1.7672
29561SOL     OW91575   9.507   0.758   9.607 -0.5003  0.1605  0.1045
29561SOL    HW191576   9.515   0.825   9.540 -1.7815  1.0678  0.8277
29561SOL    HW291577   9.590   0.762   9.655  1.1098 -1.5722 -2.3006
29562SOL     OW91578   7.808   5.446   1.566  0.2410 -0.6714  0.2752
29562SOL    HW191579   7.846   5.404   1.489  1.2166  0.3990  0.1457
29562SOL    HW291580   7.766   5.525   1.532  0.3802 -0.3685  0.7967
29563SOL     OW91581   8.392   3.630   9.714  0.6151 -0.3298  0.2604
29563SOL    HW191582   8.297   3.628   9.712  0.4296  2.8524 -1.5944
29563SOL    HW291583   8.419   3.594   9.629  0.7607  2.1550 -0.8343
29564SOL     OW91584   5.598   7.124   6.564  0.1509 -0.0270 -0.0030
29564SOL    HW191585   5.565   7.039   6.593  0.3915  0.4195  1.6868
29564SOL    HW291586   5.532   7.187   6.595  0.6524  0.5278 -0.0400
29565SOL     OW91587   1.941   8.258   9.981  0.4016 -0.5215  0.1630
29565SOL    HW191588   1.900   8.259  10.068 -2.1934  0.9111 -0.9393
29565SOL    HW291589   1.882   8.311   9.927  2.4752 -0.4982 -2.2486
29566SOL     OW91590  10.003   6.080   5.142 -0.3563 -0.2529 -0.1267
29566SOL    HW191591   9.925   6.038   5.105 -0.3222 -0.5962  0.1810
29566SOL    HW291592   9.991   6.173   5.124 -1.6044 -0.1054  1.2906
29567SOL     OW91593  10.483   9.415   6.555  0.0894  0.5362 -0.7072
29567SOL    HW191594  10.468   9.485   6.491 -0.8526  0.7643 -0.2503
29567SOL    HW291595  10.398   9.402   6.596  1.1676  2.0895  2.2570
29568SOL     OW91596  10.278   6.997   1.762 -0.2055  0.2660  0.0873
29568SOL    HW191597  10.279   7.024   1.854 -0.2425 -1.8081  0.7517
29568SOL    HW291598  10.359   7.032   1.725  0.2547  0.3761  1.1640
29569SOL     OW91599   8.687   3.319   8.710 -0.6269 -0.4766  0.4858
29569SOL    HW191600   8.735   3.399   8.731  0.7004 -1.6167  2.1393
29569SOL    HW291601   8.616   3.316   8.775 -0.2413 -0.9577  0.8992
29570SOL     OW91602   3.082   3.640   1.047 -1.1228  0.7758  0.0728
29570SOL    HW191603   3.171   3.673   1.035  0.4083 -2.2788  1.7277
29570SOL    HW291604   3.068   3.583   0.971 -0.2032 -1.3582  1.3989
29571SOL     OW91605   4.099   5.570   4.564 -0.6575  0.0149 -0.2290
29571SOL    HW191606   4.037   5.624   4.613 -0.4821  1.7021 -1.7248
29571SOL    HW291607   4.073   5.480   4.581 -1.0769  0.5393  2.2637
29572SOL     OW91608   2.425   4.268   8.243 -0.4327  0.7349 -0.2317
29572SOL    HW191609   2.380   4.207   8.302 -0.1915  0.8673  0.0924
29572SOL    HW291610   2.398   4.354   8.273 -1.5098  0.7921 -1.2686
29573SOL     OW91611   6.591  10.601   9.145 -0.4974  0.2171 -0.4787
29573SOL    HW191612   6.509  10.578   9.101 -0.2714  0.1537 -0.8750
29573SOL    HW291613   6.659  10.577   9.082 -0.2003  0.8339 -0.4028
29574SOL     OW91614   4.927   3.066   8.689 -0.2738  0.9364  0.2955
29574SOL    HW191615   4.988   3.053   8.617 -0.3111  1.8491  0.0971
29574SOL    HW291616   4.842   3.038   8.653 -0.1904  0.8213  0.1857
29575SOL     OW91617   7.825   7.411   8.251  0.7882 -0.3004 -0.0015
29575SOL    HW191618   7.856   7.335   8.201 -1.8760 -2.7155  1.6719
29575SOL    HW291619   7.842   7.388   8.342  0.1107  1.2084  0.5272
29576SOL     OW91620   5.631  10.153   0.659  0.0159 -0.1171 -0.0077
29576SOL    HW191621   5.651  10.096   0.585  0.7098 -0.4640  0.4424
29576SOL    HW291622   5.557  10.110   0.703 -0.6272  0.2698 -0.6810
29577SOL     OW91623   2.813   3.824   0.353 -0.5357 -0.6186 -0.4226
29577SOL    HW191624   2.754   3.831   0.428  0.4276  1.4403  0.2206
29577SOL    HW291625   2.784   3.894   0.293  0.6826 -0.1346 -0.4701
29578SOL     OW91626   3.723   1.182   5.779 -0.1148  0.4630  0.2146
29578SOL    HW191627   3.729   1.106   5.721 -0.4296  0.6800 -0.1065
29578SOL    HW291628   3.778   1.160   5.854  0.7668  0.4212 -0.4330
29579SOL     OW91629   0.257   9.063   6.106 -0.3717 -0.2606 -0.4092
29579SOL    HW191630   0.310   9.017   6.171 -0.2032 -1.0582 -1.0957
29579SOL    HW291631   0.172   9.076   6.149 -0.1685 -0.5296  0.0766
29580SOL     OW91632   4.756   5.344   9.083  0.0466 -0.0785 -0.7484
29580SOL    HW191633   4.847   5.316   9.081  0.0492 -0.2797  0.7889
29580SOL    HW291634   4.738   5.361   9.175 -1.0473  1.3904 -1.1917
29581SOL     OW91635   6.931   5.218   4.178  0.4850  0.3631 -0.4254
29581SOL    HW191636   6.869   5.288   4.196  0.7769  0.5861 -0.2713
29581SOL    HW291637   6.936   5.169   4.260 -0.0169 -0.0788 -0.6536
29582SOL     OW91638   4.793   5.657   6.053 -0.6202  0.8872 -0.2112
29582SOL    HW191639   4.714   5.694   6.012 -1.4935 -0.6749 -0.0287
29582SOL    HW291640   4.819   5.723   6.117 -1.3448  1.7626 -0.7769
29583SOL     OW91641   5.599  10.181   1.081 -0.6123 -0.3595 -0.0241
29583SOL    HW191642   5.687  10.213   1.100 -1.6318  1.3808  2.2090
29583SOL    HW291643   5.613  10.091   1.049  1.9473 -0.0209 -0.0914
29584SOL     OW91644   7.512   4.974   5.122 -0.2266 -0.2541  0.5436
29584SOL    HW191645   7.516   5.018   5.037 -1.2827 -0.8538  0.1712
29584SOL    HW291646   7.576   4.903   5.114 -0.3821 -0.3615  0.2171
29585SOL     OW91647   6.931   6.746   0.040  0.2723  0.4182 -0.4903
29585SOL    HW191648   6.940   6.722   0.132 -0.1735  2.4178  0.1296
29585SOL    HW291649   7.020   6.765   0.011  0.1341  4.5864  1.0495
29586SOL     OW91650   0.356   8.378   0.005  0.5113 -0.2490 -0.2055
29586SOL    HW191651   0.282   8.359  -0.052 -0.6709  0.3994  1.0477
29586SOL    HW291652   0.374   8.295   0.049 -1.9301  0.3429  2.1824
29587SOL     OW91653   9.017   9.407   6.856  0.3874 -0.2937 -0.0944
29587SOL    HW191654   8.975   9.445   6.933 -2.5630 -0.7755 -1.3070
29587SOL    HW291655   9.110   9.409   6.875 -0.2049 -0.4693  3.5078
29588SOL     OW91656   0.664   9.113   6.630 -0.0865  0.3144  0.0684
29588SOL    HW191657   0.616   9.066   6.562 -0.4588  0.8903 -0.0700
29588SOL    HW291658   0.716   9.178   6.583  2.9517 -1.9687 -0.0747
29589SOL     OW91659   5.076  10.433  10.721  0.8075 -0.1199 -0.0292
29589SOL    HW191660   5.172  10.442  10.718  0.7131  4.8815  1.9101
29589SOL    HW291661   5.057  10.420  10.814 -0.4410 -0.9566 -0.3872
29590SOL     OW91662   8.356   4.119   9.358  0.5456 -0.0218 -0.1951
29590SOL    HW191663   8.380   4.042   9.410  0.1635  0.3189  0.4913
29590SOL    HW291664   8.440   4.159   9.335  0.7165 -0.2116  0.0912
29591SOL     OW91665   7.470   6.142   8.452  0.0266 -0.1540  0.0292
29591SOL    HW191666   7.494   6.049   8.441  0.3796 -0.2461  1.3634
29591SOL    HW291667   7.387   6.140   8.499 -1.0201  0.2157 -1.7086
29592SOL     OW91668   6.529   8.324   9.329 -0.2279 -0.6576 -0.4688
29592SOL    HW191669   6.474   8.245   9.324 -0.8039 -0.2079 -1.3346
29592SOL    HW291670   6.497   8.369   9.407  0.4929 -1.5449  0.3779
29593SOL     OW91671   2.265   4.151   8.427  0.5573 -0.5505 -0.4803
29593SOL    HW191672   2.303   4.108   8.504  0.0485  0.5195  0.3904
29593SOL    HW291673   2.173   4.122   8.427  0.3758  0.0241 -0.2612
29594SOL     OW91674   2.900   4.121   5.111  0.0035 -0.6046 -0.3628
29594SOL    HW191675   2.971   4.184   5.121 -0.8504  0.0956  2.2706
29594SOL    HW291676   2.911   4.086   5.023  2.1394  1.2257 -0.9284
29595SOL     OW91677   5.901   4.209   7.505  0.0593 -0.1330 -0.2048
29595SOL    HW191678   5.951   4.152   7.447 -1.2296  0.3112 -1.8232
29595SOL    HW291679   5.828   4.155   7.535 -0.1113  0.0985 -0.1997
29596SOL     OW91680   6.446   1.467  10.141  0.4742  0.0097 -0.4609
29596SOL    HW191681   6.535   1.473  10.108  0.1988  0.4400 -1.1384
29596SOL    HW291682   6.439   1.537  10.206  0.9346 -0.6775  0.3648
29597SOL     OW91683   9.270   1.971   7.877  0.0966 -0.4763 -1.7063
29597SOL    HW191684   9.361   1.994   7.896 -0.0959 -0.6316 -0.5341
29597SOL    HW291685   9.256   1.889   7.924 -0.8617 -0.0641 -1.2561
29598SOL     OW91686   4.457   3.145   6.954  0.6104 -0.5170  0.7907
29598SOL    HW191687   4.472   3.195   7.034 -0.1842  2.9518 -1.0436
29598SOL    HW291688   4.492   3.201   6.884 -1.7248 -1.8317 -1.5999
29599SOL     OW91689   1.669   8.740   5.487 -0.1967  0.0601  0.1883
29599SOL    HW191690   1.603   8.728   5.418 -0.7838 -0.7050  0.8719
29599SOL    HW291691   1.623   8.723   5.568  0.3581  1.4836  0.8469
29600SOL     OW91692   2.524   8.376   1.731 -0.5519  0.1546  0.1772
29600SOL    HW191693   2.514   8.311   1.661  0.4001  1.2470 -0.9991
29600SOL    HW291694   2.552   8.324   1.807 -0.6146 -0.9111 -0.4994
29601SOL     OW91695   7.920  10.054   1.547 -0.5916 -0.4008  0.0538
29601SOL    HW191696   7.907  10.144   1.576 -1.4686 -0.7144  0.6958
29601SOL    HW291697   7.863  10.002   1.604 -1.0779 -1.2303 -1.1438
29602SOL     OW91698   7.292   6.173   2.936 -0.3528  0.2558 -0.3702
29602SOL    HW191699   7.369   6.215   2.897 -0.4261  0.3942 -0.3674
29602SOL    HW291700   7.327   6.120   3.008 -0.3659  1.1282  0.2899
29603SOL     OW91701   7.990   6.403   3.348  0.5762 -0.3648 -0.5746
29603SOL    HW191702   7.909   6.448   3.324  0.8235 -0.1004 -0.9298
29603SOL    HW291703   8.036   6.390   3.265  0.0251 -2.2638 -0.6163
29604SOL     OW91704   2.445   0.889   9.205 -0.1719  0.3056  0.0261
29604SOL    HW191705   2.441   0.797   9.179 -2.2522  0.2238  0.5209
29604SOL    HW291706   2.539   0.908   9.207  0.2441 -0.8841 -3.1490
29605SOL     OW91707   8.578   2.258   7.634  0.0525 -0.0007 -0.6518
29605SOL    HW191708   8.651   2.303   7.676  0.6791 -0.4337 -1.2644
29605SOL    HW291709   8.615   2.176   7.602 -0.5988 -0.0431 -1.3293
29606SOL     OW91710   2.988   2.148   7.463  0.1159  0.1599 -0.0136
29606SOL    HW191711   2.927   2.110   7.400  0.2740  0.3708 -0.2929
29606SOL    HW291712   3.004   2.077   7.526 -0.7454  0.2338  0.3099
29607SOL     OW91713   8.611   2.024  10.081 -0.5406  0.1879 -0.0889
29607SOL    HW191714   8.669   2.011  10.006 -1.1266  0.6390 -0.6334
29607SOL    HW291715   8.669   2.030  10.156  0.0368 -0.6455 -0.4565
29608SOL     OW91716   4.732   7.057   9.194  0.2420  0.3368  0.0408
29608SOL    HW191717   4.714   7.149   9.179  0.2142  0.3585  0.2091
29608SOL    HW291718   4.744   7.049   9.289  2.5060  0.5666 -0.1833
29609SOL     OW91719   2.026   5.549   5.261 -0.9008 -0.3343 -0.0403
29609SOL    HW191720   1.975   5.469   5.249 -0.9606 -0.1712 -0.9228
29609SOL    HW291721   2.117   5.518   5.268 -1.0131 -0.5445  0.5661
29610SOL     OW91722   3.650   3.849   5.491  0.4817 -0.0510 -0.2401
29610SOL    HW191723   3.612   3.875   5.575 -0.5333 -2.2543  0.0617
29610SOL    HW291724   3.626   3.757   5.482  2.1529 -0.3609 -2.1013
29611SOL     OW91725   9.165   4.901   9.317 -0.2194  0.3180  0.2083
29611SOL    HW191726   9.163   4.955   9.238 -0.1194 -0.0376 -0.0363
29611SOL    HW291727   9.113   4.824   9.296  1.5473 -0.8125 -0.2799
29612SOL     OW91728  10.430   3.821   4.370  0.0393 -0.1225 -0.6533
29612SOL    HW191729  10.507   3.827   4.426 -0.3141  0.4002 -0.2180
29612SOL    HW291730  10.455   3.760   4.300  0.3384 -1.1235  0.3089
29613SOL     OW91731   1.469   5.633   0.278 -1.3628 -0.3103  0.1768
29613SOL    HW191732   1.378   5.605   0.278 -1.3652 -0.3322  0.8125
29613SOL    HW291733   1.499   5.614   0.367 -0.8955  0.1951  0.1297
29614SOL     OW91734   3.465   6.829   9.302 -0.7232 -0.3752 -0.1228
29614SOL    HW191735   3.554   6.865   9.295 -0.1159 -1.4484  1.6507
29614SOL    HW291736   3.450   6.818   9.396 -1.5712 -2.9889 -0.4775
29615SOL     OW91737   0.151   3.367   4.226 -0.1276  0.5080  0.0470
29615SOL    HW191738   0.198   3.451   4.226  1.7222 -0.4699 -0.5229
29615SOL    HW291739   0.080   3.380   4.289  1.2687  1.8887  1.4519
29616SOL     OW91740   6.414   2.545   1.640  0.0892  0.5602 -0.1041
29616SOL    HW191741   6.475   2.584   1.703  0.1504  0.0122  0.1864
29616SOL    HW291742   6.468   2.485   1.588 -0.1260  0.3641 -0.1024
29617SOL     OW91743   9.867   7.722   1.978 -0.7142  0.3628  0.3741
29617SOL    HW191744   9.791   7.760   1.935 -0.3807  1.2044  0.4944
29617SOL    HW291745   9.874   7.634   1.943 -0.2865  1.1013 -1.5355
29618SOL     OW91746  10.150   6.570   3.887  0.6329 -0.2793  0.4824
29618SOL    HW191747  10.210   6.514   3.837 -1.7377 -0.9347 -1.8188
29618SOL    HW291748  10.136   6.523   3.969  2.1990 -0.7402  0.5234
29619SOL     OW91749   9.373   5.144   9.111  0.1716  0.2597  0.2923
29619SOL    HW191750   9.323   5.215   9.150  1.2811  1.4163 -0.3099
29619SOL    HW291751   9.434   5.117   9.180  0.9764  1.1482 -0.0495
29620SOL     OW91752   3.360   1.421   5.765 -0.1371 -0.2689 -0.3877
29620SOL    HW191753   3.265   1.429   5.775  0.1126  2.7447  0.6935
29620SOL    HW291754   3.376   1.443   5.673 -0.4142  0.3811 -0.2850
29621SOL     OW91755   9.654   9.077   3.647  0.2957 -0.9024 -0.3907
29621SOL    HW191756   9.727   9.025   3.614  0.4139 -0.6617 -0.5118
29621SOL    HW291757   9.600   9.095   3.569  0.5335 -0.3996 -0.4446
29622SOL     OW91758   6.161   3.844   6.846 -0.0588 -0.0972  0.0833
29622SOL    HW191759   6.102   3.800   6.784 -0.0734  0.3997 -0.2588
29622SOL    HW291760   6.109   3.854   6.926 -0.5984  0.7615 -0.3685
29623SOL     OW91761  10.572   7.687   3.503 -0.1855 -0.1107  0.0459
29623SOL    HW191762  10.482   7.668   3.478 -0.1513 -0.4175  0.1486
29623SOL    HW291763  10.604   7.747   3.435 -0.5982  0.3379  0.2421
29624SOL     OW91764   3.856   5.686   6.460  0.2031 -0.4164 -0.0725
29624SOL    HW191765   3.926   5.731   6.412  0.0435 -0.1167 -0.0270
29624SOL    HW291766   3.843   5.739   6.539 -2.7948  1.9040 -1.8674
29625SOL     OW91767   3.407   9.692  10.577  0.9901 -0.3804  0.2191
29625SOL    HW191768   3.484   9.636  10.571  0.2594 -1.4036  0.1286
29625SOL    HW291769   3.403   9.717  10.669  0.9532 -1.0184  0.3931
29626SOL     OW91770   9.722   9.215   2.257 -0.7763  0.2167  0.7637
29626SOL    HW191771   9.809   9.223   2.297  0.6510  1.1600 -2.2603
29626SOL    HW291772   9.728   9.138   2.201 -2.0955 -0.0068  0.8908
29627SOL     OW91773   8.423   1.358   4.460 -0.2065 -0.0682 -0.5024
29627SOL    HW191774   8.373   1.317   4.531 -0.1975 -1.0766 -1.0611
29627SOL    HW291775   8.357   1.387   4.397 -0.1110 -1.3440 -1.2103
29628SOL     OW91776   8.215   5.231   5.035  0.4694  0.3850  0.2336
29628SOL    HW191777   8.223   5.154   5.092 -0.0007 -0.0146 -0.2351
29628SOL    HW291778   8.291   5.225   4.977 -1.0768 -1.4142 -1.8022
29629SOL     OW91779   1.079   1.545   1.184 -0.2121 -0.4827  0.2886
29629SOL    HW191780   1.101   1.452   1.193  1.8397  0.1786  3.8060
29629SOL    HW291781   1.150   1.581   1.130 -1.0827 -0.9083 -1.1947
29630SOL     OW91782   1.825   5.042  10.683 -0.1571 -0.2222  0.1048
29630SOL    HW191783   1.738   5.011  10.659 -0.2484 -0.5331  0.8114
29630SOL    HW291784   1.883   4.969  10.664 -0.1930 -0.3718  0.5467
29631SOL     OW91785   8.973   9.298   9.073 -0.2348  0.2858 -0.1891
29631SOL    HW191786   9.000   9.237   9.004  1.4653 -0.0940  0.7758
29631SOL    HW291787   8.940   9.374   9.025 -1.0018 -0.7643 -1.4141
29632SOL     OW91788   3.198   6.899   0.544 -0.2867  1.1766 -0.2413
29632SOL    HW191789   3.178   6.966   0.479 -0.6708 -0.0344 -1.4163
29632SOL    HW291790   3.212   6.948   0.625  0.4953  2.7599 -1.2735
29633SOL     OW91791   8.108   2.098   3.572 -0.1240 -0.3662 -0.0887
29633SOL    HW191792   8.131   2.175   3.624  0.0493 -0.9619  0.7407
29633SOL    HW291793   8.110   2.129   3.481  1.9319  0.1455  0.0705
29634SOL     OW91794   1.581   0.192   5.563  0.2013 -0.0269 -0.2738
29634SOL    HW191795   1.599   0.108   5.522  2.1141 -1.0702  2.4867
29634SOL    HW291796   1.569   0.172   5.656 -2.2226  2.4223  0.0731
29635SOL     OW91797   2.453   2.730  10.245  0.1998  0.1203  0.3498
29635SOL    HW191798   2.475   2.734  10.152  1.6294  0.7171  0.6868
29635SOL    HW291799   2.523   2.677  10.284  0.8190  1.6375  1.3902
29636SOL     OW91800   4.472   7.290   0.634  0.1659  0.2426 -0.4283
29636SOL    HW191801   4.397   7.276   0.691  0.9769 -0.0081  0.5998
29636SOL    HW291802   4.435   7.328   0.554 -1.0684 -0.0828 -0.0225
29637SOL     OW91803   4.996   7.379   9.747 -0.2335  0.2729 -0.1302
29637SOL    HW191804   5.010   7.300   9.696  0.4468  1.0879 -1.2621
29637SOL    HW291805   4.910   7.410   9.722 -0.6997 -0.3364  0.6657
29638SOL     OW91806   7.907   0.310   6.299 -0.1710  0.1429 -0.1032
29638SOL    HW191807   7.912   0.400   6.268 -1.6276  0.8757  1.6232
29638SOL    HW291808   7.879   0.260   6.223 -2.3306  1.6602 -0.3943
29639SOL     OW91809   9.598   8.908   3.867  0.1450  0.2515 -0.3435
29639SOL    HW191810   9.588   8.991   3.913 -2.0272  0.5281 -1.1653
29639SOL    HW291811   9.595   8.931   3.774 -1.2861 -0.7540 -0.5886
29640SOL     OW91812   7.524   0.139   0.037 -0.0384 -0.1956  0.5208
29640SOL    HW191813   7.434   0.110   0.052  0.5599 -1.4902  1.9517
29640SOL    HW291814   7.578   0.072   0.081  1.6756 -0.1427 -1.3766
29641SOL     OW91815   7.619   2.799   6.753 -0.1147  0.1877  0.2006
29641SOL    HW191816   7.689   2.810   6.689  1.1461 -0.4442  1.4139
29641SOL    HW291817   7.588   2.888   6.770  1.2174  0.6211  0.5027
29642SOL     OW91818   6.976   8.408   6.672  0.1205 -0.0376  0.0771
29642SOL    HW191819   6.883   8.383   6.673  0.1497 -0.2086 -0.6273
29642SOL    HW291820   6.983   8.472   6.601 -0.2594  3.4193  2.8774
29643SOL     OW91821   9.231   5.306   2.764  0.2040 -0.2178  0.1542
29643SOL    HW191822   9.141   5.334   2.782 -0.4084 -2.3086  0.6531
29643SOL    HW291823   9.222   5.231   2.707  1.4695 -1.8461  1.9571
29644SOL     OW91824   9.288   5.958   7.438  0.1600  0.0370  0.1813
29644SOL    HW191825   9.278   6.040   7.487 -0.0750 -0.2876  0.6875
29644SOL    HW291826   9.361   5.975   7.378  0.2039  0.5703  0.3756
29645SOL     OW91827  10.466   4.508   2.873  1.1345 -0.2406 -0.2703
29645SOL    HW191828  10.390   4.566   2.863  0.4657 -1.2173 -0.9518
29645SOL    HW291829  10.529   4.560   2.924  0.0084  0.5728  0.3363
29646SOL     OW91830   9.671   9.519   1.622 -0.4710 -0.8894 -0.4168
29646SOL    HW191831   9.648   9.427   1.609 -0.7164 -1.0941  1.2159
29646SOL    HW291832   9.760   9.526   1.590 -0.2906 -1.8147 -0.1511
29647SOL     OW91833   1.474   6.995   0.655 -0.3137 -0.0293  0.4659
29647SOL    HW191834   1.452   6.942   0.579  1.4645 -0.1945  0.0288
29647SOL    HW291835   1.406   6.973   0.719 -1.0335 -0.9483 -0.5646
29648SOL     OW91836   3.864   6.364   9.626 -0.3694 -0.3700 -0.2790
29648SOL    HW191837   3.830   6.337   9.541 -0.4520  3.6231 -1.7266
29648SOL    HW291838   3.799   6.426   9.659  2.4091  2.7510 -0.2268
29649SOL     OW91839   1.186   5.854   0.015 -0.5386 -0.0632 -0.2291
29649SOL    HW191840   1.201   5.779  -0.043 -0.4081  0.3865 -0.7927
29649SOL    HW291841   1.091   5.858   0.024 -0.5489 -0.2790 -0.2177
29650SOL     OW91842   5.389   5.062   0.186 -0.2281  0.1914 -0.4431
29650SOL    HW191843   5.468   5.095   0.145 -1.8445  1.7295 -2.5333
29650SOL    HW291844   5.330   5.043   0.113 -2.1834  0.1751  1.0614
29651SOL     OW91845   4.636   0.672   8.563 -0.4726  0.6860  0.1141
29651SOL    HW191846   4.605   0.591   8.604  1.6393 -1.0063 -1.4103
29651SOL    HW291847   4.570   0.692   8.497  0.0660 -1.1823 -1.0850
29652SOL     OW91848   3.977   1.694   1.449 -0.3852 -0.5273 -0.3531
29652SOL    HW191849   3.896   1.744   1.440  0.8640  1.4905 -1.0893
29652SOL    HW291850   4.000   1.668   1.360 -0.4417 -1.4898 -0.0982
29653SOL     OW91851   3.005   2.508   9.940  0.3904 -0.2251 -0.2199
29653SOL    HW191852   2.943   2.580   9.954 -0.1811 -1.0130  1.5824
29653SOL    HW291853   3.062   2.511  10.017  0.8583 -1.2103 -0.5224
29654SOL     OW91854   5.878   5.981   9.773  0.0974  0.5080  0.3531
29654SOL    HW191855   5.937   5.949   9.705  1.0671 -0.2159  1.5030
29654SOL    HW291856   5.835   6.057   9.734 -0.8502 -1.0156 -1.7876
29655SOL     OW91857  10.532   5.395   9.710  0.4808  0.3467 -0.4192
29655SOL    HW191858  10.551   5.410   9.617  1.9066  2.3188  0.1294
29655SOL    HW291859  10.616   5.404   9.754 -0.3951  0.9671  1.2246
29656SOL     OW91860   2.213   0.178   7.931  0.4715 -0.1379 -0.1700
29656SOL    HW191861   2.233   0.269   7.952 -1.0439  0.9954 -3.0776
29656SOL    HW291862   2.282   0.153   7.869 -0.6349  0.0624 -1.5508
29657SOL     OW91863   1.132   1.043   0.899  0.1522  0.0026  1.0790
29657SOL    HW191864   1.089   0.973   0.948 -1.3518  0.5488  0.6186
29657SOL    HW291865   1.156   1.108   0.966  0.2806 -0.3269  1.3534
29658SOL     OW91866   6.409   2.802   0.239 -0.2008  0.1754 -0.3055
29658SOL    HW191867   6.387   2.875   0.298  2.0256  0.7715 -0.1105
29658SOL    HW291868   6.470   2.749   0.290  0.9206  0.1074 -1.6736
29659SOL     OW91869   4.377   8.641   6.131 -0.3216 -0.9236  0.2414
29659SOL    HW191870   4.310   8.687   6.182  1.4140 -0.3113  2.0662
29659SOL    HW291871   4.436   8.604   6.196  1.5962 -0.7438 -1.3204
29660SOL     OW91872   2.724   6.793   0.394  0.0650  0.4154 -0.4657
29660SOL    HW191873   2.751   6.781   0.303 -0.4791 -1.5500 -0.4213
29660SOL    HW291874   2.736   6.886   0.411  0.9244  0.6826 -2.3025
29661SOL     OW91875   5.523  10.602   0.724 -0.2799 -0.0170  0.0475
29661SOL    HW191876   5.495  10.693   0.737  0.6211  0.1902  0.5558
29661SOL    HW291877   5.511  10.560   0.809 -1.0288 -0.4790 -0.2737
29662SOL     OW91878   3.601   1.324   7.105 -0.0665 -0.4930 -0.1655
29662SOL    HW191879   3.691   1.352   7.118 -0.5027  1.0607 -0.3209
29662SOL    HW291880   3.588   1.330   7.010 -0.2249 -1.0696 -0.1835
29663SOL     OW91881   1.867  10.631   0.991 -0.4576 -0.0824  0.0102
29663SOL    HW191882   1.895  10.688   1.063 -0.8638 -0.4855  0.4953
29663SOL    HW291883   1.771  10.636   0.993 -0.5041 -0.8747  0.1351
29664SOL     OW91884   3.323   9.870   7.071 -0.5607 -0.9109  0.0057
29664SOL    HW191885   3.251   9.812   7.095 -0.9303 -0.3731  0.2119
29664SOL    HW291886   3.316   9.878   6.976 -0.2271 -1.5567 -0.0845
29665SOL     OW91887   2.878   3.615   8.903 -0.0441  0.0239 -0.3580
29665SOL    HW191888   2.916   3.570   8.979 -1.0086 -1.6025 -0.7893
29665SOL    HW291889   2.863   3.704   8.934 -1.3367 -0.8283  1.7513
29666SOL     OW91890   2.171   7.657   2.946 -0.1550 -0.3126  0.4006
29666SOL    HW191891   2.134   7.687   3.029 -2.6242 -0.1766 -0.6462
29666SOL    HW291892   2.183   7.737   2.895  2.3110 -0.2920  0.9207
29667SOL     OW91893   9.390   8.727   8.883 -0.2137  0.8465 -0.2638
29667SOL    HW191894   9.478   8.760   8.895 -0.9005  2.1875  1.5888
29667SOL    HW291895   9.345   8.794   8.832 -0.3140  0.4024 -0.7742
29668SOL     OW91896   0.448   9.402   5.021 -0.6436 -0.2802  0.3883
29668SOL    HW191897   0.506   9.357   5.081 -1.3040 -0.0215  1.2474
29668SOL    HW291898   0.372   9.344   5.012 -0.5146 -0.3554 -0.2660
29669SOL     OW91899   4.513   1.089   6.717  0.1240  0.3396  0.4002
29669SOL    HW191900   4.490   1.169   6.669 -1.9546 -0.6748 -0.4413
29669SOL    HW291901   4.499   1.111   6.809 -0.3014  0.9970  0.1875
29670SOL     OW91902   1.541   3.271   0.517 -0.2867 -0.1048 -0.0246
29670SOL    HW191903   1.620   3.248   0.566  2.1539  1.2041 -2.9396
29670SOL    HW291904   1.518   3.358   0.549 -0.8681 -0.6605  1.1328
29671SOL     OW91905   2.932   1.342   0.570 -0.1331 -0.5278 -0.1474
29671SOL    HW191906   2.891   1.422   0.603  1.9876  0.8641 -0.7068
29671SOL    HW291907   3.023   1.348   0.598  0.6515 -1.5458 -2.2472
29672SOL     OW91908   5.987  10.284   5.412  0.3351 -0.2491  0.0138
29672SOL    HW191909   5.929  10.208   5.417 -0.2882  0.1212 -1.0771
29672SOL    HW291910   5.927  10.360   5.411  0.6192  0.0770 -3.2074
29673SOL     OW91911   4.480   0.955   8.267  0.0655  0.0603 -0.4829
29673SOL    HW191912   4.465   0.923   8.178  1.7621  0.3200 -0.8919
29673SOL    HW291913   4.473   0.876   8.321 -0.2526 -0.2225 -0.9185
29674SOL     OW91914   6.029   1.492   8.375  0.2092  0.2221  0.1145
29674SOL    HW191915   5.942   1.510   8.410  0.6068 -0.1963  1.3747
29674SOL    HW291916   6.087   1.549   8.425  0.8280 -0.6061  0.3682
29675SOL     OW91917   5.576   2.710   7.067 -0.7306 -0.2594  0.1022
29675SOL    HW191918   5.497   2.689   7.116 -1.2926 -1.6618 -1.3125
29675SOL    HW291919   5.562   2.671   6.981  0.9251  0.6628 -0.6395
29676SOL     OW91920   8.708   4.732   6.298 -0.6022 -0.1799  0.0407
29676SOL    HW191921   8.682   4.669   6.365 -1.6973  0.5273  0.3146
29676SOL    HW291922   8.694   4.687   6.215 -1.3256 -0.3343  0.2352
29677SOL     OW91923  10.792   1.164   2.038 -0.1212  0.0585 -0.3808
29677SOL    HW191924  10.798   1.165   2.134 -1.7331  0.0090 -0.2485
29677SOL    HW291925  10.827   1.248   2.011 -0.4484  0.4289  0.3189
29678SOL     OW91926   5.566  10.614   4.952  0.2408 -0.4407 -0.0544
29678SOL    HW191927   5.629  10.685   4.964  0.4354 -0.5939 -0.1646
29678SOL    HW291928   5.620  10.537   4.933  0.0563 -0.7183  0.5083
29679SOL     OW91929   6.700   0.399   7.481  0.2683 -0.0838 -0.5734
29679SOL    HW191930   6.682   0.422   7.572 -0.6558  0.9772 -1.0067
29679SOL    HW291931   6.727   0.307   7.484  0.5191  0.0257  0.7942
29680SOL     OW91932   4.191   8.013  10.750  0.3969  0.1289 -0.4048
29680SOL    HW191933   4.240   8.053  10.822  3.1588 -0.7180 -1.6515
29680SOL    HW291934   4.193   7.919  10.768  0.1633 -0.0023 -1.0298
29681SOL     OW91935   0.669   3.353   3.240 -0.0482  0.0436 -0.3393
29681SOL    HW191936   0.661   3.257   3.239  1.6648 -0.1218 -1.1275
29681SOL    HW291937   0.607   3.383   3.174  0.6845 -0.6685 -1.3830
29682SOL     OW91938   9.626   9.388   8.100  0.4468 -0.8974 -0.1369
29682SOL    HW191939   9.628   9.465   8.157  0.5885 -0.8940 -0.1472
29682SOL    HW291940   9.569   9.326   8.146 -0.8947 -0.2221 -0.8447
29683SOL     OW91941   5.977   7.358   8.854  0.3770 -0.2776 -0.5911
29683SOL    HW191942   5.951   7.415   8.782 -0.4458  2.4127  1.6829
29683SOL    HW291943   5.919   7.281   8.845 -2.3839  1.6637 -0.7200
29684SOL     OW91944   3.987   7.615   1.873 -0.5118  0.2601  0.0368
29684SOL    HW191945   4.040   7.694   1.885  0.4775 -0.6575  2.3333
29684SOL    HW291946   3.897   7.644   1.888 -0.3822  1.2611 -0.9516
29685SOL     OW91947   1.395   1.498   1.494  0.1136  0.5053  0.0974
29685SOL    HW191948   1.326   1.432   1.494  0.5330 -0.2555  5.0310
29685SOL    HW291949   1.474   1.451   1.470  0.1750 -0.6192  2.2937
29686SOL     OW91950   5.878   0.227   1.096  0.0708 -0.3564 -0.2936
29686SOL    HW191951   5.790   0.191   1.108  0.2731 -0.2427  1.9958
29686SOL    HW291952   5.937   0.156   1.120  0.6464 -0.4641 -1.9127
29687SOL     OW91953   5.006   2.169   1.831 -0.1413 -0.3945 -0.1915
29687SOL    HW191954   4.976   2.143   1.744  1.1610 -0.6998 -0.5695
29687SOL    HW291955   4.937   2.139   1.890 -0.4957 -1.2191 -0.9969
29688SOL     OW91956   8.353   1.825   2.251 -0.1226 -0.1344  0.0743
29688SOL    HW191957   8.406   1.750   2.278  1.2374  0.0027 -1.9769
29688SOL    HW291958   8.371   1.834   2.158  0.4740  3.2849  0.3955
29689SOL     OW91959   7.572   3.084   8.168 -0.5340 -0.0176  0.5491
29689SOL    HW191960   7.528   3.143   8.230 -3.0462  0.8280 -1.8785
29689SOL    HW291961   7.594   3.140   8.094  1.5096 -1.2234  0.1667
29690SOL     OW91962   3.788   7.166   9.169  0.1729 -0.0036  0.3883
29690SOL    HW191963   3.768   7.137   9.258  1.4614 -0.1774  0.6345
29690SOL    HW291964   3.873   7.126   9.149 -0.0921  0.0479 -0.9176
29691SOL     OW91965   5.017  10.666  10.045 -0.3900  0.0290  0.0200
29691SOL    HW191966   5.001  10.576  10.018  0.0961 -0.0615  0.0318
29691SOL    HW291967   5.059  10.659  10.131 -0.3906  0.2684  0.0413
29692SOL     OW91968   6.895   9.788   7.736 -0.1031 -0.0971  0.0633
29692SOL    HW191969   6.864   9.797   7.646 -2.3827 -0.5886  0.7379
29692SOL    HW291970   6.970   9.729   7.729  1.4443  1.9149 -1.7630
29693SOL     OW91971   7.843   0.678   1.765  0.2812  0.2766  0.2327
29693SOL    HW191972   7.805   0.630   1.691  1.6426  1.0392 -1.0068
29693SOL    HW291973   7.776   0.743   1.788 -0.0436  0.2188 -0.5170
29694SOL     OW91974   4.532   4.490   8.134  0.0571  0.4991 -0.0725
29694SOL    HW191975   4.586   4.514   8.209  1.0784  0.9483 -0.9336
29694SOL    HW291976   4.560   4.549   8.064 -0.9728  0.1775 -0.7787
29695SOL     OW91977   6.059   3.243   8.862 -0.0993  0.3259 -0.9629
29695SOL    HW191978   6.054   3.148   8.873  1.0467  0.4781  1.9642
29695SOL    HW291979   5.971   3.269   8.837 -1.4153 -1.2478  1.5938
29696SOL     OW91980   1.865   7.568   5.429  0.6187  0.3570  0.1274
29696SOL    HW191981   1.852   7.662   5.419 -1.6187 -0.0254 -1.2688
29696SOL    HW291982   1.897   7.539   5.344 -1.4064 -0.4886 -0.3978
29697SOL     OW91983   9.090   6.450   4.189 -0.3278 -0.2932 -0.0449
29697SOL    HW191984   9.020   6.514   4.194  0.2641  0.4051 -0.5473
29697SOL    HW291985   9.171   6.501   4.191  0.1577 -1.0301 -0.2139
29698SOL     OW91986   9.540   3.630   3.476 -0.2571  0.4574 -0.6966
29698SOL    HW191987   9.522   3.641   3.383 -0.7787 -0.9226 -0.7861
29698SOL    HW291988   9.497   3.704   3.518 -2.4047 -0.3741 -1.3171
29699SOL     OW91989   6.942   8.212   1.005  0.0932 -0.1793 -0.5795
29699SOL    HW191990   6.951   8.307   1.016  2.2087 -0.3260 -0.5477
29699SOL    HW291991   6.888   8.202   0.927 -1.4623  1.0134  0.2796
29700SOL     OW91992   6.079   6.564   1.576 -0.4340 -0.2273 -0.2230
29700SOL    HW191993   5.984   6.578   1.583 -0.1776  0.8744  1.5250
29700SOL    HW291994   6.096   6.488   1.631 -0.0537  0.8146  1.1307
29701SOL     OW91995   1.790   5.418   4.623 -0.5264  0.6068 -0.1039
29701SOL    HW191996   1.709   5.451   4.584 -0.7034  0.2082 -0.0865
29701SOL    HW291997   1.766   5.397   4.713 -0.4013  0.5018 -0.0941
29702SOL     OW91998   3.299   0.636   3.279 -0.1001  0.3291  0.2118
29702SOL    HW191999   3.249   0.601   3.352 -0.6327  1.7940  0.5826
29702SOL    HW292000   3.273   0.728   3.274  0.3838  0.4103 -1.4336
29703SOL     OW92001   5.185  10.095   4.462 -0.1953  0.2731  0.4407
29703SOL    HW192002   5.127  10.037   4.511  1.5463 -2.1150 -0.1311
29703SOL    HW292003   5.144  10.103   4.376 -0.7943  0.4726  0.7373
29704SOL     OW92004   8.431   8.992   8.456 -0.1024  0.1138 -0.2602
29704SOL    HW192005   8.440   9.049   8.380  1.3686  1.4383  0.8365
29704SOL    HW292006   8.352   9.024   8.500  0.9928  1.7745  0.6351
29705SOL     OW92007   1.112   2.861   5.491  0.3323  0.3832  0.5076
29705SOL    HW192008   1.132   2.857   5.584  2.3053  1.0077  0.1494
29705SOL    HW292009   1.161   2.936   5.458 -1.8483  1.3848 -0.7142
29706SOL     OW92010   8.861   8.895   0.831  0.2377 -1.1149  0.0144
29706SOL    HW192011   8.946   8.876   0.872 -0.1639 -0.4133  1.2318
29706SOL    HW292012   8.883   8.950   0.756  0.8980 -1.2535  0.1012
29707SOL     OW92013   6.175   9.707   6.924  0.0693 -0.1940  0.2256
29707SOL    HW192014   6.155   9.800   6.923 -0.7844 -0.3650 -1.4415
29707SOL    HW292015   6.177   9.681   6.832  0.2276 -1.8477  0.6528
29708SOL     OW92016   6.958   7.811   7.408  0.0391  0.1347 -0.4577
29708SOL    HW192017   7.010   7.745   7.454 -0.4337  0.0427 -0.0452
29708SOL    HW292018   7.020   7.881   7.389  0.0465  0.6587  1.2864
29709SOL     OW92019   8.412   0.227   2.115 -0.1678  0.6332  0.3321
29709SOL    HW192020   8.459   0.251   2.195 -0.3879  1.5634  0.1891
29709SOL    HW292021   8.319   0.228   2.141 -0.1490 -1.3255  0.6506
29710SOL     OW92022   3.271   1.966   0.558  0.1572 -0.6211 -0.5243
29710SOL    HW192023   3.213   1.915   0.614  0.7437 -2.1731 -1.2603
29710SOL    HW292024   3.356   1.922   0.564  0.1389 -1.1208 -2.9078
29711SOL     OW92025   4.903   5.508  10.296  0.1232  0.3089 -0.0348
29711SOL    HW192026   4.858   5.449  10.357 -0.2626  0.9313  0.2943
29711SOL    HW292027   4.871   5.483  10.210  1.7711 -1.5654 -0.1657
29712SOL     OW92028   0.444   3.180   7.810  0.6659  0.1239  0.0197
29712SOL    HW192029   0.497   3.258   7.796  0.7262  0.1006  0.1208
29712SOL    HW292030   0.386   3.176   7.734  0.6930  0.2428 -0.0066
29713SOL     OW92031  10.005   7.913   0.202 -0.3162 -0.0719 -0.4062
29713SOL    HW192032  10.017   7.915   0.297 -2.3310 -2.0734 -0.0137
29713SOL    HW292033   9.946   7.986   0.183  0.2321  0.4423 -0.1677
29714SOL     OW92034   3.668   0.828   2.736 -0.2657  0.5977  0.5257
29714SOL    HW192035   3.647   0.761   2.801 -0.1956  0.5844  0.5343
29714SOL    HW292036   3.756   0.806   2.706 -0.5444  0.2185 -0.0494
29715SOL     OW92037   9.762   6.206   9.185  0.2481 -0.2653 -0.0539
29715SOL    HW192038   9.688   6.221   9.245  0.3798  1.9356 -0.3419
29715SOL    HW292039   9.740   6.259   9.108  0.7521 -1.9349 -1.3985
29716SOL     OW92040   4.570   9.008  10.567  0.0132 -0.1732 -0.6876
29716SOL    HW192041   4.499   8.964  10.522  0.4538 -1.1949 -0.4042
29716SOL    HW292042   4.650   8.968  10.532  0.4694  1.0026 -1.0518
29717SOL     OW92043   7.838   7.972   2.610  0.3877 -0.0392  0.0447
29717SOL    HW192044   7.891   8.030   2.664  0.8361  0.2091 -0.6518
29717SOL    HW292045   7.781   8.030   2.560  1.0173 -0.1567 -0.8491
29718SOL     OW92046   6.810   5.900   3.457  0.7041 -0.2503 -0.2720
29718SOL    HW192047   6.749   5.960   3.500  2.2303  1.9019 -0.9144
29718SOL    HW292048   6.759   5.863   3.385 -0.5000 -0.3159  0.5715
29719SOL     OW92049   9.745   7.662   0.414 -0.4889 -0.7988 -0.1745
29719SOL    HW192050   9.800   7.665   0.336 -1.6631 -0.4529 -1.0302
29719SOL    HW292051   9.724   7.569   0.425 -0.0005 -0.8925 -0.0390
29720SOL     OW92052   9.882   5.883   9.246 -0.4622 -0.1992  0.0045
29720SOL    HW192053   9.806   5.825   9.233  0.1636 -0.7029 -1.6181
29720SOL    HW292054   9.942   5.831   9.299 -0.0923 -0.9085 -1.0674
29721SOL     OW92055   3.352   6.516   9.451 -0.0955  0.4512  0.1561
29721SOL    HW192056   3.281   6.581   9.452 -0.3803  0.1421  0.5006
29721SOL    HW292057   3.313   6.438   9.491  0.1621 -0.0188 -0.4985
29722SOL     OW92058   2.516   1.422   3.292 -0.5622 -0.2343  0.1188
29722SOL    HW192059   2.550   1.506   3.259  0.3230 -0.4107  0.5521
29722SOL    HW292060   2.478   1.444   3.377 -1.7397  0.0008 -0.4591
29723SOL     OW92061   0.702   1.190   2.112  0.2301 -0.4610  0.2191
29723SOL    HW192062   0.764   1.219   2.178 -0.6204  3.7206 -0.4985
29723SOL    HW292063   0.636   1.140   2.161  1.0832  0.0735  1.9985
29724SOL     OW92064   3.564   3.039   1.959 -0.3829  0.0854 -0.9086
29724SOL    HW192065   3.603   2.989   1.888 -1.1622 -0.2470 -1.1093
29724SOL    HW292066   3.557   2.976   2.031  0.2581  0.3785 -0.5800
29725SOL     OW92067   9.620   0.700  10.127 -0.5219 -0.0573  0.2285
29725SOL    HW192068   9.574   0.699  10.211  0.1279 -1.1636  0.5832
29725SOL    HW292069   9.580   0.628  10.077 -1.2342  0.8812 -0.6201
29726SOL     OW92070   7.949   4.386   0.377  0.0027  0.5380  0.1525
29726SOL    HW192071   7.956   4.369   0.471 -1.4713  2.5888  0.7236
29726SOL    HW292072   7.876   4.331   0.348 -0.2313  0.6923  0.4439
29727SOL     OW92073   6.394   0.262   8.098  0.1481  0.4944 -0.3319
29727SOL    HW192074   6.486   0.274   8.122  0.6386 -0.4540 -1.6460
29727SOL    HW292075   6.366   0.350   8.070  0.7216  0.7437 -0.1527
29728SOL     OW92076   6.567   1.900   0.572  0.6681 -0.5628  0.2118
29728SOL    HW192077   6.516   1.864   0.644 -0.8744  0.1515 -0.4538
29728SOL    HW292078   6.501   1.921   0.505  1.7013  1.5002 -0.2411
29729SOL     OW92079   4.034   2.312   8.690  0.3751 -0.0940 -0.2867
29729SOL    HW192080   4.041   2.218   8.705  0.0312 -0.2153 -0.8715
29729SOL    HW292081   4.077   2.327   8.606  0.1517  0.2219 -0.3477
29730SOL     OW92082   5.293   6.194  10.059 -0.2704  0.4044  0.0511
29730SOL    HW192083   5.246   6.121  10.101 -0.6550 -0.1802 -1.3594
29730SOL    HW292084   5.385   6.176  10.079 -0.4637  0.4228  1.0545
29731SOL     OW92085   5.133   5.563   5.842  0.0859  0.1691 -0.6583
29731SOL    HW192086   5.081   5.499   5.890  1.9090 -1.1605 -0.3825
29731SOL    HW292087   5.132   5.533   5.751 -0.3958  0.6878 -0.8345
29732SOL     OW92088   6.012   0.848   4.651  0.1002  0.6624 -0.4803
29732SOL    HW192089   6.074   0.858   4.579 -0.4098 -1.1759 -1.2198
29732SOL    HW292090   5.935   0.896   4.623  0.7868  2.1039 -0.0003
29733SOL     OW92091  10.644   3.167   1.079  0.2451  0.3408  0.1302
29733SOL    HW192092  10.728   3.128   1.104  1.1780  2.9722  1.5719
29733SOL    HW292093  10.667   3.251   1.040 -1.6955  0.8002 -0.1415
29734SOL     OW92094   6.129   5.018   6.575  0.3206 -0.0414 -0.2579
29734SOL    HW192095   6.171   4.932   6.575  0.0151 -0.2101  0.8938
29734SOL    HW292096   6.149   5.054   6.489  2.3351 -0.3510  0.0304
29735SOL     OW92097   0.440   3.838   3.166 -0.8186 -0.3195  0.2385
29735SOL    HW192098   0.413   3.804   3.251 -0.8185  0.3349  0.5058
29735SOL    HW292099   0.482   3.922   3.186  1.2915 -1.2024 -0.1568
29736SOL     OW92100   7.880   2.869   5.572 -0.6286 -0.0993  0.8101
29736SOL    HW192101   7.798   2.873   5.622 -0.5209 -2.6238  1.3184
29736SOL    HW292102   7.945   2.843   5.637  0.0127 -0.8975 -0.1373
29737SOL     OW92103   3.870   0.454   0.956 -0.3370  0.0535 -0.4568
29737SOL    HW192104   3.775   0.441   0.957 -0.7616  2.3241 -2.3246
29737SOL    HW292105   3.884   0.536   1.003  0.1034  2.0288 -3.6774
29738SOL     OW92106   0.451   1.069   0.486  0.7634  0.9491 -0.3127
29738SOL    HW192107   0.538   1.098   0.516  1.0016 -0.9756  1.0144
29738SOL    HW292108   0.461   1.056   0.392  2.0362  0.4069 -0.1199
29739SOL     OW92109   2.547   8.995   6.044 -0.2066 -0.3448  0.1434
29739SOL    HW192110   2.635   8.959   6.032 -1.3107 -2.8610 -1.1501
29739SOL    HW292111   2.558   9.090   6.032  2.1601 -0.6902 -1.0150
29740SOL     OW92112   8.639   4.679   8.465  0.0743 -0.2128  0.9371
29740SOL    HW192113   8.573   4.642   8.407 -0.6534  2.9798 -0.4519
29740SOL    HW292114   8.599   4.676   8.552 -1.6977  1.0246  0.2214
29741SOL     OW92115   7.738   6.694   1.480  0.3584 -0.0440 -0.4022
29741SOL    HW192116   7.765   6.629   1.415 -1.2251 -1.2910  0.1294
29741SOL    HW292117   7.650   6.718   1.455  0.1133  0.2423  0.6707
29742SOL     OW92118   6.936   7.673   7.170 -0.2690  0.5609  0.0319
29742SOL    HW192119   6.938   7.735   7.243 -1.9225  1.4523 -0.6235
29742SOL    HW292120   6.868   7.610   7.194 -0.1040  0.2632 -0.2707
29743SOL     OW92121   0.347   4.727   2.350 -0.1058 -0.1945 -0.5538
29743SOL    HW192122   0.287   4.693   2.416  0.5575 -1.2991 -0.5035
29743SOL    HW292123   0.328   4.821   2.347 -1.3503 -0.4131 -0.0550
29744SOL     OW92124   7.520   6.272   8.991 -0.0467  0.3620  0.7905
29744SOL    HW192125   7.551   6.245   9.077  0.5121 -0.3737  0.3690
29744SOL    HW292126   7.481   6.358   9.005 -0.6332 -0.0759  1.9169
29745SOL     OW92127   5.048   1.764   9.276  0.0581 -0.5051  0.0782
29745SOL    HW192128   5.081   1.786   9.363  1.1601 -0.3977 -0.3454
29745SOL    HW292129   5.076   1.837   9.220  0.9075 -1.3864 -0.6978
29746SOL     OW92130   9.005   4.444   3.216  0.8649 -0.6876  0.5413
29746SOL    HW192131   9.024   4.485   3.300  1.2255 -1.2177  0.7297
29746SOL    HW292132   9.054   4.361   3.219 -0.1125 -1.2920  0.3191
29747SOL     OW92133   4.913   4.034   8.138  0.2163  0.7196  0.2242
29747SOL    HW192134   4.978   4.050   8.207  0.8315 -0.6799  0.0107
29747SOL    HW292135   4.953   4.071   8.059  0.2700  0.8047  0.2903
29748SOL     OW92136   6.493   9.690   5.144 -0.7908 -0.4695  0.0895
29748SOL    HW192137   6.567   9.632   5.164 -1.1920 -1.0411 -0.0721
29748SOL    HW292138   6.499   9.760   5.210 -0.7966 -1.1493  0.8230
29749SOL     OW92139   0.226   5.608   1.736 -0.3930  0.3367  0.2516
29749SOL    HW192140   0.308   5.566   1.762 -0.1824 -0.7012 -1.8962
29749SOL    HW292141   0.233   5.698   1.768  1.2854  0.0737  0.6864
29750SOL     OW92142   1.032   0.332   6.654  0.2738 -0.4274  0.3545
29750SOL    HW192143   1.026   0.378   6.569  0.6692  0.7021  0.9193
29750SOL    HW292144   1.072   0.248   6.633  1.3542  0.2590 -0.4407
29751SOL     OW92145   3.939   1.163   5.954  0.6170 -0.2000  0.1614
29751SOL    HW192146   3.992   1.242   5.964  0.5765 -0.2705  1.0220
29751SOL    HW292147   3.999   1.098   5.919  0.9224 -0.0791  0.4568
29752SOL     OW92148   2.985   6.822   8.491  0.1979 -0.0661 -0.4642
29752SOL    HW192149   3.063   6.800   8.441 -0.1901  1.7630 -1.9585
29752SOL    HW292150   2.913   6.781   8.443  0.0759 -0.5796  0.1363
29753SOL     OW92151   1.906   6.475   3.948 -0.0445  0.6263  0.1368
29753SOL    HW192152   1.860   6.448   3.868  0.2650  1.0662 -0.1918
29753SOL    HW292153   1.912   6.395   4.000 -0.7891  0.4668 -0.0096
29754SOL     OW92154  10.027   4.792   5.400 -0.8875 -0.0340 -0.2956
29754SOL    HW192155   9.999   4.851   5.470  1.2656  0.9594 -0.1952
29754SOL    HW292156  10.044   4.850   5.326 -1.1291 -0.8412 -0.9974
29755SOL     OW92157   7.959   8.688   3.977 -0.3867  0.3153 -0.0139
29755SOL    HW192158   7.920   8.644   4.052 -0.1263  2.0141  1.1816
29755SOL    HW292159   7.976   8.777   4.007  3.0643  0.1015 -0.9164
29756SOL     OW92160   8.020   6.191   4.912 -0.6300 -0.5069 -0.0774
29756SOL    HW192161   8.100   6.228   4.874 -2.0450  2.1602 -0.7586
29756SOL    HW292162   8.051   6.124   4.972  2.0263 -0.6718 -1.4444
29757SOL     OW92163   5.156   7.454   0.013 -0.4061  0.4222  0.3373
29757SOL    HW192164   5.130   7.403   0.090 -0.4274  1.0780  0.7722
29757SOL    HW292165   5.098   7.422  -0.057  0.5945 -1.2237  0.2019
29758SOL     OW92166   0.772   8.791   1.639  0.6142  0.3019  0.2092
29758SOL    HW192167   0.762   8.784   1.734  0.1111  0.8999  0.2003
29758SOL    HW292168   0.822   8.872   1.626  0.1531  0.5426 -0.0678
29759SOL     OW92169   8.551   1.569   5.224 -0.0689 -0.0632  0.0297
29759SOL    HW192170   8.589   1.530   5.145  0.9988 -0.3850  0.6768
29759SOL    HW292171   8.545   1.662   5.205 -0.8804 -0.2728 -0.8355
29760SOL     OW92172   5.576   8.060  10.179 -0.4941  0.2726 -0.2141
29760SOL    HW192173   5.639   8.052  10.107 -0.9640  0.4448 -0.6532
29760SOL    HW292174   5.602   8.140  10.224 -0.3279  0.2815 -0.3228
29761SOL     OW92175   8.967   5.390   5.194 -0.5318  0.0223 -0.2024
29761SOL    HW192176   9.053   5.390   5.152 -0.5545  0.7061 -0.2751
29761SOL    HW292177   8.918   5.457   5.146 -1.3184 -0.7971 -0.5742
29762SOL     OW92178   6.790   2.609   9.865  0.2171 -0.2614 -0.2830
29762SOL    HW192179   6.876   2.634   9.829  0.6767  1.5362  1.8581
29762SOL    HW292180   6.730   2.674   9.828 -0.0117 -0.7045 -0.7095
29763SOL     OW92181   7.677  10.480   0.954  0.0023  0.0335  0.0517
29763SOL    HW192182   7.712  10.450   1.038  1.0240 -2.2683 -1.1026
29763SOL    HW292183   7.590  10.513   0.975  0.0681 -0.8541  1.9622
29764SOL     OW92184   0.757   9.604   0.101 -0.7745 -0.2624 -0.4501
29764SOL    HW192185   0.771   9.667   0.172  0.4521  0.6008 -1.3979
29764SOL    HW292186   0.719   9.655   0.030  0.1177 -0.5877 -1.1927
29765SOL     OW92187   0.803   9.650   9.077  0.0892  0.7781 -0.0298
29765SOL    HW192188   0.868   9.717   9.054 -0.5370  1.6638  0.7280
29765SOL    HW292189   0.785   9.605   8.994  1.2463  0.8871 -0.3589
29766SOL     OW92190   0.660   8.217   6.063 -0.4641  0.3065  0.5696
29766SOL    HW192191   0.678   8.243   6.153 -1.2766  0.0998  0.7977
29766SOL    HW292192   0.678   8.123   6.062  0.4971  0.4907  0.2643
29767SOL     OW92193   1.659   4.006  10.029  0.3758 -0.2284 -0.2570
29767SOL    HW192194   1.753   3.991  10.020  0.2798 -0.1143 -1.5523
29767SOL    HW292195   1.626   3.927  10.072  0.9880 -0.4688 -0.2240
29768SOL     OW92196   6.693   3.969   8.327  0.1058  0.4017  0.0743
29768SOL    HW192197   6.762   3.903   8.323  1.4350  1.7492 -0.0231
29768SOL    HW292198   6.630   3.933   8.389  0.6849 -1.0438 -0.1262
29769SOL     OW92199   1.445   8.757   1.819  0.0116  0.1310 -0.3786
29769SOL    HW192200   1.492   8.676   1.799 -1.7792 -0.9872 -0.3531
29769SOL    HW292201   1.413   8.744   1.908  1.9974  2.0930  0.7236
29770SOL     OW92202   1.293   2.216   3.071  0.3570 -0.0593  0.1943
29770SOL    HW192203   1.221   2.233   3.131  1.8539  0.4569  1.9541
29770SOL    HW292204   1.367   2.266   3.107  2.1434 -2.1135 -0.3415
29771SOL     OW92205   8.979   0.779   6.510 -0.2129 -0.0227  0.4057
29771SOL    HW192206   8.914   0.770   6.579 -2.3844  1.4090 -1.3438
29771SOL    HW292207   9.047   0.834   6.548  0.2094 -1.7717  2.3559
29772SOL     OW92208   6.104   2.385  10.534  0.1094 -0.2160  0.0310
29772SOL    HW192209   6.052   2.336  10.470 -1.0864  1.0451 -0.0251
29772SOL    HW292210   6.082   2.346  10.618 -0.9295  0.2903  0.0025
29773SOL     OW92211  10.285   1.892   7.584  0.5614  0.0038 -0.3114
29773SOL    HW192212  10.329   1.817   7.543  2.0246  0.8386 -0.3598
29773SOL    HW292213  10.205   1.855   7.622  0.1562 -1.1744 -2.1568
29774SOL     OW92214   7.362   2.268   0.136 -0.5125  0.0567  0.5921
29774SOL    HW192215   7.345   2.362   0.136  1.2077  0.4123 -0.0452
29774SOL    HW292216   7.275   2.228   0.132 -1.2535  1.6468 -0.7545
29775SOL     OW92217   8.233   0.764   0.094 -0.1275  0.1106 -0.5032
29775SOL    HW192218   8.181   0.687   0.119  0.7780 -0.4038 -0.1506
29775SOL    HW292219   8.221   0.771  -0.001  0.6665 -1.1603 -0.7190
29776SOL     OW92220   7.893   8.232   9.256  0.1728 -0.3186  0.3317
29776SOL    HW192221   7.987   8.222   9.240  0.6765 -1.2525  3.3433
29776SOL    HW292222   7.869   8.157   9.310 -2.2287  0.1938  0.1116
29777SOL     OW92223   9.914   9.857   1.205  0.2353  0.3569  0.5303
29777SOL    HW192224   9.958   9.812   1.133 -0.5004  0.8896 -0.2742
29777SOL    HW292225   9.867   9.929   1.164 -2.6619 -1.0583  1.0530
29778SOL     OW92226  10.403   5.559   5.361 -0.2888  0.1285  0.3975
29778SOL    HW192227  10.429   5.645   5.392 -0.2745 -0.3789  1.8534
29778SOL    HW292228  10.349   5.577   5.284  0.6308  1.3768  0.0118
29779SOL     OW92229   8.021   6.880   8.703  0.1983  1.1853 -0.2810
29779SOL    HW192230   7.985   6.884   8.614  0.7202 -1.7624 -0.6973
29779SOL    HW292231   7.944   6.870   8.759  0.0218 -1.1004 -0.8298
29780SOL     OW92232   0.907   8.835   2.349 -0.2263  0.5611  0.1805
29780SOL    HW192233   1.000   8.824   2.330 -0.0285  0.9017  0.9237
29780SOL    HW292234   0.895   8.930   2.358 -0.5530  0.4903  0.5268
29781SOL     OW92235   7.815   8.597   7.844 -0.1141 -0.4323 -0.0721
29781SOL    HW192236   7.850   8.639   7.766 -0.6494 -1.5176 -0.9211
29781SOL    HW292237   7.834   8.658   7.915  2.9894 -0.6985 -0.5324
29782SOL     OW92238   3.061  10.256   3.837  0.2020  0.6936 -0.1098
29782SOL    HW192239   3.096  10.197   3.770 -2.8412  0.7831 -1.9897
29782SOL    HW292240   2.967  10.236   3.839 -0.1162  1.9294  2.9775
29783SOL     OW92241   9.461   8.123   2.792 -0.1540  0.0781 -0.2956
29783SOL    HW192242   9.529   8.098   2.730  0.1520 -0.6092  0.3045
29783SOL    HW292243   9.402   8.048   2.795  0.5643 -0.4652  1.2385
29784SOL     OW92244   8.879   4.374   4.294 -0.1343  0.2648  0.3417
29784SOL    HW192245   8.790   4.405   4.277  1.4110  3.7157 -2.9345
29784SOL    HW292246   8.906   4.332   4.212  1.4227 -0.3828  1.1398
29785SOL     OW92247  10.420   9.945   8.624 -0.8651  1.0360  0.1889
29785SOL    HW192248  10.449  10.031   8.652  0.1944  0.5093  0.7963
29785SOL    HW292249  10.501   9.900   8.597 -1.4447  0.3752 -0.5207
29786SOL     OW92250   1.635   0.024  10.543 -0.1494  0.4385 -0.4189
29786SOL    HW192251   1.604   0.018  10.633  2.4248  0.0333  0.5201
29786SOL    HW292252   1.626   0.117  10.521 -0.2644  0.6364  0.4395
29787SOL     OW92253   3.494   5.026   4.584  0.1848  0.0128 -0.3655
29787SOL    HW192254   3.444   5.094   4.629  1.5121  1.0742 -0.4398
29787SOL    HW292255   3.461   4.944   4.621 -1.4197  0.6708 -0.2457
29788SOL     OW92256   2.528   1.747   7.700 -0.2049  0.6196  0.4056
29788SOL    HW192257   2.518   1.840   7.721 -2.3454  0.2645  1.1909
29788SOL    HW292258   2.530   1.703   7.785  0.5622 -0.0957  0.0384
29789SOL     OW92259   0.827   1.981   7.139 -0.0041 -0.0494  0.0686
29789SOL    HW192260   0.803   1.891   7.118 -0.8455  0.6327 -2.1818
29789SOL    HW292261   0.744   2.030   7.136  0.7341  1.2157 -1.3326
29790SOL     OW92262   6.432   6.966   0.722  0.2533  0.7942 -0.8677
29790SOL    HW192263   6.357   6.922   0.681 -0.6395  0.2203  1.2606
29790SOL    HW292264   6.394   7.020   0.790  1.7102  1.2736 -0.3909
29791SOL     OW92265   3.391   9.670   6.768  0.2586  0.0073 -0.0649
29791SOL    HW192266   3.296   9.664   6.759 -0.0287  0.6082  2.0304
29791SOL    HW292267   3.414   9.600   6.828  0.9439  0.7277  0.5397
29792SOL     OW92268   6.711   4.809   6.855  0.1209 -0.0850 -0.6110
29792SOL    HW192269   6.632   4.811   6.909  1.5988  2.2466  1.7185
29792SOL    HW292270   6.728   4.901   6.835  1.7232 -0.6228 -1.8640
29793SOL     OW92271   8.986   7.810   9.374  0.3055  0.5659 -0.9190
29793SOL    HW192272   8.907   7.766   9.342  1.0410 -0.2552 -1.6427
29793SOL    HW292273   9.053   7.789   9.310  1.8278 -1.0564  1.0810
29794SOL     OW92274   5.305   9.245   3.529  0.3441  0.4661  0.1789
29794SOL    HW192275   5.292   9.297   3.449  0.9018 -0.0822 -0.2836
29794SOL    HW292276   5.330   9.308   3.596  0.2243  0.8908 -0.1765
29795SOL     OW92277   6.905   3.343   5.713  0.3133 -0.6175 -0.0346
29795SOL    HW192278   6.925   3.329   5.620  0.4153  1.7708 -0.4457
29795SOL    HW292279   6.865   3.430   5.715  1.1724 -0.2199  2.2703
29796SOL     OW92280   9.582   5.071   7.936 -0.2142  0.0346 -0.5449
29796SOL    HW192281   9.656   5.117   7.896 -1.2329  1.4832 -0.8314
29796SOL    HW292282   9.561   5.000   7.875  0.1791  0.3482 -1.0490
29797SOL     OW92283   0.413   8.819   6.674 -0.0170  0.6048 -0.2634
29797SOL    HW192284   0.345   8.780   6.729 -0.5827  1.0459 -0.6345
29797SOL    HW292285   0.377   8.904   6.649  0.2843  0.4689 -1.1948
29798SOL     OW92286   3.371   4.789   4.805 -0.3739 -0.0841 -0.1878
29798SOL    HW192287   3.334   4.709   4.843 -0.5740 -1.2492 -2.6040
29798SOL    HW292288   3.319   4.804   4.726  1.7596  0.5003 -1.5752
29799SOL     OW92289   7.981   8.046   9.899 -0.9438 -0.6374  0.1182
29799SOL    HW192290   7.917   8.104   9.940  0.3735  0.0671  1.2647
29799SOL    HW292291   8.027   8.102   9.836  0.9264 -0.1080  1.8467
29800SOL     OW92292   4.066   0.703   0.117 -0.6095  0.3242  0.4302
29800SOL    HW192293   4.066   0.608   0.129  1.8861  0.0526 -1.0277
29800SOL    HW292294   4.152   0.732   0.147 -0.0713  1.6360 -2.0842
29801SOL     OW92295   9.115   0.769   2.687  0.4202  0.4239 -0.2661
29801SOL    HW192296   9.207   0.768   2.712  0.0188 -1.9816  1.4106
29801SOL    HW292297   9.085   0.857   2.709  1.6387  0.3575  1.9153
29802SOL     OW92298   7.605   5.057   6.394  0.5112 -0.0778  0.2813
29802SOL    HW192299   7.610   5.081   6.487 -0.7549 -1.1524  0.6411
29802SOL    HW292300   7.693   5.025   6.374  0.4427 -1.0708  1.4615
29803SOL     OW92301   7.634   0.944   1.633 -0.2139 -0.1459  0.5000
29803SOL    HW192302   7.598   0.982   1.553  2.9701  1.1415 -0.4918
29803SOL    HW292303   7.669   0.859   1.607  0.6714  0.1972  0.5389
29804SOL     OW92304   2.673   7.467   1.067  0.4203  0.1194 -0.1425
29804SOL    HW192305   2.698   7.558   1.057 -1.9312  0.7949 -0.3937
29804SOL    HW292306   2.751   7.425   1.104  1.4525  2.2646  0.2685
29805SOL     OW92307   1.157   3.262  10.398 -0.4545 -0.0451 -0.6589
29805SOL    HW192308   1.126   3.276  10.309  1.2296 -1.9698 -1.6438
29805SOL    HW292309   1.185   3.170  10.399 -0.7686 -0.1939  1.9841
29806SOL     OW92310   7.021   3.315   3.534 -0.1593 -0.0674  0.4010
29806SOL    HW192311   7.092   3.328   3.597  0.5138 -0.5105 -0.2312
29806SOL    HW292312   7.026   3.391   3.475 -1.1308  0.6198  1.1773
29807SOL     OW92313   7.083   9.970   4.969 -0.1138  0.5444  0.2288
29807SOL    HW192314   7.121   9.937   4.887  0.5760  0.9218  0.3918
29807SOL    HW292315   7.023   9.900   4.997 -0.8837  0.7143 -0.9496
29808SOL     OW92316   5.327   5.498   9.723  0.0618 -0.3063 -0.9088
29808SOL    HW192317   5.409   5.508   9.772  0.7839  1.3807 -2.3943
29808SOL    HW292318   5.269   5.565   9.760 -0.2808 -0.7380 -0.6477
29809SOL     OW92319   0.416   5.325   2.717 -0.6699  0.4030  0.2223
29809SOL    HW192320   0.419   5.262   2.645  0.1402 -0.0976  0.6778
29809SOL    HW292321   0.331   5.310   2.759  0.6598 -2.5652  2.2051
29810SOL     OW92322   1.411   3.696   2.845 -0.2678  1.0756  0.3654
29810SOL    HW192323   1.477   3.627   2.834  0.1360  1.6189 -0.7503
29810SOL    HW292324   1.340   3.653   2.893  0.6368  0.3179  1.0890
29811SOL     OW92325   9.656  10.713   1.157  0.0887  0.1997 -0.5093
29811SOL    HW192326   9.633  10.737   1.068 -0.0481 -0.8368 -0.7660
29811SOL    HW292327   9.728  10.651   1.148  0.3258  0.3700  0.1188
29812SOL     OW92328   2.647   6.659   8.149  0.1008  0.6259  0.2929
29812SOL    HW192329   2.593   6.731   8.116 -0.0785  0.5338  0.3842
29812SOL    HW292330   2.640   6.592   8.082 -1.0033  0.0794  0.9307
29813SOL     OW92331   6.516   4.067   5.079 -0.3225 -0.0954  0.1983
29813SOL    HW192332   6.570   4.008   5.131  1.7570  0.6044 -1.0315
29813SOL    HW292333   6.428   4.031   5.086  0.0197 -0.6141  3.2630
29814SOL     OW92334   4.574   5.010   0.607 -0.5953  0.4468 -0.2750
29814SOL    HW192335   4.494   5.016   0.555 -0.5477  0.7461 -0.3183
29814SOL    HW292336   4.613   4.926   0.582  0.3596  1.3730 -2.0969
29815SOL     OW92337   6.968   2.638   3.910 -0.5403 -0.2739  0.3923
29815SOL    HW192338   7.059   2.646   3.884 -1.0084  2.2459 -0.8472
29815SOL    HW292339   6.924   2.710   3.865 -2.7757 -0.0929  2.6251
29816SOL     OW92340   2.819   2.929   5.253  0.1453  0.3164 -0.0939
29816SOL    HW192341   2.763   2.888   5.186 -0.2645 -0.0453  0.4571
29816SOL    HW292342   2.840   2.858   5.313 -1.4415  1.0936  1.4689
29817SOL     OW92343   8.387   6.720   3.403  0.7800 -0.4303 -0.0968
29817SOL    HW192344   8.411   6.798   3.352  1.8640 -0.4809  0.3107
29817SOL    HW292345   8.421   6.737   3.490 -0.5887 -0.5816  0.4961
29818SOL     OW92346   0.074   9.529   1.811  0.0642 -0.3105  0.3923
29818SOL    HW192347   0.075   9.614   1.854 -0.3512  1.4281 -2.7549
29818SOL    HW292348   0.137   9.537   1.739 -0.9244 -2.1693 -0.7711
29819SOL     OW92349   0.089   3.336   5.951  0.6846 -0.2353 -0.3467
29819SOL    HW192350   0.126   3.314   6.037 -0.2401  0.9193  0.3906
29819SOL    HW292351  -0.004   3.320   5.961  0.1752  2.4091 -0.2317
29820SOL     OW92352  10.311   9.863  10.300  0.0268  0.0353  0.4937
29820SOL    HW192353  10.256   9.931  10.262 -1.2035 -1.4706 -0.5206
29820SOL    HW292354  10.383   9.853  10.237  0.7347  1.0206  1.1195
29821SOL     OW92355   1.153   3.133   8.810 -0.4460  0.3094  0.7717
29821SOL    HW192356   1.155   3.073   8.735 -0.1124 -0.9016  1.7079
29821SOL    HW292357   1.061   3.157   8.819 -0.1863  2.5620 -1.5763
29822SOL     OW92358   5.497   0.569   2.363 -0.4684  0.1693 -0.1775
29822SOL    HW192359   5.526   0.625   2.435  0.8101 -0.8054  0.0900
29822SOL    HW292360   5.555   0.591   2.290 -0.8820  0.1945 -0.5028
29823SOL     OW92361   0.639   4.812   3.200  0.0422 -0.1242 -0.1596
29823SOL    HW192362   0.647   4.906   3.181  2.0539 -0.2915 -0.4336
29823SOL    HW292363   0.563   4.805   3.258  0.0972  1.7280  0.1932
29824SOL     OW92364   3.018   2.355   3.482 -0.0886  0.0419 -0.5709
29824SOL    HW192365   3.042   2.416   3.412 -0.1106 -1.1611 -1.6416
29824SOL    HW292366   3.028   2.268   3.443 -1.7200 -0.6113  0.4013
29825SOL     OW92367   7.762   0.916  10.171 -0.1168  0.5482  0.5056
29825SOL    HW192368   7.762   0.821  10.182  1.3468  0.4040 -0.4714
29825SOL    HW292369   7.852   0.938  10.150 -0.6183  2.0393 -0.2691
29826SOL     OW92370   1.119   7.403   4.651 -0.2180 -0.0502  0.0183
29826SOL    HW192371   1.156   7.461   4.717  0.2468  0.1297 -0.3962
29826SOL    HW292372   1.189   7.340   4.632 -0.8150 -0.9427  0.6844
29827SOL     OW92373   9.070   9.700   0.138  0.3309 -0.5946  0.0999
29827SOL    HW192374   9.025   9.778   0.104  1.1316 -0.7288 -1.3485
29827SOL    HW292375   9.005   9.657   0.193 -0.7404  0.1260 -0.5658
29828SOL     OW92376   6.108   8.005   4.474 -0.0063 -1.0017 -0.2399
29828SOL    HW192377   6.165   8.070   4.514 -0.4944  0.0070 -1.1457
29828SOL    HW292378   6.119   7.927   4.529  2.5134 -0.9634 -0.5536
29829SOL     OW92379  10.504   4.841   1.783  0.0274 -0.0574 -0.3716
29829SOL    HW192380  10.519   4.855   1.877  1.6168  0.5887 -0.6901
29829SOL    HW292381  10.530   4.924   1.743 -1.8573  0.1337 -1.3029
29830SOL     OW92382   9.411   8.824   3.014 -0.0780  0.3816  0.0850
29830SOL    HW192383   9.448   8.801   2.929 -0.6129  2.2809 -0.7193
29830SOL    HW292384   9.407   8.741   3.062  0.9674 -0.6020 -1.4374
29831SOL     OW92385   8.952   4.963   3.947 -0.1219 -0.1207  0.5345
29831SOL    HW192386   8.870   5.012   3.955  0.1263  0.3642  0.1649
29831SOL    HW292387   9.007   4.996   4.018  0.8230  1.7051 -0.9598
29832SOL     OW92388   3.912   1.305   8.034  0.2159 -0.0330  0.2981
29832SOL    HW192389   3.987   1.289   7.977  1.0493  1.9524  0.7402
29832SOL    HW292390   3.842   1.329   7.974  0.8244  1.1128  0.0153
29833SOL     OW92391   2.667   8.357   5.135  0.1278 -0.0756  0.1720
29833SOL    HW192392   2.672   8.283   5.196  1.0479  0.5551  0.8802
29833SOL    HW292393   2.580   8.394   5.150  0.2968 -0.0062  1.0054
29834SOL     OW92394   3.099   2.202  10.224 -0.6642  0.1761 -0.4754
29834SOL    HW192395   3.150   2.265  10.174 -0.0215 -1.3240 -1.7920
29834SOL    HW292396   3.135   2.208  10.313 -2.1241  3.1845  0.0308
29835SOL     OW92397   3.308   7.453   0.960  0.4101 -0.2154 -0.2373
29835SOL    HW192398   3.369   7.445   1.033  1.7738  2.8268 -0.8803
29835SOL    HW292399   3.323   7.375   0.908 -0.1156 -2.1382  2.3160
29836SOL     OW92400  10.371   3.608  10.344  0.0803  0.3028 -0.0408
29836SOL    HW192401  10.452   3.612  10.395  0.1710  0.2485 -0.1793
29836SOL    HW292402  10.400   3.605  10.253 -0.0043 -1.3193 -0.0598
29837SOL     OW92403   6.964   7.201   5.564 -0.6798  0.2772 -0.1320
29837SOL    HW192404   6.915   7.283   5.572  1.2954  1.7868 -2.1420
29837SOL    HW292405   7.035   7.209   5.627 -0.2021  0.3470 -0.6726
29838SOL     OW92406   6.508   4.315  10.377  1.0175  0.4490  0.1765
29838SOL    HW192407   6.450   4.375  10.424  1.5580  0.5607  0.7050
29838SOL    HW292408   6.455   4.235  10.365  0.3559  0.9516 -0.3826
29839SOL     OW92409   6.311   2.265   4.633  0.1945 -0.3608  0.0345
29839SOL    HW192410   6.258   2.339   4.660  0.6441  0.4752 -1.2869
29839SOL    HW292411   6.362   2.242   4.710 -0.5851  0.1398  0.7097
29840SOL     OW92412   9.318   3.676   0.966 -0.1173 -0.0753 -0.1910
29840SOL    HW192413   9.346   3.727   0.890 -0.5807  1.4869  0.6297
29840SOL    HW292414   9.224   3.663   0.953 -0.4484  1.2208  0.6163
29841SOL     OW92415  10.418   2.168   6.247 -0.4572 -0.3674  1.1349
29841SOL    HW192416  10.446   2.226   6.317 -2.5729  0.6205  1.2411
29841SOL    HW292417  10.323   2.178   6.244 -0.6813 -2.2957 -0.2133
29842SOL     OW92418   8.242   0.850   0.462  0.1891 -0.1338 -0.3718
29842SOL    HW192419   8.305   0.832   0.392  1.0945  0.0559  0.3774
29842SOL    HW292420   8.216   0.941   0.448 -0.9338 -0.5942 -1.4579
29843SOL     OW92421   8.145   3.526   5.969 -0.1056 -0.0670  0.0730
29843SOL    HW192422   8.191   3.563   5.893  1.6786  2.6318  2.2455
29843SOL    HW292423   8.172   3.434   5.969  2.0033  0.4517 -1.1263
29844SOL     OW92424   7.245   4.316   6.958 -0.2221 -0.1946  0.4200
29844SOL    HW192425   7.188   4.257   6.910  2.5730 -1.4825 -1.5553
29844SOL    HW292426   7.333   4.297   6.926  1.6762  0.2705  4.6807
29845SOL     OW92427  10.724   6.199  10.765 -0.0484 -0.2057 -0.5739
29845SOL    HW192428  10.654   6.239  10.713 -1.1471  1.2676  1.8594
29845SOL    HW292429  10.695   6.208  10.856  2.6728 -0.7830  0.4575
29846SOL     OW92430   4.936   7.079   7.821  0.5726  0.1687 -0.2940
29846SOL    HW192431   4.871   7.096   7.752  0.2792 -1.3521 -0.4148
29846SOL    HW292432   4.959   7.166   7.853 -1.0558  0.7837 -0.6905
29847SOL     OW92433   3.888   5.031   0.113 -0.5207  0.0231 -0.1091
29847SOL    HW192434   3.819   4.966   0.103 -0.5004  0.0547 -0.4567
29847SOL    HW292435   3.945   4.995   0.182  0.0400 -0.8112 -0.9772
29848SOL     OW92436   5.448  10.060  10.258  0.3010  0.4984  0.6695
29848SOL    HW192437   5.531  10.022  10.289  0.6769 -0.1481 -1.0057
29848SOL    HW292438   5.412   9.994  10.199 -1.4649  0.7510  1.4029
29849SOL     OW92439   6.918  10.699   2.538  0.1320  0.4462 -0.0844
29849SOL    HW192440   6.886  10.619   2.579 -1.3801 -0.0621 -2.1002
29849SOL    HW292441   6.897  10.769   2.600 -0.7266 -0.4364  0.6474
29850SOL     OW92442   0.987   7.304   8.930 -0.3006  0.8035 -0.2949
29850SOL    HW192443   0.916   7.240   8.920  1.4994 -1.3198 -0.3576
29850SOL    HW292444   0.944   7.384   8.960 -2.4511 -1.1149  2.1530
29851SOL     OW92445   4.491   0.110   2.822  0.1113  0.4917  0.2999
29851SOL    HW192446   4.475   0.058   2.744 -1.1724  1.4713 -0.1330
29851SOL    HW292447   4.458   0.197   2.799 -0.3575  0.7744  1.9616
29852SOL     OW92448   9.902   7.447   8.144  0.7490  0.0816  0.3505
29852SOL    HW192449   9.850   7.517   8.185  1.0204  1.1793 -1.1020
29852SOL    HW292450   9.991   7.461   8.177  0.5719 -0.3868  1.0523
29853SOL     OW92451   2.628   0.113   0.467  0.1086 -0.4064 -0.3129
29853SOL    HW192452   2.602   0.125   0.376  1.1207 -0.6659 -0.6524
29853SOL    HW292453   2.699   0.049   0.463 -1.2836 -2.0898  0.8888
29854SOL     OW92454   6.249   4.790   2.243  0.6054  0.2716 -0.0707
29854SOL    HW192455   6.293   4.706   2.256  0.1495  0.2414  1.4802
29854SOL    HW292456   6.170   4.784   2.297  0.2179  1.4379 -0.4824
29855SOL     OW92457   0.940   5.609   9.849  0.2918  0.0538  0.5604
29855SOL    HW192458   0.947   5.699   9.882 -0.7746  0.0605  0.8025
29855SOL    HW292459   0.978   5.555   9.918  1.0457  0.3144  0.3647
29856SOL     OW92460   2.640   0.644   9.348  0.0606  0.0615  0.7141
29856SOL    HW192461   2.553   0.678   9.371 -0.2829 -1.2243  1.4641
29856SOL    HW292462   2.692   0.657   9.427 -0.2620 -1.6513  1.2558
29857SOL     OW92463   4.583   8.081   4.026 -0.4655  0.5692 -0.0396
29857SOL    HW192464   4.620   8.021   4.091 -0.9880 -0.1092 -0.3560
29857SOL    HW292465   4.495   8.101   4.059  0.3538  2.6119  0.9938
29858SOL     OW92466   1.260   8.148   2.023 -0.0208  0.0924  0.1697
29858SOL    HW192467   1.295   8.085   2.086 -0.5767 -0.9521 -0.5356
29858SOL    HW292468   1.218   8.215   2.076 -0.7140 -0.9077  0.9118
29859SOL     OW92469   5.974  10.205   6.741  0.1003  0.1312  0.2168
29859SOL    HW192470   5.880  10.223   6.735 -0.6770 -3.2206  0.3124
29859SOL    HW292471   5.986  10.167   6.828  1.6451  0.8562  0.3478
29860SOL     OW92472   8.252   4.473   9.332 -0.1228 -0.1005  0.0067
29860SOL    HW192473   8.220   4.560   9.312 -0.5012 -0.7769 -2.7699
29860SOL    HW292474   8.347   4.478   9.319  0.4597  0.7053  3.5092
29861SOL     OW92475   6.495   4.196   9.399  0.3198  0.8342  0.2833
29861SOL    HW192476   6.544   4.202   9.481 -1.2552 -1.1928  1.4720
29861SOL    HW292477   6.527   4.115   9.358 -0.3255  0.7736 -0.1152
29862SOL     OW92478   7.161   8.348   6.040  0.0472 -0.2847 -0.0571
29862SOL    HW192479   7.134   8.437   6.019  0.5715  0.2471  1.3693
29862SOL    HW292480   7.143   8.339   6.134  1.8863 -0.9592  0.2680
29863SOL     OW92481   7.553   3.007   6.491  0.0683  0.2980  0.0964
29863SOL    HW192482   7.464   2.976   6.507 -0.0442 -0.1336 -1.2430
29863SOL    HW292483   7.608   2.931   6.507  0.1141  0.3358  0.1157
29864SOL     OW92484   4.202   2.453  10.629  0.2846 -0.6136 -0.7100
29864SOL    HW192485   4.251   2.371  10.629 -0.1969 -0.9076 -0.3569
29864SOL    HW292486   4.266   2.520  10.653  0.6865 -0.8806 -1.0343
29865SOL     OW92487   7.141   3.320   6.628 -0.5221 -0.1355  0.1992
29865SOL    HW192488   7.086   3.392   6.657  0.5765  0.3669  1.0846
29865SOL    HW292489   7.229   3.357   6.621 -0.1328 -1.1186 -0.3998
29866SOL     OW92490   7.927   7.128   3.692  0.7328 -0.2592  0.0858
29866SOL    HW192491   7.984   7.059   3.657 -0.9612 -1.0147 -1.3316
29866SOL    HW292492   7.839   7.103   3.664 -0.1269  1.6592  0.9077
29867SOL     OW92493   9.836   5.916   2.848  0.0258 -0.1705  0.3641
29867SOL    HW192494   9.913   5.948   2.803  0.2316 -0.3931  0.5553
29867SOL    HW292495   9.863   5.908   2.940 -0.8281  1.7610  0.8433
29868SOL     OW92496   1.945  10.705   1.808  0.3249 -0.3859 -0.0744
29868SOL    HW192497   1.896  10.625   1.788  0.4488 -0.8107  1.2685
29868SOL    HW292498   1.996  10.722   1.729  0.1898 -1.5523 -0.4293
29869SOL     OW92499   7.653   1.446   4.509 -0.0120  0.9230 -0.1638
29869SOL    HW192500   7.644   1.527   4.559  0.3000 -0.2341  1.8970
29869SOL    HW292501   7.586   1.388   4.545  1.7134 -0.7266  0.5982
29870SOL     OW92502   3.204   3.309   8.269 -0.2469 -0.0240  0.0684
29870SOL    HW192503   3.193   3.305   8.363 -3.2039 -0.7797 -0.2280
29870SOL    HW292504   3.217   3.218   8.242  0.2346  0.1501 -0.3203
29871SOL     OW92505   6.828   8.076   5.188  0.2003 -0.5426 -0.7863
29871SOL    HW192506   6.870   8.000   5.228 -0.4224 -1.1353 -1.2250
29871SOL    HW292507   6.816   8.051   5.096 -0.0916  0.0511 -0.9144
29872SOL     OW92508   5.657   3.404   3.082 -0.0332  0.0122 -0.0027
29872SOL    HW192509   5.611   3.355   3.149 -0.1221 -0.9752 -0.7763
29872SOL    HW292510   5.623   3.371   2.999  0.9759  0.3178 -0.5614
29873SOL     OW92511   8.377   4.385   0.083  0.0538 -0.4049 -0.2867
29873SOL    HW192512   8.307   4.446   0.103 -0.6790 -0.7467 -1.6833
29873SOL    HW292513   8.410   4.414  -0.002  2.5707  0.5937  0.9083
29874SOL     OW92514  10.530   0.703   2.162  0.7276  0.8077  0.0962
29874SOL    HW192515  10.614   0.697   2.118  0.3891  1.7554 -0.7388
29874SOL    HW292516  10.485   0.776   2.118 -0.7436 -0.0249  0.1354
29875SOL     OW92517   6.960   6.762  10.450  0.0505  0.7547  0.2613
29875SOL    HW192518   7.028   6.788  10.511  0.7897  0.2156 -0.3122
29875SOL    HW292519   6.894   6.719  10.504  0.7888  0.1005  0.6682
29876SOL     OW92520   6.519   4.637   8.200 -0.7781  0.5861  0.5933
29876SOL    HW192521   6.590   4.685   8.243  0.2262 -1.9892  2.0581
29876SOL    HW292522   6.564   4.574   8.143 -1.7701 -1.5066  1.9982
29877SOL     OW92523   2.025   3.549   1.329  0.0310 -0.2128  0.2145
29877SOL    HW192524   2.063   3.637   1.333 -0.4743  0.1195 -1.3969
29877SOL    HW292525   2.091   3.492   1.368  0.8295  0.7395  0.3069
29878SOL     OW92526   8.491   0.802   8.999  0.3756  0.0318  0.4144
29878SOL    HW192527   8.426   0.832   8.936  0.5335 -0.5322 -0.0240
29878SOL    HW292528   8.451   0.818   9.084  0.2093  0.9137  0.1747
29879SOL     OW92529   6.848   4.039   7.772 -0.0893 -0.0321 -0.0487
29879SOL    HW192530   6.858   4.078   7.859 -1.1403 -0.9708  0.5295
29879SOL    HW292531   6.763   3.994   7.776  0.0880 -0.5302 -1.3924
29880SOL     OW92532  10.144  10.623  10.406  0.7804 -0.5187  0.6630
29880SOL    HW192533  10.233  10.598  10.432  1.0021  1.0440  1.5872
29880SOL    HW292534  10.102  10.649  10.489  0.7031  2.3128 -0.1502
29881SOL     OW92535   6.107   5.776   5.747  0.2977 -0.2249 -0.0795
29881SOL    HW192536   6.111   5.827   5.666 -1.3762 -0.1966 -0.1955
29881SOL    HW292537   6.111   5.685   5.718  0.1787 -0.2072 -0.1525
29882SOL     OW92538   6.269   7.509   7.969  0.2040 -0.0597  0.0909
29882SOL    HW192539   6.273   7.548   7.882 -0.5841  0.0629  0.0948
29882SOL    HW292540   6.351   7.535   8.012  1.1442 -1.1202 -1.0110
29883SOL     OW92541   6.600   4.259   0.932  0.6975  0.0574  0.6203
29883SOL    HW192542   6.552   4.230   0.855 -0.2273 -0.4867  1.3800
29883SOL    HW292543   6.549   4.227   1.006  0.7065  1.9054  1.4878
29884SOL     OW92544   9.038   2.076  10.542  0.1043  0.1411  0.0834
29884SOL    HW192545   9.112   2.111  10.592  0.0562  0.6370 -0.1924
29884SOL    HW292546   9.079   2.016  10.479  0.0504 -1.7774  1.7495
29885SOL     OW92547   4.486   0.639   1.074  0.3416  0.3890  0.0066
29885SOL    HW192548   4.438   0.558   1.060  0.4826 -0.0155  1.6356
29885SOL    HW292549   4.422   0.699   1.112  0.5452  0.6364 -0.0304
29886SOL     OW92550   8.113   0.282   5.951  0.1256 -0.9589 -0.2551
29886SOL    HW192551   8.143   0.321   6.033  0.0700 -1.9728  0.2604
29886SOL    HW292552   8.017   0.287   5.956  0.1289  0.6141 -1.0857
29887SOL     OW92553   2.564   7.425   4.952  0.0723 -0.2022 -0.4111
29887SOL    HW192554   2.635   7.404   4.892  0.5283  1.1194 -0.3673
29887SOL    HW292555   2.511   7.489   4.904 -0.2947 -0.1265  0.0939
29888SOL     OW92556   2.492   5.852   9.190  0.2463  0.2321  0.2411
29888SOL    HW192557   2.411   5.902   9.202  0.4075  0.2770  1.2339
29888SOL    HW292558   2.473   5.766   9.228  1.6065  1.1939  3.3999
29889SOL     OW92559   0.369   9.283   8.809  0.4290 -0.0098 -0.0575
29889SOL    HW192560   0.446   9.341   8.814  0.6263 -0.2319 -0.4744
29889SOL    HW292561   0.301   9.330   8.858 -0.0678  1.6319 -2.1682
29890SOL     OW92562   2.731   5.005   6.943 -0.2398 -0.2354  0.7363
29890SOL    HW192563   2.751   4.985   6.851 -1.9785 -0.5035  0.3702
29890SOL    HW292564   2.812   5.040   6.979  1.2937 -2.6891 -0.1502
29891SOL     OW92565  10.461   3.528   3.478  0.0679  0.2009  0.0902
29891SOL    HW192566  10.443   3.622   3.466 -3.6073 -0.5065 -0.8842
29891SOL    HW292567  10.537   3.512   3.422 -0.2612  2.2927 -1.0751
29892SOL     OW92568   0.544   9.241   6.846 -0.3935 -0.0958  0.4654
29892SOL    HW192569   0.573   9.220   6.935  2.5358  4.6209  0.9682
29892SOL    HW292570   0.610   9.202   6.789 -1.0486 -1.2604  0.4822
29893SOL     OW92571   8.720   9.316   3.652 -0.1986 -0.0761 -0.1668
29893SOL    HW192572   8.731   9.291   3.560  0.1688 -0.0192 -0.1430
29893SOL    HW292573   8.629   9.343   3.660  0.1240  1.3349 -0.8695
29894SOL     OW92574   3.531   1.439   1.046  0.5103  0.0047  0.2900
29894SOL    HW192575   3.543   1.380   1.121  1.0948 -0.3751 -0.0995
29894SOL    HW292576   3.608   1.424   0.991 -0.2126 -0.1824 -0.6993
29895SOL     OW92577   8.280   3.482  10.530  0.1084  0.1862  0.0586
29895SOL    HW192578   8.286   3.577  10.517 -3.5865  0.3528 -1.8704
29895SOL    HW292579   8.309   3.444  10.447  0.2431 -0.2825  0.3193
29896SOL     OW92580   4.279   5.606   9.206  0.1542 -0.6246 -0.3007
29896SOL    HW192581   4.365   5.565   9.206  0.9552  0.9457 -1.6538
29896SOL    HW292582   4.235   5.572   9.128  0.3291  0.0666 -0.7114
29897SOL     OW92583   5.492   2.971   7.858  0.0320 -0.0737  0.0681
29897SOL    HW192584   5.412   2.959   7.807 -0.2609 -0.5897  0.6288
29897SOL    HW292585   5.461   2.998   7.945  0.4475 -0.5324  0.3656
29898SOL     OW92586   3.532   3.423   3.559  0.3432  0.2757 -0.5423
29898SOL    HW192587   3.493   3.414   3.646  0.5501 -0.4121 -0.5180
29898SOL    HW292588   3.543   3.518   3.547 -0.6543  0.4324 -0.2526
29899SOL     OW92589   5.408   5.129   6.600  0.0654  0.1308  0.3341
29899SOL    HW192590   5.466   5.205   6.597  0.1599  0.0300 -0.9119
29899SOL    HW292591   5.322   5.163   6.574 -0.6786  0.4263  2.8396
29900SOL     OW92592   8.510   2.640   1.074  0.1508  0.1135 -0.1304
29900SOL    HW192593   8.557   2.696   1.012  0.6531  0.9668  1.0009
29900SOL    HW292594   8.505   2.691   1.154  0.4551 -1.3950  0.8803
29901SOL     OW92595   6.212   5.557   2.428 -0.1718 -0.2645 -0.6251
29901SOL    HW192596   6.298   5.515   2.422 -0.9835 -2.3715  1.2762
29901SOL    HW292597   6.204   5.581   2.520 -0.2988  3.0866 -1.3881
29902SOL     OW92598   2.773   4.694   7.739  0.3386 -0.2310  0.6805
29902SOL    HW192599   2.769   4.600   7.720 -0.7792 -0.1388  0.3424
29902SOL    HW292600   2.796   4.700   7.831  0.6558 -0.8327  0.6405
29903SOL     OW92601   7.703   5.193   3.528 -0.3287 -0.2573 -0.3137
29903SOL    HW192602   7.738   5.158   3.610  1.0668  2.4067  0.3428
29903SOL    HW292603   7.737   5.135   3.460 -0.3702 -1.7160  0.8607
29904SOL     OW92604   4.093   9.811   7.603  0.4510  0.1899 -0.2400
29904SOL    HW192605   4.167   9.869   7.585 -0.2084  0.8133 -1.0484
29904SOL    HW292606   4.024   9.870   7.634  0.3718 -0.4206  0.8064
29905SOL     OW92607   0.867   3.820   7.177  0.0970 -0.5137 -0.7138
29905SOL    HW192608   0.945   3.764   7.179  0.6861  0.2723 -0.9351
29905SOL    HW292609   0.902   3.909   7.175 -0.8180 -0.0859  0.8766
29906SOL     OW92610   5.675   1.332   5.369  0.0896 -0.3910 -0.8445
29906SOL    HW192611   5.733   1.359   5.298 -1.3419  2.5257 -1.0630
29906SOL    HW292612   5.587   1.357   5.339 -0.5989  0.7523  1.7908
29907SOL     OW92613   8.973   0.393   1.377 -0.6592  0.2945 -0.1316
29907SOL    HW192614   8.970   0.487   1.357 -0.5300  0.1318 -0.9326
29907SOL    HW292615   9.066   0.371   1.378 -0.7249 -0.1071 -1.3397
29908SOL     OW92616   5.767   1.302   2.218 -0.3491 -0.1611 -0.2069
29908SOL    HW192617   5.747   1.392   2.193 -0.8062 -0.1374  0.2273
29908SOL    HW292618   5.861   1.303   2.236 -0.2567  0.1070 -0.6910
29909SOL     OW92619   9.472   8.855   1.868 -0.4823  0.1614  0.2876
29909SOL    HW192620   9.564   8.881   1.864  0.1092 -1.8453 -0.6442
29909SOL    HW292621   9.461   8.815   1.954 -0.3637 -0.0040  0.2254
29910SOL     OW92622   6.160   7.213   7.168 -0.0471 -0.3773  0.3281
29910SOL    HW192623   6.220   7.139   7.162  1.2798  0.6612  0.1513
29910SOL    HW292624   6.202   7.281   7.115 -0.9820  0.6514  0.8832
29911SOL     OW92625   8.664   4.010   5.131  0.6405  0.1698  0.0809
29911SOL    HW192626   8.743   3.957   5.124 -0.2617 -0.9773 -2.4422
29911SOL    HW292627   8.671   4.053   5.217  3.0246 -1.4001  0.7493
29912SOL     OW92628   7.101   1.474   8.650  0.5141  0.0763 -0.3016
29912SOL    HW192629   7.098   1.512   8.738 -1.3006 -0.5689 -0.0296
29912SOL    HW292630   7.028   1.411   8.649  0.5350  0.0261 -2.2387
29913SOL     OW92631   1.937   4.077   8.157  0.0794 -0.5980  0.1049
29913SOL    HW192632   1.881   4.143   8.114 -0.0674  0.1907  1.4492
29913SOL    HW292633   1.910   4.079   8.249  1.0708 -1.5330  0.4368
29914SOL     OW92634   7.516   1.398   0.906 -0.6093 -0.1512  0.2569
29914SOL    HW192635   7.443   1.405   0.968 -0.3078 -1.2207  0.7541
29914SOL    HW292636   7.565   1.479   0.917 -0.4391 -0.4154  1.5875
29915SOL     OW92637   9.469  10.460   4.358 -0.0925  0.5151 -0.4151
29915SOL    HW192638   9.477  10.368   4.334 -0.6110  0.3290  0.1157
29915SOL    HW292639   9.536  10.473   4.425 -0.8965  0.1902  0.4634
29916SOL     OW92640   3.306   9.981   3.613  0.1436  0.0181  0.0883
29916SOL    HW192641   3.299   9.891   3.580  0.1543 -0.2277  0.7404
29916SOL    HW292642   3.386  10.014   3.573 -1.3190  0.7471 -2.4733
29917SOL     OW92643   7.610   0.202   7.723  0.3746  0.5606  0.0613
29917SOL    HW192644   7.610   0.255   7.643 -1.1009  2.3295  1.1489
29917SOL    HW292645   7.699   0.169   7.730  0.9956  1.8008 -1.4016
29918SOL     OW92646   0.228   6.244   9.114  0.1637  0.3497  0.0124
29918SOL    HW192647   0.323   6.238   9.110  0.1117 -1.8374  0.9060
29918SOL    HW292648   0.210   6.277   9.202  0.0915 -0.3607  0.2722
29919SOL     OW92649   5.113   8.359   1.902  0.6318 -0.3812 -0.3110
29919SOL    HW192650   5.111   8.344   1.997  0.3113  0.2151 -0.2234
29919SOL    HW292651   5.078   8.447   1.890  2.5278  0.3426 -0.8344
29920SOL     OW92652   0.277   1.356  10.214  0.7597 -0.0973 -0.1319
29920SOL    HW192653   0.365   1.335  10.247  0.2033 -0.0389  1.4916
29920SOL    HW292654   0.219   1.329  10.285 -0.5879 -0.5721 -1.3724
29921SOL     OW92655   6.692   4.188   7.008  0.3641 -0.3743 -0.1060
29921SOL    HW192656   6.706   4.282   6.996 -0.5924 -0.0514  1.0788
29921SOL    HW292657   6.619   4.183   7.069  1.2795 -1.8638  0.9291
29922SOL     OW92658  10.451   4.801   3.617 -0.0085 -0.4224  0.0763
29922SOL    HW192659  10.363   4.783   3.651 -0.4195  2.6748  0.9228
29922SOL    HW292660  10.492   4.854   3.685  2.9425 -2.5135  0.1167
29923SOL     OW92661   4.533   6.118   7.522 -0.1081 -0.7534 -0.0778
29923SOL    HW192662   4.517   6.027   7.499  1.1800 -0.2607 -3.3011
29923SOL    HW292663   4.594   6.114   7.596 -2.0137 -2.4292  1.5307
29924SOL     OW92664   9.448   9.859   7.345 -0.3240 -0.3122 -0.1840
29924SOL    HW192665   9.448   9.803   7.268  2.0874 -2.0918  0.9682
29924SOL    HW292666   9.381   9.822   7.402 -0.1306 -0.7950 -0.2636
29925SOL     OW92667   4.638   1.934   7.995  0.0028 -0.5380  0.2134
29925SOL    HW192668   4.635   1.982   7.913  2.1598 -0.1739  0.2963
29925SOL    HW292669   4.666   1.846   7.970  0.3437 -0.5172  0.5097
29926SOL     OW92670   1.546   1.682   6.106 -0.3486  0.2781 -0.0363
29926SOL    HW192671   1.539   1.622   6.180 -0.3240  0.1328 -0.1502
29926SOL    HW292672   1.473   1.658   6.049 -1.2510  1.3451  0.6235
29927SOL     OW92673   3.457   1.251   5.537 -0.4976 -0.1201  0.2608
29927SOL    HW192674   3.501   1.300   5.468 -1.7999  0.9059  0.1114
29927SOL    HW292675   3.508   1.268   5.615  0.3526 -0.3805 -0.2217
29928SOL     OW92676   5.602   7.046   0.013  0.2823 -0.6117  0.1458
29928SOL    HW192677   5.524   7.099  -0.001 -1.3486 -2.6885  0.9370
29928SOL    HW292678   5.656   7.100   0.072 -0.3248  1.0139 -0.7104
29929SOL     OW92679  10.367   4.657   9.725  0.3090  0.2922 -0.1183
29929SOL    HW192680  10.333   4.707   9.651  2.8615  1.5020 -0.5932
29929SOL    HW292681  10.341   4.567   9.707  0.4253  0.6317 -2.2492
29930SOL     OW92682   2.128   1.360   7.001  0.2342  0.4393 -0.3095
29930SOL    HW192683   2.106   1.320   7.085  0.9940  0.0094 -0.3061
29930SOL    HW292684   2.171   1.442   7.024  2.9946 -0.9326 -0.1450
29931SOL     OW92685   8.370  10.622   3.130 -0.5563 -0.3745  0.2679
29931SOL    HW192686   8.337  10.646   3.216  0.5465  2.5893 -0.0329
29931SOL    HW292687   8.465  10.629   3.138 -0.3927 -0.9079 -0.9735
29932SOL     OW92688   0.575   0.240   9.225  0.6187 -0.1347  0.2491
29932SOL    HW192689   0.484   0.252   9.252  0.0869 -1.8549 -0.6350
29932SOL    HW292690   0.589   0.305   9.157 -0.2478 -0.4227 -0.2211
29933SOL     OW92691   1.747   9.730   9.521 -0.7885  0.2840  0.5350
29933SOL    HW192692   1.690   9.761   9.451 -0.7441  1.3901  0.9601
29933SOL    HW292693   1.834   9.763   9.497 -0.6894  0.2771  0.8790
29934SOL     OW92694   7.041   0.220   3.869 -0.0124 -0.3078 -0.2101
29934SOL    HW192695   7.077   0.299   3.909  1.0668 -0.5062 -0.7409
29934SOL    HW292696   6.956   0.207   3.912  1.0349 -0.4616  1.9492
29935SOL     OW92697   9.237   4.507   0.113  0.3772 -0.3817  0.1230
29935SOL    HW192698   9.197   4.579   0.162 -0.4987 -0.8210  0.0719
29935SOL    HW292699   9.281   4.454   0.180 -1.7323 -1.5914  0.6666
29936SOL     OW92700   0.959   5.946   2.595 -0.1832 -0.1052 -0.2491
29936SOL    HW192701   1.053   5.929   2.587 -0.0553  0.4185  0.1029
29936SOL    HW292702   0.930   5.888   2.665 -0.0025  0.1622  0.0519
29937SOL     OW92703   3.516   8.445   3.851  0.1751 -0.1534 -0.4296
29937SOL    HW192704   3.553   8.520   3.898 -0.4824  2.5223 -3.7544
29937SOL    HW292705   3.422   8.448   3.872  0.4070 -1.3796  0.9694
29938SOL     OW92706   6.067   7.253   2.759  0.1917 -0.2587  0.9657
29938SOL    HW192707   6.040   7.250   2.667 -0.0632 -0.1148  1.0354
29938SOL    HW292708   6.162   7.237   2.757 -0.2421 -3.5959  0.9001
29939SOL     OW92709   0.872  10.384   9.391  0.1161 -0.4213 -0.0785
29939SOL    HW192710   0.782  10.363   9.366  0.1513 -2.0136  0.9673
29939SOL    HW292711   0.863  10.446   9.463 -0.0995  0.2769 -0.6936
29940SOL     OW92712  10.171   6.250   9.896  0.4765  0.0273  0.2732
29940SOL    HW192713  10.161   6.330   9.948  0.3164  0.5154 -0.4856
29940SOL    HW292714  10.116   6.186   9.939 -0.8942  0.8621 -0.1700
29941SOL     OW92715   2.366   2.025   2.005 -0.1862  0.2086  0.4272
29941SOL    HW192716   2.433   2.070   2.055  0.5778 -0.0157 -0.3697
29941SOL    HW292717   2.366   1.935   2.038 -0.5143  0.3504  0.8277
29942SOL     OW92718   4.883   3.983  10.362  0.7189 -0.5265 -0.0228
29942SOL    HW192719   4.822   3.943  10.423  1.5817  1.9553  2.6547
29942SOL    HW292720   4.831   4.046  10.313  0.5383 -0.6126  0.0580
29943SOL     OW92721   0.075   9.373   6.223 -0.2204 -0.0383 -0.2540
29943SOL    HW192722   0.155   9.365   6.171 -0.9228 -0.6423 -1.2998
29943SOL    HW292723   0.063   9.286   6.262 -0.4234  0.0163 -0.1932
29944SOL     OW92724   6.715   4.898   9.972  0.3536 -0.4798  0.1325
29944SOL    HW192725   6.758   4.860   9.895  0.5910  0.1056 -0.0265
29944SOL    HW292726   6.649   4.833   9.996  0.3073 -0.6949 -0.5369
29945SOL     OW92727   8.861   3.219   2.838 -0.0957 -0.1268 -0.6842
29945SOL    HW192728   8.899   3.271   2.768 -2.0039  0.7392 -1.1405
29945SOL    HW292729   8.794   3.166   2.796 -1.4668  0.6099  0.4788
29946SOL     OW92730   4.616  10.792   8.655 -0.5908 -0.6038  0.0679
29946SOL    HW192731   4.707  10.772   8.676 -0.2415  1.0519  0.3270
29946SOL    HW292732   4.587  10.849   8.727 -1.9124 -1.2845  0.1123
29947SOL     OW92733   2.961   5.390   0.237 -0.3093 -0.0658 -0.2452
29947SOL    HW192734   3.026   5.353   0.297  0.8079  3.1063  0.7224
29947SOL    HW292735   2.877   5.378   0.281  0.4952  2.2367  2.1196
29948SOL     OW92736  10.755   1.610   9.568 -0.4578  0.1866  0.0316
29948SOL    HW192737  10.845   1.588   9.594 -0.4469 -0.4379 -0.4991
29948SOL    HW292738  10.720   1.529   9.533 -1.3861  0.3247  0.6277
29949SOL     OW92739   6.519  10.235   2.112 -0.2596  0.1898 -0.6504
29949SOL    HW192740   6.525  10.267   2.022  2.7788  0.2824 -0.5411
29949SOL    HW292741   6.519  10.315   2.166  0.5435  0.1193 -0.5337
29950SOL     OW92742   5.933   8.310   9.838  0.2024  0.6947 -0.2044
29950SOL    HW192743   5.933   8.397   9.797 -3.5215  0.7036 -0.5371
29950SOL    HW292744   5.961   8.251   9.768  0.5148  1.4120 -0.6989
29951SOL     OW92745   4.381   2.574   6.397  0.5247 -0.3249 -0.1426
29951SOL    HW192746   4.449   2.507   6.383  0.8789  0.0219 -0.1084
29951SOL    HW292747   4.398   2.639   6.328  1.1703  0.5108  0.7721
29952SOL     OW92748   6.906   2.543   5.022  0.1105 -0.6191 -0.0340
29952SOL    HW192749   6.816   2.515   5.038  0.2780 -1.5091 -0.5876
29952SOL    HW292750   6.905   2.578   4.933  0.0472  0.5779  0.4178
29953SOL     OW92751   3.469   6.678   8.357  0.2164  0.7359 -0.0607
29953SOL    HW192752   3.402   6.742   8.330 -1.6327 -1.3033 -0.5997
29953SOL    HW292753   3.490   6.629   8.278  0.1635 -0.5528  0.6887
29954SOL     OW92754   7.684  10.702   3.379 -0.0338 -0.0572 -0.1728
29954SOL    HW192755   7.731  10.648   3.443 -1.0339  0.5311  1.1154
29954SOL    HW292756   7.663  10.642   3.308 -1.6058 -1.5709  1.4586
29955SOL     OW92757   1.181   4.050   7.365  0.5107  0.2708 -0.3211
29955SOL    HW192758   1.205   4.111   7.295  1.2016  0.5667  0.1542
29955SOL    HW292759   1.221   3.967   7.339  2.4729  0.8540  0.6503
29956SOL     OW92760   0.185   3.705   7.929 -0.1115  0.3324  0.4990
29956SOL    HW192761   0.091   3.687   7.921 -0.4516  1.9698  0.3434
29956SOL    HW292762   0.228   3.633   7.883 -1.3372  0.0359 -0.2215
29957SOL     OW92763   7.429   5.310  10.166 -0.2593  0.0162 -0.2101
29957SOL    HW192764   7.453   5.242  10.228 -1.3085  0.4104  0.6538
29957SOL    HW292765   7.513   5.345  10.135  0.2743 -0.7797  0.3093
29958SOL     OW92766   0.606   4.088   9.229  0.2938 -0.0592  0.6606
29958SOL    HW192767   0.671   4.158   9.234  1.0015 -0.7855  2.5809
29958SOL    HW292768   0.656   4.007   9.240 -0.8051 -0.6858  1.2608
29959SOL     OW92769  10.235   2.708   6.156  0.2365 -0.5519  0.2962
29959SOL    HW192770  10.185   2.768   6.101 -0.1449  1.0147  2.2570
29959SOL    HW292771  10.306   2.761   6.191  0.9394 -1.7213  0.6844
29960SOL     OW92772   8.660  10.229   2.694  0.1909 -0.0957  0.1271
29960SOL    HW192773   8.725  10.243   2.624  0.1502 -0.0683  0.0949
29960SOL    HW292774   8.635  10.138   2.684 -0.8819  0.2756 -0.8175
29961SOL     OW92775   3.721   8.914  10.681  0.2564 -0.0216  0.4506
29961SOL    HW192776   3.633   8.945  10.660 -0.0487 -0.4424  1.0835
29961SOL    HW292777   3.739   8.952  10.767  1.2307  1.1538 -0.2251
29962SOL     OW92778   0.202   6.187   2.358  0.2132  0.2795  0.0001
29962SOL    HW192779   0.261   6.118   2.328  0.4844 -0.1912  1.5112
29962SOL    HW292780   0.119   6.142   2.377  0.5754  0.1985  1.5856
29963SOL     OW92781   2.817   3.051   8.096 -0.0050 -0.1721 -0.0632
29963SOL    HW192782   2.840   3.144   8.094  0.3756 -0.2632  0.1819
29963SOL    HW292783   2.800   3.032   8.188 -3.1464  0.4056 -0.4068
29964SOL     OW92784  10.328   4.526   9.311  0.6350  0.0104 -0.1146
29964SOL    HW192785  10.369   4.592   9.255  2.1129 -0.8063 -0.0227
29964SOL    HW292786  10.400   4.470   9.340 -0.3620 -0.6510  1.1668
29965SOL     OW92787   7.544   8.876   1.587  0.1910  0.2519  0.3780
29965SOL    HW192788   7.467   8.878   1.644 -0.5785 -1.8101 -0.5070
29965SOL    HW292789   7.610   8.829   1.638  0.2583  0.3906  0.4202
29966SOL     OW92790   8.537   5.914   3.439 -0.4890 -0.2699 -0.0775
29966SOL    HW192791   8.447   5.892   3.461 -0.5496  1.2480  1.4124
29966SOL    HW292792   8.562   5.981   3.503  1.9315 -1.1499  0.0097
29967SOL     OW92793   6.401   9.205   5.443  0.3445  0.2999 -0.1183
29967SOL    HW192794   6.310   9.177   5.447  0.1032  1.1159  0.4566
29967SOL    HW292795   6.421   9.209   5.349  0.1143 -0.8730 -0.2238
29968SOL     OW92796   7.783   8.759   0.219 -0.0830 -0.2600  0.0108
29968SOL    HW192797   7.723   8.779   0.147  0.4095 -0.1837 -0.3880
29968SOL    HW292798   7.853   8.708   0.177 -0.3227 -1.1236  0.6350
29969SOL     OW92799   1.284   3.446   4.477  0.1606  0.1849 -0.2001
29969SOL    HW192800   1.330   3.527   4.458 -0.0195  0.7050  1.4207
29969SOL    HW292801   1.247   3.419   4.393  3.6469 -0.4670 -1.7289
29970SOL     OW92802   4.639   0.594   3.564 -0.6548 -0.7555 -0.5772
29970SOL    HW192803   4.657   0.566   3.474 -0.3864 -1.3177 -0.3521
29970SOL    HW292804   4.715   0.648   3.588 -0.3162 -1.2992 -0.4010
29971SOL     OW92805   4.843   8.843  10.648 -0.0226  0.7047  0.8598
29971SOL    HW192806   4.859   8.857  10.555 -0.2932 -1.3490  0.4591
29971SOL    HW292807   4.844   8.931  10.686 -0.0850  1.5994 -1.0932
29972SOL     OW92808   7.121   2.085   5.650 -0.6313  0.1267 -0.7937
29972SOL    HW192809   7.132   1.994   5.621 -1.7783 -0.3162  0.0606
29972SOL    HW292810   7.180   2.135   5.595  2.3519 -1.4546  0.7119
29973SOL     OW92811   0.026   4.280   8.965 -0.3941 -0.4717  0.6232
29973SOL    HW192812  -0.019   4.218   8.908 -2.5554 -0.6481  2.3810
29973SOL    HW292813   0.057   4.228   9.039 -0.9233  0.2872  1.3988
29974SOL     OW92814   0.069  10.142   2.932  0.3467  0.1516 -0.4481
29974SOL    HW192815   0.007  10.071   2.947 -1.1233  1.1369 -1.6705
29974SOL    HW292816   0.016  10.221   2.930  1.6225  1.0318 -1.6045
29975SOL     OW92817   6.385   3.039   0.397  0.0886 -0.0147  0.2093
29975SOL    HW192818   6.399   3.088   0.478  1.6003  1.1957 -0.7199
29975SOL    HW292819   6.291   3.044   0.382 -0.1462  0.1991  1.5991
29976SOL     OW92820   0.598   2.577   0.350  0.1027  0.8822  0.1401
29976SOL    HW192821   0.656   2.530   0.290 -0.2948  1.1670 -0.4768
29976SOL    HW292822   0.518   2.525   0.352 -0.3500  1.5285 -0.5676
29977SOL     OW92823   4.216   9.548   1.225 -0.0319 -0.0278 -0.2166
29977SOL    HW192824   4.179   9.594   1.150  1.5286  1.5544 -0.0781
29977SOL    HW292825   4.218   9.614   1.295  0.3509 -0.9169  0.6339
29978SOL     OW92826   8.858  10.195   1.895  0.3514  0.1571 -0.2318
29978SOL    HW192827   8.846  10.207   1.989  2.4375  0.7351  0.0149
29978SOL    HW292828   8.817  10.272   1.855  1.2137  0.9521  0.3727
29979SOL     OW92829   3.897  10.551   8.143 -0.5334 -0.1176 -0.6257
29979SOL    HW192830   3.938  10.470   8.172 -0.2120  0.4046  0.4558
29979SOL    HW292831   3.949  10.579   8.068 -0.9174 -1.1184 -1.2931
29980SOL     OW92832  10.273   3.411   3.291  0.1961 -0.2282  0.4985
29980SOL    HW192833  10.305   3.367   3.370  0.3822  0.3027  0.7180
29980SOL    HW292834  10.343   3.398   3.227  0.4704  0.1753  0.7134
29981SOL     OW92835  10.567   3.988   4.082 -0.2137  0.0866  0.1750
29981SOL    HW192836  10.622   3.940   4.019  1.2155  0.7604  0.8821
29981SOL    HW292837  10.525   3.919   4.133  0.9737 -0.4556  0.4647
29982SOL     OW92838   5.759   7.950   5.453 -0.7073  0.0153  0.0009
29982SOL    HW192839   5.699   7.899   5.399 -0.0892  0.4900 -1.1497
29982SOL    HW292840   5.733   7.929   5.543 -2.4870  0.0927 -0.4600
29983SOL     OW92841   7.332  10.526   0.709 -0.1143  0.3830  0.3783
29983SOL    HW192842   7.258  10.483   0.666  1.3800 -1.9054 -0.0583
29983SOL    HW292843   7.397  10.537   0.641  0.8697  0.1421  1.2507
29984SOL     OW92844   9.054   2.979   5.702 -0.2692 -0.1999  0.5247
29984SOL    HW192845   9.055   2.940   5.790 -3.5384  1.6597  1.5562
29984SOL    HW292846   9.079   3.070   5.716  1.0537 -0.3110 -0.8447
29985SOL     OW92847   4.070   2.883   9.729 -0.2809 -0.1954  0.2645
29985SOL    HW192848   4.078   2.900   9.823  0.7091 -0.5315  0.2511
29985SOL    HW292849   4.125   2.807   9.714  0.4774  0.5426 -0.7849
29986SOL     OW92850   3.380   9.022   2.039  0.1973  0.1147 -0.0530
29986SOL    HW192851   3.380   9.006   1.945  0.4999 -1.0344  0.1237
29986SOL    HW292852   3.460   8.980   2.071 -0.5241 -0.6101  0.8778
29987SOL     OW92853   5.221   0.600  10.034  0.0922 -0.6216 -0.5245
29987SOL    HW192854   5.296   0.655  10.058  0.1956  0.0692 -2.2911
29987SOL    HW292855   5.245   0.563   9.949 -1.3096 -0.8686 -0.8339
29988SOL     OW92856   7.008   5.468   8.387  0.0604 -0.0303  0.2984
29988SOL    HW192857   7.023   5.535   8.320 -1.4313  0.7682  0.7091
29988SOL    HW292858   7.038   5.387   8.347  1.9640  0.8696 -0.1961
29989SOL     OW92859   0.736   5.466   0.245  0.4044 -0.0868 -0.2621
29989SOL    HW192860   0.668   5.534   0.247 -2.6966 -2.9160 -0.9150
29989SOL    HW292861   0.784   5.483   0.163 -0.3739  1.1956 -0.4893
29990SOL     OW92862   9.493   6.949   5.370  0.0132  0.0349  0.3076
29990SOL    HW192863   9.535   7.003   5.436 -0.3674 -1.5379  1.9194
29990SOL    HW292864   9.418   7.001   5.340  1.1199  1.4330 -0.1179
29991SOL     OW92865   5.424   0.575   8.200 -0.1073  0.5307  0.2130
29991SOL    HW192866   5.345   0.522   8.209  0.9685 -1.2896 -0.4537
29991SOL    HW292867   5.392   0.664   8.183 -2.0360  0.6362  3.3994
29992SOL     OW92868   0.675   9.324   2.971  0.8922 -0.3590 -0.0670
29992SOL    HW192869   0.672   9.236   2.933  2.6251 -0.3255 -0.3599
29992SOL    HW292870   0.651   9.382   2.898 -0.5599 -0.5761  0.2074
29993SOL     OW92871   1.491   2.299  10.622  0.0719 -0.2004  0.7341
29993SOL    HW192872   1.521   2.354  10.694  2.2981 -0.8084  0.3444
29993SOL    HW292873   1.426   2.241  10.662 -1.6615  1.9962  1.3491
29994SOL     OW92874   5.067   0.469   0.200  0.4001 -0.0069  0.3550
29994SOL    HW192875   5.018   0.498   0.277  1.6734 -1.1314  1.6371
29994SOL    HW292876   5.070   0.373   0.208 -1.1713 -0.3807 -2.1848
29995SOL     OW92877   3.796   6.914   8.945 -0.0020  0.1681  0.3833
29995SOL    HW192878   3.721   6.932   9.001 -1.4181 -0.5542 -1.1979
29995SOL    HW292879   3.785   6.973   8.871 -0.6170 -1.8609 -1.2324
29996SOL     OW92880   3.906   2.959   2.182 -0.3646  0.4574 -0.0949
29996SOL    HW192881   3.916   2.871   2.146 -0.0280  0.2615  0.4771
29996SOL    HW292882   3.986   3.005   2.158  0.4116 -0.0405  1.4240
29997SOL     OW92883   4.936   2.029   6.054  0.4750  0.0873 -0.4934
29997SOL    HW192884   5.006   2.001   5.995  1.7830 -0.0436  1.0623
29997SOL    HW292885   4.864   1.968   6.038  1.8840 -1.8041  0.1384
29998SOL     OW92886   9.331   0.413   6.627  0.2888 -0.2767 -0.1701
29998SOL    HW192887   9.305   0.460   6.548  0.2642 -0.6890 -0.4049
29998SOL    HW292888   9.331   0.321   6.602  1.2724 -0.3398  0.0284
29999SOL     OW92889   5.067   3.108   4.922 -0.0572 -0.6679  0.2966
29999SOL    HW192890   4.983   3.084   4.883  0.1712 -2.2734  0.7167
29999SOL    HW292891   5.129   3.046   4.884  0.9986  0.6491 -0.1811
30000SOL     OW92892   2.828   9.146  10.605  0.4464 -0.1106  0.3638
30000SOL    HW192893   2.854   9.138  10.514  1.3396 -1.7975  0.7384
30000SOL    HW292894   2.742   9.189  10.602  0.7437  0.4346 -1.2064
30001SOL     OW92895   8.957   9.433   4.354  0.3239 -0.1914  0.4639
30001SOL    HW192896   9.023   9.487   4.398 -1.4916  1.0132  1.8869
30001SOL    HW292897   8.990   9.423   4.265  0.9743  3.0355  0.2007
30002SOL     OW92898   5.399   6.293   7.180  0.5964 -0.3014 -0.1534
30002SOL    HW192899   5.476   6.236   7.177  0.2240 -0.8369  0.2590
30002SOL    HW292900   5.426   6.367   7.234 -0.2827 -2.2434  3.2087
30003SOL     OW92901   6.037   4.769  10.023  0.4436 -0.7095 -0.1259
30003SOL    HW192902   5.984   4.820  10.084  1.1142 -0.9550  0.6724
30003SOL    HW292903   6.068   4.694  10.075 -0.3267 -1.8165 -1.2014
30004SOL     OW92904   3.452   7.966   6.999 -0.0986  0.8426  0.1394
30004SOL    HW192905   3.532   7.920   6.974 -0.5366  0.2836 -0.2464
30004SOL    HW292906   3.420   7.920   7.077 -1.0445 -0.1330 -0.7902
30005SOL     OW92907   4.121   1.718   1.735 -0.1265 -0.0156  0.0910
30005SOL    HW192908   4.096   1.724   1.643 -0.7431  0.1953  0.2634
30005SOL    HW292909   4.193   1.655   1.736 -0.2138 -0.1355 -0.5186
30006SOL     OW92910   0.845   4.432   2.289 -0.4989  0.3742  0.1277
30006SOL    HW192911   0.763   4.461   2.249 -0.0199  1.1343 -0.3219
30006SOL    HW292912   0.896   4.512   2.299 -0.9242  0.4098  3.1245
30007SOL     OW92913   0.010   0.776   0.673  0.0109  0.1842  0.5060
30007SOL    HW192914  -0.068   0.829   0.653 -1.1560 -1.9357 -0.9559
30007SOL    HW292915   0.084   0.833   0.652 -1.1671  1.5651 -0.0628
30008SOL     OW92916   1.986   6.973   5.319  0.0020 -0.0551 -0.5433
30008SOL    HW192917   1.893   6.976   5.299  0.0624 -2.2534 -1.4963
30008SOL    HW292918   1.993   6.915   5.395  0.6108 -0.5149 -0.9358
30009SOL     OW92919   9.660   5.054   4.440  0.0142  0.4468  0.2688
30009SOL    HW192920   9.746   5.054   4.398 -0.1085  0.9848  0.0050
30009SOL    HW292921   9.600   5.090   4.374 -0.5216 -0.4703  0.2461
30010SOL     OW92922   5.233   4.661   9.537 -0.0583 -0.5645 -0.3459
30010SOL    HW192923   5.144   4.682   9.565  1.2738  2.7154  2.1210
30010SOL    HW292924   5.243   4.708   9.454 -0.4049 -0.3497 -0.2696
30011SOL     OW92925   5.283   1.962   6.985  0.3653 -0.3389  0.0737
30011SOL    HW192926   5.290   1.876   7.027 -1.6586 -1.5242 -1.7714
30011SOL    HW292927   5.317   1.948   6.897 -3.2423 -0.3968 -1.5052
30012SOL     OW92928   5.964   1.382   4.665 -0.0559 -0.3966  0.3736
30012SOL    HW192929   6.013   1.300   4.670  1.6512  0.6269  1.3581
30012SOL    HW292930   5.952   1.398   4.572  0.1741 -1.4214  0.1593
30013SOL     OW92931   4.950  10.100   3.791  0.0514  0.5900  0.3159
30013SOL    HW192932   4.930  10.191   3.770 -0.1053 -0.0527 -2.6485
30013SOL    HW292933   4.906  10.049   3.723 -0.2179 -1.7794  2.1206
30014SOL     OW92934   1.555  10.496   1.619 -0.3217  0.2175 -0.0666
30014SOL    HW192935   1.477  10.552   1.621 -1.2600 -1.0431  1.4628
30014SOL    HW292936   1.544  10.442   1.541  0.0089  1.3345 -0.9103
30015SOL     OW92937   7.340   9.447   4.778 -0.4416  0.3463 -0.1446
30015SOL    HW192938   7.322   9.356   4.754  1.3621  0.0865 -0.6361
30015SOL    HW292939   7.317   9.452   4.871 -2.2009 -0.1215 -0.5177
30016SOL     OW92940   2.404   0.923   1.431 -0.1459  0.1741  0.0472
30016SOL    HW192941   2.447   0.844   1.465  2.1271  2.2640  2.4817
30016SOL    HW292942   2.339   0.945   1.498 -1.6189 -0.2392 -1.2113
30017SOL     OW92943   5.968   3.695   8.010  0.2191  0.5959 -0.1146
30017SOL    HW192944   6.052   3.657   8.037 -0.7858 -0.8774  1.0845
30017SOL    HW292945   5.935   3.633   7.944 -1.5289 -0.8736  1.9962
30018SOL     OW92946   5.346   3.972   1.416  0.1638 -0.6021  0.2388
30018SOL    HW192947   5.394   3.967   1.333  0.8965  0.5705  0.5716
30018SOL    HW292948   5.299   4.055   1.412  0.2770 -0.4903  1.0315
30019SOL     OW92949   0.451   8.354   7.051 -0.1164 -0.0408 -0.0619
30019SOL    HW192950   0.521   8.291   7.034  0.2817  0.4096 -0.1165
30019SOL    HW292951   0.422   8.333   7.140 -0.6301 -0.9032 -0.4153
30020SOL     OW92952   2.144   1.330   5.983  0.8009  0.2157  0.0114
30020SOL    HW192953   2.166   1.413   6.026  0.3959  1.1688 -1.5398
30020SOL    HW292954   2.123   1.355   5.893 -0.8437 -1.3727 -0.1078
30021SOL     OW92955   3.225   9.282   4.735  0.1099 -0.0129 -0.0705
30021SOL    HW192956   3.237   9.209   4.674 -0.3008 -0.7978  0.7702
30021SOL    HW292957   3.130   9.294   4.739  0.2002  1.3476 -1.0790
30022SOL     OW92958   3.243  10.150   6.995 -0.2905  0.3144  0.1943
30022SOL    HW192959   3.239  10.075   7.054 -0.1348  1.0022  1.1063
30022SOL    HW292960   3.215  10.116   6.910 -0.8580 -0.6147  0.7442
30023SOL     OW92961   4.775   9.199   6.444 -0.1507 -0.5363 -0.1132
30023SOL    HW192962   4.744   9.268   6.386  2.0676  0.4626 -0.2260
30023SOL    HW292963   4.751   9.228   6.532  3.8139  2.4318  0.2842
30024SOL     OW92964   1.093   4.054   4.719 -0.4804 -0.0691 -0.2225
30024SOL    HW192965   1.064   4.143   4.696  0.8562  0.3018 -0.5473
30024SOL    HW292966   1.180   4.066   4.756 -0.4986 -1.2078  0.2260
30025SOL     OW92967  10.507  10.251   3.214  0.0991 -0.1327  0.1056
30025SOL    HW192968  10.583  10.195   3.230 -1.1522 -1.7009  0.7529
30025SOL    HW292969  10.437  10.191   3.189 -1.5178  1.0286  1.6145
30026SOL     OW92970   0.085   7.986   9.582 -0.3590  0.3724  0.0591
30026SOL    HW192971   0.001   7.944   9.561 -1.2915  1.3321  1.6765
30026SOL    HW292972   0.118   7.936   9.657  0.2695  0.3320 -0.2398
30027SOL     OW92973   3.037   7.803   8.410 -0.9268  0.2231  0.0599
30027SOL    HW192974   3.082   7.816   8.327  0.4131 -0.7271  0.6053
30027SOL    HW292975   2.948   7.780   8.385 -0.3341 -0.9109 -1.1544
30028SOL     OW92976   7.876   8.280   3.546  0.4381  0.5416  0.3710
30028SOL    HW192977   7.799   8.264   3.490 -0.0837  0.7483  1.0205
30028SOL    HW292978   7.927   8.345   3.497 -0.9059  2.0715  0.9268
30029SOL     OW92979   6.829   0.076   2.031  0.3127  0.5380  0.0520
30029SOL    HW192980   6.864   0.122   2.106  0.8607  1.8421 -0.9626
30029SOL    HW292981   6.888   0.002   2.018  0.1865  0.2787  0.9100
30030SOL     OW92982   0.419   0.831   7.756 -0.5294  0.4752  0.5437
30030SOL    HW192983   0.426   0.886   7.834 -0.9372  0.7865  0.3654
30030SOL    HW292984   0.325   0.827   7.738 -0.3302  2.3477 -1.2715
30031SOL     OW92985   5.287   3.573   1.622 -0.2839  0.5620 -0.2407
30031SOL    HW192986   5.302   3.479   1.629  1.1585  0.8179  0.3800
30031SOL    HW292987   5.243   3.584   1.537  1.2916 -0.4883 -1.2555
30032SOL     OW92988   2.760   7.238   0.095  0.0186  0.2052 -0.2154
30032SOL    HW192989   2.737   7.328   0.071 -0.9475  0.2309  0.7497
30032SOL    HW292990   2.732   7.230   0.186 -0.0096 -1.1270 -0.3312
30033SOL     OW92991   9.689   8.972   7.293  0.6986 -0.0645  0.2414
30033SOL    HW192992   9.663   9.058   7.327 -1.1645 -0.2748 -0.5604
30033SOL    HW292993   9.723   8.990   7.206 -1.9009 -0.3072 -0.9160
30034SOL     OW92994   2.711   1.259   5.276 -0.2209  0.2724  0.4320
30034SOL    HW192995   2.658   1.327   5.317  0.1943  0.8334  0.0335
30034SOL    HW292996   2.801   1.293   5.277  0.0122 -0.3159  0.3429
30035SOL     OW92997  10.770   7.768   5.330 -0.0202  0.3008  0.0880
30035SOL    HW192998  10.726   7.837   5.280 -1.2661  0.3338  1.1504
30035SOL    HW292999  10.811   7.712   5.264  0.9930  2.0218 -0.7913
30036SOL     OW93000   2.261   5.964   9.655 -0.0154  0.1604 -0.5883
30036SOL    HW193001   2.337   5.980   9.600  0.1683  0.1046 -0.3562
30036SOL    HW293002   2.236   5.873   9.636  3.4295 -1.9687  3.3587
30037SOL     OW93003   9.430   7.451   0.783  0.3986  0.0603  0.4905
30037SOL    HW193004   9.475   7.527   0.747  0.4523 -0.9494 -1.6732
30037SOL    HW293005   9.482   7.427   0.860  2.8359 -0.2666 -1.1638
30038SOL     OW93006   1.800   5.304  10.764 -0.4251 -0.1471 -0.0862
30038SOL    HW193007   1.820   5.214  10.738 -1.3629 -1.2033  2.4806
30038SOL    HW293008   1.705   5.304  10.777 -0.1533  0.4164  2.4018
30039SOL     OW93009   7.793  10.362   3.753 -0.8546  0.1117 -0.1519
30039SOL    HW193010   7.796  10.387   3.845 -1.3548 -0.2146 -0.0411
30039SOL    HW293011   7.763  10.271   3.754 -1.4450  0.2942 -0.6644
30040SOL     OW93012   4.477   9.221   8.929  0.5403  0.1387 -0.2367
30040SOL    HW193013   4.451   9.146   8.875 -0.8308  0.9915 -0.8121
30040SOL    HW293014   4.509   9.286   8.866  0.7787  0.4115  0.1606
30041SOL     OW93015   9.199   4.544   7.851  0.0442  0.0478 -0.4094
30041SOL    HW193016   9.230   4.463   7.890 -1.3192  0.0352  0.7048
30041SOL    HW293017   9.160   4.592   7.924 -2.4840  0.0842 -1.7100
30042SOL     OW93018   9.083   7.367   8.003 -0.1389  0.5329  0.2774
30042SOL    HW193019   9.058   7.390   8.092  2.2570  0.5302  1.0249
30042SOL    HW293020   9.124   7.447   7.968  1.8016 -0.3900  0.3494
30043SOL     OW93021   7.902   8.751   8.784 -0.0140  0.0343 -0.0613
30043SOL    HW193022   7.894   8.842   8.811  4.9195  0.5532  0.5885
30043SOL    HW293023   7.847   8.702   8.846 -0.2558  2.3091  1.6292
30044SOL     OW93024   5.790   1.026  10.282 -0.2355 -0.4403 -0.1394
30044SOL    HW193025   5.816   1.118  10.278  0.0501 -0.5378 -0.6047
30044SOL    HW293026   5.845   0.988  10.350 -1.1065 -0.0326  0.8154
30045SOL     OW93027   6.025   4.461  10.487 -0.1879  0.2631  0.5836
30045SOL    HW193028   5.968   4.408  10.433  0.7113 -0.3889  0.2554
30045SOL    HW293029   6.040   4.409  10.566  0.5014  0.1167  0.3665
30046SOL     OW93030   6.620   8.890  10.763  0.3604 -0.1471 -0.0830
30046SOL    HW193031   6.525   8.896  10.761  0.3906  1.7877  1.4956
30046SOL    HW293032   6.638   8.796  10.763 -1.5382 -0.5447 -0.3753
30047SOL     OW93033   5.869   0.506   8.619 -0.1783 -0.3033  0.5670
30047SOL    HW193034   5.903   0.570   8.556  1.3301 -1.5630  0.0700
30047SOL    HW293035   5.820   0.444   8.565  0.6598 -1.0814  0.6902
30048SOL     OW93036   1.024   5.345   5.419 -0.0294  0.1205  0.0632
30048SOL    HW193037   0.939   5.343   5.375  0.3511 -2.2870 -0.7120
30048SOL    HW293038   1.009   5.400   5.496 -1.6375  1.6328 -1.2225
30049SOL     OW93039   1.431   7.077   0.373 -0.1906  0.1116 -0.3621
30049SOL    HW193040   1.481   6.996   0.359  0.3047  0.0416  1.5675
30049SOL    HW293041   1.492   7.146   0.347 -0.6913 -0.0850 -2.2312
30050SOL     OW93042   3.632   4.717  10.106 -0.5000 -0.3313 -0.4924
30050SOL    HW193043   3.557   4.775  10.118  0.4073  0.8108 -0.1695
30050SOL    HW293044   3.706   4.764  10.145  0.4797 -1.2334 -1.1833
30051SOL     OW93045  10.339   5.411   5.735  0.9216  0.4337 -0.2684
30051SOL    HW193046  10.267   5.464   5.699  0.9213  0.6292  0.0126
30051SOL    HW293047  10.343   5.437   5.827  0.5584 -0.4667  0.0065
30052SOL     OW93048   9.231   8.962   2.026  0.4080  0.4232  0.6057
30052SOL    HW193049   9.287   8.904   1.974 -0.1489 -1.4602  1.9868
30052SOL    HW293050   9.182   8.903   2.083 -0.6864  2.2415  1.6453
30053SOL     OW93051   4.390   4.217   4.899  0.1657  0.0877  0.0987
30053SOL    HW193052   4.309   4.230   4.850 -0.2888  0.1646  0.8572
30053SOL    HW293053   4.413   4.126   4.885  0.7648  0.4334 -1.3297
30054SOL     OW93054   3.187   0.611   2.630 -0.2060  0.1294 -0.1167
30054SOL    HW193055   3.167   0.639   2.541 -1.7752  1.8599  0.7117
30054SOL    HW293056   3.282   0.616   2.636 -0.0680 -0.0903 -1.6999
30055SOL     OW93057   5.853   1.232   1.931  0.5211  0.3209  0.5843
30055SOL    HW193058   5.927   1.271   1.978  0.5568  2.1352 -0.8444
30055SOL    HW293059   5.858   1.270   1.843 -0.6471 -1.4773 -0.3194
30056SOL     OW93060   5.174   4.199   1.397 -0.3395 -0.1930  0.4940
30056SOL    HW193061   5.093   4.190   1.446 -1.6537 -1.9881 -1.8115
30056SOL    HW293062   5.210   4.283   1.426 -2.6791  0.3846  2.0182
30057SOL     OW93063   1.754   9.402   4.839 -0.2324 -0.9789  0.2051
30057SOL    HW193064   1.722   9.371   4.924 -1.1422  1.3739  0.7732
30057SOL    HW293065   1.676   9.409   4.785 -0.3102  1.4817  0.5245
30058SOL     OW93066   6.937   2.582   7.920  0.1905 -0.0378  0.1122
30058SOL    HW193067   6.962   2.597   8.011 -0.4050 -0.3369  0.3290
30058SOL    HW293068   6.878   2.507   7.924  0.2079 -0.0856 -0.5295
30059SOL     OW93069   7.715   6.874   8.528 -0.5074  0.3644  0.0660
30059SOL    HW193070   7.632   6.837   8.557  0.0582 -1.4151 -0.4516
30059SOL    HW293071   7.716   6.860   8.433  0.6910 -0.3299  0.1576
30060SOL     OW93072   1.939  10.228   3.500  0.0340  0.0271  0.1240
30060SOL    HW193073   1.890  10.306   3.529  1.9716  2.3585 -2.3159
30060SOL    HW293074   1.871  10.170   3.465 -1.3350  1.8245 -0.4194
30061SOL     OW93075  10.797   2.916   1.032  0.3826  0.0156 -0.7349
30061SOL    HW193076  10.871   2.891   0.977  0.2908 -2.2369  0.0778
30061SOL    HW293077  10.834   2.924   1.120 -0.3606 -1.5458 -0.2453
30062SOL     OW93078   3.312   0.689   9.319 -0.0216 -0.1286  0.0222
30062SOL    HW193079   3.270   0.673   9.404  0.1584 -1.8216 -0.1679
30062SOL    HW293080   3.334   0.782   9.320 -1.7840  0.3304  1.0254
30063SOL     OW93081   3.598   1.328   6.826 -0.2156 -0.0315 -0.2632
30063SOL    HW193082   3.588   1.234   6.811 -0.5492  0.1469 -1.1858
30063SOL    HW293083   3.515   1.366   6.800 -0.1619  0.5063  0.3186
30064SOL     OW93084   1.479  10.177   3.745  0.4015 -0.2795  0.6989
30064SOL    HW193085   1.458  10.263   3.783 -0.9490 -0.9972  1.6562
30064SOL    HW293086   1.423  10.172   3.667  0.1425 -0.4731  0.8968
30065SOL     OW93087   6.328   9.585   9.795  0.5808  0.3100  0.1363
30065SOL    HW193088   6.308   9.678   9.799  0.1944  0.2765 -0.7465
30065SOL    HW293089   6.259   9.543   9.847  0.0950  0.4381 -0.3897
30066SOL     OW93090   4.205   3.863   8.415  0.0588 -0.2605 -0.3026
30066SOL    HW193091   4.207   3.953   8.383 -0.5681  0.2172  0.9276
30066SOL    HW293092   4.186   3.810   8.338 -1.2038  0.8133 -0.7642
30067SOL     OW93093   8.287  10.340   1.096  0.1469 -0.3402  0.7473
30067SOL    HW193094   8.236  10.402   1.149  2.7267  1.5725  1.2234
30067SOL    HW293095   8.335  10.287   1.160  0.4957 -0.5135  0.3471
30068SOL     OW93096   6.105   2.483   0.743  0.1904  0.5366  0.7108
30068SOL    HW193097   6.186   2.432   0.749 -0.6492 -0.9760 -0.0702
30068SOL    HW293098   6.073   2.466   0.654 -1.2188  0.7337  1.1618
30069SOL     OW93099   0.346   7.351   0.988 -0.3012 -0.1078  0.9405
30069SOL    HW193100   0.337   7.394   1.073 -1.6640 -1.0437  1.3116
30069SOL    HW293101   0.262   7.367   0.944  0.4690  0.5748 -0.3536
30070SOL     OW93102   5.946   8.980   9.783  0.2606 -0.0715 -0.1313
30070SOL    HW193103   5.951   9.012   9.693  0.4522  1.3144  0.3314
30070SOL    HW293104   5.856   8.952   9.794  0.0812  0.3070 -0.5891
30071SOL     OW93105  10.014  10.300   5.626  0.2265  0.1117 -0.7281
30071SOL    HW193106  10.098  10.334   5.658 -1.1348  1.9847  1.1004
30071SOL    HW293107   9.977  10.252   5.700 -0.8073  0.2917 -1.1038
30072SOL     OW93108   6.764   8.452   4.145  0.3425 -0.6252  0.3903
30072SOL    HW193109   6.820   8.485   4.215  0.8546 -1.8378  0.5746
30072SOL    HW293110   6.817   8.460   4.066 -0.7215  2.0253 -0.1420
30073SOL     OW93111   3.887   0.756   4.906 -0.8087 -0.0841 -0.3501
30073SOL    HW193112   3.976   0.734   4.879 -0.7427  1.0548 -1.1663
30073SOL    HW293113   3.870   0.841   4.864 -1.4181  0.8768  1.7413
30074SOL     OW93114   7.628   8.344   7.540 -0.4038  0.3405 -0.2383
30074SOL    HW193115   7.577   8.330   7.620 -0.9767  0.1661 -0.6262
30074SOL    HW293116   7.607   8.269   7.485 -0.1459  0.5473 -0.6215
30075SOL     OW93117   6.459   6.135   0.899 -0.0074 -0.1225  0.0946
30075SOL    HW193118   6.483   6.109   0.988  1.2008 -0.7044 -0.3745
30075SOL    HW293119   6.370   6.102   0.888 -0.9890  1.7275  1.7629
30076SOL     OW93120   9.915   1.715   8.215  0.0531  0.3953  0.4568
30076SOL    HW193121   9.856   1.650   8.255 -0.2216  0.7490  0.6323
30076SOL    HW293122   9.956   1.758   8.290  2.2047 -1.3176  0.3638
30077SOL     OW93123   8.890   4.901   6.586  0.0089 -0.3591 -0.1646
30077SOL    HW193124   8.852   4.815   6.605 -3.8861  1.2362  0.0674
30077SOL    HW293125   8.887   4.907   6.490 -1.1735  0.0545 -0.1165
30078SOL     OW93126   9.333   9.069   1.769  0.2649  0.6868 -0.2556
30078SOL    HW193127   9.381   9.151   1.782 -0.2106  0.8201  0.7078
30078SOL    HW293128   9.367   9.010   1.836  0.7326  0.0161 -1.0502
30079SOL     OW93129   2.549   0.889   7.424 -0.1538 -0.0637  0.5859
30079SOL    HW193130   2.504   0.901   7.508  1.0408 -0.2823  1.2977
30079SOL    HW293131   2.570   0.977   7.395  1.5244 -0.0217  1.7551
30080SOL     OW93132   0.941   4.296  10.059  0.2178  0.1365 -0.1209
30080SOL    HW193133   0.957   4.251  10.142 -0.7624  0.2597  0.1483
30080SOL    HW293134   0.856   4.263  10.029  0.7711 -0.2579 -1.3162
30081SOL     OW93135   5.716   9.925   1.128  0.3721 -0.3547 -0.1007
30081SOL    HW193136   5.671   9.960   1.204  1.6490 -0.2697  0.6396
30081SOL    HW293137   5.679   9.837   1.116 -0.5567  0.0163 -0.0220
30082SOL     OW93138   9.613   7.456   1.291 -0.4508 -0.2216 -0.4995
30082SOL    HW193139   9.575   7.472   1.377  0.1965  1.0897 -0.4315
30082SOL    HW293140   9.693   7.508   1.290 -0.2280 -0.5454 -1.7469
30083SOL     OW93141   7.285   4.766   4.246  0.2128 -0.4660 -0.3743
30083SOL    HW193142   7.207   4.774   4.302  0.0277 -1.2585 -0.5067
30083SOL    HW293143   7.324   4.854   4.247  0.5851 -0.6064  1.5393
30084SOL     OW93144   9.708   5.386   2.550 -0.7609 -0.0203  0.2064
30084SOL    HW193145   9.704   5.297   2.514 -0.0633 -0.8753  2.1085
30084SOL    HW293146   9.636   5.390   2.612 -2.1551  1.5472 -1.3962
30085SOL     OW93147   2.219   6.729  10.641 -0.0931 -0.6043  0.3851
30085SOL    HW193148   2.311   6.740  10.667  0.4589 -0.1481 -1.5468
30085SOL    HW293149   2.216   6.761  10.551 -2.0595 -1.0876  0.2293
30086SOL     OW93150   2.193   4.222   4.507 -0.3089  0.4343  0.2791
30086SOL    HW193151   2.113   4.177   4.534 -1.1638  1.1462 -0.9638
30086SOL    HW293152   2.206   4.290   4.573 -0.5294  0.0800  0.6889
30087SOL     OW93153   3.199   4.508   2.306 -0.1379  0.3788 -0.2794
30087SOL    HW193154   3.180   4.599   2.281  2.4331  0.9464 -0.4201
30087SOL    HW293155   3.197   4.509   2.402  2.0849  1.2009 -0.1809
30088SOL     OW93156   9.374   6.009   5.440 -0.4024 -0.1089  0.0693
30088SOL    HW193157   9.464   6.016   5.472 -0.1686  0.0557 -0.5940
30088SOL    HW293158   9.340   6.098   5.444 -0.4859 -0.1465  0.1852
30089SOL     OW93159   2.376   3.673   1.163  0.2779 -0.1972 -0.4846
30089SOL    HW193160   2.432   3.750   1.152 -0.5895  0.6098  0.5190
30089SOL    HW293161   2.294   3.708   1.197  1.1452 -1.8415  4.1046
30090SOL     OW93162   4.790   4.926   3.084 -0.1902  0.3534  0.1606
30090SOL    HW193163   4.857   4.933   3.016  0.1502  1.4122  0.5863
30090SOL    HW293164   4.749   4.841   3.068  0.8583 -0.0551 -0.4677
30091SOL     OW93165   1.859   2.956   3.094  0.2144  0.2810 -0.0588
30091SOL    HW193166   1.949   2.985   3.109 -0.0174  0.4617  1.0652
30091SOL    HW293167   1.805   3.033   3.111 -0.1743  0.1158 -0.5079
30092SOL     OW93168   4.474   8.456   2.294 -0.2338 -0.3760  0.0639
30092SOL    HW193169   4.418   8.533   2.286  0.7931  0.6126  1.7994
30092SOL    HW293170   4.550   8.476   2.239 -0.0873 -0.2528  0.3085
30093SOL     OW93171   6.311   0.603   4.564 -0.0762  0.0618 -0.0624
30093SOL    HW193172   6.292   0.650   4.646 -1.1235  3.0071 -1.8482
30093SOL    HW293173   6.227   0.566   4.538  0.4636 -1.7432  0.6196
30094SOL     OW93174   6.056   7.549   7.002 -0.4129  0.1018 -0.1485
30094SOL    HW193175   6.022   7.476   6.951  1.1198  0.1399 -1.2996
30094SOL    HW293176   6.026   7.627   6.956  2.5108  0.1555 -2.2642
30095SOL     OW93177   0.845   7.472  10.317  0.6824 -0.2745  0.4612
30095SOL    HW193178   0.908   7.452  10.386  1.5278 -0.1745 -0.2745
30095SOL    HW293179   0.804   7.554  10.345 -1.3208 -1.8262  2.4554
30096SOL     OW93180   6.028   7.000   9.149 -0.3771  0.7938 -0.2363
30096SOL    HW193181   6.086   7.060   9.102  1.3060  0.2650  1.0891
30096SOL    HW293182   6.045   6.914   9.110 -0.0966  0.5948  0.3264
30097SOL     OW93183   8.103   8.094   4.074 -0.1414  0.5750  0.1009
30097SOL    HW193184   8.021   8.100   4.123  0.9207 -0.5615  2.1518
30097SOL    HW293185   8.162   8.155   4.118  1.2386 -1.4320  1.1893
30098SOL     OW93186   9.082   7.531   1.140  0.5539  0.3288  0.4668
30098SOL    HW193187   9.112   7.544   1.230  1.7108 -1.1070  0.3435
30098SOL    HW293188   9.070   7.436   1.133  0.1719  0.4516 -0.8058
30099SOL     OW93189   0.970   8.446   5.889 -0.1339 -0.2768  0.0370
30099SOL    HW193190   0.891   8.437   5.943 -0.3343 -1.8176 -0.4663
30099SOL    HW293191   0.939   8.488   5.809 -0.4592 -0.8487 -0.1471
30100SOL     OW93192   0.822   1.365  10.392 -0.1897 -0.3476 -0.1601
30100SOL    HW193193   0.914   1.369  10.368 -0.3519  1.7816 -0.6262
30100SOL    HW293194   0.814   1.422  10.468 -1.3490  0.7999 -1.0782
30101SOL     OW93195   4.654   4.486   9.936 -0.6231 -0.0001  0.9906
30101SOL    HW193196   4.598   4.414   9.964 -1.9972  0.6482  0.0709
30101SOL    HW293197   4.613   4.564   9.973  0.0574  0.4439  0.8384
30102SOL     OW93198   5.090   5.348  10.004  0.0247 -0.2306 -0.2893
30102SOL    HW193199   5.077   5.337   9.910 -0.1518 -0.4035 -0.2460
30102SOL    HW293200   5.008   5.386  10.036  0.4000  0.6390 -0.3356
30103SOL     OW93201   7.754   2.531   8.639 -0.4218 -0.0756  0.5362
30103SOL    HW193202   7.830   2.527   8.697  0.1480  1.1450 -0.0814
30103SOL    HW293203   7.766   2.457   8.579  0.4130  0.2501  0.2915
30104SOL     OW93204   5.783   7.921  10.337  0.1893 -0.6089  0.4268
30104SOL    HW193205   5.823   7.965  10.412 -1.3465 -1.0051  1.5295
30104SOL    HW293206   5.789   7.984  10.266  0.8459  0.1381  1.1238
30105SOL     OW93207   9.471   4.679   2.657  0.2236 -0.1148  0.0609
30105SOL    HW193208   9.451   4.742   2.588  1.8798 -1.1606 -1.4249
30105SOL    HW293209   9.455   4.594   2.617  1.4774 -0.7474  0.8706
30106SOL     OW93210   7.144   5.170   6.145  0.4233  0.2349 -0.1901
30106SOL    HW193211   7.238   5.152   6.149  0.9189  2.6430  0.7262
30106SOL    HW293212   7.102   5.089   6.176  2.2739 -0.1498  1.4978
30107SOL     OW93213   7.306   0.338   7.833  0.5668 -0.2574 -0.2469
30107SOL    HW193214   7.259   0.303   7.909  0.4371 -0.9371 -0.6361
30107SOL    HW293215   7.380   0.386   7.871 -0.9356  1.6490  0.4178
30108SOL     OW93216   5.349   3.568   9.370 -0.2775 -0.1714 -0.2723
30108SOL    HW193217   5.361   3.570   9.465 -0.1179 -1.0355 -0.2657
30108SOL    HW293218   5.254   3.572   9.358 -0.4656 -2.3366  0.0364
30109SOL     OW93219   5.562  10.470  10.726  0.0724  1.2092 -0.9976
30109SOL    HW193220   5.537  10.429  10.643  0.1771 -0.0666 -0.4176
30109SOL    HW293221   5.490  10.449  10.786  0.9570  0.3421 -0.2098
30110SOL     OW93222   9.053  10.402   9.467  0.0834 -0.5707 -0.5104
30110SOL    HW193223   9.127  10.460   9.484  0.8575 -1.6997  0.0817
30110SOL    HW293224   9.086  10.339   9.403 -0.2720 -1.2246 -0.0690
30111SOL     OW93225   1.061   4.944   6.372  1.4534  0.3765 -0.3092
30111SOL    HW193226   1.008   4.895   6.434  0.6865  2.0449  0.4371
30111SOL    HW293227   1.083   4.881   6.304 -1.9424 -0.3055 -0.9505
30112SOL     OW93228   7.589   9.467   9.930 -0.7496 -0.5962  0.1058
30112SOL    HW193229   7.520   9.414   9.889 -0.6240 -1.5454  1.0839
30112SOL    HW293230   7.549   9.553   9.943 -0.2320  0.4474 -3.7024
30113SOL     OW93231   8.935   0.735   8.377 -0.2882 -0.5510 -1.2766
30113SOL    HW193232   8.918   0.661   8.317 -0.1759  0.4198 -2.5484
30113SOL    HW293233   8.872   0.802   8.350 -0.1393 -0.0387 -0.3752
30114SOL     OW93234   0.361   3.679   2.967  0.4866 -0.1206 -0.3741
30114SOL    HW193235   0.269   3.706   2.973  0.0576 -1.7431  1.1863
30114SOL    HW293236   0.404   3.725   3.039  1.1206  1.2797 -1.5979
30115SOL     OW93237   6.032   5.858  10.654 -0.1362  0.0965  0.0852
30115SOL    HW193238   6.084   5.888  10.728 -1.3202  1.4609  0.4000
30115SOL    HW293239   6.095   5.850  10.582  1.1415 -1.8174  1.3255
30116SOL     OW93240   1.623   1.884   7.610 -0.1484 -0.7166  0.3946
30116SOL    HW193241   1.567   1.948   7.652  1.6343  1.2271 -0.0113
30116SOL    HW293242   1.685   1.936   7.559 -0.3685 -2.8762 -2.2784
30117SOL     OW93243   4.557   3.071   7.898 -0.0614 -0.1936  0.5203
30117SOL    HW193244   4.509   3.132   7.954  1.9973 -0.0847  2.3097
30117SOL    HW293245   4.547   2.986   7.940  1.6664 -0.0796  1.2578
30118SOL     OW93246   6.746   9.004   0.696  1.0453  0.4111 -0.2424
30118SOL    HW193247   6.718   9.047   0.615  0.5885 -0.9840 -0.8610
30118SOL    HW293248   6.814   8.943   0.667  1.5080  0.5222  0.5786
30119SOL     OW93249   5.316   2.025   0.141 -0.4986  0.6792 -0.9438
30119SOL    HW193250   5.329   2.102   0.085 -0.0373  3.5254  2.6982
30119SOL    HW293251   5.221   2.014   0.145 -0.5824  1.2284 -1.2724
30120SOL     OW93252  10.143   3.454   5.629 -0.3587 -0.1262  0.8939
30120SOL    HW193253  10.050   3.446   5.647 -0.4272  0.3248  0.7556
30120SOL    HW293254  10.161   3.387   5.563 -0.6448 -0.0264  0.7115
30121SOL     OW93255   8.547   2.331   4.168 -0.2443 -0.0959 -0.7433
30121SOL    HW193256   8.501   2.254   4.201 -0.1901 -0.3450 -1.2314
30121SOL    HW293257   8.489   2.405   4.190 -0.6610 -0.3588 -0.9410
30122SOL     OW93258  10.150   1.164   3.238  0.1524 -0.2323  0.1447
30122SOL    HW193259  10.112   1.117   3.313 -0.6973  0.5133  0.2058
30122SOL    HW293260  10.126   1.256   3.254  1.5095  0.1861 -0.1262
30123SOL     OW93261   1.854   9.872   6.370  0.0796 -0.3879  0.1588
30123SOL    HW193262   1.781   9.904   6.317  0.4189 -1.5832 -1.0839
30123SOL    HW293263   1.813   9.825   6.442 -0.3844 -0.7870 -0.3581
30124SOL     OW93264   9.739  10.405   1.897 -0.3324  0.1419 -0.4218
30124SOL    HW193265   9.774  10.438   1.815 -0.2362 -0.0743 -0.4693
30124SOL    HW293266   9.713  10.314   1.877 -2.3392  0.7388 -0.8165
30125SOL     OW93267   2.148  10.137   5.661  0.1890  0.2633 -0.0210
30125SOL    HW193268   2.191  10.108   5.581 -0.3786 -0.9114  0.0758
30125SOL    HW293269   2.211  10.119   5.731  1.0992  2.2367 -0.2770
30126SOL     OW93270   4.002   1.806  10.333 -0.3931  0.5095  0.7293
30126SOL    HW193271   3.987   1.735  10.397  0.1755 -0.1033  0.1982
30126SOL    HW293272   3.922   1.808  10.281 -0.8528  0.9963  1.4303
30127SOL     OW93273   3.937   1.820   5.245 -0.4359 -0.1029 -0.4750
30127SOL    HW193274   4.010   1.759   5.258  0.0574  0.0052 -2.3298
30127SOL    HW293275   3.862   1.778   5.286  0.9460  0.5811  3.0867
30128SOL     OW93276   1.794   3.828   0.873 -0.6197 -0.9104  0.7740
30128SOL    HW193277   1.761   3.750   0.828 -2.1393 -0.0488  0.3295
30128SOL    HW293278   1.814   3.889   0.802  0.4287 -0.8302  1.1273
30129SOL     OW93279   8.026   1.685   2.817 -0.3871  0.7314 -0.2674
30129SOL    HW193280   7.972   1.671   2.895 -0.4388  1.5345 -0.1558
30129SOL    HW293281   8.048   1.778   2.819 -1.3698  1.0399 -1.8323
30130SOL     OW93282   9.730   5.290  10.011 -0.6797 -0.0012 -0.4819
30130SOL    HW193283   9.649   5.313   9.965 -0.7927  0.7551  0.0875
30130SOL    HW293284   9.770   5.373  10.033  1.3673 -0.2918 -2.6017
30131SOL     OW93285   0.552   9.305   7.681  0.5084 -0.4420  0.2282
30131SOL    HW193286   0.546   9.388   7.634 -0.3126  0.3581  1.6762
30131SOL    HW293287   0.645   9.293   7.697  0.5347  1.0954  1.4785
30132SOL     OW93288   1.028   7.198   3.257  0.2088  0.2529 -0.0337
30132SOL    HW193289   1.065   7.264   3.199 -0.8590 -0.5275 -1.6951
30132SOL    HW293290   1.102   7.165   3.308  1.2184  0.8821 -1.0572
30133SOL     OW93291   0.121   0.687   2.345  0.6041  0.3553  0.3215
30133SOL    HW193292   0.112   0.637   2.427  1.6960 -0.2581  0.0821
30133SOL    HW293293   0.215   0.696   2.333  0.5312 -0.9999 -1.7116
30134SOL     OW93294   2.056   8.108   0.091 -0.2931 -0.0824  0.7750
30134SOL    HW193295   2.118   8.106   0.018 -0.7183 -0.9822  0.4226
30134SOL    HW293296   2.040   8.201   0.106  1.1708  0.1808  0.9149
30135SOL     OW93297   4.136   2.775   8.145 -0.4887 -0.7384 -0.2069
30135SOL    HW193298   4.127   2.798   8.237  0.3329  0.1292 -0.3331
30135SOL    HW293299   4.051   2.736   8.122 -1.5862  1.2032  0.3158
30136SOL     OW93300   6.370   0.166  10.455  0.2513  0.0535 -0.3541
30136SOL    HW193301   6.424   0.243  10.440  1.1476 -0.7491 -1.4410
30136SOL    HW293302   6.408   0.098  10.399 -0.3100 -1.2772  0.7910
30137SOL     OW93303   4.999   3.546   2.973  0.2760  0.0405 -0.8056
30137SOL    HW193304   4.930   3.480   2.976 -0.9088  1.1107 -2.4618
30137SOL    HW293305   4.996   3.588   3.060 -0.9155 -0.1924 -0.7220
30138SOL     OW93306   6.967   4.661   1.349 -0.1109 -0.0170 -0.1100
30138SOL    HW193307   6.945   4.569   1.333  0.0798  0.1350 -1.2862
30138SOL    HW293308   6.904   4.710   1.297 -0.6151  0.5533  1.0055
30139SOL     OW93309   6.015   4.276   2.878  0.1237 -0.1187 -0.4896
30139SOL    HW193310   5.983   4.253   2.965 -1.0355 -0.6778 -1.0456
30139SOL    HW293311   6.110   4.267   2.884  0.0130 -0.6509  0.5764
30140SOL     OW93312   2.567   4.487   1.425  0.2218 -0.0013 -0.5471
30140SOL    HW193313   2.534   4.401   1.451  1.4953 -0.0926  0.9070
30140SOL    HW293314   2.493   4.528   1.379 -1.8466 -0.2916  2.2789
30141SOL     OW93315   7.858   6.190   6.053 -0.0210  0.6568 -0.2860
30141SOL    HW193316   7.868   6.130   6.127  0.1359  0.7443 -0.2355
30141SOL    HW293317   7.873   6.277   6.090 -0.1936  0.7214 -0.3697
30142SOL     OW93318   0.602   3.117   2.506 -0.0836 -0.1808  0.1559
30142SOL    HW193319   0.621   3.025   2.490  0.8774  0.1931 -0.9990
30142SOL    HW293320   0.554   3.118   2.589 -0.3596 -1.7332  0.0344
30143SOL     OW93321   2.073   7.352   6.821 -0.2885 -0.5851 -0.1087
30143SOL    HW193322   2.024   7.391   6.894 -2.6480  0.2446 -2.0190
30143SOL    HW293323   2.124   7.424   6.784  2.7484 -1.4582  1.9214
30144SOL     OW93324   9.621   5.037   5.179 -0.4944  0.3493  0.2040
30144SOL    HW193325   9.709   5.063   5.203  0.0073  0.1859 -1.3601
30144SOL    HW293326   9.605   5.077   5.094 -0.5111 -2.4993 -1.2793
30145SOL     OW93327   3.238   9.429  10.045 -0.3982  0.4314  0.1469
30145SOL    HW193328   3.251   9.335  10.045  1.5971  0.6501 -0.5259
30145SOL    HW293329   3.250   9.456  10.136 -2.8991 -0.1141  0.7182
30146SOL     OW93330   9.736   7.045   3.521  0.5965 -0.3699  0.3227
30146SOL    HW193331   9.696   6.959   3.530 -0.0104 -0.1550 -0.2576
30146SOL    HW293332   9.814   7.041   3.577  1.3619 -1.7691 -0.7689
30147SOL     OW93333   7.925   4.023   8.836 -0.1159  0.4847 -0.7570
30147SOL    HW193334   8.012   4.051   8.866 -0.0925  2.5930 -2.5242
30147SOL    HW293335   7.930   4.030   8.741 -1.2408 -2.5867 -1.1402
30148SOL     OW93336   9.090   7.454   9.434  0.3952  0.2848 -0.1060
30148SOL    HW193337   9.117   7.440   9.343  3.0428 -0.4756  0.6805
30148SOL    HW293338   9.000   7.486   9.429  0.4102  0.0894 -2.9607
30149SOL     OW93339   3.160   5.995   5.941  0.1161  0.6319  0.6091
30149SOL    HW193340   3.070   5.963   5.954  0.5836 -1.5576 -0.9829
30149SOL    HW293341   3.209   5.959   6.016  0.5871 -2.5365 -1.0327
30150SOL     OW93342   3.870   7.709   5.603 -0.4206 -0.3957 -0.2725
30150SOL    HW193343   3.925   7.757   5.665 -0.7493 -0.6643  0.2395
30150SOL    HW293344   3.923   7.703   5.523 -0.1633  0.3284 -0.1618
30151SOL     OW93345   1.301   7.161   7.052 -0.0642 -0.0185  0.5073
30151SOL    HW193346   1.386   7.117   7.057  0.1623  0.5442  2.1567
30151SOL    HW293347   1.237   7.092   7.067  0.2285 -0.0488  1.7190
30152SOL     OW93348   5.540   2.137   4.288  0.0655 -0.0897  0.2251
30152SOL    HW193349   5.560   2.213   4.233  0.2845 -0.8022 -0.7082
30152SOL    HW293350   5.510   2.174   4.371  1.8926  1.0270  0.4469
30153SOL     OW93351  10.381   7.071   6.917 -0.7184  0.3483  0.2346
30153SOL    HW193352  10.442   7.059   6.844 -0.8559  1.8666 -0.1575
30153SOL    HW293353  10.328   6.991   6.918  1.6733 -1.3590  1.0168
30154SOL     OW93354   6.235   7.561   6.045 -0.0821 -0.1283 -0.5071
30154SOL    HW193355   6.270   7.648   6.031 -1.3777  0.4956  0.0037
30154SOL    HW293356   6.311   7.503   6.037  1.1536  1.1962  1.0483
30155SOL     OW93357   4.744   6.376   7.593  0.5743  0.2245 -0.2905
30155SOL    HW193358   4.731   6.429   7.671 -0.2161  1.5443 -1.2821
30155SOL    HW293359   4.721   6.287   7.621  2.2566  0.2781  1.4879
30156SOL     OW93360   8.477   6.172   7.691 -0.5515  0.1433  0.4130
30156SOL    HW193361   8.556   6.172   7.636 -0.6383  0.2306  0.2888
30156SOL    HW293362   8.406   6.196   7.631 -0.9460 -1.6097  0.1149
30157SOL     OW93363   3.498   7.333  10.152 -0.2928  0.8311 -0.4087
30157SOL    HW193364   3.580   7.367  10.187 -0.3935 -0.7490  1.5036
30157SOL    HW293365   3.512   7.330  10.057  2.2008 -0.2105 -0.0889
30158SOL     OW93366   4.587   6.620   6.012 -0.2545  0.0237 -0.6580
30158SOL    HW193367   4.628   6.630   6.098  0.4808 -1.3661 -0.8125
30158SOL    HW293368   4.559   6.708   5.988 -1.3056  0.3284  1.4078
30159SOL     OW93369   7.034   3.663   9.800  0.0016 -0.6173 -0.2863
30159SOL    HW193370   7.096   3.632   9.867  0.8336  0.0306 -0.7392
30159SOL    HW293371   6.984   3.585   9.776 -0.0575 -0.9435  0.8139
30160SOL     OW93372   3.311   3.758   4.395  0.1222 -0.6532 -0.5075
30160SOL    HW193373   3.313   3.666   4.371  1.6662 -0.4306 -1.3522
30160SOL    HW293374   3.229   3.769   4.443  1.4987 -3.2215  2.8419
30161SOL     OW93375   9.117   2.980   9.697 -0.6768 -0.5091 -0.2985
30161SOL    HW193376   9.195   3.015   9.655  0.0624 -0.2779  1.2125
30161SOL    HW293377   9.088   2.910   9.639  0.2592 -0.1583 -1.2208
30162SOL     OW93378   6.378  10.584   9.642  0.2048 -0.1171 -0.5771
30162SOL    HW193379   6.411  10.543   9.562 -1.1199  0.7669 -1.6287
30162SOL    HW293380   6.292  10.618   9.618 -0.1094  0.4414  1.1563
30163SOL     OW93381   8.686   6.843  10.251 -0.8887  0.6550  0.3052
30163SOL    HW193382   8.624   6.803  10.312 -0.2116 -0.9347  0.0108
30163SOL    HW293383   8.746   6.772  10.228  0.1441  1.7691 -0.5708
30164SOL     OW93384   7.471   5.167   8.118 -0.4461 -0.1268  0.5910
30164SOL    HW193385   7.521   5.245   8.144  0.7837 -0.8897  0.5942
30164SOL    HW293386   7.471   5.170   8.022 -0.0658 -0.3136  0.5817
30165SOL     OW93387   9.441   8.636   1.677  0.2866  0.6557 -0.6176
30165SOL    HW193388   9.421   8.716   1.724  0.0114  0.4226 -0.3312
30165SOL    HW293389   9.381   8.571   1.714 -0.1591  0.5416 -1.5133
30166SOL     OW93390   9.282   8.499   5.403  0.3755  0.2936  0.2226
30166SOL    HW193391   9.377   8.488   5.398  0.3676  0.5762 -0.8391
30166SOL    HW293392   9.254   8.430   5.464  1.1153 -0.7385 -0.5595
30167SOL     OW93393  10.647   1.370   5.078 -0.1074 -0.3855 -0.4006
30167SOL    HW193394  10.554   1.395   5.075  0.5551  2.5327 -0.3426
30167SOL    HW293395  10.675   1.373   4.986  0.2077  0.1745 -0.2951
30168SOL     OW93396  10.303   1.182   4.921 -0.2116 -0.4256 -0.0717
30168SOL    HW193397  10.260   1.215   4.843 -1.9902 -0.7273  0.7310
30168SOL    HW293398  10.234   1.180   4.988  0.8140 -1.8389  1.0145
30169SOL     OW93399  10.770  10.455   0.771  0.5289 -0.6549 -0.1965
30169SOL    HW193400  10.720  10.420   0.698 -1.1343  1.1038  0.0322
30169SOL    HW293401  10.705  10.475   0.838  1.5772  1.1639  0.3512
30170SOL     OW93402   8.183   5.727  10.228  0.6364 -0.1467 -0.3010
30170SOL    HW193403   8.092   5.750  10.250  0.1845 -1.1651 -1.0274
30170SOL    HW293404   8.185   5.729  10.132  0.5345 -3.0316 -0.4593
30171SOL     OW93405   3.163   6.374   9.642  0.4458 -0.2579  0.1458
30171SOL    HW193406   3.158   6.283   9.672 -0.4854 -0.1841  0.2441
30171SOL    HW293407   3.127   6.425   9.714 -0.7743  0.0265 -0.6446
30172SOL     OW93408   8.747   1.464   7.635  0.4552  0.5261  0.6402
30172SOL    HW193409   8.727   1.546   7.679 -1.3610  0.1482  0.6042
30172SOL    HW293410   8.662   1.434   7.601  1.5006 -0.0649 -1.5978
30173SOL     OW93411   2.058   3.877   3.924 -0.5854  0.2489  0.9534
30173SOL    HW193412   1.966   3.884   3.898 -0.5491 -1.7861  0.0384
30173SOL    HW293413   2.055   3.843   4.014 -0.7713 -0.7310  0.5942
30174SOL     OW93414   2.237   6.691   2.455  0.0518 -0.1679  0.0898
30174SOL    HW193415   2.330   6.705   2.474 -0.0094  0.9967 -0.3717
30174SOL    HW293416   2.232   6.688   2.360 -0.3016 -0.9677  0.1240
30175SOL     OW93417   4.953   9.305   0.128 -0.2280 -0.1224 -0.8008
30175SOL    HW193418   4.950   9.326   0.222 -1.3975  0.9031 -1.0404
30175SOL    HW293419   4.910   9.220   0.121 -0.4908 -0.0212 -0.4475
30176SOL     OW93420   3.503   2.950   8.118 -0.0805 -0.2189 -0.3947
30176SOL    HW193421   3.554   2.986   8.046  0.2944  2.0660  0.9050
30176SOL    HW293422   3.563   2.893   8.165  1.2965  2.1724  0.9217
30177SOL     OW93423   3.748   1.452   0.462  0.3341  0.4765  0.0383
30177SOL    HW193424   3.778   1.532   0.505  0.4517  0.1050  0.6597
30177SOL    HW293425   3.828   1.410   0.431  0.2928  0.4815 -0.0744
30178SOL     OW93426   9.224   9.487   6.063 -0.4503  0.2997 -0.7888
30178SOL    HW193427   9.186   9.405   6.031 -0.4518  0.5494 -1.4277
30178SOL    HW293428   9.218   9.479   6.159 -1.7279  0.1466 -0.8601
30179SOL     OW93429   5.662   1.686   9.464 -0.0727  0.6206 -0.5553
30179SOL    HW193430   5.740   1.741   9.456 -0.4020  0.8346 -3.3675
30179SOL    HW293431   5.589   1.747   9.465 -0.3351  0.3318 -1.2679
30180SOL     OW93432   0.567   7.449   8.735 -0.3573 -0.3873  0.4833
30180SOL    HW193433   0.520   7.378   8.778  0.3073 -0.9987  0.2071
30180SOL    HW293434   0.582   7.513   8.805 -0.4511 -0.7774  0.8624
30181SOL     OW93435   1.495   8.157   6.449  0.0493  0.3242 -0.0498
30181SOL    HW193436   1.465   8.129   6.362  2.8699  0.7023 -1.2604
30181SOL    HW293437   1.555   8.087   6.477  2.6520  2.2194 -0.5146
30182SOL     OW93438   8.168   7.562   1.170  0.1090  0.5912  0.7564
30182SOL    HW193439   8.144   7.626   1.104 -0.6742  0.0693  0.5173
30182SOL    HW293440   8.145   7.603   1.254 -1.1371  0.3239  0.5628
30183SOL     OW93441   7.544   7.490   2.922  0.2671  0.1255 -0.1310
30183SOL    HW193442   7.479   7.538   2.973  0.9645  1.0470 -0.0914
30183SOL    HW293443   7.493   7.437   2.861 -0.5105  1.0359 -0.2824
30184SOL     OW93444   7.076   8.607   0.240  0.0135  0.2758  0.3966
30184SOL    HW193445   7.011   8.547   0.275  1.0169 -1.2271 -0.1980
30184SOL    HW293446   7.053   8.618   0.148 -0.4694  1.2548  0.6192
30185SOL     OW93447   2.524   2.797   4.460 -0.7454 -0.2289 -0.1062
30185SOL    HW193448   2.440   2.758   4.482 -0.6426 -1.4018 -1.6589
30185SOL    HW293449   2.510   2.891   4.468 -1.8987 -0.4455  0.6226
30186SOL     OW93450   6.603   3.539   0.574 -0.1396  0.0250  0.3523
30186SOL    HW193451   6.673   3.599   0.601 -0.6842  0.8381 -0.0291
30186SOL    HW293452   6.644   3.483   0.508  0.2453  0.2684  0.3812
30187SOL     OW93453   4.312   6.076  10.070 -0.2702  0.2088 -0.0771
30187SOL    HW193454   4.316   6.163  10.029 -1.2304  0.2584 -0.0761
30187SOL    HW293455   4.219   6.061  10.086  0.0576  0.0818  1.8797
30188SOL     OW93456   7.748   5.860   1.082  0.2106 -0.0477 -0.4959
30188SOL    HW193457   7.689   5.862   1.157  1.3510 -2.0773  0.5702
30188SOL    HW293458   7.835   5.871   1.121  0.6332  2.4130 -1.9724
30189SOL     OW93459   3.514   7.521   2.384 -0.3865 -0.6613 -1.2425
30189SOL    HW193460   3.446   7.491   2.323 -2.4803  0.9459  0.1694
30189SOL    HW293461   3.532   7.445   2.439 -0.8399 -1.1807 -1.7932
30190SOL     OW93462  10.090  10.579   6.470 -0.2503 -0.5406  0.4013
30190SOL    HW193463  10.142  10.501   6.453 -1.4849 -1.4893  0.7735
30190SOL    HW293464  10.001  10.554   6.443 -0.7381  0.5923  0.9011
30191SOL     OW93465   4.649   1.094   2.214 -0.7876 -0.5044 -0.8618
30191SOL    HW193466   4.592   1.031   2.258 -1.4584 -0.5343 -1.7508
30191SOL    HW293467   4.697   1.041   2.149  0.4667 -0.5307  0.0534
30192SOL     OW93468   7.312   0.114   1.629 -0.0496 -0.0693  0.7564
30192SOL    HW193469   7.254   0.110   1.705 -0.0594  0.1352  0.7596
30192SOL    HW293470   7.348   0.202   1.631 -1.2387  0.4606 -0.3733
30193SOL     OW93471   4.277   7.090   8.077  0.1680 -0.4630 -0.0216
30193SOL    HW193472   4.202   7.132   8.118  0.3595  1.0567 -1.1529
30193SOL    HW293473   4.327   7.162   8.038  1.2834 -1.6078 -0.7938
30194SOL     OW93474   8.833  10.557  10.588  0.0514  0.3488  0.0545
30194SOL    HW193475   8.787  10.616  10.529 -2.8146 -1.2214  0.5496
30194SOL    HW293476   8.849  10.478  10.537 -0.5192 -0.2240  0.7337
30195SOL     OW93477   5.067   1.446   4.747  0.2282  0.1791 -0.3431
30195SOL    HW193478   4.973   1.460   4.744  0.4238  1.9969  0.2635
30195SOL    HW293479   5.079   1.377   4.812 -0.7301 -0.9622 -1.3425
30196SOL     OW93480   5.736   7.781   3.223  0.0295 -0.0683  0.3591
30196SOL    HW193481   5.687   7.839   3.164  1.0982  0.9250  0.4159
30196SOL    HW293482   5.818   7.827   3.239  1.3128 -2.0206 -0.3011
30197SOL     OW93483  10.443   2.597   7.995 -0.0722 -0.2027 -0.1515
30197SOL    HW193484  10.365   2.557   8.035 -0.5306  1.2992  0.5403
30197SOL    HW293485  10.517   2.556   8.040 -0.4999 -0.7256  0.0879
30198SOL     OW93486   7.261   9.715   3.847  0.3176  0.4503 -0.1384
30198SOL    HW193487   7.254   9.640   3.788  1.7126  0.7226 -0.6847
30198SOL    HW293488   7.311   9.682   3.922  1.0980  0.8662 -0.4657
30199SOL     OW93489   3.895   2.419   9.368 -0.1687 -0.4840 -0.2345
30199SOL    HW193490   3.849   2.502   9.374  2.0755  0.8781 -0.7713
30199SOL    HW293491   3.973   2.430   9.422  0.4874 -2.0101 -0.7970
30200SOL     OW93492   7.367   8.984  10.325  0.1931  0.0251  0.0660
30200SOL    HW193493   7.350   8.934  10.245 -0.8735  1.9525 -0.9705
30200SOL    HW293494   7.301   8.952  10.387  1.6557 -2.2011  0.6060
30201SOL     OW93495   6.295   8.385   7.672  0.6544 -0.2746 -0.2495
30201SOL    HW193496   6.331   8.297   7.664  1.1038 -0.3489  1.9650
30201SOL    HW293497   6.353   8.440   7.619  0.5563 -1.2301 -1.3900
30202SOL     OW93498   8.459   3.596   3.797 -0.1096 -0.3936  0.0487
30202SOL    HW193499   8.399   3.633   3.732 -0.0854 -2.1441 -0.9973
30202SOL    HW293500   8.408   3.595   3.878 -0.4645  0.8768 -0.1301
30203SOL     OW93501   1.388   0.456   4.092 -0.0118  0.4713  0.2723
30203SOL    HW193502   1.458   0.391   4.098  0.2394  0.6074 -0.8979
30203SOL    HW293503   1.368   0.461   3.998 -1.6122  0.4214  0.5952
30204SOL     OW93504   9.087   1.027   1.033  0.4708 -0.1412  0.4580
30204SOL    HW193505   9.092   1.115   1.071 -0.0953  0.4784 -0.8201
30204SOL    HW293506   9.135   1.034   0.950  0.4803 -1.0571  0.3781
30205SOL     OW93507   1.901   0.656   4.484 -0.0774 -0.0870  1.0061
30205SOL    HW193508   1.808   0.677   4.489 -0.2917 -1.1453  2.1678
30205SOL    HW293509   1.905   0.582   4.424 -0.1708 -0.8595  1.9254
30206SOL     OW93510   0.143   8.608   4.791  0.2907  0.3559 -0.0659
30206SOL    HW193511   0.118   8.530   4.840 -0.1166  1.6233  1.8294
30206SOL    HW293512   0.073   8.619   4.727 -0.6402  0.2334  0.9137
30207SOL     OW93513   1.833  10.766   5.120  0.4162 -0.5916  1.0103
30207SOL    HW193514   1.829  10.785   5.027  0.5414 -0.2927  1.0653
30207SOL    HW293515   1.783  10.836   5.161  0.1165 -0.8832  1.1461
30208SOL     OW93516   3.113   7.263   7.056  0.0760  0.0596  0.3074
30208SOL    HW193517   3.070   7.257   6.971  0.3359  2.4575 -0.0784
30208SOL    HW293518   3.055   7.216   7.116 -0.0869 -1.7117 -1.1503
30209SOL     OW93519   0.241   3.799   7.657  0.2505  0.4432  0.4641
30209SOL    HW193520   0.205   3.754   7.581 -0.4527  2.0784 -0.2192
30209SOL    HW293521   0.331   3.821   7.631  0.8857 -1.2352  1.1222
30210SOL     OW93522   9.219   6.753   4.427  0.0047  0.0479  0.3754
30210SOL    HW193523   9.187   6.725   4.513  1.5619 -0.3687  0.8419
30210SOL    HW293524   9.314   6.745   4.433  0.0963 -2.6334 -2.2621
30211SOL     OW93525   7.306   6.230   4.275  0.0428 -0.1509  0.1143
30211SOL    HW193526   7.372   6.222   4.207 -2.6150  0.1312 -2.7179
30211SOL    HW293527   7.333   6.167   4.342  2.7721 -0.4852 -1.1695
30212SOL     OW93528   2.018   2.339   8.417  0.4749 -0.1932  0.1980
30212SOL    HW193529   2.004   2.424   8.460 -1.0149 -0.2748 -0.0858
30212SOL    HW293530   2.038   2.279   8.489  0.1472  0.1083  0.5466
30213SOL     OW93531   0.450   2.199   7.929 -0.0668  0.3118  0.3197
30213SOL    HW193532   0.496   2.263   7.873 -0.4800 -1.9268 -2.8208
30213SOL    HW293533   0.513   2.180   7.999  1.4299  1.5830 -0.5989
30214SOL     OW93534   7.436   4.815   9.130  0.1798  0.7729  0.1535
30214SOL    HW193535   7.403   4.738   9.177  0.4228  0.3266 -0.3924
30214SOL    HW293536   7.358   4.865   9.108 -0.0519  0.2859 -0.1568
30215SOL     OW93537   3.158   1.624   0.992  0.3062 -0.4416 -0.3847
30215SOL    HW193538   3.237   1.676   1.006 -0.2633  0.2240  0.4740
30215SOL    HW293539   3.108   1.633   1.074 -1.2185  0.1543 -1.3335
30216SOL     OW93540   6.768   1.625   5.491  0.9798  0.0117 -0.4115
30216SOL    HW193541   6.811   1.625   5.576  0.9629 -1.0372 -0.3890
30216SOL    HW293542   6.711   1.702   5.493  0.5515 -0.3141  0.7521
30217SOL     OW93543   8.572   8.935   3.209  0.5601 -0.0712 -0.4217
30217SOL    HW193544   8.505   8.872   3.235  0.3382 -0.4586 -1.8376
30217SOL    HW293545   8.524   9.004   3.163  1.0902 -0.2586 -1.2871
30218SOL     OW93546   1.894   1.687   5.884 -0.4061 -0.3129 -0.0002
30218SOL    HW193547   1.851   1.732   5.957 -0.0368 -1.8706  1.2303
30218SOL    HW293548   1.848   1.603   5.877  0.7868 -0.9624 -0.3159
30219SOL     OW93549   1.260   5.141   5.455 -0.8693 -0.0671  0.0115
30219SOL    HW193550   1.239   5.222   5.503  0.0852  0.1303  0.1128
30219SOL    HW293551   1.344   5.113   5.491  0.0175  0.2369 -1.7030
30220SOL     OW93552   8.956   8.615   7.304 -0.4583  0.2846  0.1437
30220SOL    HW193553   8.995   8.542   7.257  1.9619  0.2046  2.0941
30220SOL    HW293554   9.004   8.692   7.273 -1.1826  0.7076  0.0440
30221SOL     OW93555  10.216   9.321   8.525 -0.0439 -0.0818  0.0230
30221SOL    HW193556  10.182   9.402   8.563 -1.1188 -0.5146  0.0297
30221SOL    HW293557  10.152   9.254   8.550  0.3301 -0.7623 -0.7825
30222SOL     OW93558   4.118   7.535   4.064 -0.3596  0.4594  0.0197
30222SOL    HW193559   4.103   7.515   3.971 -2.4230  0.1531  0.3729
30222SOL    HW293560   4.182   7.606   4.063 -1.0670  1.1328 -1.6778
30223SOL     OW93561   9.062   2.650   2.943 -0.4796 -0.1627 -0.0818
30223SOL    HW193562   9.008   2.719   2.904 -1.6068 -0.5731  0.7063
30223SOL    HW293563   9.060   2.578   2.880  0.8884  0.5681 -1.0145
30224SOL     OW93564   2.617  10.206   9.165 -0.2308  0.1883  0.3660
30224SOL    HW193565   2.668  10.138   9.210 -1.0716 -1.0623 -0.4913
30224SOL    HW293566   2.683  10.266   9.130  0.5340 -0.1369  1.1917
30225SOL     OW93567   0.808   2.457   4.568 -0.1881  0.1485 -0.6132
30225SOL    HW193568   0.885   2.514   4.577 -0.5514  0.3595  1.5588
30225SOL    HW293569   0.734   2.512   4.591 -0.9470 -0.2893 -1.8833
30226SOL     OW93570   1.772   3.180   4.289  0.2854 -0.6370  0.2259
30226SOL    HW193571   1.691   3.129   4.297  0.3746 -0.6596  1.0439
30226SOL    HW293572   1.794   3.205   4.378  1.3856 -0.9444  0.0594
30227SOL     OW93573   0.934   0.082   1.191 -0.3176 -0.1285  0.3053
30227SOL    HW193574   0.842   0.099   1.213 -0.5030  1.2383 -1.3632
30227SOL    HW293575   0.983   0.149   1.239 -0.4447  0.7880 -0.8045
30228SOL     OW93576   0.784   2.519   7.536 -0.1911 -0.5054  0.4478
30228SOL    HW193577   0.761   2.426   7.542 -0.4827 -0.5443 -1.0092
30228SOL    HW293578   0.843   2.525   7.461  0.2995  0.4104  0.8885
30229SOL     OW93579   4.732   6.440   0.681 -0.3159  0.2902 -0.0539
30229SOL    HW193580   4.645   6.432   0.720 -0.5573  1.3153 -0.3314
30229SOL    HW293581   4.756   6.532   0.697  0.1473  0.3638 -1.1230
30230SOL     OW93582   5.553   0.056  10.114  0.8675  0.0527  0.6013
30230SOL    HW193583   5.562   0.030  10.205  0.1451  0.0896  0.6943
30230SOL    HW293584   5.498   0.134  10.117  1.0305  0.1873  0.1523
30231SOL     OW93585   5.289   7.779   9.369  0.0256  0.2740 -0.0913
30231SOL    HW193586   5.274   7.686   9.352 -0.2419  0.7061 -2.4333
30231SOL    HW293587   5.347   7.780   9.446 -0.4920 -1.7811  0.3765
30232SOL     OW93588   8.632   0.524   3.530  0.1553 -0.3270 -0.2924
30232SOL    HW193589   8.705   0.462   3.525  0.7823  0.4205 -0.9046
30232SOL    HW293590   8.564   0.479   3.579  1.4518 -0.6284  1.2962
30233SOL     OW93591   7.449  10.130   4.360 -0.3812 -0.4764 -0.5613
30233SOL    HW193592   7.407  10.180   4.429 -1.2123 -0.4398 -1.0843
30233SOL    HW293593   7.457  10.041   4.396 -1.5320 -0.6515 -0.6969
30234SOL     OW93594   4.357   9.381   3.742  0.1665  0.1546 -0.1421
30234SOL    HW193595   4.298   9.323   3.790  0.3340  0.3142  0.2637
30234SOL    HW293596   4.436   9.384   3.796 -0.1201  1.3678  0.2434
30235SOL     OW93597   9.091   2.868  10.550 -0.7005 -0.2392 -0.0932
30235SOL    HW193598   9.111   2.914  10.632 -0.6607  0.8841 -0.7106
30235SOL    HW293599   8.998   2.844  10.558 -1.0974  1.1546 -0.3098
30236SOL     OW93600   0.545   2.300   1.267 -0.0576  0.4022 -0.0198
30236SOL    HW193601   0.593   2.253   1.335  1.7958  1.3448 -0.5738
30236SOL    HW293602   0.481   2.238   1.234 -0.1895 -0.4601  1.7584
30237SOL     OW93603   5.500  10.605   9.549  0.9312  0.5096 -0.2074
30237SOL    HW193604   5.583  10.589   9.594  1.0366  0.0457 -0.5606
30237SOL    HW293605   5.517  10.683   9.496  1.2303  0.2660 -0.4798
30238SOL     OW93606   9.642   8.457   1.973 -0.8639 -1.2304 -0.6065
30238SOL    HW193607   9.695   8.379   1.992 -0.1539 -1.0554 -1.7735
30238SOL    HW293608   9.706   8.526   1.958 -1.4346 -0.8465 -1.3505
30239SOL     OW93609   4.659   8.387   1.432 -0.6169 -0.3861 -0.2695
30239SOL    HW193610   4.587   8.445   1.407 -1.2228 -0.5319  1.0797
30239SOL    HW293611   4.696   8.427   1.511  0.4352 -0.6145 -0.6344
30240SOL     OW93612   8.348   6.312  10.168  0.4530 -0.1563  0.2087
30240SOL    HW193613   8.367   6.404  10.186 -1.7142  0.2728  0.6395
30240SOL    HW293614   8.410   6.287  10.100 -0.0336  2.1619 -1.1961
30241SOL     OW93615   9.706   4.529   5.497 -0.0018  0.2539  0.2671
30241SOL    HW193616   9.792   4.562   5.471  0.0805 -0.1353  0.0362
30241SOL    HW293617   9.708   4.436   5.473 -0.3769  0.1736  0.5389
30242SOL     OW93618   4.857   3.199   5.869  0.3868  0.1127 -0.0173
30242SOL    HW193619   4.815   3.234   5.790 -0.8543  0.3510  0.7116
30242SOL    HW293620   4.927   3.261   5.889 -0.2429  0.8592 -0.1022
30243SOL     OW93621   3.092   9.459   2.120  0.0355  0.4660 -0.8772
30243SOL    HW193622   3.052   9.400   2.183  0.1155  1.6543  0.3340
30243SOL    HW293623   3.044   9.541   2.130 -0.0674  0.6428 -2.5050
30244SOL     OW93624  10.474   8.543   8.837 -0.0416 -0.1423 -0.1405
30244SOL    HW193625  10.401   8.481   8.834 -1.1184  1.0151  0.7126
30244SOL    HW293626  10.539   8.501   8.892  0.1992 -1.4408 -1.3690
30245SOL     OW93627   8.156  10.186   3.791  0.7757 -0.4933  0.5058
30245SOL    HW193628   8.232  10.243   3.777  0.4210  0.1567  1.2283
30245SOL    HW293629   8.139  10.191   3.885 -1.6415  1.2812  0.0583
30246SOL     OW93630   7.157   0.643   2.632 -0.0795 -0.1876 -0.2154
30246SOL    HW193631   7.109   0.561   2.622 -0.8451  0.2584 -0.3112
30246SOL    HW293632   7.229   0.622   2.692 -1.0571 -0.6154  0.8498
30247SOL     OW93633   2.171   7.405   2.256 -0.1307  0.3754  0.2390
30247SOL    HW193634   2.126   7.323   2.276 -1.1036  1.2269  1.7916
30247SOL    HW293635   2.263   7.388   2.274  0.0166 -0.9488 -1.4853
30248SOL     OW93636   6.911   6.183   2.825  0.2028 -0.0493  0.0675
30248SOL    HW193637   6.826   6.203   2.866  0.4764 -0.8161  1.0684
30248SOL    HW293638   6.920   6.088   2.837  1.9458  0.2594  1.4566
30249SOL     OW93639   3.693   1.354   4.994 -0.1347  0.3640  0.5710
30249SOL    HW193640   3.709   1.339   4.901  2.7202  1.1360  0.8283
30249SOL    HW293641   3.754   1.294   5.038 -1.3574  0.0940  1.9706
30250SOL     OW93642   1.447   8.153   9.032 -0.0969 -0.2133  0.4109
30250SOL    HW193643   1.470   8.230   9.083  0.0058  1.9601 -2.7100
30250SOL    HW293644   1.528   8.126   8.989 -0.4810 -1.0858  0.1925
30251SOL     OW93645  10.070   7.403   6.400 -0.0988  0.5437  0.1441
30251SOL    HW193646  10.085   7.374   6.490 -0.1613 -0.0634 -0.0393
30251SOL    HW293647   9.976   7.393   6.386  0.3879 -4.0888 -1.5395
30252SOL     OW93648   3.995   3.916   3.875 -0.2393 -0.4814  0.2766
30252SOL    HW193649   3.966   3.890   3.787 -0.0383  0.0518  0.0507
30252SOL    HW293650   3.923   3.888   3.932 -0.8194  0.0479 -0.1756
30253SOL     OW93651   4.883  10.649   0.555  0.0784  0.1526  0.2966
30253SOL    HW193652   4.933  10.721   0.591  0.5149 -0.0426  0.0923
30253SOL    HW293653   4.812  10.635   0.617  1.5679 -1.0490  1.8090
30254SOL     OW93654   1.102   8.348   7.757 -0.2407  0.2314  0.1425
30254SOL    HW193655   1.072   8.361   7.847 -0.7173 -0.7530  0.1427
30254SOL    HW293656   1.022   8.335   7.707  0.0907 -0.6974 -0.1649
30255SOL     OW93657   5.492   8.194   5.214 -0.1878  0.3822 -0.0327
30255SOL    HW193658   5.570   8.143   5.234 -1.5575 -1.0931  1.9030
30255SOL    HW293659   5.441   8.139   5.156 -1.4606 -0.3219  1.6908
30256SOL     OW93660   1.551   3.848   8.224  0.0289  0.6599 -0.5195
30256SOL    HW193661   1.486   3.918   8.237 -0.0545  0.4863  0.0329
30256SOL    HW293662   1.634   3.886   8.253 -0.0320  0.5063 -0.1329
30257SOL     OW93663   4.161   6.307   0.800 -0.3708  0.0072 -0.5708
30257SOL    HW193664   4.145   6.395   0.832  0.5758 -0.0095 -0.0358
30257SOL    HW293665   4.178   6.318   0.706 -0.4471  0.3655 -0.5433
30258SOL     OW93666   7.544   4.370   5.145  0.3915 -0.7282 -0.0977
30258SOL    HW193667   7.552   4.434   5.216 -1.1051 -0.4267 -0.1543
30258SOL    HW293668   7.464   4.321   5.166 -0.8350  0.2099 -2.1862
30259SOL     OW93669   7.229   1.995   7.885  0.8581  0.0263 -0.0727
30259SOL    HW193670   7.275   1.943   7.951 -0.3039 -1.3851 -0.3249
30259SOL    HW293671   7.169   1.933   7.843  0.2880  1.3077 -1.2310
30260SOL     OW93672   8.317   7.123  10.593 -0.4580  0.1120  0.1677
30260SOL    HW193673   8.378   7.102  10.522  0.3984  0.6227  0.7307
30260SOL    HW293674   8.360   7.090  10.672 -1.3709 -0.3946  0.4762
30261SOL     OW93675   7.828   4.432   8.179  0.4883  0.0564 -0.0336
30261SOL    HW193676   7.817   4.340   8.204 -2.2086  0.3632  0.2509
30261SOL    HW293677   7.814   4.433   8.085  0.6502  0.1573 -0.0562
30262SOL     OW93678   2.135   6.539   7.490 -0.1572  0.4921 -0.1079
30262SOL    HW193679   2.086   6.527   7.408  2.8108 -1.4865 -1.7642
30262SOL    HW293680   2.221   6.570   7.462  1.1819 -0.8886  2.1607
30263SOL     OW93681   4.189   0.144   5.893 -0.0284 -0.4148 -0.0485
30263SOL    HW193682   4.241   0.160   5.814 -0.3208 -0.2501 -0.2116
30263SOL    HW293683   4.121   0.083   5.865  1.0859 -2.0082  0.5724
30264SOL     OW93684   4.191   8.297   8.104 -0.0310  0.3170  0.1029
30264SOL    HW193685   4.249   8.361   8.062 -0.1385 -0.1323 -0.7347
30264SOL    HW293686   4.186   8.327   8.195  1.8846  0.0963  0.3149
30265SOL     OW93687   8.906   3.290   7.760  0.1363  0.0300  0.4315
30265SOL    HW193688   8.872   3.247   7.681 -0.8029  0.4144  0.6135
30265SOL    HW293689   9.001   3.289   7.749 -0.0093  0.9326 -1.1705
30266SOL     OW93690   4.089  10.619   6.441  0.3013 -0.4308 -0.0905
30266SOL    HW193691   4.145  10.541   6.440  1.9851  0.7009 -1.7460
30266SOL    HW293692   4.150  10.693   6.431 -1.4113  0.9426 -1.1253
30267SOL     OW93693   2.458   9.522   7.954 -0.5499 -0.5322 -0.0886
30267SOL    HW193694   2.433   9.554   8.041 -1.0981 -1.0693 -0.0441
30267SOL    HW293695   2.444   9.428   7.958 -0.4624 -0.5786 -0.7208
30268SOL     OW93696   6.600   9.052   5.869 -0.5122  0.0902 -0.2221
30268SOL    HW193697   6.643   8.979   5.912  1.9120  0.8219 -1.2373
30268SOL    HW293698   6.588   9.117   5.938 -0.1759 -0.2042  0.1150
30269SOL     OW93699   0.569   5.489   1.833 -0.6059  0.3165  0.0631
30269SOL    HW193700   0.621   5.417   1.796 -2.6668  0.0229 -2.5846
30269SOL    HW293701   0.591   5.565   1.779 -1.7893  0.5268 -0.1506
30270SOL     OW93702   7.327   8.592   2.406  0.1516  0.0364 -0.2767
30270SOL    HW193703   7.298   8.550   2.326 -2.2902 -1.5503  1.3018
30270SOL    HW293704   7.421   8.572   2.411 -0.3574 -3.0179 -0.9650
30271SOL     OW93705   5.627   1.370   0.719  0.0650 -0.8824  0.2892
30271SOL    HW193706   5.556   1.397   0.777  0.7554 -0.4487  0.9567
30271SOL    HW293707   5.609   1.278   0.699 -2.5871  0.0520 -2.3863
30272SOL     OW93708   2.992  10.569   0.775  0.2100 -0.0551  0.2547
30272SOL    HW193709   2.924  10.518   0.819  0.0059 -0.6400 -0.7040
30272SOL    HW293710   2.943  10.632   0.721  0.3534 -1.3389 -1.4667
30273SOL     OW93711   1.593   4.281   2.580  0.3611  0.1004  0.0573
30273SOL    HW193712   1.566   4.194   2.550  0.9689  0.2568 -1.0084
30273SOL    HW293713   1.582   4.337   2.503 -0.0207  0.9657  0.7348
30274SOL     OW93714   3.645   3.423   7.915 -0.2300 -0.3538  0.3687
30274SOL    HW193715   3.626   3.509   7.954  0.2301 -0.1502  0.1531
30274SOL    HW293716   3.741   3.420   7.910 -0.2875  0.2628 -2.1563
30275SOL     OW93717   0.373   1.861   8.708 -0.1008  0.0225 -0.2446
30275SOL    HW193718   0.281   1.882   8.723  0.1686  0.8878  0.2518
30275SOL    HW293719   0.397   1.916   8.633  0.1352  0.1356 -0.0834
30276SOL     OW93720   5.317   7.952   3.830 -0.3874  0.4306  0.6832
30276SOL    HW193721   5.336   7.995   3.913 -1.6374  0.6662  0.8634
30276SOL    HW293722   5.363   8.004   3.764 -1.3339  1.6659  0.9667
30277SOL     OW93723   2.614   9.051   4.511 -0.2277 -0.3327  0.4988
30277SOL    HW193724   2.545   9.105   4.473  1.7778  1.7011 -0.4492
30277SOL    HW293725   2.670   9.112   4.558  0.9995 -1.8851  1.1532
30278SOL     OW93726  10.370   9.279   7.402 -0.4475 -1.0204  0.3679
30278SOL    HW193727  10.306   9.312   7.465 -0.8146 -0.9676 -0.0224
30278SOL    HW293728  10.368   9.184   7.413 -2.0264 -1.1895 -0.9560
30279SOL     OW93729   0.834   9.283   0.486 -0.0408 -0.5149 -0.1206
30279SOL    HW193730   0.909   9.335   0.458 -0.7611 -0.1763 -1.4958
30279SOL    HW293731   0.856   9.193   0.462  0.6748 -0.7038  1.1373
30280SOL     OW93732   7.115   2.095   1.243  0.6728  0.1318  0.4959
30280SOL    HW193733   7.021   2.076   1.242  0.7734 -0.4583 -1.7734
30280SOL    HW293734   7.156   2.009   1.257  0.9100  0.4144  1.6752
30281SOL     OW93735   7.419  10.171   5.303  0.7098  0.6302 -0.3216
30281SOL    HW193736   7.344  10.211   5.260  0.1202  1.1484  1.1106
30281SOL    HW293737   7.412  10.078   5.283  0.8811  0.9401 -1.9255
30282SOL     OW93738   6.335   7.657   8.533  0.6535  0.0039  0.6427
30282SOL    HW193739   6.278   7.697   8.599 -0.3675 -1.5494  0.7563
30282SOL    HW293740   6.422   7.692   8.552  0.1476  0.6217  1.9538
30283SOL     OW93741   5.288   6.489   7.011  0.4597  0.3896 -0.0777
30283SOL    HW193742   5.311   6.464   6.921 -0.5056 -0.3148 -0.1440
30283SOL    HW293743   5.329   6.421   7.065 -0.6648 -0.3667 -0.1393
30284SOL     OW93744   3.441  10.291   2.565  0.4639  0.1314  0.4039
30284SOL    HW193745   3.509  10.316   2.628  0.0048  0.6984  0.6856
30284SOL    HW293746   3.480  10.219   2.515  2.3430  2.2134 -1.3037
30285SOL     OW93747   2.939   7.456  10.581  0.4275 -0.3193 -0.3266
30285SOL    HW193748   3.016   7.400  10.594 -0.3289 -0.7950  3.0216
30285SOL    HW293749   2.917   7.445  10.488  2.4820 -2.6801 -0.6501
30286SOL     OW93750   6.403   3.907   5.618 -0.6479  0.0996 -0.5080
30286SOL    HW193751   6.350   3.842   5.666  1.1087 -0.1036  1.2531
30286SOL    HW293752   6.379   3.991   5.657 -0.3970  0.1133 -0.3815
30287SOL     OW93753   8.012   5.613   2.782 -0.1524  0.0338 -0.1195
30287SOL    HW193754   8.096   5.641   2.817 -0.9376  0.1936  1.7819
30287SOL    HW293755   7.970   5.694   2.753  0.8968 -0.2013 -2.5182
30288SOL     OW93756   5.884   0.383   3.698  0.0045 -0.2417  0.2275
30288SOL    HW193757   5.882   0.356   3.790  2.3246  1.9555  1.0311
30288SOL    HW293758   5.943   0.320   3.656  0.5882 -0.0319  0.7196
30289SOL     OW93759   5.411   2.992   6.714 -0.2436 -0.0141  0.0222
30289SOL    HW193760   5.504   2.978   6.695  0.0839  1.9267 -0.0414
30289SOL    HW293761   5.366   2.965   6.635  0.5940  2.1292 -1.2861
30290SOL     OW93762   9.687  10.001   5.342 -0.1599 -0.2024  0.9379
30290SOL    HW193763   9.613   9.941   5.335 -0.0972 -0.3808  1.7383
30290SOL    HW293764   9.688  10.048   5.258 -0.9009 -0.5139  0.7494
30291SOL     OW93765   6.298   3.219   9.481  0.0379  0.3255  0.6986
30291SOL    HW193766   6.314   3.303   9.437  0.6782  0.5332  1.3028
30291SOL    HW293767   6.376   3.167   9.461 -0.1246  0.0616  0.7580
30292SOL     OW93768   9.425   6.768   9.868  0.3604  0.2153 -0.4476
30292SOL    HW193769   9.385   6.730   9.946  1.8329  0.0394  0.2442
30292SOL    HW293770   9.435   6.861   9.890  2.0837 -0.0826  0.1792
30293SOL     OW93771   4.658   3.292   9.817 -0.0233 -0.4074  0.4229
30293SOL    HW193772   4.650   3.198   9.833 -1.6794 -0.3332  0.2226
30293SOL    HW293773   4.574   3.317   9.777  1.3642  0.6755 -2.0380
30294SOL     OW93774   9.536   3.916   7.759  0.2800  0.4324  0.3751
30294SOL    HW193775   9.592   3.839   7.770  0.3518  0.4167 -0.0976
30294SOL    HW293776   9.526   3.951   7.848 -0.8280 -0.8508  0.7860
30295SOL     OW93777   0.839   7.981   1.081  0.3167 -0.5190  0.5534
30295SOL    HW193778   0.903   7.928   1.129  0.0315 -0.3617  1.1189
30295SOL    HW293779   0.769   7.997   1.145  0.7326  1.1410  0.6222
30296SOL     OW93780  10.399   9.100   3.040  0.5048  0.1299  0.1593
30296SOL    HW193781  10.310   9.133   3.044  0.6023  0.3768  0.3020
30296SOL    HW293782  10.440   9.149   2.968 -0.1164 -1.5554 -1.4369
30297SOL     OW93783   6.243   2.577   6.471  0.0280  0.4185  0.2460
30297SOL    HW193784   6.268   2.643   6.407 -2.4520  0.8020 -0.4589
30297SOL    HW293785   6.237   2.624   6.554  1.0723  0.4245  0.3199
30298SOL     OW93786   9.756   7.781   4.217 -0.1250 -0.1732 -0.2054
30298SOL    HW193787   9.702   7.858   4.236 -1.9069 -1.8129  1.9192
30298SOL    HW293788   9.790   7.753   4.302 -0.3805 -2.2869 -0.7284
30299SOL     OW93789   1.954   5.114   0.226  0.3596  0.3242 -0.1217
30299SOL    HW193790   1.917   5.038   0.181  2.3194 -0.1424 -1.0611
30299SOL    HW293791   2.020   5.077   0.285  0.7718  1.2432  0.0062
30300SOL     OW93792   0.432   1.518   4.858  0.2646  0.9743 -0.2030
30300SOL    HW193793   0.405   1.559   4.941  1.7825  1.0689  0.2779
30300SOL    HW293794   0.519   1.554   4.841  0.8592 -0.6562 -0.7343
30301SOL     OW93795   9.563   5.239   9.692 -0.9576 -0.4640 -0.0530
30301SOL    HW193796   9.485   5.273   9.650 -1.1860  0.1216  0.8268
30301SOL    HW293797   9.533   5.206   9.776 -0.3327 -0.6429  0.1053
30302SOL     OW93798   9.982   3.790  10.306 -0.2873 -0.3120  0.0779
30302SOL    HW193799  10.046   3.742  10.359  0.5220 -1.0177 -1.4390
30302SOL    HW293800   9.911   3.727  10.291 -0.3476 -0.2412  0.0702
30303SOL     OW93801   8.417   1.953   6.950  0.1262  0.2782  0.2903
30303SOL    HW193802   8.488   2.009   6.918 -0.7441  1.4415  0.3416
30303SOL    HW293803   8.338   1.995   6.918 -0.5183 -1.9987 -1.3779
30304SOL     OW93804   9.387   7.716   3.748  0.4097  0.0366 -0.1825
30304SOL    HW193805   9.304   7.763   3.744 -0.7116 -1.8693 -0.2816
30304SOL    HW293806   9.415   7.726   3.840  0.5278  1.3625 -0.3348
30305SOL     OW93807   0.890   2.829  10.538  0.1960  0.7152 -0.5574
30305SOL    HW193808   0.931   2.908  10.572 -0.3677  0.2625  1.3410
30305SOL    HW293809   0.824   2.859  10.477  0.9927  1.6185 -0.9904
30306SOL     OW93810   9.388  10.040   4.614  0.4167  0.2590 -0.5644
30306SOL    HW193811   9.392   9.945   4.614 -2.7244 -0.0350  1.4396
30306SOL    HW293812   9.363  10.064   4.525 -1.4126 -1.1071 -0.4868
30307SOL     OW93813   4.824   8.513   1.209  0.4535  0.5417  0.0763
30307SOL    HW193814   4.785   8.448   1.268  0.1309  0.4077 -0.2845
30307SOL    HW293815   4.758   8.527   1.141  1.3225 -0.2347 -0.9490
30308SOL     OW93816  10.402   0.880   4.171 -0.4869 -0.2644 -0.4740
30308SOL    HW193817  10.350   0.956   4.195  0.2207 -0.0248  0.3602
30308SOL    HW293818  10.460   0.866   4.246  2.1196  0.7464 -2.1454
30309SOL     OW93819   3.386   5.295   9.201 -0.3744 -0.1560 -0.5539
30309SOL    HW193820   3.303   5.343   9.207 -0.9425 -1.1148 -0.6071
30309SOL    HW293821   3.405   5.269   9.292 -0.1938 -0.0381 -0.5589
30310SOL     OW93822   5.967   0.471   7.226 -0.4040 -0.0598  0.3338
30310SOL    HW193823   6.040   0.464   7.164 -1.0562  2.0278 -0.7661
30310SOL    HW293824   5.941   0.563   7.222 -2.4252 -0.5273  1.4858
30311SOL     OW93825   0.014   2.367  10.483 -0.0649 -0.0308  0.4684
30311SOL    HW193826  -0.027   2.440  10.530 -1.1208 -0.9655  1.0581
30311SOL    HW293827  -0.004   2.290  10.538  1.2819 -0.6976  0.0201
30312SOL     OW93828   9.201   1.889   4.691  0.1906  0.2537 -0.0371
30312SOL    HW193829   9.204   1.975   4.650  0.3656  0.1083 -0.3378
30312SOL    HW293830   9.256   1.897   4.769 -0.2569  0.5710  0.2433
30313SOL     OW93831   2.564   2.218   4.942  0.6008 -0.0494 -0.3931
30313SOL    HW193832   2.659   2.211   4.930  0.5068 -0.8409 -0.7854
30313SOL    HW293833   2.547   2.169   5.022  0.7169  1.5805  0.6601
30314SOL     OW93834   1.249   5.303   3.178  0.1571  0.1693  0.4382
30314SOL    HW193835   1.208   5.373   3.128  1.8833  0.5793 -0.4737
30314SOL    HW293836   1.198   5.298   3.259 -0.1568  2.3075  0.4202
30315SOL     OW93837   6.436   1.804   7.061  0.1744 -0.4226 -0.1349
30315SOL    HW193838   6.446   1.853   6.979  0.9425  0.0936  0.2613
30315SOL    HW293839   6.343   1.780   7.063 -0.3400  1.4369 -0.1103
30316SOL     OW93840   4.290   9.021   0.897 -0.0921  0.3359  0.0846
30316SOL    HW193841   4.300   9.014   0.992 -3.4574  0.6266  0.6117
30316SOL    HW293842   4.253   9.108   0.883 -0.5343 -0.0538 -1.3741
30317SOL     OW93843   9.384   3.317   0.288 -0.5668 -0.1871  0.1007
30317SOL    HW193844   9.316   3.286   0.228 -0.1530 -0.4717 -0.2266
30317SOL    HW293845   9.377   3.259   0.364 -0.7430 -0.1625  0.1043
30318SOL     OW93846   2.675   3.048   4.273  0.4613  0.6285 -0.9462
30318SOL    HW193847   2.762   3.046   4.313  0.7492 -1.0843 -1.5669
30318SOL    HW293848   2.622   3.102   4.332  1.7372  1.0188 -0.1303
30319SOL     OW93849   7.923   3.958   7.920 -0.4096  0.2181  0.0199
30319SOL    HW193850   7.954   3.883   7.870 -0.8135  0.2115 -0.2230
30319SOL    HW293851   8.002   4.012   7.934  0.1339 -0.8439  1.2818
30320SOL     OW93852  10.064   5.216   9.220  0.2821  0.3422  0.2174
30320SOL    HW193853  10.070   5.190   9.128 -1.7730  0.5466 -0.0192
30320SOL    HW293854  10.151   5.249   9.241  0.3369  1.9822 -2.1803
30321SOL     OW93855   5.231   0.150   0.679 -0.0630 -0.0105 -0.7542
30321SOL    HW193856   5.278   0.137   0.762 -0.5391 -2.0265 -0.7557
30321SOL    HW293857   5.282   0.217   0.633 -0.0047  1.4728  1.3001
30322SOL     OW93858   0.042   5.759   7.399 -0.0012  0.3752 -0.1042
30322SOL    HW193859   0.132   5.726   7.399 -0.1948 -0.2141  1.0418
30322SOL    HW293860  -0.006   5.697   7.344  0.1759  0.3252 -0.2014
30323SOL     OW93861   4.352   0.045   9.263  0.1467 -0.7451 -0.3465
30323SOL    HW193862   4.442   0.040   9.296 -0.0554 -1.1014  0.1503
30323SOL    HW293863   4.300  -0.006   9.325 -0.3166 -1.0006 -0.9392
30324SOL     OW93864   9.796   8.872   1.866 -0.1548  0.1518 -0.1741
30324SOL    HW193865   9.788   8.794   1.811 -0.6792 -0.8883  1.2921
30324SOL    HW293866   9.810   8.944   1.805  0.2719 -1.0778 -1.5835
30325SOL     OW93867   4.698   7.531   9.748 -0.2802  0.5293  0.8968
30325SOL    HW193868   4.714   7.490   9.662 -2.3459 -0.8475  1.0960
30325SOL    HW293869   4.714   7.624   9.733  2.2958  0.0113 -0.1833
30326SOL     OW93870   4.472  10.374   8.084 -0.0521 -0.0307 -0.1256
30326SOL    HW193871   4.448  10.281   8.079  0.1265 -0.0247 -2.1243
30326SOL    HW293872   4.557  10.375   8.128  1.0199 -1.0985 -2.0159
30327SOL     OW93873   5.559   3.001   5.612  0.3509  0.5151 -0.5390
30327SOL    HW193874   5.472   3.040   5.607 -0.0197  0.1246  1.5966
30327SOL    HW293875   5.603   3.050   5.682  0.8400 -1.0716  0.3168
30328SOL     OW93876   3.827   4.035   5.476 -0.4384 -0.1446  0.3232
30328SOL    HW193877   3.789   3.947   5.481 -2.5926  0.6900 -0.0416
30328SOL    HW293878   3.755   4.094   5.499  0.8645  1.5541  0.2924
30329SOL     OW93879   3.076   1.243   3.277 -0.1767  0.1797  0.3706
30329SOL    HW193880   3.012   1.223   3.346 -0.5023  0.5144  0.1759
30329SOL    HW293881   3.023   1.249   3.197  0.2050 -0.2405  0.0845
30330SOL     OW93882   9.003   7.945   4.969 -0.1012  0.0482 -0.1628
30330SOL    HW193883   8.985   7.867   4.917  0.0072  0.8550 -1.4521
30330SOL    HW293884   8.957   7.929   5.052 -1.7746 -0.5319 -1.1363
30331SOL     OW93885   1.941   9.096   4.430 -0.1712 -0.3119 -0.5919
30331SOL    HW193886   1.853   9.101   4.467  0.3517 -0.1744  0.6687
30331SOL    HW293887   1.999   9.121   4.501  1.0360 -2.2953 -0.7971
30332SOL     OW93888   3.180   8.641  10.116 -0.3784 -0.4654 -0.2581
30332SOL    HW193889   3.238   8.677  10.048  2.1884 -1.2292  1.4074
30332SOL    HW293890   3.141   8.564  10.075  0.8022 -0.6916 -1.0131
30333SOL     OW93891  10.279  10.121   0.393  0.1497 -0.8356  0.2848
30333SOL    HW193892  10.340  10.186   0.358  1.3310 -0.3781  2.8836
30333SOL    HW293893  10.312  10.037   0.361  0.2922 -0.3755 -0.8275
30334SOL     OW93894   7.128   6.340   0.887  0.3773  0.0070  0.1277
30334SOL    HW193895   7.206   6.300   0.924 -0.1079 -1.0534  0.0435
30334SOL    HW293896   7.058   6.314   0.947  0.2298  1.8504  0.8262
30335SOL     OW93897   0.080   0.662   2.912 -0.4830 -0.2314  0.0529
30335SOL    HW193898   0.036   0.580   2.890  1.2854 -0.7154 -1.9349
30335SOL    HW293899   0.117   0.646   2.999  1.5374 -2.3421 -1.1082
30336SOL     OW93900   5.273   5.824  10.350 -0.1567 -0.2568 -0.7908
30336SOL    HW193901   5.235   5.756  10.294 -1.3422  0.8821 -1.4501
30336SOL    HW293902   5.299   5.779  10.430  0.8435 -1.7933 -1.9348
30337SOL     OW93903   9.713   4.859   9.753 -0.2861 -0.0290  0.0061
30337SOL    HW193904   9.631   4.829   9.713 -1.0065  0.9390  0.7147
30337SOL    HW293905   9.759   4.779   9.777 -0.6669 -0.5960 -1.0881
30338SOL     OW93906   6.288   2.828   1.511  0.4764 -0.5976 -0.3823
30338SOL    HW193907   6.354   2.893   1.535  1.2463 -1.8875  1.1875
30338SOL    HW293908   6.322   2.745   1.545 -1.8888 -1.3348  0.4171
30339SOL     OW93909   4.383   8.988   9.778 -0.4631  0.3814  0.3300
30339SOL    HW193910   4.368   8.965   9.870  0.5096  0.2587  0.4745
30339SOL    HW293911   4.340   8.918   9.729 -1.7340  0.9075  0.6621
30340SOL     OW93912   6.866   1.639   9.733 -0.2264 -0.4285 -1.1505
30340SOL    HW193913   6.793   1.618   9.791  0.0317  1.6854 -0.0030
30340SOL    HW293914   6.838   1.718   9.687  0.9447 -0.1465 -1.4069
30341SOL     OW93915   8.742   0.737   8.130  0.3912 -0.4551  0.1538
30341SOL    HW193916   8.730   0.644   8.152 -1.2259 -0.3583 -0.2171
30341SOL    HW293917   8.737   0.740   8.035 -0.6820  0.1208  0.2073
30342SOL     OW93918   4.073   0.237   7.148 -0.1637  0.2133  0.4963
30342SOL    HW193919   4.028   0.169   7.098 -0.3942  0.0710  0.8975
30342SOL    HW293920   4.142   0.268   7.089 -0.8606  0.5172 -0.1647
30343SOL     OW93921   0.657   8.978   9.319  0.1261 -0.3977  0.0479
30343SOL    HW193922   0.719   9.036   9.275 -1.1581 -0.0634 -1.3886
30343SOL    HW293923   0.700   8.892   9.318  0.3271 -0.3060 -1.5058
30344SOL     OW93924   2.391   5.745   7.238  0.5408 -0.4284  0.9329
30344SOL    HW193925   2.380   5.678   7.170 -1.8717 -1.0373  1.8429
30344SOL    HW293926   2.386   5.828   7.191  0.8177 -0.8415  0.1438
30345SOL     OW93927   4.181   3.180   1.691 -0.1281  0.1024 -0.2590
30345SOL    HW193928   4.134   3.131   1.758 -0.7154  0.7399 -0.1881
30345SOL    HW293929   4.114   3.237   1.653  0.5208  0.7969 -0.3733
30346SOL     OW93930  10.483   7.408   7.936 -0.1538  0.0549 -0.1955
30346SOL    HW193931  10.397   7.442   7.961 -0.2454 -0.1410 -0.2450
30346SOL    HW293932  10.544   7.478   7.961  0.0748 -1.1443  2.9781
30347SOL     OW93933   9.763   8.767   0.625 -0.2158  0.3631  0.0010
30347SOL    HW193934   9.769   8.759   0.530 -2.1953  0.1606 -0.1689
30347SOL    HW293935   9.771   8.861   0.642  0.2859  0.3850 -0.3511
30348SOL     OW93936   6.369  10.733   4.967  0.6111  0.2840 -0.4677
30348SOL    HW193937   6.439  10.717   4.904 -0.1121 -1.4240 -0.8868
30348SOL    HW293938   6.289  10.737   4.914  0.0022 -1.1098  0.3000
30349SOL     OW93939   6.509  10.551   5.413 -0.2011  0.0638 -0.3804
30349SOL    HW193940   6.463  10.471   5.438 -0.3069  0.1692 -0.2323
30349SOL    HW293941   6.553  10.529   5.331  1.1800 -0.6822  0.5168
30350SOL     OW93942   3.851   9.800   0.507  0.0784 -0.1416  0.5785
30350SOL    HW193943   3.761   9.788   0.478  0.7293  1.2239 -2.3623
30350SOL    HW293944   3.848   9.876   0.565 -0.6147  0.1180  0.2074
30351SOL     OW93945   4.014   1.108   1.736 -0.5071  0.5383 -0.0240
30351SOL    HW193946   4.045   1.156   1.659 -0.6877  2.7359  1.1904
30351SOL    HW293947   4.090   1.057   1.764 -0.6392 -0.8400 -2.0067
30352SOL     OW93948   0.535   3.613   8.633 -0.1677  0.1025 -0.0757
30352SOL    HW193949   0.490   3.565   8.563 -0.0911 -1.0293  0.6252
30352SOL    HW293950   0.607   3.658   8.589 -0.2101 -0.4723 -0.7538
30353SOL     OW93951   4.390   1.205   1.764 -0.2756  0.1890  0.0106
30353SOL    HW193952   4.366   1.280   1.818  0.3931 -0.0231  0.6152
30353SOL    HW293953   4.319   1.142   1.779  0.2773 -0.1738  1.2665
30354SOL     OW93954   9.694   9.736   8.862  0.1807  0.1763  0.2590
30354SOL    HW193955   9.785   9.733   8.832 -0.1857  0.0576 -0.8873
30354SOL    HW293956   9.651   9.665   8.815 -0.2112 -0.7171  1.8784
30355SOL     OW93957   4.640   9.247   5.618  0.1443 -0.1162 -0.2105
30355SOL    HW193958   4.630   9.162   5.574 -2.5133 -0.5021  0.9533
30355SOL    HW293959   4.671   9.225   5.706 -0.4840  0.1162  0.0705
30356SOL     OW93960   4.800   4.477   8.251 -0.1546  0.6489 -0.2383
30356SOL    HW193961   4.881   4.501   8.295 -1.3734  3.3354  0.7027
30356SOL    HW293962   4.732   4.488   8.317 -1.5157  0.1978 -1.5064
30357SOL     OW93963   8.565   2.682   7.984  0.9242 -0.1995  0.3403
30357SOL    HW193964   8.483   2.725   7.959  1.6043  0.8381 -0.1778
30357SOL    HW293965   8.599   2.736   8.055  0.8401 -1.0162  1.0138
30358SOL     OW93966   1.973  10.771   9.644 -0.4667  0.7813  0.0776
30358SOL    HW193967   1.903  10.829   9.614 -1.0937  0.3118  0.6160
30358SOL    HW293968   1.959  10.689   9.595 -0.9965  0.2945  1.0163
30359SOL     OW93969   2.063   0.649   1.575 -0.3184  0.0484 -0.1665
30359SOL    HW193970   2.024   0.725   1.618 -0.7035  1.3422 -2.6707
30359SOL    HW293971   2.007   0.631   1.500  1.3675 -0.8805 -1.2755
30360SOL     OW93972   1.043   3.547   5.497  0.3277  0.0830  0.1621
30360SOL    HW193973   1.064   3.636   5.527 -0.2670  0.2621  0.0644
30360SOL    HW293974   0.996   3.507   5.570 -1.1482  0.5295 -0.5075
30361SOL     OW93975   9.384   4.686   5.278 -0.9530 -0.1136  0.0193
30361SOL    HW193976   9.382   4.782   5.281  0.4729  0.0302 -1.6916
30361SOL    HW293977   9.422   4.660   5.362  0.8871  1.0070 -0.3869
30362SOL     OW93978   0.698   7.552   1.603 -0.2503 -0.4400  0.0564
30362SOL    HW193979   0.742   7.634   1.586 -1.0625 -0.2113 -1.0283
30362SOL    HW293980   0.713   7.536   1.697  0.7018  0.4502  0.0705
30363SOL     OW93981   0.431   6.932   1.479  0.1081 -0.4769 -0.0908
30363SOL    HW193982   0.505   6.873   1.465  2.3435  2.2229 -0.7485
30363SOL    HW293983   0.463   6.994   1.545 -2.5862 -0.6905  1.5271
30364SOL     OW93984   1.244   5.153   4.394  0.5637  0.2081 -0.2664
30364SOL    HW193985   1.334   5.166   4.425  0.5226  2.3244 -0.8420
30364SOL    HW293986   1.216   5.240   4.366 -0.8776 -0.8122 -2.2365
30365SOL     OW93987   0.565   7.903   8.898 -0.1344  0.6863 -0.4453
30365SOL    HW193988   0.609   7.940   8.975 -0.3919  1.3419 -0.6053
30365SOL    HW293989   0.483   7.952   8.891 -0.0989  0.6591 -1.1572
30366SOL     OW93990  10.642   6.765   7.204  0.1008  0.3321 -0.2810
30366SOL    HW193991  10.652   6.682   7.251  1.3945  0.3153 -0.5365
30366SOL    HW293992  10.586   6.818   7.260 -0.8515 -0.7540 -0.1722
30367SOL     OW93993   8.770   3.604   4.947 -0.4871  0.3980  0.0065
30367SOL    HW193994   8.829   3.541   4.989 -0.7970  0.0734 -0.0517
30367SOL    HW293995   8.685   3.588   4.987 -0.4875  1.0449  0.2792
30368SOL     OW93996   1.470   3.661   8.561 -0.5691 -0.4262 -0.1936
30368SOL    HW193997   1.413   3.681   8.486 -0.3394  0.7689 -0.0713
30368SOL    HW293998   1.413   3.672   8.637 -0.4625 -0.3166 -0.1288
30369SOL     OW93999   7.588   0.015   4.642  0.6686  0.7024 -0.5689
30369SOL    HW194000   7.571   0.081   4.576  2.3997 -0.5251 -2.3520
30369SOL    HW294001   7.502  -0.015   4.669 -0.0932  1.2831 -2.2239
30370SOL     OW94002   3.154  10.685   3.451  0.2149  0.4784 -0.0576
30370SOL    HW194003   3.110  10.620   3.507  0.6734  0.4088  0.2316
30370SOL    HW294004   3.131  10.769   3.490  0.8341  0.4116  0.4654
30371SOL     OW94005   6.121   4.838   1.476 -0.0762 -0.0086 -0.1136
30371SOL    HW194006   6.199   4.811   1.428  0.0997  1.0349 -0.4472
30371SOL    HW294007   6.050   4.787   1.438 -0.0326  1.1588 -1.8943
30372SOL     OW94008   1.703   2.252   1.904  0.0823 -0.3818 -0.3427
30372SOL    HW194009   1.744   2.213   1.981 -2.9129 -1.3235  0.9183
30372SOL    HW294010   1.697   2.346   1.925  0.0198 -0.5073  0.2218
30373SOL     OW94011   7.083   6.390   8.322  0.1944 -0.0288  0.3379
30373SOL    HW194012   7.118   6.394   8.411 -0.1178  0.9380  0.4250
30373SOL    HW294013   6.992   6.419   8.330 -0.3635 -1.5645 -0.0452
30374SOL     OW94014   1.163   6.739   9.906  0.5520  0.2936 -0.6766
30374SOL    HW194015   1.251   6.777   9.904  0.2587  1.0040 -0.3285
30374SOL    HW294016   1.175   6.650   9.874  1.3724  0.4389 -0.7982
30375SOL     OW94017   7.947   6.433   3.955  0.3238  0.5239 -0.0035
30375SOL    HW194018   7.933   6.339   3.943 -0.6930  0.4323  1.6147
30375SOL    HW294019   7.913   6.473   3.875  1.8161 -0.5353 -1.2120
30376SOL     OW94020   5.185  10.337   1.138  0.2013 -0.0253 -0.0419
30376SOL    HW194021   5.213  10.408   1.081  0.8233  0.7105  1.1337
30376SOL    HW294022   5.117  10.375   1.193 -0.5826 -0.7983 -0.4464
30377SOL     OW94023   7.913   5.221   5.038  0.1872  0.3331 -0.7838
30377SOL    HW194024   7.897   5.241   5.130  1.2336  1.3063 -0.7899
30377SOL    HW294025   7.995   5.171   5.037 -0.2192 -0.3378 -1.1263
30378SOL     OW94026   0.227   4.853   3.755  0.0267  0.2479 -0.5539
30378SOL    HW194027   0.219   4.948   3.763  0.0108  0.4913 -2.8302
30378SOL    HW294028   0.139   4.824   3.731 -0.8888 -0.8658  3.3318
30379SOL     OW94029   0.496   4.659   4.867  0.0750  0.1945  0.1282
30379SOL    HW194030   0.457   4.709   4.795 -0.1752  0.4718  0.4508
30379SOL    HW294031   0.568   4.611   4.827  0.7666  1.3556 -0.0541
30380SOL     OW94032   0.851   7.331   4.741 -0.4427  0.3039  0.1778
30380SOL    HW194033   0.776   7.376   4.701  1.0691  3.4416  0.5541
30380SOL    HW294034   0.925   7.353   4.685  0.6167 -0.6289  1.1630
30381SOL     OW94035   7.210   6.167  10.138 -0.1369 -0.6608  0.5474
30381SOL    HW194036   7.199   6.190  10.231 -0.9441 -0.1644  0.3409
30381SOL    HW294037   7.143   6.101  10.122  0.1222 -0.8810  0.3584
30382SOL     OW94038   2.439   2.030   6.844  0.2840  0.8822 -0.0802
30382SOL    HW194039   2.461   1.938   6.827 -1.9433 -0.0253  1.4532
30382SOL    HW294040   2.420   2.066   6.758 -1.1127 -0.8077 -0.5568
30383SOL     OW94041   2.933  10.765   5.349 -0.5881  0.3661  0.3647
30383SOL    HW194042   2.940  10.671   5.362  1.3611  0.5786  1.1855
30383SOL    HW294043   2.924  10.776   5.254  0.4679 -0.6016  0.1407
30384SOL     OW94044   6.790   6.521   2.534  0.4703  0.0496 -0.2363
30384SOL    HW194045   6.749   6.439   2.561  0.6030  0.3526  0.9581
30384SOL    HW294046   6.882   6.511   2.561  0.3247  0.8714  0.6219
30385SOL     OW94047   6.626   0.100   9.002  0.2009  0.1792  0.3504
30385SOL    HW194048   6.663   0.109   9.090 -1.4955 -0.8400  1.2209
30385SOL    HW294049   6.556   0.165   8.999 -0.0767 -0.1373 -0.0666
30386SOL     OW94050   8.262   5.955   4.911  0.0253  0.5049 -0.4067
30386SOL    HW194051   8.298   6.036   4.875 -2.7381  2.2843  0.5490
30386SOL    HW294052   8.223   5.980   4.994 -0.8229 -1.8643 -0.0063
30387SOL     OW94053   9.676   4.535   7.566 -0.0304 -0.1190  0.2611
30387SOL    HW194054   9.647   4.581   7.644 -0.9674 -1.5110  0.7561
30387SOL    HW294055   9.607   4.472   7.546  0.8722 -0.8381 -0.8012
30388SOL     OW94056   6.687   4.731   6.273 -0.0803 -0.0477  0.0963
30388SOL    HW194057   6.655   4.708   6.186  1.1494 -0.3242 -0.2920
30388SOL    HW294058   6.773   4.769   6.259 -0.4394  1.2187  1.0805
30389SOL     OW94059  10.511   1.263   1.957 -0.3426 -0.7520 -0.2961
30389SOL    HW194060  10.472   1.302   2.035 -0.3384 -1.0398 -0.1500
30389SOL    HW294061  10.587   1.215   1.990 -1.0082 -1.8613 -0.3174
30390SOL     OW94062   2.415  10.737   2.556  0.2744  0.1310 -0.1341
30390SOL    HW194063   2.400  10.653   2.514  0.9217 -1.2850  2.2603
30390SOL    HW294064   2.332  10.757   2.601  0.5825  0.0045  0.5065
30391SOL     OW94065  10.685   1.537   1.022 -0.4975  0.4251  0.5936
30391SOL    HW194066  10.708   1.452   1.060  1.0306  0.8180  0.6252
30391SOL    HW294067  10.691   1.598   1.096 -0.3263  0.7510  0.3150
30392SOL     OW94068   6.350   1.492   0.114  0.3296 -0.0539 -0.6314
30392SOL    HW194069   6.322   1.584   0.118  1.0473  0.1500 -0.0076
30392SOL    HW294070   6.411   1.482   0.188  0.7547 -0.8592 -1.0740
30393SOL     OW94071   2.234   1.525   0.024 -0.0611 -0.4520  0.4389
30393SOL    HW194072   2.264   1.461   0.089 -1.2623 -2.3127 -0.7428
30393SOL    HW294073   2.278   1.500  -0.057 -1.3766 -0.4895 -0.2972
30394SOL     OW94074   1.545  10.277   0.613 -0.0670  0.3256 -0.2965
30394SOL    HW194075   1.576  10.199   0.567  0.6279  0.0457  0.6184
30394SOL    HW294076   1.593  10.349   0.572 -0.7658  0.2976 -1.1951
30395SOL     OW94077   0.320   2.437   6.689 -0.3705  0.4191 -0.4854
30395SOL    HW194078   0.366   2.379   6.628  1.1424  0.0622  0.9267
30395SOL    HW294079   0.370   2.431   6.770 -1.5884  1.8654  0.4231
30396SOL     OW94080   8.162   3.783   7.555  0.5989 -0.2086  0.1680
30396SOL    HW194081   8.244   3.772   7.603  0.3743 -0.3618  0.5246
30396SOL    HW294082   8.161   3.712   7.491  1.4077  0.6330 -0.8071
30397SOL     OW94083   3.748   6.889   2.280 -0.9808 -0.4090 -0.2834
30397SOL    HW194084   3.719   6.818   2.337  1.0793 -0.7535  0.4110
30397SOL    HW294085   3.667   6.922   2.240 -2.3430 -1.0337  1.7913
30398SOL     OW94086   5.300   8.405   6.158  0.2534 -0.0495 -0.0389
30398SOL    HW194087   5.277   8.497   6.171  1.1286 -0.0468  1.7633
30398SOL    HW294088   5.287   8.390   6.064 -0.2219  1.8144 -0.3084
30399SOL     OW94089   5.475   4.993   9.694 -0.3603  0.0895  0.2551
30399SOL    HW194090   5.385   5.020   9.673 -0.7063 -0.0490  1.4996
30399SOL    HW294091   5.493   5.036   9.777  0.7007  0.0254  0.0639
30400SOL     OW94092   5.797   7.079   8.080 -0.0304 -0.2555  0.3562
30400SOL    HW194093   5.738   7.139   8.126  1.0203  2.2939 -1.4154
30400SOL    HW294094   5.884   7.118   8.089  0.8819 -2.0856 -0.0122
30401SOL     OW94095   9.718   2.542   0.488 -0.3486 -0.0205 -0.0020
30401SOL    HW194096   9.701   2.594   0.567 -0.0915 -0.5939  0.4310
30401SOL    HW294097   9.797   2.581   0.451 -0.3741  0.1420  0.1117
30402SOL     OW94098   9.520   6.646   2.324 -0.1216 -0.2278  0.0330
30402SOL    HW194099   9.485   6.584   2.260  3.1098 -0.1199 -2.0622
30402SOL    HW294100   9.510   6.732   2.283  1.4586 -0.0947 -0.1507
30403SOL     OW94101   0.328   0.883   3.621  0.3556 -0.2966  0.5272
30403SOL    HW194102   0.291   0.971   3.617 -0.3385 -0.6252 -0.7896
30403SOL    HW294103   0.251   0.825   3.628  0.7956 -0.8152  1.2467
30404SOL     OW94104   4.301   6.875   1.999 -0.0231 -0.4325  0.2877
30404SOL    HW194105   4.366   6.812   1.968  0.0187 -1.7143  2.6787
30404SOL    HW294106   4.227   6.820   2.028 -1.3125  0.8588 -0.4214
30405SOL     OW94107   7.482   9.428   8.424  0.1561 -1.1846 -0.1939
30405SOL    HW194108   7.511   9.395   8.509 -0.0219 -1.6892 -0.3229
30405SOL    HW294109   7.533   9.508   8.411 -0.8133 -0.3310  1.0046
30406SOL     OW94110   5.405   7.680   8.127 -0.8014  0.4809 -0.0104
30406SOL    HW194111   5.483   7.664   8.180 -0.7318 -0.4290 -0.3597
30406SOL    HW294112   5.416   7.768   8.093 -0.5763  0.8690  1.0293
30407SOL     OW94113   6.966   9.030   1.998 -0.1989 -0.3407  0.0701
30407SOL    HW194114   6.962   9.096   2.066 -1.6959 -0.6193  0.2869
30407SOL    HW294115   6.875   9.001   1.986  0.3267 -1.9180 -0.4435
30408SOL     OW94116   5.786   2.584   4.166 -0.3233  0.4738  0.1221
30408SOL    HW194117   5.818   2.579   4.256 -0.2168  0.2617  0.0722
30408SOL    HW294118   5.836   2.655   4.126  1.2016 -0.8491 -0.4074
30409SOL     OW94119   6.800   0.854   5.572 -0.2975 -0.1184 -0.2477
30409SOL    HW194120   6.829   0.941   5.599 -0.5637 -0.4438  1.1892
30409SOL    HW294121   6.709   0.867   5.544 -0.2861  0.0956 -0.1871
30410SOL     OW94122   9.473   0.656   3.172  0.7814  0.8529  0.3804
30410SOL    HW194123   9.448   0.568   3.146 -0.2689  1.3387 -0.3730
30410SOL    HW294124   9.491   0.701   3.089  0.8119  1.4864  0.7211
30411SOL     OW94125   5.176   4.830   5.230  0.4843  0.3433 -0.4076
30411SOL    HW194126   5.151   4.876   5.149 -0.9988 -0.2167 -0.2901
30411SOL    HW294127   5.104   4.770   5.247 -0.4590  2.1296  2.6503
30412SOL     OW94128   0.072   0.325   2.582  0.0113  0.2172 -0.0676
30412SOL    HW194129   0.037   0.341   2.494 -0.6524  1.7320  0.4489
30412SOL    HW294130   0.094   0.412   2.615 -0.3521 -0.2754  1.5264
30413SOL     OW94131   6.825   3.088   3.145  0.3073 -0.2155  0.0570
30413SOL    HW194132   6.808   3.181   3.157 -1.0929 -0.3792 -0.5458
30413SOL    HW294133   6.805   3.049   3.230 -2.7895 -0.4302 -0.6691
30414SOL     OW94134   9.147  10.193   6.416  0.0502  0.3108  0.3720
30414SOL    HW194135   9.196  10.223   6.492  0.1848  2.9826 -0.6481
30414SOL    HW294136   9.191  10.235   6.342 -0.6216 -1.4721 -1.0966
30415SOL     OW94137   1.071   5.004   5.104  0.3865 -0.0186 -0.1935
30415SOL    HW194138   1.000   4.944   5.126 -0.1461  0.6567 -0.0240
30415SOL    HW294139   1.142   4.980   5.164  0.5142 -1.0725 -0.7565
30416SOL     OW94140   6.915   9.453   7.276  0.0321  0.3336 -0.2127
30416SOL    HW194141   6.899   9.363   7.247 -2.6390  0.2358  1.2586
30416SOL    HW294142   7.007   9.454   7.301 -0.2572 -2.5653  1.4319
30417SOL     OW94143   3.084   3.623  10.414  0.0152  0.5582 -0.6499
30417SOL    HW194144   3.088   3.528  10.403  1.5298  0.6046 -0.5907
30417SOL    HW294145   3.027   3.636  10.489  1.2962 -0.4073  0.5236
30418SOL     OW94146  10.520   1.189   0.589 -0.1695  0.0290 -0.0606
30418SOL    HW194147  10.560   1.167   0.673  1.1085 -0.3748 -0.7494
30418SOL    HW294148  10.556   1.274   0.565  1.0052 -0.7289 -1.0986
30419SOL     OW94149   7.438   2.280   2.322 -0.0517  0.3256 -0.3397
30419SOL    HW194150   7.399   2.265   2.236  1.0502 -0.2441 -0.7572
30419SOL    HW294151   7.471   2.370   2.318 -0.8071  0.6152 -0.1825
30420SOL     OW94152   2.225   7.584   2.066 -0.3325  0.3242  0.4332
30420SOL    HW194153   2.178   7.527   2.127 -1.1304  0.2171 -0.2752
30420SOL    HW294154   2.315   7.584   2.099  0.3830 -3.5697 -1.0650
30421SOL     OW94155   2.912   0.474   6.121  0.3137  0.0333  0.4448
30421SOL    HW194156   2.892   0.544   6.059  3.1361  0.0942 -0.5432
30421SOL    HW294157   2.960   0.518   6.192 -0.2549 -0.5109  1.1837
30422SOL     OW94158   8.440   3.037   0.532 -0.4439 -0.2415  0.0702
30422SOL    HW194159   8.461   3.066   0.620 -0.1454 -0.7448  0.1710
30422SOL    HW294160   8.494   2.959   0.519  1.3573  1.1471 -1.4206
30423SOL     OW94161   9.228   5.105   7.176 -0.6137 -0.2569 -0.4904
30423SOL    HW194162   9.310   5.101   7.127  1.6855  1.3896  2.8457
30423SOL    HW294163   9.175   5.170   7.129  0.6988 -0.0540 -1.7532
30424SOL     OW94164  10.780   7.729   0.995 -1.0155 -0.4149  0.2423
30424SOL    HW194165  10.835   7.699   0.923 -2.7004 -2.5664 -0.2625
30424SOL    HW294166  10.836   7.720   1.073  0.1524 -0.0504 -0.5375
30425SOL     OW94167   4.217   9.072   1.601 -0.1560  0.2953  0.1300
30425SOL    HW194168   4.230   9.111   1.515 -2.8383  0.3446 -0.3419
30425SOL    HW294169   4.265   8.990   1.598 -0.4508  0.1527 -1.5490
30426SOL     OW94170   7.216   7.893   9.043  0.0666 -0.0792 -0.3105
30426SOL    HW194171   7.236   7.969   8.988 -1.0795 -0.1117 -0.8106
30426SOL    HW294172   7.297   7.874   9.089 -0.0559  2.5759  1.2066
30427SOL     OW94173   0.641   3.765   2.917 -0.4657 -0.0986  0.1811
30427SOL    HW194174   0.644   3.783   2.823  0.6113 -1.4397 -0.0732
30427SOL    HW294175   0.567   3.706   2.928 -0.1825 -0.4770  0.0686
30428SOL     OW94176  10.199   1.193   8.365 -0.2398  0.3736  0.0979
30428SOL    HW194177  10.271   1.221   8.308  0.4802 -2.0146 -0.2601
30428SOL    HW294178  10.121   1.197   8.310  0.4879 -2.1895 -1.2840
30429SOL     OW94179   1.741  10.727   5.755 -0.0794  0.6587 -0.2916
30429SOL    HW194180   1.799  10.802   5.742  1.1336 -0.0414  0.8278
30429SOL    HW294181   1.674  10.759   5.816  1.0320  0.5971  1.0371
30430SOL     OW94182   4.015   4.107   4.951  0.5415 -0.3786 -0.2222
30430SOL    HW194183   3.982   4.120   5.040  2.3991  1.4638  0.2748
30430SOL    HW294184   4.070   4.028   4.957  1.4847  0.3086  0.5572
30431SOL     OW94185   0.603  10.240   8.588  0.0557  0.2781  0.2121
30431SOL    HW194186   0.567  10.226   8.500 -1.7829  1.5311  0.7274
30431SOL    HW294187   0.556  10.178   8.643  0.9604 -0.2617  0.4044
30432SOL     OW94188   1.388   4.168   0.806  0.2574  0.1365  1.2926
30432SOL    HW194189   1.344   4.238   0.759  0.3940  0.7962  2.1346
30432SOL    HW294190   1.478   4.169   0.772 -0.0709 -0.5054  0.3600
30433SOL     OW94191   9.735   4.743   4.452 -0.7528  0.4288  0.6476
30433SOL    HW194192   9.675   4.721   4.523  1.1960  2.0831  2.9872
30433SOL    HW294193   9.688   4.806   4.399 -1.8152  0.1289  1.2049
30434SOL     OW94194   3.192   5.256   5.703  0.1015 -0.4183  0.5487
30434SOL    HW194195   3.154   5.168   5.702 -0.4171 -0.1955 -0.1183
30434SOL    HW294196   3.221   5.271   5.613 -0.5722  0.4114  0.4607
30435SOL     OW94197   3.253   3.560   3.640 -0.4328 -0.2148  0.2431
30435SOL    HW194198   3.178   3.611   3.610  0.1430  0.5866  0.1312
30435SOL    HW294199   3.273   3.502   3.567 -0.5981 -0.0417  0.0586
30436SOL     OW94200  10.637   2.461   3.503 -0.1213 -0.1668 -0.2627
30436SOL    HW194201  10.663   2.388   3.446  1.2039 -0.6696  0.9375
30436SOL    HW294202  10.544   2.475   3.482  0.1313 -0.8037 -2.0128
30437SOL     OW94203   0.827   7.691   9.877  0.0280 -0.1787  0.4301
30437SOL    HW194204   0.737   7.706   9.905  0.7158  0.3947  2.5492
30437SOL    HW294205   0.880   7.740   9.940  1.8174 -0.2431 -0.9457
30438SOL     OW94206   1.618   6.658   6.555  0.3818  0.0651 -0.3576
30438SOL    HW194207   1.600   6.738   6.504  1.4524  0.6306  0.1018
30438SOL    HW294208   1.532   6.626   6.580 -0.1798 -0.1165 -2.3337
30439SOL     OW94209   7.801   6.043   5.361  0.5906 -0.2147 -0.0223
30439SOL    HW194210   7.788   6.107   5.431 -0.0711 -0.8254  0.4201
30439SOL    HW294211   7.882   5.998   5.385  0.2826 -0.5312  0.4436
30440SOL     OW94212   8.365  10.671   0.888 -0.5004 -0.2900  0.4156
30440SOL    HW194213   8.314  10.653   0.967 -1.5319 -2.0916 -0.5895
30440SOL    HW294214   8.441  10.613   0.895 -0.9572 -0.9866 -0.2094
30441SOL     OW94215   9.471   0.915   4.630  0.3760 -0.1936 -0.2582
30441SOL    HW194216   9.521   0.996   4.632  1.1150 -0.6433  0.7575
30441SOL    HW294217   9.462   0.894   4.537 -2.1547  2.4014 -0.7161
30442SOL     OW94218   0.839  10.654   3.480 -0.0102 -0.2942  0.0160
30442SOL    HW194219   0.751  10.691   3.491  0.3040  0.3608  0.3799
30442SOL    HW294220   0.831  10.598   3.403 -0.2510  1.3535 -1.2052
30443SOL     OW94221   7.913   7.710   8.630 -0.0507 -0.0756 -0.1248
30443SOL    HW194222   7.968   7.788   8.640  1.5322 -1.0162 -0.9951
30443SOL    HW294223   7.876   7.719   8.542  0.6962 -0.6194 -0.5048
30444SOL     OW94224   6.182   8.716   2.990  0.6366 -0.0875 -0.2685
30444SOL    HW194225   6.190   8.787   3.054 -0.7075  0.6755 -0.9024
30444SOL    HW294226   6.272   8.699   2.963  0.9270  2.2971 -1.0472
30445SOL     OW94227   8.214   2.605   7.502 -0.5039  0.1816  0.1985
30445SOL    HW194228   8.147   2.609   7.570 -0.2851 -0.2769  0.4458
30445SOL    HW294229   8.179   2.542   7.438  0.0762 -0.7292  0.7609
30446SOL     OW94230   8.753  10.494   0.073  0.9627 -0.0487 -0.0562
30446SOL    HW194231   8.772  10.467  -0.017  1.2418 -1.7758  0.4855
30446SOL    HW294232   8.735  10.587   0.066  0.8733 -0.1585 -1.9217
30447SOL     OW94233   0.290  10.578   4.939 -0.5144  0.4649  0.3700
30447SOL    HW194234   0.233  10.644   4.980 -1.2989  0.1572 -0.1932
30447SOL    HW294235   0.378  10.614   4.946 -0.4622  0.0147  3.2091
30448SOL     OW94236   5.480   0.232   5.083 -0.0287  0.4330  0.3193
30448SOL    HW194237   5.454   0.290   5.155 -0.6172  1.0495 -0.3714
30448SOL    HW294238   5.405   0.233   5.023 -0.1834 -1.3238  0.4459
30449SOL     OW94239   0.439   8.704   8.472  0.1005  0.1470 -0.0199
30449SOL    HW194240   0.503   8.634   8.488 -0.4007 -0.7893 -1.8125
30449SOL    HW294241   0.359   8.674   8.515 -0.2235 -0.6032 -1.1111
30450SOL     OW94242   5.097   3.880   5.162  0.0889  0.2753 -0.1356
30450SOL    HW194243   5.148   3.831   5.097 -1.7569 -0.6306 -0.9880
30450SOL    HW294244   5.118   3.972   5.145  1.6347 -0.0743 -0.2436
30451SOL     OW94245   9.389   5.249  10.515 -0.0283 -0.0063  0.4255
30451SOL    HW194246   9.443   5.223  10.590 -1.3760 -0.3414  1.3000
30451SOL    HW294247   9.333   5.319  10.548 -1.5061 -0.9928  0.1057
30452SOL     OW94248   3.959   1.328   3.946  0.4979 -0.2860 -0.2538
30452SOL    HW194249   4.052   1.346   3.958  0.4623 -0.0986 -0.2713
30452SOL    HW294250   3.924   1.405   3.901  0.4628 -0.6227 -0.8103
30453SOL     OW94251   7.127  10.286   1.283  0.3017  0.1791 -0.2974
30453SOL    HW194252   7.180  10.209   1.262  1.6612  0.9608  0.1356
30453SOL    HW294253   7.174  10.328   1.355 -2.0264 -0.2142  1.5906
30454SOL     OW94254   9.390   0.203   9.480 -0.2518 -0.4501  0.2484
30454SOL    HW194255   9.422   0.237   9.563  2.5572 -1.5198 -0.2672
30454SOL    HW294256   9.423   0.265   9.414 -1.4680 -0.2325 -0.1864
30455SOL     OW94257   0.334   4.864   5.697  0.3258 -0.0183  0.7136
30455SOL    HW194258   0.265   4.898   5.639  0.4245 -0.6156  0.2346
30455SOL    HW294259   0.415   4.901   5.661  0.4194 -0.6384  0.2739
30456SOL     OW94260   9.695   6.061   0.351  0.5830  0.0126 -0.0465
30456SOL    HW194261   9.762   6.002   0.319  2.2737  1.0713  1.3596
30456SOL    HW294262   9.740   6.119   0.413 -1.9645 -0.4277  2.4818
30457SOL     OW94263   1.473   3.327   3.780 -0.5076  0.2040  0.2736
30457SOL    HW194264   1.392   3.289   3.813 -0.7153 -1.1066 -1.5534
30457SOL    HW294265   1.543   3.286   3.832 -0.9535  0.5517  1.1545
30458SOL     OW94266   6.382   2.353  10.436  0.6227  0.2421  0.1381
30458SOL    HW194267   6.419   2.430  10.393  0.0300 -0.2991 -1.3705
30458SOL    HW294268   6.297   2.382  10.470 -0.5021 -0.1979 -2.1341
30459SOL     OW94269   9.746   9.076   6.352 -0.1964  0.5042  0.8124
30459SOL    HW194270   9.748   9.108   6.261  1.1712  1.2348  1.0681
30459SOL    HW294271   9.760   9.155   6.405 -0.8565  0.0618  1.6674
30460SOL     OW94272   3.324   6.818   3.985 -0.2066 -0.1777  0.4392
30460SOL    HW194273   3.308   6.785   4.073  0.4465  0.9300  1.0027
30460SOL    HW294274   3.311   6.743   3.928 -0.3513 -0.9880  1.5132
30461SOL     OW94275   1.350   7.659   1.503 -0.6070 -0.9604  0.2015
30461SOL    HW194276   1.390   7.572   1.493  0.0836 -0.3908 -3.0349
30461SOL    HW294277   1.423   7.717   1.524 -0.8441 -0.9248  0.9542
30462SOL     OW94278   9.866   9.513   4.586  0.0631 -0.5599  0.1751
30462SOL    HW194279   9.858   9.605   4.610 -0.8756 -0.3011 -1.0826
30462SOL    HW294280   9.878   9.513   4.491  0.9583 -1.6955  0.2670
30463SOL     OW94281   1.551   3.045   8.151 -0.3203 -0.1955 -0.0948
30463SOL    HW194282   1.536   3.076   8.062  1.6890 -1.5762 -1.0132
30463SOL    HW294283   1.618   2.977   8.141  1.2100  0.7524  2.6558
30464SOL     OW94284   5.429   2.850   5.079  0.1329 -0.3789  0.0504
30464SOL    HW194285   5.513   2.892   5.098  0.2918 -0.3701 -0.6267
30464SOL    HW294286   5.398   2.819   5.163  1.2783 -1.2288  0.1869
30465SOL     OW94287   9.948   1.211   0.294 -0.4614 -0.1234  0.3352
30465SOL    HW194288   9.901   1.146   0.242 -1.0143 -1.0934  1.9654
30465SOL    HW294289   9.880   1.271   0.325 -0.0109  1.0445 -0.8060
30466SOL     OW94290   9.078   7.053   6.431  0.3214  0.1606  0.2084
30466SOL    HW194291   9.019   6.981   6.453  0.3700  0.8757  3.1314
30466SOL    HW294292   9.021   7.129   6.418  0.3870  0.0107 -1.1122
30467SOL     OW94293   7.317   6.313   7.907 -0.3104 -0.2578  0.1311
30467SOL    HW194294   7.260   6.380   7.869 -0.6981 -0.9213 -0.4735
30467SOL    HW294295   7.289   6.308   7.999 -3.6886 -2.9549 -0.8245
30468SOL     OW94296   3.641   3.370   3.846  0.3980  0.2859  0.2078
30468SOL    HW194297   3.678   3.329   3.767  1.0359  1.2311 -0.0154
30468SOL    HW294298   3.645   3.464   3.827 -0.8135  0.4723  0.7837
30469SOL     OW94299  10.123   0.393   9.114  0.2203 -0.3238  0.2681
30469SOL    HW194300  10.163   0.312   9.147 -1.6713 -0.7997  1.5589
30469SOL    HW294301  10.149   0.396   9.021  1.8340 -1.4224  0.6336
30470SOL     OW94302   7.147   1.890   1.796 -0.6034 -0.1691 -0.7256
30470SOL    HW194303   7.151   1.795   1.808  0.2185  0.0959  1.7448
30470SOL    HW294304   7.062   1.916   1.832 -0.1294  0.1638  0.2020
30471SOL     OW94305   2.627   8.997   7.400 -0.6860 -0.1028 -0.5240
30471SOL    HW194306   2.535   8.979   7.415 -0.8964  0.1730 -1.3968
30471SOL    HW294307   2.668   8.911   7.393 -0.8506 -0.2268 -0.0189
30472SOL     OW94308   3.538   3.388   5.647 -0.1273  0.6869 -0.2528
30472SOL    HW194309   3.456   3.424   5.614 -0.3474 -0.9857 -1.6893
30472SOL    HW294310   3.522   3.294   5.653  1.6257  0.3483 -0.4038
30473SOL     OW94311   6.066   7.031   8.483  0.3196 -0.0726 -0.4875
30473SOL    HW194312   6.096   7.039   8.574 -0.6936 -0.7493 -0.0725
30473SOL    HW294313   6.008   7.107   8.471 -2.0892 -1.6267  0.5129
30474SOL     OW94314   8.959   1.693  10.503 -0.6158  0.0636  0.4266
30474SOL    HW194315   8.947   1.664  10.413  0.2709  0.5659  0.1299
30474SOL    HW294316   8.944   1.615  10.556 -2.6686  0.0965 -0.0196
30475SOL     OW94317   3.845   1.561   4.228  0.1476  0.3146 -0.6814
30475SOL    HW194318   3.941   1.560   4.233  0.2090 -1.8796 -1.5907
30475SOL    HW294319   3.819   1.471   4.246 -1.8846  1.1682  1.1219
30476SOL     OW94320   7.861   5.212   1.334  0.0611 -0.2271 -0.5036
30476SOL    HW194321   7.833   5.218   1.243 -0.1106 -0.7105 -0.4866
30476SOL    HW294322   7.780   5.213   1.384  0.2040  2.3062 -0.1929
30477SOL     OW94323   6.905   0.322   7.211  0.2808  0.4875  0.5623
30477SOL    HW194324   6.887   0.413   7.235 -1.9505 -0.1007  1.4031
30477SOL    HW294325   6.903   0.321   7.115 -1.5190  1.0459  0.5634
30478SOL     OW94326   7.722  10.789   9.205 -0.5991 -0.4522 -0.3341
30478SOL    HW194327   7.701  10.833   9.287  0.6113  1.1883 -0.8650
30478SOL    HW294328   7.722  10.859   9.140 -1.5902 -1.7277 -1.7786
30479SOL     OW94329  10.701   5.200   8.119  0.2144  0.5716 -0.1491
30479SOL    HW194330  10.662   5.130   8.171 -0.8748  0.8650 -0.5527
30479SOL    HW294331  10.795   5.179   8.117  0.3793  0.7608  2.2508
30480SOL     OW94332   2.333   0.559   3.735  0.0423 -0.0119  0.0489
30480SOL    HW194333   2.315   0.471   3.770 -1.2943 -0.1796 -0.9773
30480SOL    HW294334   2.260   0.612   3.766 -1.7468 -0.3798 -3.1077
30481SOL     OW94335   3.027  10.410   7.066  0.4929  0.1234  0.1494
30481SOL    HW194336   3.093  10.340   7.066  0.0222 -0.5076 -3.3403
30481SOL    HW294337   2.944  10.366   7.049  0.0578  1.4161 -1.2949
30482SOL     OW94338   1.733   1.355   7.562  0.4384  0.7732  0.2011
30482SOL    HW194339   1.736   1.449   7.578  0.7215  1.0973 -1.6262
30482SOL    HW294340   1.646   1.340   7.524  0.2168  0.2003  0.8962
30483SOL     OW94341   0.492   7.390   3.284 -0.6728  0.2120  0.2520
30483SOL    HW194342   0.410   7.388   3.236 -0.8470 -0.8053  0.5693
30483SOL    HW294343   0.519   7.299   3.290  1.5869  0.6662 -1.6918
30484SOL     OW94344   8.844   5.172   1.434  0.2152 -0.2133  0.0509
30484SOL    HW194345   8.778   5.195   1.499  1.9059  0.7554  1.5305
30484SOL    HW294346   8.797   5.119   1.369 -1.6937 -0.6216  1.6753
30485SOL     OW94347   1.049   1.201   4.546  0.3595  0.1495  0.0280
30485SOL    HW194348   1.143   1.189   4.535  0.7649  0.8656  2.2717
30485SOL    HW294349   1.024   1.135   4.611 -0.8808 -0.6153 -1.1771
30486SOL     OW94350   2.424   7.721   1.447 -0.3662 -0.3790  0.0941
30486SOL    HW194351   2.391   7.649   1.393 -3.9011  2.3973 -1.9287
30486SOL    HW294352   2.360   7.729   1.518  0.7944 -0.1204  1.1384
30487SOL     OW94353   9.276   0.174   7.065 -0.1356  0.0065  0.0792
30487SOL    HW194354   9.360   0.207   7.097 -0.4478 -1.4736  2.7183
30487SOL    HW294355   9.298   0.093   7.019 -0.0123  0.1670 -0.1422
30488SOL     OW94356   0.271   6.765   2.521 -0.0675 -0.1831  0.4704
30488SOL    HW194357   0.205   6.830   2.546  0.8435  0.9148  0.1447
30488SOL    HW294358   0.334   6.815   2.470 -1.1622 -1.9912 -2.9960
30489SOL     OW94359   3.142   2.510   8.872 -0.4785  0.2431 -0.4376
30489SOL    HW194360   3.146   2.445   8.942  1.1061  0.4521 -0.3029
30489SOL    HW294361   3.078   2.475   8.810 -1.2235 -0.3956  0.6580
30490SOL     OW94362   0.217   3.824   3.477  0.0650 -0.0680  0.2249
30490SOL    HW194363   0.287   3.766   3.446 -1.7706 -2.2742 -0.0113
30490SOL    HW294364   0.205   3.799   3.569 -0.0681  0.6670  0.4079
30491SOL     OW94365   4.230   0.834   6.998 -0.2827  0.3152  0.6187
30491SOL    HW194366   4.223   0.926   6.970  2.4877  0.7097  0.9504
30491SOL    HW294367   4.244   0.786   6.916  1.4109  0.6521  0.6668
30492SOL     OW94368   2.382   8.590   6.239 -0.2807  0.5155  0.1995
30492SOL    HW194369   2.374   8.679   6.205  0.9230  0.5034 -0.1603
30492SOL    HW294370   2.299   8.548   6.216 -0.9375  1.5937  0.5441
30493SOL     OW94371   3.965   5.235   4.813  0.3794 -0.3534  0.3511
30493SOL    HW194372   4.053   5.198   4.817  1.1325  1.1388 -1.4633
30493SOL    HW294373   3.943   5.236   4.720 -2.2399 -2.1293  0.8310
30494SOL     OW94374   7.905   0.303   9.677 -0.0707  0.3489 -0.1834
30494SOL    HW194375   7.822   0.314   9.723  0.2952  2.2540  0.1147
30494SOL    HW294376   7.882   0.306   9.584 -0.4393 -0.0179 -0.1016
30495SOL     OW94377   8.914   0.666   4.867  0.0364 -0.2414 -0.5905
30495SOL    HW194378   8.868   0.749   4.850  0.0153  0.1263  1.1242
30495SOL    HW294379   8.890   0.610   4.793 -1.6820  0.5509 -0.6749
30496SOL     OW94380   1.768   9.992   4.368 -0.1623  0.1025  0.5272
30496SOL    HW194381   1.773  10.078   4.325 -1.3349  0.1475  0.4612
30496SOL    HW294382   1.785   9.929   4.298  1.6825  0.2767  0.7572
30497SOL     OW94383   8.531   0.470   4.627  0.0337 -0.0754 -0.8014
30497SOL    HW194384   8.602   0.413   4.598 -1.7113 -1.9486 -1.6569
30497SOL    HW294385   8.474   0.477   4.551 -1.7682 -0.4060  0.4545
30498SOL     OW94386   5.418   5.001   5.258 -0.4589  0.4796  0.0985
30498SOL    HW194387   5.472   4.992   5.336 -2.5594  1.0437  1.6936
30498SOL    HW294388   5.348   4.936   5.269  0.8651 -1.7224 -2.9240
30499SOL     OW94389   1.638   4.688   7.162 -0.3184 -0.3471  0.4069
30499SOL    HW194390   1.682   4.607   7.190  0.2623  0.2637  1.3201
30499SOL    HW294391   1.684   4.713   7.082  1.3624  0.5140  1.5789
30500SOL     OW94392   3.526   5.885   1.532 -0.5197  0.1093 -0.2621
30500SOL    HW194393   3.467   5.926   1.595 -0.6742 -1.0982  0.4010
30500SOL    HW294394   3.571   5.816   1.581 -0.9347 -1.1308 -1.5512
30501SOL     OW94395   7.604   1.961   5.681  0.5097  0.2746 -0.6664
30501SOL    HW194396   7.644   2.004   5.606 -0.2373  1.0900 -0.6056
30501SOL    HW294397   7.559   2.031   5.728 -1.0136 -0.6088 -0.7404
30502SOL     OW94398   3.229   1.043   1.546 -0.4633 -0.6039  0.0062
30502SOL    HW194399   3.301   1.054   1.483 -0.8322  0.4569 -0.2477
30502SOL    HW294400   3.152   1.026   1.491 -0.3897 -1.9636  0.2851
30503SOL     OW94401   1.198   1.061   7.732  0.0713  0.4553  0.0648
30503SOL    HW194402   1.104   1.071   7.750 -0.2307  0.0754 -1.1756
30503SOL    HW294403   1.219   0.974   7.766 -0.1705  0.2859 -0.2160
30504SOL     OW94404  10.619   6.513   7.990  0.1478 -0.2351  0.2776
30504SOL    HW194405  10.592   6.456   7.918 -0.6936 -0.4170  0.7240
30504SOL    HW294406  10.671   6.582   7.949  1.0124 -1.2015 -0.3002
30505SOL     OW94407   7.250   2.075   5.889 -0.1956  0.1767 -0.1379
30505SOL    HW194408   7.188   2.063   5.817  0.0996  1.2555 -0.5888
30505SOL    HW294409   7.197   2.067   5.968 -0.9540  1.2700 -0.5246
30506SOL     OW94410   4.512   0.274   0.972 -0.2197  0.1018 -0.0610
30506SOL    HW194411   4.533   0.225   0.893  0.7730 -1.0634  0.9009
30506SOL    HW294412   4.416   0.279   0.972 -0.2231  1.1477 -1.9013
30507SOL     OW94413   9.431   5.693   8.286 -0.2590  0.0471  0.2905
30507SOL    HW194414   9.488   5.661   8.356 -0.3870 -0.6401  0.0916
30507SOL    HW294415   9.437   5.625   8.218 -0.4283  0.5231 -0.2036
30508SOL     OW94416   3.820  10.212   1.822  0.3921 -0.3418  0.3080
30508SOL    HW194417   3.785  10.277   1.760 -1.2028  0.0319  1.5383
30508SOL    HW294418   3.888  10.260   1.869  1.0729 -0.3916 -0.5961
30509SOL     OW94419   3.886   3.181  10.305  0.8075  0.3628 -0.0940
30509SOL    HW194420   3.840   3.099  10.285 -0.0381  0.6253  0.7467
30509SOL    HW294421   3.875   3.234  10.226  0.8596 -0.1007 -0.4226
30510SOL     OW94422   8.486   1.879   9.028 -0.2826  0.0818 -0.3228
30510SOL    HW194423   8.568   1.866   8.979 -1.0056 -0.8637 -1.3422
30510SOL    HW294424   8.472   1.795   9.072 -1.3616 -0.2459 -1.2371
30511SOL     OW94425   5.948   4.283  10.222  0.2252 -0.0770  0.4809
30511SOL    HW194426   5.970   4.372  10.193 -0.9843 -0.0559 -0.4241
30511SOL    HW294427   6.023   4.230  10.197  0.2495  0.3993 -0.4903
30512SOL     OW94428   5.186   6.971   0.607 -0.0101 -0.1268  0.4958
30512SOL    HW194429   5.099   6.977   0.567 -0.1547 -1.1896  0.5961
30512SOL    HW294430   5.191   7.045   0.666 -0.6723  0.2022  0.1474
30513SOL     OW94431   1.213   7.140   2.909 -0.0866 -0.2290 -0.5855
30513SOL    HW194432   1.201   7.222   2.957 -0.6507 -0.5853 -0.1032
30513SOL    HW294433   1.306   7.120   2.919  0.1164  0.5120 -0.9767
30514SOL     OW94434   4.161   9.704   6.801 -0.0141 -0.0165 -0.1373
30514SOL    HW194435   4.181   9.678   6.711  2.6689  0.4791  0.2206
30514SOL    HW294436   4.247   9.715   6.843 -1.1379 -1.1143  2.7697
30515SOL     OW94437   0.015   7.609   7.057 -0.6661 -0.2495 -0.2903
30515SOL    HW194438  -0.048   7.672   7.089  1.2128  1.4714  0.2267
30515SOL    HW294439   0.100   7.652   7.067  0.5797 -2.2790 -1.3342
30516SOL     OW94440   4.117   8.254   9.972  0.5377 -0.3343  0.2177
30516SOL    HW194441   4.203   8.280   9.939  0.2430  0.5231  0.1085
30516SOL    HW294442   4.130   8.243  10.066  1.1404 -1.8122 -0.0002
30517SOL     OW94443   3.766   3.214   2.207 -0.2401  0.2331 -0.1501
30517SOL    HW194444   3.800   3.128   2.231  0.9180  0.7505  0.1201
30517SOL    HW294445   3.766   3.213   2.111 -0.6682 -0.2229 -0.1521
30518SOL     OW94446   5.282   7.484   8.766 -0.6467  0.4762  0.0293
30518SOL    HW194447   5.231   7.544   8.821 -0.4339  0.0116  0.7466
30518SOL    HW294448   5.358   7.460   8.820 -0.3683  0.1116 -0.5151
30519SOL     OW94449   1.820   9.582   1.574  0.4112 -0.0624 -0.4715
30519SOL    HW194450   1.740   9.531   1.560  1.2909 -2.0053  1.0670
30519SOL    HW294451   1.884   9.541   1.514  0.8939 -0.1945  0.1278
30520SOL     OW94452   1.654   5.620   9.787 -0.2940  0.1484 -0.6864
30520SOL    HW194453   1.658   5.690   9.722  1.7691 -0.8121 -1.6886
30520SOL    HW294454   1.736   5.573   9.777  1.4486  1.4495  4.4298
30521SOL     OW94455   2.989   0.496   8.194 -0.1255 -0.4149 -1.0829
30521SOL    HW194456   2.923   0.536   8.137  0.7491  0.6613 -1.3815
30521SOL    HW294457   2.960   0.405   8.204 -2.7698  0.4644  0.4541
30522SOL     OW94458   1.986   7.069   4.378  0.1232  0.1272  0.2298
30522SOL    HW194459   2.069   7.052   4.334 -0.3567 -1.5403 -0.1081
30522SOL    HW294460   2.011   7.106   4.463  1.1138  1.5835 -0.6544
30523SOL     OW94461   5.121   5.656   4.753 -0.0171 -0.4836 -0.5107
30523SOL    HW194462   5.063   5.613   4.816  1.0228 -0.2010  0.6782
30523SOL    HW294463   5.062   5.701   4.692 -1.1115  2.0908  2.2203
30524SOL     OW94464   9.654   5.340   6.019 -1.1158 -0.2820  0.0279
30524SOL    HW194465   9.602   5.352   6.099 -1.0736  0.4513 -0.0488
30524SOL    HW294466   9.591   5.305   5.956 -1.2906 -0.2966  0.2067
30525SOL     OW94467   1.351   6.027   6.887  0.3109  0.5118  0.0208
30525SOL    HW194468   1.415   6.094   6.913 -1.5263  2.1771  0.5009
30525SOL    HW294469   1.329   6.049   6.797 -0.5541  0.7918  0.2904
30526SOL     OW94470   6.068   8.435   1.649 -0.6959  0.0839  0.1333
30526SOL    HW194471   6.134   8.366   1.652 -0.5519  0.2300  0.3921
30526SOL    HW294472   6.030   8.429   1.561 -1.2022 -0.8044  0.4038
30527SOL     OW94473   0.803   2.953   4.606  0.4547 -0.2014  0.4702
30527SOL    HW194474   0.861   3.024   4.633  0.9056 -0.6702  0.7455
30527SOL    HW294475   0.718   2.995   4.595  0.9459  0.6065 -0.4745
30528SOL     OW94476   6.636   5.259   1.490 -0.0595 -0.1012 -0.5778
30528SOL    HW194477   6.707   5.305   1.533 -0.0123 -0.4207 -0.3110
30528SOL    HW294478   6.575   5.327   1.463 -0.1548  0.0851  0.1100
30529SOL     OW94479   4.065   8.299   9.337  0.9316  0.6190 -0.6114
30529SOL    HW194480   4.102   8.262   9.417 -1.8026 -0.5552  0.2609
30529SOL    HW294481   4.044   8.222   9.283 -0.0802  1.1807 -1.0601
30530SOL     OW94482   7.916  10.198   1.921  0.4625 -0.1342  0.0410
30530SOL    HW194483   7.923  10.207   1.826  4.7075 -0.0442  0.1335
30530SOL    HW294484   7.909  10.104   1.937 -1.1416 -0.0963 -0.3123
30531SOL     OW94485   1.776   3.208   3.108  0.1851  0.1981  0.0832
30531SOL    HW194486   1.686   3.231   3.131 -0.5449 -0.8881 -1.5116
30531SOL    HW294487   1.815   3.291   3.080  0.2390  0.9996  2.2985
30532SOL     OW94488   8.549   8.361   0.985  0.0172  0.2059  0.1303
30532SOL    HW194489   8.467   8.324   1.016 -0.3073  0.1297 -0.7897
30532SOL    HW294490   8.612   8.343   1.055 -0.3609 -1.2053  0.1290
30533SOL     OW94491  10.701   8.736   7.361  0.0542  0.5114 -0.0067
30533SOL    HW194492  10.626   8.779   7.402  1.6863  1.4090  2.2635
30533SOL    HW294493  10.713   8.655   7.411  1.1801  0.8831  0.3615
30534SOL     OW94494   0.587   3.338   4.082 -0.0869  0.2768 -0.2710
30534SOL    HW194495   0.522   3.269   4.088 -0.3796  0.5280 -0.5625
30534SOL    HW294496   0.538   3.417   4.060  0.0592  0.8750  1.3998
30535SOL     OW94497   9.679   8.315   4.452  0.0193  0.1171  0.5953
30535SOL    HW194498   9.720   8.322   4.365  0.9555  0.5401  1.0527
30535SOL    HW294499   9.656   8.405   4.474 -3.3957 -0.3296 -0.6536
30536SOL     OW94500   1.953   0.934   4.901  0.5071  0.3229 -0.8337
30536SOL    HW194501   1.897   0.973   4.968  1.8540 -0.7917  1.0431
30536SOL    HW294502   1.908   0.852   4.877  0.9388 -0.2168  0.1460
30537SOL     OW94503   9.698   0.502   9.335  0.3301  0.4434  0.0676
30537SOL    HW194504   9.712   0.597   9.325 -0.9770  0.7091  0.5489
30537SOL    HW294505   9.760   0.462   9.274 -0.7304  1.6964 -1.9431
30538SOL     OW94506   5.305   0.273   7.188 -0.0809 -0.0202  0.0790
30538SOL    HW194507   5.264   0.307   7.268 -0.8669  0.3750 -0.4771
30538SOL    HW294508   5.232   0.237   7.137 -0.0928  2.3938 -1.8009
30539SOL     OW94509   4.361  10.570   9.110 -0.0414 -0.2947  0.3725
30539SOL    HW194510   4.299  10.521   9.163 -0.7026  0.3867  0.2498
30539SOL    HW294511   4.327  10.659   9.110  0.4771 -0.0882 -0.3975
30540SOL     OW94512   9.310   7.251   0.220  0.4667  0.7334  0.4498
30540SOL    HW194513   9.237   7.201   0.183  1.2078 -0.0300 -0.0210
30540SOL    HW294514   9.285   7.342   0.209 -0.8291  0.4802  1.1362
30541SOL     OW94515   9.358   1.294   9.090 -0.2558 -0.0784 -0.6087
30541SOL    HW194516   9.347   1.370   9.148 -0.0994 -0.2960 -0.2908
30541SOL    HW294517   9.270   1.279   9.055 -0.2804  0.2727 -0.7007
30542SOL     OW94518   8.965   1.870   2.202 -0.2820 -0.4121 -0.3167
30542SOL    HW194519   9.042   1.925   2.219 -1.0358  0.8342 -0.8249
30542SOL    HW294520   8.991   1.813   2.129  0.5509 -0.8514  0.3040
30543SOL     OW94521   3.239   5.833   2.003  0.0960  0.6344  0.0155
30543SOL    HW194522   3.165   5.789   1.963 -0.2523  1.4923 -0.3062
30543SOL    HW294523   3.201   5.904   2.055  0.5855  0.0024  1.2853
30544SOL     OW94524   4.809   5.936   1.056  0.4324 -0.2982  0.1122
30544SOL    HW194525   4.796   5.931   1.151  1.1896  0.0988  0.2415
30544SOL    HW294526   4.724   5.912   1.019  0.5107 -1.8588  0.8640
30545SOL     OW94527   8.922   6.481   4.896  0.6126  0.1813  0.3037
30545SOL    HW194528   8.871   6.505   4.974 -2.2613 -2.4466 -0.5346
30545SOL    HW294529   8.883   6.532   4.825  3.3149  2.6767  0.4534
30546SOL     OW94530  10.070   8.893   9.901  0.3353  0.0002  0.2953
30546SOL    HW194531  10.070   8.924   9.992 -1.2792  0.0838  0.2856
30546SOL    HW294532  10.156   8.919   9.868  0.2734  1.6016  1.2645
30547SOL     OW94533   6.143  10.271   8.038  0.4632  0.0031 -0.3388
30547SOL    HW194534   6.155  10.363   8.062  0.1799 -0.6163  2.5740
30547SOL    HW294535   6.113  10.274   7.947  0.0805  2.8066 -0.2214
30548SOL     OW94536   3.740  10.638  10.393  0.6214 -0.9069  0.2300
30548SOL    HW194537   3.783  10.711  10.349 -1.1399 -0.2403 -0.4194
30548SOL    HW294538   3.780  10.637  10.481  1.1077  0.4265  0.0403
30549SOL     OW94539   1.464   8.629   5.320  0.2083  0.2575 -0.1016
30549SOL    HW194540   1.456   8.548   5.270 -0.0909  0.1272  0.1544
30549SOL    HW294541   1.376   8.668   5.316  0.1255  0.1368  0.5094
30550SOL     OW94542   1.049   4.728   2.891  0.6164  0.4780 -0.2175
30550SOL    HW194543   0.977   4.756   2.834  1.1663  1.0333 -0.6589
30550SOL    HW294544   1.061   4.800   2.953  0.6834  0.3178 -0.0422
30551SOL     OW94545   6.926  10.006   4.497 -0.1335  0.6506 -0.2548
30551SOL    HW194546   6.936  10.091   4.454 -0.2348  1.2082  0.7808
30551SOL    HW294547   6.869  10.024   4.572  1.1779  0.0260  0.9444
30552SOL     OW94548   9.735   3.426   4.753  0.6881 -0.2009 -0.1953
30552SOL    HW194549   9.784   3.462   4.827 -2.7973  0.6850  1.9418
30552SOL    HW294550   9.747   3.490   4.683  0.8081  1.1393  1.0049
30553SOL     OW94551   7.089   6.846   3.854 -0.4065  0.0491 -0.1227
30553SOL    HW194552   7.114   6.757   3.828  0.1225 -0.5852  2.3056
30553SOL    HW294553   6.994   6.848   3.839 -0.1999 -0.3144 -1.7470
30554SOL     OW94554   5.432   2.764   1.123 -0.2940 -0.2459 -0.2507
30554SOL    HW194555   5.482   2.829   1.074 -0.3737  1.2808  1.5640
30554SOL    HW294556   5.498   2.706   1.161 -0.2013 -1.0305 -1.5576
30555SOL     OW94557   4.640   8.690   7.878  0.3664 -0.2550  0.1407
30555SOL    HW194558   4.682   8.756   7.934  0.1096  0.3724 -0.3843
30555SOL    HW294559   4.706   8.621   7.869  0.4174 -0.3566  1.1809
30556SOL     OW94560   7.010   4.598   9.341  0.2619  0.0676  0.3766
30556SOL    HW194561   7.069   4.523   9.354 -0.4833 -0.2656  2.1175
30556SOL    HW294562   7.000   4.604   9.246  1.2808 -1.2936  0.1407
30557SOL     OW94563   0.819   5.868   9.558  0.0309  0.3707  0.8779
30557SOL    HW194564   0.778   5.781   9.558 -0.2473  0.4939  1.5950
30557SOL    HW294565   0.757   5.924   9.605  0.1034  1.0144  0.2264
30558SOL     OW94566   9.738   3.030   8.040 -0.4829  0.2497 -0.0118
30558SOL    HW194567   9.702   3.117   8.022 -0.1556  0.2574 -0.6634
30558SOL    HW294568   9.681   2.971   7.992  0.5618  0.2913 -1.3888
30559SOL     OW94569   0.823   0.183   2.856 -0.0738  0.8566  0.2356
30559SOL    HW194570   0.802   0.263   2.905  1.3246  0.9070  0.8158
30559SOL    HW294571   0.742   0.132   2.857 -0.6056  1.6845  1.0160
30560SOL     OW94572   6.138   6.910   8.187  0.4984  0.0497 -0.2966
30560SOL    HW194573   6.143   6.874   8.275  0.6372  1.5441  0.3355
30560SOL    HW294574   6.082   6.987   8.195 -1.9592 -1.3982 -2.1151
30561SOL     OW94575   7.996   1.299   2.526  0.4285  0.4262 -0.6622
30561SOL    HW194576   8.046   1.223   2.555  2.1788  1.5884 -0.4961
30561SOL    HW294577   7.940   1.265   2.455  0.9409 -1.0575 -0.3889
30562SOL     OW94578   0.725   2.080  10.713 -0.5739 -0.1711  0.1917
30562SOL    HW194579   0.740   2.064  10.619  2.4607 -0.7794  0.6748
30562SOL    HW294580   0.697   2.171  10.717  0.9041  0.4017 -1.2425
30563SOL     OW94581   0.087   7.434   7.272 -0.6477 -0.2978  0.5385
30563SOL    HW194582   0.152   7.392   7.216 -0.1956 -0.6910  1.3425
30563SOL    HW294583   0.044   7.498   7.214 -0.9806 -1.4688 -0.5555
30564SOL     OW94584   5.774   5.621   2.055  0.1691  0.3044  0.7389
30564SOL    HW194585   5.725   5.583   1.983 -0.4020 -1.2227  1.8650
30564SOL    HW294586   5.865   5.598   2.037  0.3237  1.7902 -0.5526
30565SOL     OW94587   1.836   0.625   2.160  0.2280 -0.1032  0.4076
30565SOL    HW194588   1.800   0.641   2.073 -1.1755 -2.1771  0.5473
30565SOL    HW294589   1.916   0.575   2.145  0.2208 -0.0779  0.2896
30566SOL     OW94590   5.986   8.766   7.792  0.0722  0.0145 -0.0359
30566SOL    HW194591   5.918   8.793   7.854  1.0173  1.5930  0.3655
30566SOL    HW294592   5.948   8.784   7.706 -0.1007  0.7025  0.1784
30567SOL     OW94593   6.390   3.169   2.334 -0.4448  0.3359 -0.7136
30567SOL    HW194594   6.352   3.082   2.325 -0.9185  0.4976 -0.3369
30567SOL    HW294595   6.329   3.227   2.288 -0.5376  0.5664 -0.3042
30568SOL     OW94596   5.640   8.690   1.385 -0.0249 -0.3286  0.6281
30568SOL    HW194597   5.629   8.595   1.384  0.1979 -0.3548  0.4822
30568SOL    HW294598   5.664   8.710   1.475 -0.8858 -0.3090  0.8626
30569SOL     OW94599   6.345   1.076   1.239 -0.5503  0.5951  0.0270
30569SOL    HW194600   6.433   1.051   1.266 -1.6350 -2.1168  1.4537
30569SOL    HW294601   6.330   1.160   1.281  0.8290  0.3821  1.0059
30570SOL     OW94602   0.370   0.509   0.251 -0.4690 -0.2734 -0.0876
30570SOL    HW194603   0.382   0.554   0.334  3.1334  1.3519 -1.3029
30570SOL    HW294604   0.334   0.575   0.192  0.8666 -0.1738 -0.8203
30571SOL     OW94605   8.041   3.428   0.284 -0.3761  0.6425  0.1818
30571SOL    HW194606   7.983   3.387   0.348 -1.4465  0.6011 -0.7795
30571SOL    HW294607   8.001   3.514   0.267 -0.3296  0.5018 -0.7020
30572SOL     OW94608   1.471   8.013   7.324  0.0203 -0.1277  0.3142
30572SOL    HW194609   1.434   7.957   7.256  0.5335  1.8543 -1.7391
30572SOL    HW294610   1.562   7.986   7.331  0.2492  0.3649 -0.6198
30573SOL     OW94611  10.569   4.993   2.450  0.4556  0.0773  0.0585
30573SOL    HW194612  10.638   4.937   2.415  1.1347  0.4258  0.7926
30573SOL    HW294613  10.565   4.970   2.543 -0.7332 -0.2439 -0.0464
30574SOL     OW94614  10.254   7.625   2.754  0.0517 -0.2227 -0.2752
30574SOL    HW194615  10.219   7.561   2.816  0.1941 -0.2523 -0.2254
30574SOL    HW294616  10.187   7.631   2.686 -1.2879  1.6247  1.0775
30575SOL     OW94617   4.669   0.946   8.891  0.2616 -0.5159  0.3841
30575SOL    HW194618   4.680   0.893   8.970  0.7885  0.0586  0.7059
30575SOL    HW294619   4.589   0.996   8.905  1.5372  1.3193  1.6058
30576SOL     OW94620   8.863   2.021   3.281 -0.0911 -0.0888 -0.0015
30576SOL    HW194621   8.824   1.937   3.259  0.1826  0.2209 -1.8429
30576SOL    HW294622   8.868   2.021   3.377 -2.4710 -1.0646  0.1929
30577SOL     OW94623  10.153   1.134   0.487 -0.0411  0.4491  0.5191
30577SOL    HW194624  10.125   1.065   0.547 -0.4682 -0.0690 -0.2722
30577SOL    HW294625  10.078   1.149   0.430  0.8237 -0.0167 -0.7682
30578SOL     OW94626   1.321   2.819   0.110  0.1889  0.5246  0.0538
30578SOL    HW194627   1.225   2.821   0.100  0.2750  0.0005 -0.9862
30578SOL    HW294628   1.352   2.775   0.032  1.3788  1.7463 -0.1979
30579SOL     OW94629   3.398   1.093   9.413 -0.5738 -0.4162  0.3461
30579SOL    HW194630   3.444   1.083   9.496 -0.4186  1.3984  0.5168
30579SOL    HW294631   3.336   1.165   9.428 -1.3643 -0.8297 -0.7664
30580SOL     OW94632  10.098   9.963   2.670 -0.4392  0.5070 -0.3646
30580SOL    HW194633  10.171  10.016   2.638 -0.7142  1.6000  0.7638
30580SOL    HW294634  10.113   9.876   2.631  3.1549 -0.2084  2.0792
30581SOL     OW94635   9.998   8.264   8.951  0.1571 -0.1298  0.3430
30581SOL    HW194636   9.919   8.245   8.901 -0.0784 -0.0309  0.6720
30581SOL    HW294637  10.003   8.194   9.017 -0.5969  0.7998  1.4229
30582SOL     OW94638   4.542   5.703   8.415  0.3710  0.1202 -0.3281
30582SOL    HW194639   4.459   5.732   8.378  0.8257  1.1203 -0.5929
30582SOL    HW294640   4.608   5.732   8.353  0.9504 -0.4713 -0.0066
30583SOL     OW94641   2.543   7.971   2.419 -0.0828 -0.9003 -0.5282
30583SOL    HW194642   2.587   7.986   2.336  0.9507 -1.2788 -0.0620
30583SOL    HW294643   2.494   7.889   2.405  1.0607 -1.6275 -0.3994
30584SOL     OW94644   5.098   9.352   6.443 -0.0836 -0.1259  0.1301
30584SOL    HW194645   5.061   9.280   6.495 -0.3775  0.7307  1.1521
30584SOL    HW294646   5.064   9.338   6.355 -2.1221  0.1246  0.8397
30585SOL     OW94647   0.691   0.699   7.308 -0.2831 -0.8084  0.0625
30585SOL    HW194648   0.649   0.679   7.392 -2.0771 -0.4240 -0.6975
30585SOL    HW294649   0.715   0.792   7.316 -3.9096  0.4154 -1.1049
30586SOL     OW94650   0.984   4.075   4.321  0.7386  0.7087  0.8459
30586SOL    HW194651   1.058   4.133   4.341 -0.2958  1.4547  2.8536
30586SOL    HW294652   1.008   3.991   4.359  2.0460 -0.1942 -1.6849
30587SOL     OW94653  10.308   0.601   1.971  0.1621  0.2541  0.6872
30587SOL    HW194654  10.303   0.542   2.047  1.9908  0.5434  1.0808
30587SOL    HW294655  10.375   0.665   1.995  0.5447  0.5491 -1.0653
30588SOL     OW94656   3.787   9.264   0.678 -0.3034  0.0927  0.5568
30588SOL    HW194657   3.714   9.282   0.738 -1.4714 -0.8049 -0.5269
30588SOL    HW294658   3.745   9.225   0.601  1.3132 -0.2313 -0.1970
30589SOL     OW94659   7.007   7.154  10.496 -0.6337 -0.6701 -0.0645
30589SOL    HW194660   6.974   7.225  10.550  1.6076  1.5522 -1.4417
30589SOL    HW294661   7.053   7.096  10.557 -1.7346 -0.5283  0.9349
30590SOL     OW94662   8.833   6.594  10.489  0.4796 -0.3628 -0.1885
30590SOL    HW194663   8.862   6.576  10.399 -1.3611 -1.9960 -0.5054
30590SOL    HW294664   8.753   6.544  10.499 -1.2438  2.4264  1.2595
30591SOL     OW94665  10.295  10.341   0.580  0.2848 -0.0125  0.5819
30591SOL    HW194666  10.279  10.260   0.531 -0.3586  0.8705 -0.7429
30591SOL    HW294667  10.208  10.374   0.600  0.5467  0.1956  1.3908
30592SOL     OW94668   7.830   7.638   3.562 -0.5293  0.3571 -0.3070
30592SOL    HW194669   7.788   7.554   3.541 -2.0112  1.3629 -1.5892
30592SOL    HW294670   7.757   7.698   3.574  0.5251  1.5281  0.3889
30593SOL     OW94671   8.771   9.260   4.330  0.2661 -0.3409 -0.3698
30593SOL    HW194672   8.853   9.308   4.341 -0.7055  1.0808  1.3220
30593SOL    HW294673   8.720   9.314   4.270  0.0948 -0.5536 -0.4169
30594SOL     OW94674   7.950   2.855   9.088  0.2133 -0.8764 -0.6659
30594SOL    HW194675   7.894   2.808   9.025 -1.1885 -0.8746  0.5189
30594SOL    HW294676   7.908   2.840   9.172  0.9658  0.7117  0.0323
30595SOL     OW94677   7.190  10.601   6.324  0.5992  0.3062  0.1041
30595SOL    HW194678   7.115  10.548   6.296  0.5364  1.5686 -2.4750
30595SOL    HW294679   7.151  10.685   6.348  1.1558  1.3055 -2.1946
30596SOL     OW94680   9.780  10.323   5.813  0.4043  0.4937 -0.2648
30596SOL    HW194681   9.800  10.417   5.814  2.1318  0.1838  1.6837
30596SOL    HW294682   9.764  10.303   5.721 -0.2327  2.7272 -0.6967
30597SOL     OW94683   1.378   6.644   6.292  0.5316 -0.4185  0.3259
30597SOL    HW194684   1.289   6.676   6.273  0.0587 -0.5842  2.1058
30597SOL    HW294685   1.430   6.724   6.299  0.4911 -0.3093 -0.5037
30598SOL     OW94686   8.222   8.780   1.754 -0.0698  0.0898  0.0612
30598SOL    HW194687   8.216   8.784   1.849 -0.3688  0.2436  0.0361
30598SOL    HW294688   8.254   8.866   1.728 -0.2302  0.1353  0.0068
30599SOL     OW94689   6.319   9.977   7.750 -0.4019 -0.7191  0.4631
30599SOL    HW194690   6.293   9.886   7.734 -0.1961 -0.4689 -1.5181
30599SOL    HW294691   6.414   9.975   7.748 -0.4091 -0.3638 -0.1170
30600SOL     OW94692   3.382   7.301   7.064 -0.0717  0.4863  0.4835
30600SOL    HW194693   3.382   7.282   7.158 -0.1125 -0.7433  0.2482
30600SOL    HW294694   3.289   7.314   7.043 -0.1191  0.1479  0.4897
30601SOL     OW94695   0.142   9.041  10.382 -0.2330  0.0909 -0.1211
30601SOL    HW194696   0.151   8.958  10.335  1.4786 -0.7679  1.5813
30601SOL    HW294697   0.065   9.029  10.437  0.1229 -0.4651  0.2651
30602SOL     OW94698   1.179   2.215   4.033  0.1772 -0.2246  0.2946
30602SOL    HW194699   1.165   2.218   4.128  1.2367  0.7340  0.4320
30602SOL    HW294700   1.265   2.254   4.020 -0.0507 -0.1461 -1.0923
30603SOL     OW94701   0.130   4.143   9.165 -0.4033 -0.3605 -0.1611
30603SOL    HW194702   0.139   4.051   9.140 -0.0219 -0.7765  1.4245
30603SOL    HW294703   0.220   4.174   9.175 -0.5185  0.3246 -1.0745
30604SOL     OW94704   8.208   6.791   3.152 -0.6778 -0.5184  0.1326
30604SOL    HW194705   8.142   6.739   3.198 -1.1763 -0.0589 -0.0578
30604SOL    HW294706   8.187   6.881   3.174 -0.8418 -0.2948 -0.8727
30605SOL     OW94707   1.284   1.163   1.707  0.0045 -0.2732  0.5351
30605SOL    HW194708   1.212   1.222   1.730 -0.3575 -0.9079  1.0824
30605SOL    HW294709   1.360   1.198   1.754 -0.2561 -0.3514  1.0235
30606SOL     OW94710   3.636   5.384   4.291  0.0664 -0.1229  0.1830
30606SOL    HW194711   3.690   5.444   4.240  1.9232 -0.8909  1.1363
30606SOL    HW294712   3.547   5.401   4.262  0.8645  0.7442 -1.9418
30607SOL     OW94713   5.051   4.223   7.524  0.0992 -0.6585 -0.4017
30607SOL    HW194714   4.956   4.217   7.515  0.1319  1.5367 -4.2899
30607SOL    HW294715   5.085   4.148   7.476  0.3385 -0.7202 -0.1375
30608SOL     OW94716   2.899   8.601   1.140  0.2019  0.0774 -0.0843
30608SOL    HW194717   2.942   8.687   1.133 -0.1731  0.1632 -1.6898
30608SOL    HW294718   2.833   8.613   1.207  0.6501  0.8289  0.2446
30609SOL     OW94719   4.370   4.621   5.852 -0.2269  0.1076  0.0237
30609SOL    HW194720   4.373   4.527   5.866 -1.4267  0.1942  1.0760
30609SOL    HW294721   4.285   4.648   5.887 -1.4411  1.1278 -3.3537
30610SOL     OW94722   8.073   6.829   9.984 -0.3449  0.5216  0.3856
30610SOL    HW194723   7.988   6.872   9.984 -0.9992 -0.6375 -1.3600
30610SOL    HW294724   8.130   6.888  10.033 -1.8219  1.9927  0.4262
30611SOL     OW94725   3.099   2.490   5.671  0.6391 -0.3834  0.1233
30611SOL    HW194726   3.084   2.520   5.760 -1.4026 -0.7946 -0.0440
30611SOL    HW294727   3.065   2.400   5.669  0.9709 -0.5047 -0.9743
30612SOL     OW94728   1.054   1.437   6.599  0.0419  0.1349  0.4987
30612SOL    HW194729   0.959   1.422   6.593 -0.1604  0.4646  2.2566
30612SOL    HW294730   1.064   1.531   6.581  0.2238 -0.1594 -1.0740
30613SOL     OW94731   9.151   0.532   8.596 -0.1041 -0.0839 -0.1820
30613SOL    HW194732   9.084   0.542   8.663 -1.5409  0.9438 -1.6975
30613SOL    HW294733   9.160   0.619   8.557  1.5731 -0.3727 -0.5267
30614SOL     OW94734   9.462   0.114   0.813  0.3804  0.4230  0.0736
30614SOL    HW194735   9.553   0.097   0.839  0.2568  0.1854  0.3592
30614SOL    HW294736   9.460   0.208   0.795  0.4327  0.6448  1.1309
30615SOL     OW94737  10.091  10.661   0.653 -0.4385  0.4918  0.0242
30615SOL    HW194738  10.064  10.570   0.654 -1.6948  0.8031 -1.5227
30615SOL    HW294739  10.161  10.666   0.589 -0.1924  0.5818  0.2949
30616SOL     OW94740   3.168   6.588   9.160  0.0471 -0.1385  0.2898
30616SOL    HW194741   3.079   6.590   9.196 -0.1281 -1.2653 -0.0345
30616SOL    HW294742   3.225   6.576   9.236 -0.1075  0.1560  0.4541
30617SOL     OW94743   0.859  10.014   6.021  0.3010 -0.0942  0.2849
30617SOL    HW194744   0.855  10.095   5.970  0.6429 -0.6921 -0.7296
30617SOL    HW294745   0.774  10.008   6.063 -0.1939  0.1709 -0.6410
30618SOL     OW94746   7.778   2.325  10.344  0.3024  0.2214 -0.3461
30618SOL    HW194747   7.700   2.362  10.385 -1.3208 -1.1983 -1.9715
30618SOL    HW294748   7.846   2.330  10.412 -1.1784  1.5172  1.1051
30619SOL     OW94749   7.153   8.112   5.900 -0.1410  0.6512 -0.2882
30619SOL    HW194750   7.102   8.139   5.824 -2.8297 -0.4732  0.9841
30619SOL    HW294751   7.134   8.178   5.967 -0.4367 -0.0797  0.3750
30620SOL     OW94752   9.993   1.166   4.104  0.0680 -0.4205  0.0982
30620SOL    HW194753  10.021   1.199   4.189  0.0121  0.1133 -0.0884
30620SOL    HW294754  10.074   1.141   4.060  0.1728  0.1745 -0.0503
30621SOL     OW94755   4.162   8.275   1.469  0.2689 -0.0726 -0.0918
30621SOL    HW194756   4.250   8.238   1.457 -0.0111 -0.5153 -0.8328
30621SOL    HW294757   4.165   8.317   1.556  1.4653  0.6539 -0.4579
30622SOL     OW94758  10.051   6.625  10.658 -0.2579 -0.4858 -0.3623
30622SOL    HW194759  10.074   6.692  10.722 -0.4719 -0.6753 -0.0861
30622SOL    HW294760   9.971   6.586  10.692  0.7882 -2.0632  0.3788
30623SOL     OW94761   8.962   2.096   5.574  0.2337 -0.5678  0.2644
30623SOL    HW194762   8.901   2.093   5.647 -0.4927  0.2257 -0.2864
30623SOL    HW294763   9.032   2.154   5.604  0.4143 -0.9978  0.6760
30624SOL     OW94764   6.388   0.656   7.758 -0.9946  0.3338 -0.3055
30624SOL    HW194765   6.340   0.729   7.796 -0.4217  1.0756 -0.9676
30624SOL    HW294766   6.479   0.686   7.754 -0.6588 -0.5995 -0.1490
30625SOL     OW94767   3.912   5.380   8.419 -0.1979 -0.4879  0.0663
30625SOL    HW194768   3.917   5.409   8.329  1.6630 -0.3442  0.1625
30625SOL    HW294769   3.973   5.305   8.423  0.0141 -0.2786  1.2545
30626SOL     OW94770   4.635   0.192   4.666  0.5127 -0.1381 -0.1001
30626SOL    HW194771   4.670   0.130   4.730 -0.4589  0.6695  1.2443
30626SOL    HW294772   4.627   0.140   4.585  0.9061 -1.4165  0.6537
30627SOL     OW94773   0.337   8.435   6.643  0.2374  0.4517 -0.2541
30627SOL    HW194774   0.373   8.506   6.589  0.6851 -0.5576 -1.3270
30627SOL    HW294775   0.414   8.385   6.671 -0.1140  0.0462 -0.0080
30628SOL     OW94776  10.336   4.371   9.699 -0.9824  0.0720  0.0217
30628SOL    HW194777  10.286   4.331   9.628 -0.3204 -1.9558  0.6093
30628SOL    HW294778  10.309   4.323   9.777 -0.5330  1.1767  0.8939
30629SOL     OW94779   4.416   9.236  10.490 -0.2163  0.3911 -0.0895
30629SOL    HW194780   4.465   9.171  10.541  0.4664 -0.3107 -1.6015
30629SOL    HW294781   4.461   9.319  10.507 -0.6210  0.3742  1.2321
30630SOL     OW94782   7.904   8.541   5.630  0.0055  0.2302  0.0616
30630SOL    HW194783   7.984   8.510   5.587  0.9739 -0.8796  2.4787
30630SOL    HW294784   7.906   8.500   5.716 -2.7599  0.8800  0.5284
30631SOL     OW94785   8.042   7.839   3.904 -0.0861 -0.2676 -0.0796
30631SOL    HW194786   8.053   7.747   3.877  1.4243 -0.0310 -0.3780
30631SOL    HW294787   8.039   7.836   3.999  0.7835 -0.5640 -0.0565
30632SOL     OW94788   0.444   7.982   9.655  0.3105  0.2110 -0.3649
30632SOL    HW194789   0.445   8.052   9.720  1.0902 -1.2209  1.2636
30632SOL    HW294790   0.459   8.026   9.571 -0.4033  2.0859  0.4328
30633SOL     OW94791   4.551   2.422   7.845 -0.1243 -1.0761  0.0959
30633SOL    HW194792   4.606   2.362   7.794 -0.1291 -0.7497 -0.2993
30633SOL    HW294793   4.546   2.382   7.931  0.1284 -1.4878 -0.0755
30634SOL     OW94794   9.662   3.791   0.207 -0.2834 -0.2431  0.1346
30634SOL    HW194795   9.657   3.779   0.302 -0.3607  0.4362  0.2197
30634SOL    HW294796   9.690   3.882   0.196 -2.0106  0.2403 -0.5172
30635SOL     OW94797   3.202   7.544   0.257  0.5072 -0.9794  0.1020
30635SOL    HW194798   3.208   7.508   0.345 -0.5069 -0.4262  0.4083
30635SOL    HW294799   3.158   7.628   0.268  0.6129 -0.7780 -0.9007
30636SOL     OW94800   8.728   5.108   3.983  0.2157 -0.0374 -0.0437
30636SOL    HW194801   8.657   5.134   4.041 -0.2497  0.9896 -1.0273
30636SOL    HW294802   8.689   5.041   3.926  1.0917 -2.2188  1.7309
30637SOL     OW94803   9.581   7.159   5.524 -0.3116 -0.8392  0.1370
30637SOL    HW194804   9.654   7.212   5.490 -1.6425  1.1298  0.1580
30637SOL    HW294805   9.597   7.153   5.618 -1.5049  1.9720  0.6096
30638SOL     OW94806   0.791   7.103  10.360 -0.0440 -0.2098 -0.0280
30638SOL    HW194807   0.730   7.032  10.341  0.7226 -1.4733  1.9426
30638SOL    HW294808   0.848   7.107  10.283 -0.6769 -1.1189 -0.5561
30639SOL     OW94809   9.023   6.818   2.756  0.1237  0.1194 -0.0493
30639SOL    HW194810   9.039   6.820   2.851 -1.7171 -2.3112  0.4039
30639SOL    HW294811   9.086   6.755   2.722  0.9320  1.1503 -0.5455
30640SOL     OW94812   8.424   7.518   5.000  0.0831  0.0704 -0.2723
30640SOL    HW194813   8.465   7.527   4.914  1.2086 -1.3204  0.0613
30640SOL    HW294814   8.345   7.467   4.985 -0.3247  0.8047 -0.6269
30641SOL     OW94815   5.484   8.363  10.382  0.1513 -0.3187  0.3830
30641SOL    HW194816   5.429   8.345  10.305 -0.1622 -2.1506  0.9941
30641SOL    HW294817   5.553   8.420  10.348 -0.2957 -0.6170 -1.1378
30642SOL     OW94818   4.319   0.082   7.800 -0.3266  0.4694 -0.3046
30642SOL    HW194819   4.366   0.164   7.819 -0.8085  0.7185 -0.1857
30642SOL    HW294820   4.228   0.108   7.792 -0.9198 -0.3993  2.3940
30643SOL     OW94821   4.499  10.353   3.582 -0.6363  0.2157  0.2565
30643SOL    HW194822   4.443  10.296   3.635 -1.6281  0.5659 -0.3801
30643SOL    HW294823   4.551  10.401   3.646 -1.5228  0.3367  0.9161
30644SOL     OW94824   0.749   3.865   9.321  0.9462 -0.3603  0.5150
30644SOL    HW194825   0.721   3.853   9.412 -1.3925  0.8233  0.0266
30644SOL    HW294826   0.764   3.777   9.288 -0.7632 -0.9857  1.3177
30645SOL     OW94827  10.677   9.920   3.118 -0.4071 -0.2428  0.2201
30645SOL    HW194828  10.663   9.930   3.212 -0.3353 -1.3938  0.3702
30645SOL    HW294829  10.771   9.904   3.109 -0.4256 -0.2078 -0.0394
30646SOL     OW94830   8.563   9.609   5.189 -0.2574 -0.2174  0.2918
30646SOL    HW194831   8.541   9.569   5.105 -1.2441  1.2262 -0.1800
30646SOL    HW294832   8.657   9.626   5.184 -0.2317 -0.5255 -0.3635
30647SOL     OW94833   8.646   4.218   1.794 -0.2511 -0.1908  0.0457
30647SOL    HW194834   8.729   4.227   1.841 -0.2906 -1.3151  0.3658
30647SOL    HW294835   8.627   4.306   1.761  0.6077  0.2648  0.7323
30648SOL     OW94836   0.656   4.941   9.382 -0.1706 -0.0007 -0.2101
30648SOL    HW194837   0.587   4.903   9.435  1.5107  0.5526  2.5715
30648SOL    HW294838   0.620   5.023   9.349 -0.9268  0.1711  1.0143
30649SOL     OW94839   1.814   9.052   5.803  0.0077  0.0168  0.5731
30649SOL    HW194840   1.892   9.008   5.769  1.7712  1.8433  1.9689
30649SOL    HW294841   1.796   9.121   5.740 -0.7237 -0.6324  0.0645
30650SOL     OW94842  10.290   8.759   0.660  0.0019  0.1769  0.1920
30650SOL    HW194843  10.232   8.806   0.600 -1.3019  0.2401  1.4367
30650SOL    HW294844  10.305   8.675   0.618  1.0779  1.0970 -1.3250
30651SOL     OW94845   4.017   3.799   7.949 -0.1429 -0.2803  0.2266
30651SOL    HW194846   3.997   3.828   8.038  2.1161  2.8846 -0.1029
30651SOL    HW294847   4.094   3.743   7.959 -0.6884 -1.0304  0.3279
30652SOL     OW94848   9.078   7.101   0.254  0.0328 -0.1232 -0.5417
30652SOL    HW194849   9.002   7.157   0.270 -1.4251 -2.5420  1.9684
30652SOL    HW294850   9.072   7.077   0.162 -2.4004 -0.3428 -0.3945
30653SOL     OW94851   6.752  10.339   7.645 -0.1293 -0.2615  0.6859
30653SOL    HW194852   6.771  10.246   7.632 -0.9803 -0.1197 -2.5600
30653SOL    HW294853   6.659  10.347   7.625  0.6351  1.7051 -2.8278
30654SOL     OW94854   3.170   0.408  10.284  0.3568  0.3438  0.5460
30654SOL    HW194855   3.253   0.425  10.328  0.3114  1.5276  0.2050
30654SOL    HW294856   3.134   0.495  10.267  0.6543 -0.0002 -2.3323
30655SOL     OW94857   4.164   1.151   7.375  0.4381  0.2257  0.4155
30655SOL    HW194858   4.216   1.133   7.297  1.5158  1.8902  0.7018
30655SOL    HW294859   4.226   1.187   7.438 -0.4761 -0.7911  1.9518
30656SOL     OW94860   0.200   4.489   5.915 -0.0711 -0.4750 -0.1539
30656SOL    HW194861   0.151   4.544   5.854 -1.1330 -1.4284 -0.1847
30656SOL    HW294862   0.234   4.417   5.860  2.1992  0.6332 -0.3278
30657SOL     OW94863   8.052   8.194   7.817 -0.3346  0.6085  0.5289
30657SOL    HW194864   8.085   8.245   7.744  1.1412  2.2073  2.1963
30657SOL    HW294865   8.000   8.257   7.868 -1.5599 -0.5349  0.7436
30658SOL     OW94866   1.304   7.179   1.869 -0.3565 -0.6386  0.3632
30658SOL    HW194867   1.252   7.132   1.803  0.7688 -0.0616 -0.9853
30658SOL    HW294868   1.239   7.220   1.925 -1.4491  1.0028 -1.9447
30659SOL     OW94869   6.926   4.504   7.404  0.4971  0.0026 -0.5766
30659SOL    HW194870   6.960   4.554   7.329  1.5419  1.6969  0.9416
30659SOL    HW294871   6.831   4.515   7.398  0.5470 -0.0175 -1.7222
30660SOL     OW94872   8.902   4.801   3.397  0.0777  0.2912 -0.1271
30660SOL    HW194873   8.853   4.849   3.330  0.9305  0.7075 -0.4670
30660SOL    HW294874   8.994   4.806   3.368  0.1214 -2.3827 -0.7197
30661SOL     OW94875   4.682   7.051   0.992 -0.0642 -0.1348 -0.1775
30661SOL    HW194876   4.599   7.099   0.997 -2.3794 -3.8511  1.3715
30661SOL    HW294877   4.681   7.010   0.906  0.3505  0.0154 -0.2585
30662SOL     OW94878   2.930   3.937   6.965  0.3198  0.0235  0.3076
30662SOL    HW194879   2.925   4.030   6.944  0.6362  0.1529  0.7905
30662SOL    HW294880   2.997   3.931   7.033  0.2497 -0.5479  0.3345
30663SOL     OW94881   4.871   5.387   4.533 -0.2376  0.2945 -0.0270
30663SOL    HW194882   4.966   5.400   4.528  0.2357 -2.7446 -1.1537
30663SOL    HW294883   4.837   5.430   4.454  0.3902  0.1943 -0.3624
30664SOL     OW94884   4.663   1.366   3.784  0.7377 -0.1085 -0.1208
30664SOL    HW194885   4.685   1.446   3.737  1.3209 -0.3634 -0.2917
30664SOL    HW294886   4.682   1.385   3.876 -0.1921  0.3169 -0.0083
30665SOL     OW94887   6.049   9.182   7.822  0.3935  0.1050  0.8174
30665SOL    HW194888   5.955   9.170   7.807  0.6908 -1.5345  0.0686
30665SOL    HW294889   6.067   9.135   7.903  0.7836 -0.7445  0.2542
30666SOL     OW94890   8.751   0.885   9.011  0.3238 -0.0883  0.1253
30666SOL    HW194891   8.667   0.839   9.017 -0.7424  1.8117  0.7277
30666SOL    HW294892   8.745   0.936   8.930  0.6221  0.5343  0.4857
30667SOL     OW94893   9.311   1.238   9.680 -0.4066 -0.4614  0.0842
30667SOL    HW194894   9.374   1.253   9.750 -0.1337 -1.3141  0.0285
30667SOL    HW294895   9.319   1.315   9.624  0.9327 -0.7836 -0.1839
30668SOL     OW94896   9.616   6.998   4.369 -0.1100 -0.3255 -0.0037
30668SOL    HW194897   9.605   6.909   4.402 -1.2542 -0.5821 -1.0091
30668SOL    HW294898   9.545   7.048   4.411  0.8186  0.2502  0.9366
30669SOL     OW94899   8.820   3.075   4.408 -0.2648 -0.0655  0.2191
30669SOL    HW194900   8.792   3.163   4.384  0.3898  0.1691  0.2844
30669SOL    HW294901   8.912   3.085   4.433  0.3881 -1.0790 -1.5967
30670SOL     OW94902   3.311   4.770  10.783 -0.0890  0.0354  0.0072
30670SOL    HW194903   3.349   4.802  10.701  0.0859 -2.7179 -1.0862
30670SOL    HW294904   3.233   4.722  10.756  0.8829 -2.3875  1.1746
30671SOL     OW94905   5.502   0.248   3.567 -0.5960  0.3135  0.5593
30671SOL    HW194906   5.415   0.209   3.574  1.0598 -3.9688  0.0150
30671SOL    HW294907   5.526   0.238   3.475  0.3269  1.9308  0.5869
30672SOL     OW94908   5.483   5.360   0.567 -0.3988 -0.1275 -0.0595
30672SOL    HW194909   5.415   5.410   0.611  0.2826  0.0984  0.7509
30672SOL    HW294910   5.487   5.397   0.479 -2.0783 -0.8780 -0.5019
30673SOL     OW94911   9.814   8.260   3.193  0.3671  0.1044 -0.5065
30673SOL    HW194912   9.844   8.191   3.252 -0.4884  1.1215  1.2012
30673SOL    HW294913   9.786   8.214   3.114 -1.0342 -1.6526  0.9277
30674SOL     OW94914   4.684   1.648   5.514 -0.2104  1.0232  0.0211
30674SOL    HW194915   4.744   1.665   5.586 -0.6017  0.9092  0.3768
30674SOL    HW294916   4.603   1.694   5.538 -1.1324 -0.8727  0.7778
30675SOL     OW94917  10.106   1.009   3.675 -0.2589  0.2960  0.0216
30675SOL    HW194918  10.033   1.035   3.732  0.1202 -1.0729  1.1741
30675SOL    HW294919  10.078   1.037   3.588 -2.7151 -1.1271  0.2289
30676SOL     OW94920   0.757   3.176   1.527 -0.2408  0.2301  0.0883
30676SOL    HW194921   0.664   3.169   1.505 -0.7672  0.0951  2.1604
30676SOL    HW294922   0.801   3.117   1.466 -1.5506  0.0243 -0.6875
30677SOL     OW94923   6.309   8.953   0.932  0.2516  0.2087  0.5076
30677SOL    HW194924   6.221   8.977   0.960 -0.5079 -1.5669 -0.2105
30677SOL    HW294925   6.362   8.959   1.012 -0.6418  0.6454  1.0904
30678SOL     OW94926   8.928   6.967   7.904 -0.0687  0.0141  0.2337
30678SOL    HW194927   8.877   7.047   7.887  0.3252 -0.2111 -2.3659
30678SOL    HW294928   9.018   6.997   7.911 -0.0708 -0.0760  0.7430
30679SOL     OW94929   2.969   5.275   2.336  0.1850 -0.5696  0.4227
30679SOL    HW194930   2.881   5.302   2.361 -0.7231 -1.8718 -1.2174
30679SOL    HW294931   3.020   5.356   2.339 -0.9409  0.1447  1.7677
30680SOL     OW94932  10.298   3.221   2.367  0.4326 -0.0746  0.1756
30680SOL    HW194933  10.322   3.138   2.325  0.4521  0.3149 -0.6179
30680SOL    HW294934  10.215   3.245   2.326 -0.7661 -0.8258  2.0679
30681SOL     OW94935   4.574   3.950   5.500 -0.2614 -0.2356 -0.0516
30681SOL    HW194936   4.648   3.940   5.440 -2.3602 -0.3039 -2.8679
30681SOL    HW294937   4.577   4.041   5.528  0.1070  0.1384 -1.2713
30682SOL     OW94938   9.039   3.311   9.627 -0.0648 -0.2064 -0.2266
30682SOL    HW194939   8.991   3.347   9.553 -0.3553  1.3280  0.6495
30682SOL    HW294940   8.971   3.290   9.691  0.2897  0.2106  0.2970
30683SOL     OW94941   2.817   2.546   9.240  0.0268 -0.8662  0.5456
30683SOL    HW194942   2.804   2.460   9.201  1.5576 -1.5781  1.5144
30683SOL    HW294943   2.909   2.566   9.223 -1.0578  2.3783 -3.0856
30684SOL     OW94944   4.087   7.885   8.410  0.2240 -0.0959 -0.4388
30684SOL    HW194945   4.158   7.948   8.416 -1.1428  1.3699  2.4059
30684SOL    HW294946   4.022   7.927   8.353  0.1311  0.2358 -0.0960
30685SOL     OW94947   0.509   7.445  10.730  0.3398  0.1331 -0.5309
30685SOL    HW194948   0.552   7.523  10.764  0.5743  0.0311 -0.5827
30685SOL    HW294949   0.561   7.422  10.653  1.3662 -1.0892  0.4819
30686SOL     OW94950   8.910   7.161   9.040 -0.5163 -0.3286  0.1839
30686SOL    HW194951   8.820   7.192   9.023 -1.1161 -1.5689  0.9638
30686SOL    HW294952   8.898   7.075   9.080  0.9662  0.2645  2.0393
30687SOL     OW94953   1.749   3.741   3.032 -0.3080 -0.5278 -0.3255
30687SOL    HW194954   1.669   3.777   2.995 -0.2406 -0.4774 -0.4210
30687SOL    HW294955   1.791   3.815   3.076 -1.1079 -0.8831  1.1108
30688SOL     OW94956   8.942   4.004   7.744 -0.0669 -0.0156  0.5261
30688SOL    HW194957   8.872   4.059   7.778 -1.6645 -1.7350  0.1337
30688SOL    HW294958   8.957   4.037   7.655  0.6649  1.2591  1.0866
30689SOL     OW94959   2.617  10.109   5.928  0.1134  0.6943 -0.4566
30689SOL    HW194960   2.698  10.132   5.883 -0.9430  0.7026 -2.4941
30689SOL    HW294961   2.638  10.114   6.021  2.4156  0.7231 -0.9327
30690SOL     OW94962   5.971   4.462   8.369 -0.2052  0.7995  0.5750
30690SOL    HW194963   5.878   4.452   8.392 -0.1221 -0.3171  0.5115
30690SOL    HW294964   5.975   4.546   8.323 -1.5587  0.0378 -1.0899
30691SOL     OW94965  10.393   9.306   0.995  0.3445  0.0947 -0.2782
30691SOL    HW194966  10.305   9.339   1.014 -0.3433 -1.9577  0.2712
30691SOL    HW294967  10.448   9.341   1.065 -0.0659  1.1659 -0.4711
30692SOL     OW94968   6.195   3.780   2.218 -0.3553 -0.0522 -0.1301
30692SOL    HW194969   6.290   3.771   2.216 -0.2094  1.3339 -0.3487
30692SOL    HW294970   6.174   3.840   2.146 -1.3045  0.2644  0.3854
30693SOL     OW94971   5.189   1.315   1.041 -0.6814 -0.6014  0.1444
30693SOL    HW194972   5.266   1.266   1.068 -0.8038 -1.2675 -0.6716
30693SOL    HW294973   5.115   1.259   1.065 -0.7746 -1.5067 -2.0590
30694SOL     OW94974   8.946   2.817   7.497 -0.1582 -0.1275 -0.3537
30694SOL    HW194975   9.004   2.875   7.546 -0.9521  1.4394 -1.2158
30694SOL    HW294976   8.984   2.730   7.509  1.4447  0.6428  0.4221
30695SOL     OW94977   1.908   7.319   0.201 -1.0146  0.0100  0.4151
30695SOL    HW194978   1.873   7.381   0.137 -0.4928 -0.3255 -0.2068
30695SOL    HW294979   1.982   7.366   0.241 -0.3709 -0.3550 -0.3400
30696SOL     OW94980  10.660   3.192   3.273  0.1179  0.6740 -0.3831
30696SOL    HW194981  10.575   3.150   3.289 -0.1676  1.3494 -0.1098
30696SOL    HW294982  10.682   3.165   3.184  0.9847 -1.8312  0.4941
30697SOL     OW94983   7.152   9.900   7.451 -0.2020 -0.1609 -0.1879
30697SOL    HW194984   7.180   9.988   7.475  2.2385 -0.6160 -1.1235
30697SOL    HW294985   7.158   9.898   7.355 -1.7015 -0.9095 -0.2986
30698SOL     OW94986   7.437   9.258   5.138  0.0957 -0.5351 -0.4526
30698SOL    HW194987   7.368   9.320   5.116  0.5008  0.0433 -0.1165
30698SOL    HW294988   7.402   9.172   5.113 -1.0205 -0.3313  0.3744
30699SOL     OW94989   6.203   5.810   0.240  0.1621  0.4109  0.4551
30699SOL    HW194990   6.109   5.816   0.222  0.2395 -0.3939 -0.3133
30699SOL    HW294991   6.231   5.731   0.194  1.3406  0.9713  0.1698
30700SOL     OW94992  10.034   6.974   7.208  0.0887 -0.1272 -0.3594
30700SOL    HW194993   9.989   6.897   7.242 -0.1464 -0.2327 -0.8967
30700SOL    HW294994  10.099   6.996   7.275 -1.7884  0.9883  1.1917
30701SOL     OW94995   8.024   2.011   6.387 -0.5642 -0.2418 -0.2276
30701SOL    HW194996   7.943   2.014   6.438  0.1096  1.9174  0.8492
30701SOL    HW294997   8.052   2.102   6.382  0.5643 -0.6381 -2.6585
30702SOL     OW94998   1.177   7.433   8.041 -0.0414  0.2198  0.1160
30702SOL    HW194999   1.196   7.444   7.947 -0.6145 -1.8720 -0.2984
30702SOL    HW295000   1.090   7.472   8.052 -0.4614 -0.5349 -0.4716
30703SOL     OW95001   7.412   1.565   8.922 -0.7433 -0.1671 -0.0004
30703SOL    HW195002   7.424   1.612   9.004 -2.8940  0.0975  0.2225
30703SOL    HW295003   7.408   1.634   8.855 -0.0536 -0.3106 -0.1960
30704SOL     OW95004   0.858   8.335   4.696 -0.1304 -0.1407  0.2358
30704SOL    HW195005   0.948   8.366   4.687  0.1497 -0.1739  2.3946
30704SOL    HW295006   0.806   8.414   4.709  0.0348 -0.2744  1.8944
30705SOL     OW95007   6.249   3.967   5.037  0.3573  0.2180  0.0565
30705SOL    HW195008   6.194   4.019   5.096  0.7419  3.5367 -2.2464
30705SOL    HW295009   6.196   3.956   4.958  0.7670 -1.9615  0.0347
30706SOL     OW95010   2.563   2.326   9.097 -0.4659  0.2492 -0.2505
30706SOL    HW195011   2.564   2.293   9.186 -0.6403  0.8211 -0.0339
30706SOL    HW295012   2.544   2.420   9.106  3.6632  1.3152 -0.5547
30707SOL     OW95013   3.998   9.373   6.901  0.4388  0.0912  0.0028
30707SOL    HW195014   3.930   9.380   6.968  1.3193 -0.9192  1.0503
30707SOL    HW295015   3.971   9.298   6.848 -0.6092  1.3026 -1.2244
30708SOL     OW95016   1.709   7.186   6.669 -0.1644  0.0925  0.5424
30708SOL    HW195017   1.632   7.216   6.717  1.4087  0.9428  2.6930
30708SOL    HW295018   1.766   7.263   6.666  0.1009 -0.1232 -2.1991
30709SOL     OW95019   4.233   7.584   1.521 -0.3292 -0.1239  0.2656
30709SOL    HW195020   4.260   7.563   1.610 -0.8824 -0.6226  0.3224
30709SOL    HW295021   4.138   7.570   1.520 -0.2740 -0.5609 -0.5098
30710SOL     OW95022   2.436   2.314   3.385  0.7541  0.3905  0.1662
30710SOL    HW195023   2.404   2.276   3.467 -0.2728 -0.2774 -0.5213
30710SOL    HW295024   2.527   2.337   3.404  0.2563  1.1802  1.7914
30711SOL     OW95025   0.210   5.878   9.199  0.1712  0.1308  0.0996
30711SOL    HW195026   0.256   5.826   9.132 -1.0297  1.4805 -1.9013
30711SOL    HW295027   0.139   5.920   9.150  0.5620  2.9546  1.7905
30712SOL     OW95028   4.038   4.710   9.837 -0.4318  0.1656 -0.1198
30712SOL    HW195029   3.949   4.721   9.871 -0.4916 -0.3757 -0.1016
30712SOL    HW295030   4.027   4.699   9.743 -0.4961 -1.2023  0.0309
30713SOL     OW95031   5.780   9.061   6.854  0.3802 -0.0506  0.6538
30713SOL    HW195032   5.708   9.038   6.913  0.5786  2.3314  1.9191
30713SOL    HW295033   5.740   9.066   6.768 -0.4730 -0.9796  0.9779
30714SOL     OW95034   1.822   1.866   3.809  0.1427 -0.2308 -0.1897
30714SOL    HW195035   1.759   1.906   3.749  1.6431 -0.0802 -1.7271
30714SOL    HW295036   1.770   1.805   3.861 -1.1806 -0.5165 -1.7861
30715SOL     OW95037   8.594   2.779   9.978 -0.0071  0.2117 -0.4100
30715SOL    HW195038   8.598   2.754   9.885 -0.6768 -0.7594 -0.2033
30715SOL    HW295039   8.642   2.710  10.023 -0.7058  0.0210  0.0641
30716SOL     OW95040   8.488   8.049   3.679 -0.0065  0.6846  0.4985
30716SOL    HW195041   8.464   8.082   3.592  1.7143  1.9645  0.4583
30716SOL    HW295042   8.447   8.111   3.740 -2.4927 -1.0431  0.7620
30717SOL     OW95043   4.112   2.403   0.706 -0.2823  0.4009 -0.2168
30717SOL    HW195044   4.141   2.397   0.615  1.6896 -0.3902  0.3999
30717SOL    HW295045   4.141   2.489   0.735  3.6877 -1.1053  0.9849
30718SOL     OW95046   1.224   1.871  10.640 -0.0329 -0.1345  0.4889
30718SOL    HW195047   1.135   1.892  10.610  0.1916  1.1474  0.6416
30718SOL    HW295048   1.241   1.935  10.709  1.5016  0.5671 -0.4794
30719SOL     OW95049   9.513   3.634   5.799 -0.1706  0.0586  0.0841
30719SOL    HW195050   9.606   3.618   5.787 -0.4888 -2.1228  0.1263
30719SOL    HW295051   9.474   3.617   5.713 -0.5860  0.4046  0.2005
30720SOL     OW95052   0.413   9.895   1.437  0.2363  0.3144 -0.0863
30720SOL    HW195053   0.337   9.909   1.380  0.8601  0.1004 -0.9860
30720SOL    HW295054   0.487   9.929   1.387  0.7471  0.4669  0.7607
30721SOL     OW95055   3.374   0.508   3.671  0.0971 -0.1687  0.0754
30721SOL    HW195056   3.442   0.499   3.739 -0.0452 -3.0507 -0.0396
30721SOL    HW295057   3.421   0.544   3.596  1.3269 -1.1706  0.3151
30722SOL     OW95058  10.510   2.820   6.831 -0.5715 -0.0533 -0.0036
30722SOL    HW195059  10.567   2.755   6.873  0.1126  0.7332  0.3322
30722SOL    HW295060  10.568   2.894   6.813 -1.3827  0.5592 -0.1551
30723SOL     OW95061   0.405   6.131   5.342 -0.1125  0.8369  0.2064
30723SOL    HW195062   0.476   6.188   5.371  0.4419  0.7843 -0.9715
30723SOL    HW295063   0.329   6.158   5.393  0.9294  0.3516  2.0917
30724SOL     OW95064   0.901   3.034   1.333 -0.2156  0.2058  0.0748
30724SOL    HW195065   0.869   3.037   1.243 -0.4585  0.8168  0.1726
30724SOL    HW295066   0.997   3.030   1.324 -0.1577  1.6287 -0.2201
30725SOL     OW95067   3.802   6.927   6.826 -0.0773 -0.1436 -0.1054
30725SOL    HW195068   3.715   6.892   6.843  0.1370 -0.6568 -0.0736
30725SOL    HW295069   3.827   6.971   6.907  0.1487 -0.9389  0.2538
30726SOL     OW95070   9.308   8.600   9.398 -0.1726 -0.7617 -0.0867
30726SOL    HW195071   9.345   8.512   9.404 -0.6641 -0.9089  1.1277
30726SOL    HW295072   9.380   8.655   9.366  0.2037 -1.5599 -0.6274
30727SOL     OW95073   4.501   0.214   8.184  0.6597  0.2235 -0.1455
30727SOL    HW195074   4.590   0.186   8.202  0.2858  0.3446  2.1408
30727SOL    HW295075   4.448   0.134   8.189  0.4553  0.3582 -0.1261
30728SOL     OW95076   1.537   8.752  10.368 -0.6015 -0.2198 -0.4058
30728SOL    HW195077   1.506   8.788  10.451  1.4390  0.3508  0.1729
30728SOL    HW295078   1.628   8.726  10.386 -0.0581  0.0645 -2.4850
30729SOL     OW95079   6.572   4.714   0.834 -0.0312  0.6084 -0.0319
30729SOL    HW195080   6.509   4.664   0.885  0.3881 -0.4261 -0.4995
30729SOL    HW295081   6.537   4.715   0.745 -0.5787  2.0991  0.1684
30730SOL     OW95082   0.008   0.286   6.436  0.0160  0.3595  1.1951
30730SOL    HW195083  -0.020   0.195   6.446 -1.1857  0.7114  1.1995
30730SOL    HW295084  -0.024   0.311   6.349  0.8493  0.6095  0.9532
30731SOL     OW95085   8.324   1.333   3.988  0.6734 -0.6001 -0.5450
30731SOL    HW195086   8.391   1.382   3.940  0.0874  1.0725  0.2832
30731SOL    HW295087   8.242   1.376   3.964  0.3362  0.1272  1.6936
30732SOL     OW95088   8.085   2.380   4.478 -0.1198 -0.2897 -0.6170
30732SOL    HW195089   8.107   2.297   4.522 -2.4664 -0.2145  0.8476
30732SOL    HW295090   8.134   2.446   4.527  0.5055 -0.6209 -0.7756
30733SOL     OW95091   5.202   3.508   5.614  0.5434  0.3808 -0.2870
30733SOL    HW195092   5.232   3.599   5.622 -0.3077  0.7657 -1.1351
30733SOL    HW295093   5.189   3.496   5.519 -3.2310  0.7372  0.0172
30734SOL     OW95094   0.257   9.633   9.916 -0.6026  0.3348  0.1532
30734SOL    HW195095   0.258   9.545   9.879  1.3567 -0.0199  0.9106
30734SOL    HW295096   0.269   9.620  10.010 -1.7615  1.3736  0.4748
30735SOL     OW95097   2.967   2.894   1.714 -0.2636  0.2565  0.5101
30735SOL    HW195098   3.041   2.909   1.655  0.0673 -0.0148  0.8535
30735SOL    HW295099   2.890   2.915   1.661  0.0529  0.4462  0.1193
30736SOL     OW95100   1.431   4.048   6.683 -0.3312  0.3277 -0.0520
30736SOL    HW195101   1.516   4.031   6.641 -0.1723  1.4803 -0.2417
30736SOL    HW295102   1.388   4.111   6.624 -0.0510  2.0895  1.5189
30737SOL     OW95103   1.115   6.676   5.777  0.5572 -0.2902 -0.2517
30737SOL    HW195104   1.049   6.667   5.845 -0.8061 -0.0909 -1.4892
30737SOL    HW295105   1.169   6.597   5.785  0.1368 -0.4834  0.7441
30738SOL     OW95106   5.628   6.407   8.622 -0.1309 -0.3590  0.0546
30738SOL    HW195107   5.548   6.415   8.571 -1.0636  0.4740  1.5466
30738SOL    HW295108   5.608   6.341   8.688  0.2149  0.1853  0.7330
30739SOL     OW95109   4.970   5.207   5.188  0.2641 -0.4995 -0.3159
30739SOL    HW195110   4.958   5.225   5.095 -2.3591 -0.3711 -0.0270
30739SOL    HW295111   4.923   5.125   5.203 -1.5430  0.7436  1.2998
30740SOL     OW95112  10.234   6.106   6.307 -0.1310 -0.3451 -0.2927
30740SOL    HW195113  10.293   6.112   6.382 -1.0494  0.4813  0.3813
30740SOL    HW295114  10.148   6.089   6.345 -0.8804  1.5412 -1.0204
30741SOL     OW95115   3.654   3.629   5.005  0.4925  0.4328 -0.4200
30741SOL    HW195116   3.605   3.652   5.084  0.6226  0.2172 -0.2765
30741SOL    HW295117   3.594   3.573   4.956  0.3437  0.7138 -0.5600
30742SOL     OW95118   3.570   6.803  10.176 -0.1574 -0.2598 -0.0647
30742SOL    HW195119   3.653   6.844  10.149  0.3277 -1.1420  0.0494
30742SOL    HW295120   3.597   6.722  10.220 -1.1391 -1.3064 -1.3312
30743SOL     OW95121   4.574   1.978   5.772  0.3185  0.0012  0.0897
30743SOL    HW195122   4.560   2.052   5.713 -0.6324  0.7542  1.2251
30743SOL    HW295123   4.487   1.943   5.789  0.6646 -0.7659  0.3639
30744SOL     OW95124   3.988   5.412   1.614  0.6768 -0.2586  0.4186
30744SOL    HW195125   3.961   5.374   1.530  1.6621 -2.5464  1.0531
30744SOL    HW295126   3.933   5.489   1.624  0.0865 -0.2670 -2.0223
30745SOL     OW95127   9.410   5.726   4.558  0.3275  0.1027 -0.4376
30745SOL    HW195128   9.332   5.782   4.564  0.7074  0.6748 -0.7831
30745SOL    HW295129   9.407   5.690   4.469 -0.5289 -1.3546  0.1410
30746SOL     OW95130   6.566   7.265   3.768 -0.5026  0.7646  0.1284
30746SOL    HW195131   6.565   7.322   3.692  5.6120  1.1109 -0.1604
30746SOL    HW295132   6.595   7.321   3.840  2.1983 -1.0794  0.6213
30747SOL     OW95133   0.331   7.026   5.540  0.2172  0.0085 -0.1585
30747SOL    HW195134   0.264   6.970   5.503  0.1328 -0.6807  1.0016
30747SOL    HW295135   0.407   6.968   5.553  0.2552  0.2302  0.6923
30748SOL     OW95136   4.832   3.627   2.037 -0.5763 -0.2720  0.1936
30748SOL    HW195137   4.867   3.616   1.949 -0.3271 -0.6162  0.3335
30748SOL    HW295138   4.813   3.538   2.067  0.2924 -0.2456  0.8671
30749SOL     OW95139   3.390   3.654   2.625  0.0469 -0.0808  0.0442
30749SOL    HW195140   3.406   3.616   2.539  1.1709  1.6685 -0.5879
30749SOL    HW295141   3.308   3.702   2.616 -0.5493 -1.0244  0.3718
30750SOL     OW95142   3.653   0.796   2.196  0.5693  0.0005 -0.0002
30750SOL    HW195143   3.690   0.834   2.275  0.0166  0.1033  0.2132
30750SOL    HW295144   3.576   0.850   2.177  1.1680  0.5031 -1.0891
30751SOL     OW95145   4.858   9.464  10.319 -0.6453  0.2414  0.3013
30751SOL    HW195146   4.864   9.401  10.247  0.1143  1.5420 -0.8179
30751SOL    HW295147   4.902   9.420  10.392 -0.8913 -0.8634 -0.1949
30752SOL     OW95148   3.592   5.626   0.160 -0.5983 -0.0592 -0.7584
30752SOL    HW195149   3.539   5.547   0.172 -0.8941  0.0018 -1.5817
30752SOL    HW295150   3.670   5.596   0.114 -0.2108 -0.0383 -0.1320
30753SOL     OW95151   2.478   0.683   0.938 -0.0178 -0.2950 -0.0385
30753SOL    HW195152   2.547   0.642   0.992 -0.7316 -2.3425 -0.5690
30753SOL    HW295153   2.419   0.723   1.002  0.9988  0.4258  0.4867
30754SOL     OW95154   6.044  10.527   1.299  0.6399  0.2737 -0.7639
30754SOL    HW195155   6.032  10.528   1.394 -0.5182  0.7510 -0.8947
30754SOL    HW295156   6.081  10.441   1.281 -1.1541 -0.6961 -0.0843
30755SOL     OW95157   3.373   0.349   4.875 -0.8249  0.0891 -0.2458
30755SOL    HW195158   3.303   0.303   4.922  0.8359 -1.0660  1.2429
30755SOL    HW295159   3.402   0.287   4.808 -0.9155  0.3899 -0.5686
30756SOL     OW95160   5.638   3.966   0.358  0.3072 -0.3352 -0.6250
30756SOL    HW195161   5.555   3.999   0.322 -0.3449 -0.6772  0.5237
30756SOL    HW295162   5.617   3.942   0.448  1.4858 -1.1193 -0.5421
30757SOL     OW95163   3.601   4.649   1.081 -0.2183  0.4541  0.4246
30757SOL    HW195164   3.666   4.694   1.026 -1.3325  1.3001 -0.2449
30757SOL    HW295165   3.636   4.561   1.091  0.3582  0.4619 -1.1198
30758SOL     OW95166   4.252   8.588   2.556 -0.4031 -0.2937  0.5827
30758SOL    HW195167   4.161   8.604   2.581 -0.3576 -0.4334  0.8323
30758SOL    HW295168   4.251   8.592   2.460 -0.6986 -0.4379  0.5791
30759SOL     OW95169   8.421   8.644   3.578 -0.2063  0.1647  0.1953
30759SOL    HW195170   8.450   8.679   3.494 -0.7901  0.9560  0.3144
30759SOL    HW295171   8.478   8.686   3.643  1.0644 -1.3554  0.1388
30760SOL     OW95172   5.787   8.521   8.392 -0.3247  0.8756 -0.2767
30760SOL    HW195173   5.707   8.490   8.349  0.2340 -0.4151 -0.4056
30760SOL    HW295174   5.839   8.443   8.407  1.2374  1.7586 -0.8313
30761SOL     OW95175   9.454   7.288   1.732 -0.4388  0.5891  0.2672
30761SOL    HW195176   9.471   7.232   1.807  1.3908 -0.8114 -1.1052
30761SOL    HW295177   9.507   7.367   1.748  0.7243 -0.1207  0.0240
30762SOL     OW95178   7.197   0.613   8.438 -0.7121 -0.3141  0.0142
30762SOL    HW195179   7.292   0.598   8.435 -0.3887  1.3640  0.8580
30762SOL    HW295180   7.181   0.649   8.525 -1.9906  0.3117 -0.4631
30763SOL     OW95181  10.619  10.493   4.021 -0.4035 -0.5941  0.4203
30763SOL    HW195182  10.678  10.515   4.093  0.0667 -0.8361  0.1190
30763SOL    HW295183  10.545  10.552   4.031 -0.5958 -0.9901  1.4225
30764SOL     OW95184   8.116   2.310   6.654 -0.2240 -0.1903  0.8654
30764SOL    HW195185   8.170   2.387   6.670  0.0473 -0.2939  0.4738
30764SOL    HW295186   8.048   2.313   6.722  0.1998  0.0082  1.2830
30765SOL     OW95187   1.943   5.511  10.169 -0.3385 -0.3936 -0.4600
30765SOL    HW195188   2.009   5.559  10.119 -1.2779  1.8282  0.2883
30765SOL    HW295189   1.895   5.461  10.103  0.1379  0.3751 -1.4284
30766SOL     OW95190   2.256   6.848  10.398  0.0112  0.0683 -0.1001
30766SOL    HW195191   2.348   6.874  10.390  0.2820 -0.4154  1.2486
30766SOL    HW295192   2.208   6.930  10.388  0.7001  0.6490  1.1555
30767SOL     OW95193   0.415   8.363   2.990 -0.1907 -0.5995  0.3798
30767SOL    HW195194   0.389   8.341   2.900 -3.6871 -1.1804  1.4173
30767SOL    HW295195   0.467   8.444   2.980  1.1577 -1.6586 -2.2490
30768SOL     OW95196   6.130   9.508   9.973 -0.3965 -0.4340  0.1579
30768SOL    HW195197   6.141   9.473  10.062 -1.4891 -1.2258 -0.0033
30768SOL    HW295198   6.052   9.563   9.978 -1.0178 -1.2330 -0.5193
30769SOL     OW95199   8.584   1.200   8.266  0.1366  0.2690  0.1257
30769SOL    HW195200   8.580   1.218   8.360  0.3931  0.7416  0.0481
30769SOL    HW295201   8.506   1.242   8.231 -0.2934 -0.4368  0.2030
30770SOL     OW95202   2.479   0.524   6.124 -0.1442  0.2189 -0.3441
30770SOL    HW195203   2.447   0.471   6.198  0.0530 -0.2247 -0.5730
30770SOL    HW295204   2.574   0.523   6.134 -0.2065  2.2452  0.8272
30771SOL     OW95205   1.580   9.019   7.843  0.0483 -0.1503 -0.3371
30771SOL    HW195206   1.620   8.976   7.767  1.5416  0.0870  0.2910
30771SOL    HW295207   1.486   9.001   7.833  0.2378 -0.3965 -2.0596
30772SOL     OW95208   8.305   9.675   6.494 -0.5981  0.4459  0.7578
30772SOL    HW195209   8.278   9.759   6.457  0.7286  1.7880  2.6490
30772SOL    HW295210   8.349   9.698   6.576  0.1308 -2.0835  1.1572
30773SOL     OW95211   8.024   1.215   0.485 -0.4058 -0.5746 -0.1210
30773SOL    HW195212   8.030   1.150   0.554  0.3930 -2.0368 -1.5003
30773SOL    HW295213   8.105   1.204   0.434  0.1341  2.0184 -0.0005
30774SOL     OW95214   8.010   7.213   8.803 -0.2573  0.3930 -0.2782
30774SOL    HW195215   7.994   7.306   8.787  2.0984  0.5866 -2.1958
30774SOL    HW295216   7.932   7.169   8.769 -1.1054  1.6101  0.0219
30775SOL     OW95217   0.886   9.797   1.617  0.0382 -0.2410 -0.8233
30775SOL    HW195218   0.835   9.879   1.617  2.1143  1.1300 -0.2338
30775SOL    HW295219   0.913   9.786   1.525 -1.6474 -1.2591 -1.2447
30776SOL     OW95220   5.289   1.556   0.640 -0.0107 -0.5300 -0.1061
30776SOL    HW195221   5.336   1.485   0.596  1.2550 -0.9557  1.8078
30776SOL    HW295222   5.216   1.512   0.683  0.9900 -0.7885  1.3950
30777SOL     OW95223   2.320   0.461   7.626 -0.2485 -0.1374  0.4137
30777SOL    HW195224   2.287   0.494   7.542  0.3633  0.9072  0.5578
30777SOL    HW295225   2.407   0.427   7.604 -0.1424  0.0157  0.6017
30778SOL     OW95226   3.007   0.426   9.409 -0.4337  0.1693 -0.2786
30778SOL    HW195227   3.070   0.380   9.464 -0.9945 -1.0758 -0.6413
30778SOL    HW295228   2.927   0.373   9.414 -1.7182  2.0701  0.7495
30779SOL     OW95229   3.676   6.714  10.653 -0.0877  0.7714  0.4719
30779SOL    HW195230   3.642   6.798  10.624 -0.7558  0.5117  0.4939
30779SOL    HW295231   3.619   6.688  10.725 -2.3394 -1.4677 -1.9232
30780SOL     OW95232   8.489   1.487   3.505 -0.1301  0.3475 -0.0304
30780SOL    HW195233   8.491   1.581   3.523 -0.3887  0.3857 -0.1987
30780SOL    HW295234   8.567   1.453   3.549  0.8979  0.8854 -1.3564
30781SOL     OW95235   8.320   3.335   6.313 -0.8119 -0.2325  0.0681
30781SOL    HW195236   8.281   3.359   6.397 -0.5793  4.2114 -0.8555
30781SOL    HW295237   8.250   3.288   6.267 -2.1554  0.2894  1.4905
30782SOL     OW95238   6.391   3.001   0.779 -0.1160 -0.3243  0.4470
30782SOL    HW195239   6.383   3.018   0.873 -1.0913  1.5467  0.0693
30782SOL    HW295240   6.465   3.054   0.752  0.5980 -1.3975  0.2578
30783SOL     OW95241   9.037   8.233   2.596  0.2083 -0.4650 -0.5094
30783SOL    HW195242   9.048   8.179   2.674  0.7234 -1.4812 -1.2535
30783SOL    HW295243   8.986   8.309   2.625  0.1132 -0.9881  0.7264
30784SOL     OW95244   3.972   8.879  10.549  0.4273 -0.3090  0.3129
30784SOL    HW195245   4.015   8.963  10.564  0.2678 -0.4702  1.8610
30784SOL    HW295246   3.882   8.892  10.580  0.0107 -0.6600 -0.7055
30785SOL     OW95247   3.445   2.769   1.633 -0.6730 -0.2824  0.1316
30785SOL    HW195248   3.506   2.741   1.702 -1.1944  0.7340  1.0563
30785SOL    HW295249   3.362   2.729   1.658 -0.5734 -1.0162 -0.6833
30786SOL     OW95250  10.598   3.917   9.887  0.1014  0.0066  0.5247
30786SOL    HW195251  10.504   3.927   9.868  0.0013 -0.0588  0.9801
30786SOL    HW295252  10.601   3.852   9.958  0.5487 -0.8299 -0.2315
30787SOL     OW95253   9.066   2.436   6.022 -0.2997  0.6396  0.1622
30787SOL    HW195254   9.014   2.401   5.949  0.5220 -0.0413 -0.1190
30787SOL    HW295255   9.106   2.358   6.061  0.0367  1.0997  0.7426
30788SOL     OW95256   0.884   9.067   9.850  0.2878  0.0512  0.3528
30788SOL    HW195257   0.832   9.032   9.922 -0.2170  0.3846  0.1586
30788SOL    HW295258   0.862   9.160   9.848  1.2193  0.2841  0.5348
30789SOL     OW95259   8.233   4.363   1.965 -0.4597  0.4340  0.4305
30789SOL    HW195260   8.202   4.278   1.934 -0.5060  0.8565 -0.7358
30789SOL    HW295261   8.155   4.419   1.963 -0.1478  0.8609 -0.1596
30790SOL     OW95262   9.321   6.521  10.112 -0.0507  0.3621 -0.6414
30790SOL    HW195263   9.244   6.526  10.055 -1.8047 -1.5967  1.3530
30790SOL    HW295264   9.331   6.609  10.147 -1.7454  0.5413 -0.5309
30791SOL     OW95265   2.677  10.456   5.600  0.3908 -0.2013 -0.0423
30791SOL    HW195266   2.718  10.417   5.677 -1.7964 -0.8737  0.8484
30791SOL    HW295267   2.709  10.546   5.599 -1.3980  0.6518  3.2224
30792SOL     OW95268   9.211   7.939   2.379 -0.0980 -0.0661 -0.0336
30792SOL    HW195269   9.203   7.846   2.402  0.1174 -0.1164 -0.1591
30792SOL    HW295270   9.122   7.974   2.389 -0.0872 -0.1728  0.4983
30793SOL     OW95271   0.958  10.654   2.901 -0.1118 -0.5668  0.1380
30793SOL    HW195272   0.945  10.680   2.993 -0.9605 -1.1804  0.2044
30793SOL    HW295273   0.880  10.604   2.879  0.9330 -2.0544 -0.3383
30794SOL     OW95274   1.789   7.385   6.279 -0.3278  0.6322  0.0186
30794SOL    HW195275   1.830   7.396   6.365 -1.3397 -1.3234  0.8064
30794SOL    HW295276   1.845   7.322   6.233 -1.9202 -1.5022  0.8375
30795SOL     OW95277   6.259   1.851   3.994 -0.2702 -0.1418  0.2222
30795SOL    HW195278   6.240   1.944   3.981 -1.7460 -0.2350  1.3990
30795SOL    HW295279   6.353   1.847   4.008  0.0408  0.9755 -1.2668
30796SOL     OW95280   5.960   4.714   5.697 -0.9995  0.3852 -0.2631
30796SOL    HW195281   6.053   4.712   5.675 -0.5339  2.1365  1.3087
30796SOL    HW295282   5.948   4.794   5.747 -3.5511  0.6437 -1.1120
30797SOL     OW95283   4.982   2.298   2.887 -0.1143  0.4659  0.1308
30797SOL    HW195284   5.017   2.314   2.799  0.1971 -0.0543  0.1581
30797SOL    HW295285   4.888   2.287   2.873 -0.4020  2.5057  0.1342
30798SOL     OW95286   2.676   9.902   4.348  0.2458  0.9140  0.1846
30798SOL    HW195287   2.690   9.820   4.301 -0.1412  0.7257  0.3955
30798SOL    HW295288   2.605   9.883   4.409 -0.5141  1.6704 -0.4378
30799SOL     OW95289   9.197   2.385   6.991 -0.2633  0.3036 -0.2869
30799SOL    HW195290   9.176   2.298   6.957 -0.4554  0.4447 -0.5315
30799SOL    HW295291   9.208   2.439   6.912  1.1569  0.2104 -0.1885
30800SOL     OW95292   0.216   0.472   1.568 -0.0393  0.0118  0.4408
30800SOL    HW195293   0.255   0.390   1.536  1.5577  1.4959 -1.7561
30800SOL    HW295294   0.122   0.454   1.571  0.1124 -1.5118 -1.4498
30801SOL     OW95295   4.966   9.477   2.600 -0.3789 -0.0450 -0.0256
30801SOL    HW195296   4.896   9.489   2.665 -1.1936 -4.3110  0.1477
30801SOL    HW295297   4.920   9.465   2.517  0.4522  1.2757 -0.7156
30802SOL     OW95298   5.157   1.301   9.618  0.5326  0.3821  0.2702
30802SOL    HW195299   5.165   1.212   9.582  1.1942  0.8899 -0.8953
30802SOL    HW295300   5.203   1.297   9.702 -0.6536 -0.7213  0.8994
30803SOL     OW95301   9.750   4.208   0.605 -0.4012  1.0313  0.3292
30803SOL    HW195302   9.840   4.238   0.615  0.2565 -0.8845  0.6206
30803SOL    HW295303   9.711   4.220   0.692  0.0960  0.3249  0.6614
30804SOL     OW95304   0.027   5.155   6.482 -0.1002 -0.0352 -0.2188
30804SOL    HW195305   0.051   5.131   6.392 -1.5217  3.1574 -1.6313
30804SOL    HW295306  -0.061   5.121   6.493  0.6607 -1.8351  0.6551
30805SOL     OW95307   0.530   1.444   7.304  0.3440  0.4515 -0.5918
30805SOL    HW195308   0.547   1.491   7.223 -0.6684  1.3199 -0.3101
30805SOL    HW295309   0.453   1.485   7.341  1.3708  0.7574  1.3485
30806SOL     OW95310   6.253  10.288   9.507  0.3541  0.5078  0.2068
30806SOL    HW195311   6.257  10.342   9.428  0.6692 -0.1126 -0.2104
30806SOL    HW295312   6.159  10.284   9.529  0.3701  1.5658  0.4942
30807SOL     OW95313   4.180   3.213   9.086 -0.0887 -0.6213  0.4504
30807SOL    HW195314   4.250   3.244   9.028  0.8386 -2.6491  0.3733
30807SOL    HW295315   4.099   3.236   9.040  0.5563  0.4440 -0.1985
30808SOL     OW95316   9.096   9.263   5.943 -0.0418  0.1478 -0.0004
30808SOL    HW195317   9.125   9.198   5.878  3.3529  2.0848 -0.6548
30808SOL    HW295318   9.016   9.226   5.979  1.2618 -4.0811 -0.8161
30809SOL     OW95319   8.573   6.551   9.352  0.3753  0.6461  0.6527
30809SOL    HW195320   8.543   6.573   9.440 -2.8122 -1.0718  0.1733
30809SOL    HW295321   8.591   6.635   9.311  0.7252  1.5560  2.5533
30810SOL     OW95322   7.341   0.393   3.675  0.8115  0.2937  0.3720
30810SOL    HW195323   7.386   0.470   3.642  1.5547 -0.8599 -1.4627
30810SOL    HW295324   7.406   0.323   3.670 -0.1597 -0.6900  0.9902
30811SOL     OW95325  10.546  10.646   5.045 -0.4910 -0.0026  0.1496
30811SOL    HW195326  10.638  10.646   5.072 -0.5947 -2.4063  0.6784
30811SOL    HW295327  10.498  10.637   5.127 -1.1609  0.2765 -0.2088
30812SOL     OW95328   6.556   7.192   2.322  0.0830  0.3998  0.4211
30812SOL    HW195329   6.592   7.156   2.241  0.6023 -0.6715  1.0993
30812SOL    HW295330   6.560   7.287   2.310  2.2015  0.3095  0.0537
30813SOL     OW95331   4.259   1.854   3.665 -0.3117  0.4791  0.0446
30813SOL    HW195332   4.331   1.863   3.603  0.5197 -1.0257  0.7300
30813SOL    HW295333   4.246   1.942   3.701  1.9205  0.5958  0.6893
30814SOL     OW95334   3.119   2.209   5.601 -0.2344  0.0806  0.3563
30814SOL    HW195335   3.201   2.247   5.630 -0.0645 -0.6440  0.8671
30814SOL    HW295336   3.144   2.141   5.538 -0.5059  0.5313 -0.2462
30815SOL     OW95337   0.184   8.477   6.184  0.5589 -0.4842 -0.3023
30815SOL    HW195338   0.092   8.451   6.174  0.2095 -0.6810  2.6126
30815SOL    HW295339   0.182   8.541   6.255  2.8368 -1.5534  0.7980
30816SOL     OW95340   0.318  10.003   7.704 -0.0301 -0.2116  0.0044
30816SOL    HW195341   0.355  10.017   7.791  1.0615  0.7386 -0.5932
30816SOL    HW295342   0.249  10.069   7.696  0.1361 -0.0385 -0.0004
30817SOL     OW95343   8.991   3.899   3.314  0.2365  0.4764  0.4486
30817SOL    HW195344   9.002   3.902   3.409  2.0703 -0.2405  0.3059
30817SOL    HW295345   8.967   3.988   3.290 -2.5182  0.2045  1.7660
30818SOL     OW95346  10.651   6.192   9.263  0.4895  0.4228  0.2967
30818SOL    HW195347  10.609   6.165   9.345 -0.4820  0.4423 -0.1806
30818SOL    HW295348  10.599   6.267   9.233  1.3417  0.9420  0.0808
30819SOL     OW95349   6.495   2.096   7.224  0.1599 -0.2145  0.0981
30819SOL    HW195350   6.569   2.152   7.248 -0.9723  0.7685  1.5056
30819SOL    HW295351   6.523   2.008   7.249  1.1826  0.0179 -0.1969
30820SOL     OW95352   6.064   0.278   9.766  0.2975 -0.0742  0.1487
30820SOL    HW195353   6.038   0.187   9.778  1.0423 -0.2931  0.1867
30820SOL    HW295354   6.158   0.274   9.747  0.1685  0.6225 -0.7272
30821SOL     OW95355   8.286   5.603   7.236  0.0429 -0.0578  0.9696
30821SOL    HW195356   8.365   5.581   7.187 -1.1784 -2.2778 -0.1222
30821SOL    HW295357   8.227   5.640   7.171 -0.9258 -1.3049  1.1219
30822SOL     OW95358   1.589   7.900   6.525  0.9828 -0.0240 -0.4226
30822SOL    HW195359   1.565   7.812   6.496 -1.2775  1.0781 -2.2837
30822SOL    HW295360   1.682   7.907   6.508  0.9330 -1.6173 -1.5203
30823SOL     OW95361   0.068   8.642   1.477 -0.1200 -0.6589 -0.2506
30823SOL    HW195362   0.044   8.611   1.390 -0.3496 -1.0627 -0.0498
30823SOL    HW295363  -0.016   8.655   1.522 -0.0045 -0.4824 -0.0797
30824SOL     OW95364   2.943   9.160   9.496 -0.1882  0.5435  0.1322
30824SOL    HW195365   2.920   9.155   9.403 -1.9375 -0.1661  0.5590
30824SOL    HW295366   2.974   9.073   9.518 -0.4001  0.5287  0.3721
30825SOL     OW95367   5.449   6.445   1.739 -0.3281 -0.0902 -0.0781
30825SOL    HW195368   5.401   6.450   1.821  1.9390  0.7624  1.2915
30825SOL    HW295369   5.432   6.528   1.696 -0.9006 -0.2212 -0.1071
30826SOL     OW95370   4.499   2.295   4.295  0.2779  0.2204 -0.4153
30826SOL    HW195371   4.588   2.275   4.266  1.2409  2.5801  0.6336
30826SOL    HW295372   4.461   2.343   4.221  1.0407  1.9870  0.2846
30827SOL     OW95373   2.282   2.011   9.090 -0.1476  0.3773  0.4641
30827SOL    HW195374   2.272   2.088   9.034  0.7665  0.7020  0.7396
30827SOL    HW295375   2.271   2.044   9.179  1.2504  0.3949  0.6538
30828SOL     OW95376   7.475   3.955   9.179 -0.3432  0.0219 -0.1019
30828SOL    HW195377   7.548   3.978   9.236  0.3995 -2.4609  0.0364
30828SOL    HW295378   7.483   4.014   9.104  2.3060 -0.7436 -0.4876
30829SOL     OW95379   5.945   6.276   2.888 -0.1375 -0.2349 -0.0394
30829SOL    HW195380   5.989   6.252   2.970 -0.2075  0.2034  0.1352
30829SOL    HW295381   5.854   6.292   2.914 -0.7370 -2.3952 -0.6225
30830SOL     OW95382   0.051   8.053   7.121 -0.3069  0.2312 -0.4699
30830SOL    HW195383   0.117   8.079   7.057 -0.6467  0.1332 -0.8702
30830SOL    HW295384   0.029   8.134   7.167  1.1432  0.0010  0.6841
30831SOL     OW95385   9.847   1.029   5.839 -0.4866 -0.4634 -0.3884
30831SOL    HW195386   9.769   0.975   5.822  0.1987 -1.9578  0.9124
30831SOL    HW295387   9.903   1.015   5.763 -1.4517  0.6133 -1.3283
30832SOL     OW95388   7.084   3.208   9.788  0.3008  0.5195 -0.4320
30832SOL    HW195389   7.164   3.176   9.745  0.9836  1.6862 -0.0589
30832SOL    HW295390   7.024   3.225   9.716  0.6615  0.3713 -0.7725
30833SOL     OW95391   0.267   3.753   3.742  0.1670 -0.0186 -0.4076
30833SOL    HW195392   0.304   3.665   3.728  0.1808  0.0853 -1.0419
30833SOL    HW295393   0.257   3.759   3.837  0.5460 -0.5543 -0.3250
30834SOL     OW95394   6.056   0.521   4.571 -0.4385  0.3891  0.1344
30834SOL    HW195395   6.035   0.526   4.664 -0.6076 -2.5079  0.3577
30834SOL    HW295396   6.059   0.427   4.553  2.5265  0.7908 -2.1323
30835SOL     OW95397   9.288   9.617   5.291 -0.6860 -0.1816  0.2994
30835SOL    HW195398   9.314   9.606   5.382  0.3080  1.8999  0.3125
30835SOL    HW295399   9.338   9.692   5.260 -1.6394 -0.3111 -1.7233
30836SOL     OW95400   8.874   7.269   0.388 -0.0413 -0.1208  0.0595
30836SOL    HW195401   8.943   7.224   0.437  0.5859  1.4203  0.6694
30836SOL    HW295402   8.844   7.338   0.447  0.6932  1.7678 -1.6806
30837SOL     OW95403   0.592  10.153   3.186 -0.0571 -0.4555 -0.1241
30837SOL    HW195404   0.588  10.064   3.151 -1.4342 -0.6396  0.4263
30837SOL    HW295405   0.562  10.144   3.277  1.6228  0.2986  0.5564
30838SOL     OW95406  10.468   6.480   7.048 -0.3082 -0.5268 -0.0713
30838SOL    HW195407  10.435   6.510   7.133  2.5048 -1.0447  1.3232
30838SOL    HW295408  10.459   6.385   7.052  2.7429 -0.8832  1.1404
30839SOL     OW95409   5.131   7.623   8.577 -0.1005  0.0542  0.6879
30839SOL    HW195410   5.177   7.674   8.509 -0.7031  0.9664  0.9426
30839SOL    HW295411   5.197   7.611   8.646 -0.2095  1.3441  1.0479
30840SOL     OW95412   9.441   2.021   5.017 -0.2913 -0.1492  0.1901
30840SOL    HW195413   9.494   2.099   4.998 -1.4986  0.4359 -0.8710
30840SOL    HW295414   9.506   1.953   5.036  0.7920  1.1443  1.3805
30841SOL     OW95415   2.193   9.657   0.622  0.2218  1.1314 -0.3682
30841SOL    HW195416   2.112   9.628   0.664  0.1885 -0.6069 -1.5451
30841SOL    HW295417   2.259   9.594   0.651  0.5433  0.8829 -1.5732
30842SOL     OW95418   1.165   3.757   3.245  0.1064  0.0877  0.2516
30842SOL    HW195419   1.158   3.674   3.292  1.1267 -0.1224  0.0702
30842SOL    HW295420   1.075   3.788   3.235 -0.5075 -2.0986 -1.6617
30843SOL     OW95421   5.350   1.397   2.283 -0.3178 -0.3860 -0.1882
30843SOL    HW195422   5.258   1.375   2.295 -0.2625 -0.2731  0.4911
30843SOL    HW295423   5.397   1.327   2.329 -0.0974  0.1231  0.3798
30844SOL     OW95424   5.651   0.238   8.908 -0.0863  0.0260 -0.5968
30844SOL    HW195425   5.595   0.178   8.957 -0.5550 -0.0971 -1.2783
30844SOL    HW295426   5.610   0.323   8.917  1.3881  0.5949  1.6623
30845SOL     OW95427   9.275   9.549   9.694  0.1017  0.2217 -0.0616
30845SOL    HW195428   9.213   9.482   9.722  1.1883 -0.4384  0.8371
30845SOL    HW295429   9.339   9.554   9.765  1.0438  0.9378 -0.9241
30846SOL     OW95430   9.544   9.143   7.059 -0.2249 -0.1227 -0.7541
30846SOL    HW195431   9.535   9.206   7.130  2.2653 -1.3606  0.7856
30846SOL    HW295432   9.638   9.140   7.040 -0.6581 -0.8126 -3.2323
30847SOL     OW95433  10.786   4.252   0.564 -0.3561 -0.4308 -0.3441
30847SOL    HW195434  10.779   4.158   0.552  0.8742 -0.8744  1.8473
30847SOL    HW295435  10.816   4.285   0.480 -2.7043 -1.6653 -1.7766
30848SOL     OW95436   3.207   0.177   2.391  0.7823  0.2752 -0.0238
30848SOL    HW195437   3.116   0.148   2.398  0.9839 -0.1382  0.9861
30848SOL    HW295438   3.226   0.217   2.476  1.7797 -0.3559  0.0678
30849SOL     OW95439   0.565   2.851   8.255 -0.5752 -0.0811 -0.5065
30849SOL    HW195440   0.653   2.888   8.254 -0.2939 -0.7423 -0.9700
30849SOL    HW295441   0.507   2.923   8.230 -0.0935  0.1713 -0.8902
30850SOL     OW95442   6.131   9.931   7.526 -0.2682  0.2869 -0.1008
30850SOL    HW195443   6.058   9.978   7.485 -1.6848 -1.8393 -0.1735
30850SOL    HW295444   6.194   9.920   7.455 -0.7371  0.4587 -0.5544
30851SOL     OW95445   0.326   5.634   8.324 -0.0556  0.6738 -0.1482
30851SOL    HW195446   0.273   5.555   8.322 -0.2708  0.8231 -0.7537
30851SOL    HW295447   0.262   5.706   8.325  0.0910  0.8897 -2.3404
30852SOL     OW95448   7.432   1.874   6.810  0.1091  0.1848 -0.1693
30852SOL    HW195449   7.417   1.968   6.802 -1.9951 -0.2238 -1.7473
30852SOL    HW295450   7.356   1.842   6.858  0.0479 -0.9114 -0.9776
30853SOL     OW95451   4.989   2.541   5.179 -0.2279 -0.5234 -0.6017
30853SOL    HW195452   5.034   2.461   5.206  0.1038 -0.1801 -0.1144
30853SOL    HW295453   4.897   2.516   5.175 -0.0441 -1.1515 -1.3035
30854SOL     OW95454   7.168   1.991   0.536 -0.2651 -0.2059 -0.1722
30854SOL    HW195455   7.150   1.927   0.467 -2.0219 -1.7078  1.5356
30854SOL    HW295456   7.171   1.939   0.617  0.5514  1.6075  1.0424
30855SOL     OW95457   4.382  10.257  10.418  0.9284  0.1924 -0.3843
30855SOL    HW195458   4.317  10.310  10.372  2.0703  0.0981 -2.2030
30855SOL    HW295459   4.336  10.225  10.496 -0.7419  1.2642 -0.8763
30856SOL     OW95460   0.896   6.294   9.918 -0.3694  0.0113 -0.3979
30856SOL    HW195461   0.971   6.239   9.897 -0.9783 -1.0669  0.1637
30856SOL    HW295462   0.897   6.301  10.014 -2.1769 -1.8210 -0.1739
30857SOL     OW95463   5.323   4.173   6.952  0.2285 -0.7987 -0.3345
30857SOL    HW195464   5.377   4.250   6.937  0.2517 -1.1756 -2.4193
30857SOL    HW295465   5.336   4.152   7.045  1.8831  0.4318 -0.2563
30858SOL     OW95466   8.929   3.187   6.944  0.2394  0.0395 -0.2520
30858SOL    HW195467   8.884   3.158   6.864  0.0759 -1.3391  0.3134
30858SOL    HW295468   8.995   3.249   6.912 -0.3689  0.1489 -1.3667
30859SOL     OW95469   6.781   9.858   9.616 -0.4964  0.1168  0.1667
30859SOL    HW195470   6.778   9.806   9.536  1.0458  0.6013 -0.2514
30859SOL    HW295471   6.752   9.798   9.685 -0.6263 -0.6920 -0.5771
30860SOL     OW95472   1.787   2.952   4.123  0.1249  0.1168 -0.0544
30860SOL    HW195473   1.810   2.897   4.199 -1.9314  0.0005  0.5592
30860SOL    HW295474   1.789   3.041   4.157 -2.1701 -0.0172  0.6183
30861SOL     OW95475   6.933   2.494   6.210  0.5368  0.2157 -0.4447
30861SOL    HW195476   6.933   2.408   6.253 -0.5811 -0.6941 -2.1600
30861SOL    HW295477   7.022   2.503   6.176  0.6810 -0.2359 -0.2052
30862SOL     OW95478  10.685   3.636   5.663  0.5221  0.1809  0.1156
30862SOL    HW195479  10.608   3.644   5.720 -0.1202 -1.8823 -0.3857
30862SOL    HW295480  10.671   3.701   5.594 -0.4075  0.3329  0.4361
30863SOL     OW95481   6.336   7.119   5.547 -0.9525 -0.3274 -0.1706
30863SOL    HW195482   6.258   7.064   5.543 -0.9459 -0.2940 -0.9671
30863SOL    HW295483   6.404   7.067   5.503 -1.2439  0.7627 -2.0351
30864SOL     OW95484   3.386   5.876   5.730 -0.2006 -0.0265  0.6331
30864SOL    HW195485   3.402   5.783   5.747 -0.1747  0.2157  2.0276
30864SOL    HW295486   3.314   5.899   5.790 -1.1442  0.5351 -0.6634
30865SOL     OW95487   7.418   4.473   1.438 -1.0420  0.3042 -0.5043
30865SOL    HW195488   7.401   4.435   1.352  0.5133 -1.4582 -0.1213
30865SOL    HW295489   7.446   4.562   1.420 -3.3921  0.9040 -1.5737
30866SOL     OW95490   0.719  10.492   2.917  0.1387  0.1325  0.1275
30866SOL    HW195491   0.630  10.515   2.888 -0.0968 -0.7493  0.1305
30866SOL    HW295492   0.744  10.418   2.860  0.0711 -0.9646  1.4806
30867SOL     OW95493   6.688   6.552   2.833 -0.5111  0.0103 -0.1477
30867SOL    HW195494   6.752   6.596   2.777  0.5257 -0.4120  0.6710
30867SOL    HW295495   6.679   6.609   2.909 -0.8310 -0.1140 -0.0903
30868SOL     OW95496   9.696   6.508   5.835  0.1089 -0.2033  0.1302
30868SOL    HW195497   9.707   6.597   5.802  0.9739  0.0282  1.0098
30868SOL    HW295498   9.680   6.519   5.929  0.1844 -0.9733  0.2405
30869SOL     OW95499   5.750   8.100   0.533 -0.2639  0.1892  0.1453
30869SOL    HW195500   5.701   8.177   0.561 -1.6662 -0.5183 -0.2796
30869SOL    HW295501   5.686   8.046   0.487 -0.2253 -2.8016  3.2032
30870SOL     OW95502   6.707   4.470   0.779  0.2292 -0.8490  0.1386
30870SOL    HW195503   6.658   4.547   0.809  1.0985 -0.4075  0.4495
30870SOL    HW295504   6.671   4.397   0.831 -0.3636 -0.6075  0.0803
30871SOL     OW95505   1.918   0.841   7.397  0.6724  0.6516 -0.4025
30871SOL    HW195506   2.011   0.856   7.416  0.3098  0.3716  1.8520
30871SOL    HW295507   1.878   0.927   7.407  0.3552  0.3647  1.1230
30872SOL     OW95508   5.680   8.752   9.316 -0.6235 -0.1459  0.6914
30872SOL    HW195509   5.613   8.812   9.348  0.7564  1.6224  0.4099
30872SOL    HW295510   5.739   8.740   9.391  1.5991  2.5576 -0.4303
30873SOL     OW95511   9.108  10.513   4.223  0.3482 -0.0128 -0.4436
30873SOL    HW195512   9.117  10.429   4.179 -0.2184 -0.4889  0.3239
30873SOL    HW295513   9.196  10.532   4.257  0.2898 -0.7412  0.1494
30874SOL     OW95514   0.732   2.493   9.149 -0.6372 -0.4250 -0.2485
30874SOL    HW195515   0.784   2.427   9.195 -0.3451  0.1157  0.2079
30874SOL    HW295516   0.791   2.528   9.082 -0.8335 -0.7133 -0.5748
30875SOL     OW95517   3.983   9.533   6.501  0.0661  0.4254  0.7616
30875SOL    HW195518   4.037   9.557   6.426 -0.6369 -1.0478 -0.2558
30875SOL    HW295519   3.930   9.611   6.518 -0.4752  0.4769 -0.9400
30876SOL     OW95520   7.307   1.194   3.169 -0.0841 -0.1615 -0.3014
30876SOL    HW195521   7.322   1.272   3.115  0.8277 -0.9176 -1.1726
30876SOL    HW295522   7.390   1.180   3.214 -0.1168 -0.8476 -0.4510
30877SOL     OW95523  10.337   4.950   5.464  0.0529  0.5521  0.2601
30877SOL    HW195524  10.388   4.872   5.484 -1.0670 -0.0379  0.9084
30877SOL    HW295525  10.310   4.939   5.373  0.5070  0.5464  0.1240
30878SOL     OW95526   3.969   7.248   7.175  0.0229 -0.4115 -0.1821
30878SOL    HW195527   4.058   7.230   7.206 -0.4530 -2.4209  0.1656
30878SOL    HW295528   3.937   7.317   7.233  0.8215 -0.7836  0.7446
30879SOL     OW95529   4.485   9.096   9.542 -1.2150 -0.4868 -0.3083
30879SOL    HW195530   4.432   9.075   9.618 -0.8540  0.5118  0.2329
30879SOL    HW295531   4.537   9.017   9.526  0.7213  0.1897  2.1712
30880SOL     OW95532   1.729   3.613   6.673 -0.0985  0.2156 -0.1559
30880SOL    HW195533   1.763   3.565   6.749 -0.2070  1.1697  0.5116
30880SOL    HW295534   1.806   3.637   6.623  0.1279  1.1680  0.6239
30881SOL     OW95535   9.098   7.550   3.713 -0.0807 -0.0477  0.1319
30881SOL    HW195536   9.158   7.610   3.668 -0.9191 -1.1147 -2.5702
30881SOL    HW295537   9.015   7.598   3.718 -1.2488 -1.3943 -3.5615
30882SOL     OW95538   1.889   3.317   0.794 -0.0220  0.4863 -0.1261
30882SOL    HW195539   1.935   3.315   0.710 -0.0318  0.7036 -0.1364
30882SOL    HW295540   1.957   3.341   0.858  0.0980 -0.1637  0.0029
30883SOL     OW95541  10.165   6.727   9.311  0.6692 -0.2863  0.1169
30883SOL    HW195542  10.135   6.689   9.229  0.4607  0.1075  0.0069
30883SOL    HW295543  10.241   6.779   9.288 -0.0606  0.7447 -0.0240
30884SOL     OW95544   0.476   9.562   2.201 -0.0053 -0.6775 -0.4627
30884SOL    HW195545   0.541   9.581   2.269 -0.3737 -0.7329 -0.0915
30884SOL    HW295546   0.448   9.472   2.220 -2.1441  0.2457  1.0159
30885SOL     OW95547   4.714   0.370   1.864  0.2789 -0.5298 -0.2410
30885SOL    HW195548   4.628   0.413   1.872  0.3007 -0.2506 -1.2781
30885SOL    HW295549   4.772   0.421   1.921  0.0185  0.0484 -0.4774
30886SOL     OW95550   0.759   2.982   9.984 -0.0514 -0.3211 -0.1506
30886SOL    HW195551   0.847   2.994   9.949 -0.5303  1.0788 -0.9633
30886SOL    HW295552   0.701   3.017   9.916 -1.0980  0.9213  1.3031
30887SOL     OW95553   5.558   4.680  10.175 -0.2747 -0.2916  0.2082
30887SOL    HW195554   5.501   4.653  10.103 -1.0273 -0.6385  0.9204
30887SOL    HW295555   5.502   4.732  10.232  0.3467  0.0800  0.4906
30888SOL     OW95556   4.054   8.284   5.758  0.4087  0.1299  0.1243
30888SOL    HW195557   4.084   8.210   5.811 -1.3673  0.1417  1.2093
30888SOL    HW295558   4.018   8.346   5.821 -3.0823 -0.4437 -1.0778
30889SOL     OW95559   1.879   4.385   4.354 -0.5175 -0.0719  0.2373
30889SOL    HW195560   1.825   4.429   4.420 -0.4561  1.5117 -0.7196
30889SOL    HW295561   1.835   4.404   4.271  0.2737 -0.6883 -0.3284
30890SOL     OW95562   8.721   0.090   2.196 -0.1236 -0.4247 -0.2766
30890SOL    HW195563   8.814   0.092   2.216 -0.4596 -0.4946  1.4312
30890SOL    HW295564   8.717   0.078   2.101  1.5927 -0.1536 -0.4103
30891SOL     OW95565   5.247  10.228  10.403 -0.7229 -0.2461  0.1375
30891SOL    HW195566   5.195  10.158  10.443 -2.9758  0.3917 -1.4618
30891SOL    HW295567   5.309  10.182  10.346 -0.1610 -1.0005  1.3221
30892SOL     OW95568   6.871  10.016   3.772  0.4190 -0.1110  0.2869
30892SOL    HW195569   6.821   9.944   3.809  2.1954 -1.9357 -0.6845
30892SOL    HW295570   6.870  10.000   3.677  1.4264  0.7276  0.1130
30893SOL     OW95571   6.902   3.806   8.650 -0.2979 -0.0652  0.2071
30893SOL    HW195572   6.934   3.766   8.731  0.5198  0.2462  0.0544
30893SOL    HW295573   6.834   3.867   8.679  0.8786  1.0103  0.8337
30894SOL     OW95574   2.632   5.324  10.681 -0.2737 -0.0087 -0.0275
30894SOL    HW195575   2.618   5.375  10.761  1.2147  0.7892 -0.2252
30894SOL    HW295576   2.720   5.288  10.691 -0.8302 -1.5392 -0.4541
30895SOL     OW95577   2.882  10.481   1.196 -0.0951  0.2822  0.2714
30895SOL    HW195578   2.826  10.555   1.219 -1.0093 -0.8177  1.7693
30895SOL    HW295579   2.867  10.417   1.265  0.8150 -1.2488 -0.8811
30896SOL     OW95580   5.019   9.542   7.125 -0.2685  0.2200  0.2121
30896SOL    HW195581   4.970   9.527   7.206 -0.6805 -0.1349 -0.0997
30896SOL    HW295582   5.101   9.494   7.138 -1.5188 -2.3488 -0.7252
30897SOL     OW95583   0.941   0.673  10.649 -0.0366 -0.5209  0.0403
30897SOL    HW195584   0.891   0.677  10.567  1.3276 -1.4017 -0.8921
30897SOL    HW295585   1.032   0.683  10.621  0.3402  1.3839  1.7029
30898SOL     OW95586   6.084   1.055   0.411  0.2530 -0.2777 -0.6087
30898SOL    HW195587   5.991   1.038   0.398  0.7199 -3.4694 -0.5855
30898SOL    HW295588   6.118   1.074   0.324  0.1317 -2.8792 -1.3153
30899SOL     OW95589   0.811   5.759  10.282  0.2140 -0.3193  0.2654
30899SOL    HW195590   0.773   5.806  10.208  0.2700 -0.1806  0.3231
30899SOL    HW295591   0.811   5.823  10.354 -0.5515 -0.6939  0.6045
30900SOL     OW95592   9.046   6.490  10.618 -0.0959  0.3942 -0.7211
30900SOL    HW195593   8.961   6.521  10.587 -0.8803  0.2874  1.1819
30900SOL    HW295594   9.102   6.490  10.540 -1.8494  0.3949 -2.0369
30901SOL     OW95595  10.535   6.990   7.643  0.1743  0.3629  0.2950
30901SOL    HW195596  10.630   7.003   7.651 -0.0273  1.1375  2.2619
30901SOL    HW295597  10.497   7.067   7.687 -1.3633 -0.0367 -0.2636
30902SOL     OW95598   2.199   5.313   1.583 -0.6272  0.0925  0.0074
30902SOL    HW195599   2.197   5.385   1.520 -0.1615  1.0689  1.0836
30902SOL    HW295600   2.261   5.250   1.546  0.3247  1.0608 -0.0891
30903SOL     OW95601  10.446   5.408   4.459  0.2572 -0.1750  0.1944
30903SOL    HW195602  10.408   5.405   4.547  0.5434  1.1307  0.3914
30903SOL    HW295603  10.372   5.418   4.400  0.2079  1.6543  0.5202
30904SOL     OW95604   3.705   7.705   1.639  0.3751 -0.1819  0.6437
30904SOL    HW195605   3.635   7.691   1.574  0.2039 -1.5141  1.0802
30904SOL    HW295606   3.719   7.799   1.639  1.2865 -0.2203 -2.2962
30905SOL     OW95607   3.640   5.570   8.264 -0.0200 -0.4253  0.5487
30905SOL    HW195608   3.627   5.509   8.336  1.7908 -0.7169  0.6879
30905SOL    HW295609   3.702   5.526   8.206 -1.6311 -0.3129 -1.3699
30906SOL     OW95610   4.030   5.518   8.638 -0.1485 -0.1526  0.2016
30906SOL    HW195611   3.991   5.450   8.584  0.2955  0.7524 -1.3221
30906SOL    HW295612   4.105   5.549   8.587 -1.5938  3.0040 -0.2368
30907SOL     OW95613   6.579   1.384   5.630 -0.5336 -0.2054  0.4026
30907SOL    HW195614   6.560   1.452   5.566 -1.1836 -0.6371  0.1246
30907SOL    HW295615   6.608   1.431   5.708  2.4252  0.2909 -0.8470
30908SOL     OW95616   4.631   2.840   4.685  0.2853  0.3263  0.1568
30908SOL    HW195617   4.642   2.745   4.694 -2.9160 -0.3275 -1.4709
30908SOL    HW295618   4.599   2.869   4.770  3.2929  0.4524  1.3752
30909SOL     OW95619   8.031   4.155   5.010 -0.0010  0.1163  0.3092
30909SOL    HW195620   8.107   4.186   5.058  0.2121 -1.0746  0.7671
30909SOL    HW295621   7.956   4.183   5.062  0.1730  0.0548  0.5917
30910SOL     OW95622   7.726   7.510   4.163 -0.4314 -0.1859  0.2328
30910SOL    HW195623   7.653   7.482   4.107  0.2797 -0.2736 -0.6758
30910SOL    HW295624   7.723   7.606   4.159 -0.1087 -0.1974 -0.3270
30911SOL     OW95625   8.538   7.714   0.451 -0.1845 -0.2468  0.3088
30911SOL    HW195626   8.506   7.767   0.378  1.4887  1.4334  0.6846
30911SOL    HW295627   8.613   7.667   0.415 -0.7436 -1.1940  0.3721
30912SOL     OW95628   0.334   3.884   5.674 -0.3190 -0.2988 -0.1259
30912SOL    HW195629   0.383   3.962   5.650 -0.7971  0.1295  0.2515
30912SOL    HW295630   0.316   3.840   5.591  0.4657 -0.3259 -0.2885
30913SOL     OW95631   8.148   8.055   5.301  0.0086 -0.6063  0.7075
30913SOL    HW195632   8.113   8.026   5.216 -1.5036  0.1242  1.0526
30913SOL    HW295633   8.072   8.058   5.359  0.6465  0.9324  1.5312
30914SOL     OW95634  10.198   0.334   6.349 -0.6195  0.2776  0.2605
30914SOL    HW195635  10.182   0.240   6.354 -1.5924  0.4586  0.7876
30914SOL    HW295636  10.239   0.347   6.263 -2.3235 -0.3861 -0.6964
30915SOL     OW95637   5.074   4.647   9.933 -0.3534  0.4920  0.5444
30915SOL    HW195638   5.011   4.707   9.973 -1.0439  1.0991 -1.3446
30915SOL    HW295639   5.028   4.610   9.859  1.3886  0.6969 -0.6953
30916SOL     OW95640   4.132   5.967   3.536  0.3817  0.0091 -0.2528
30916SOL    HW195641   4.195   5.902   3.504  0.8329 -0.2067  0.9932
30916SOL    HW295642   4.123   5.947   3.629  0.5506  1.7583  0.1703
30917SOL     OW95643   1.735   6.366   3.143  0.0177  0.6709  0.9511
30917SOL    HW195644   1.726   6.312   3.065  0.1107  3.7119 -1.3495
30917SOL    HW295645   1.817   6.337   3.183  0.7053 -0.0597 -0.8846
30918SOL     OW95646   4.520   6.585  10.650 -0.8574 -0.2356 -0.3497
30918SOL    HW195647   4.460   6.554  10.583 -0.2959 -0.7669 -0.6123
30918SOL    HW295648   4.598   6.612  10.603  0.0654 -1.8786  0.1852
30919SOL     OW95649  10.371   0.953   0.097  0.1356 -0.3422 -0.0061
30919SOL    HW195650  10.329   0.875   0.135 -0.4234 -0.0877 -0.0822
30919SOL    HW295651  10.385   0.930   0.005  0.7838 -0.6752  0.1714
30920SOL     OW95652   4.001   1.341   5.364  0.1173  0.0837 -0.5432
30920SOL    HW195653   4.062   1.362   5.434 -0.0334  0.7558 -0.6030
30920SOL    HW295654   4.036   1.386   5.287 -0.5098  0.5759 -0.5478
30921SOL     OW95655   2.578   0.704   1.653 -0.0511 -0.1740 -0.4919
30921SOL    HW195656   2.522   0.640   1.607 -0.2887 -0.2814 -0.0559
30921SOL    HW295657   2.521   0.741   1.721  0.3505 -0.1367 -0.1763
30922SOL     OW95658   1.013   1.887   2.031  0.1586 -0.3803  0.2296
30922SOL    HW195659   1.093   1.841   2.055  1.0509  1.2581  0.5395
30922SOL    HW295660   0.968   1.902   2.115 -0.0144 -0.4800  0.1553
30923SOL     OW95661   7.872   4.330  10.789 -0.1692  0.5794 -0.0623
30923SOL    HW195662   7.866   4.242  10.827 -2.2099  0.6506 -0.1325
30923SOL    HW295663   7.963   4.356  10.804  0.0667 -0.9041  1.3901
30924SOL     OW95664   2.765   0.424   9.670 -0.3979  0.2609 -0.0131
30924SOL    HW195665   2.678   0.434   9.707 -0.9121 -0.1453 -1.0736
30924SOL    HW295666   2.783   0.507   9.627 -0.4432  0.2013 -0.1495
30925SOL     OW95667   7.073   3.908   5.801  0.0482  0.2796 -0.1595
30925SOL    HW195668   6.985   3.896   5.838  0.5547  0.7089  1.2326
30925SOL    HW295669   7.117   3.825   5.817  0.2465  0.4446  0.1689
30926SOL     OW95670   8.048   2.275   5.958 -0.4548  0.2045  0.2782
30926SOL    HW195671   8.044   2.315   5.871 -1.7373 -0.3239  0.0739
30926SOL    HW295672   8.078   2.186   5.942  1.3236  0.6790  0.6263
30927SOL     OW95673   8.481   9.698   9.962  0.2946  0.3754  0.2968
30927SOL    HW195674   8.516   9.637  10.027 -0.2479  0.4430  0.6579
30927SOL    HW295675   8.468   9.645   9.884 -1.3089 -0.2823  0.9547
30928SOL     OW95676   7.693   4.484   0.574  0.3687 -0.2271  0.6431
30928SOL    HW195677   7.622   4.505   0.634 -0.6998  0.4481 -0.7957
30928SOL    HW295678   7.711   4.391   0.591 -0.1296 -0.1430  1.7455
30929SOL     OW95679   4.400   3.278   8.925 -0.4608 -0.2666  0.6508
30929SOL    HW195680   4.376   3.287   8.833  1.9692 -0.2529 -0.0431
30929SOL    HW295681   4.419   3.368   8.953 -0.8915 -0.3068  1.0747
30930SOL     OW95682   8.679   6.675   2.296 -0.1364  0.4994  0.0658
30930SOL    HW195683   8.732   6.754   2.307  1.0952  0.3825 -3.6941
30930SOL    HW295684   8.743   6.603   2.297 -1.0439 -0.3448  1.6943
30931SOL     OW95685  10.622   5.704   9.786 -0.4604 -0.1149  0.0931
30931SOL    HW195686  10.586   5.750   9.861  0.0252 -1.0241  0.8978
30931SOL    HW295687  10.663   5.626   9.822 -1.1115 -1.1115 -1.2104
30932SOL     OW95688  10.154   6.840   9.735 -0.2777  0.5536  0.1988
30932SOL    HW195689  10.239   6.862   9.773  0.1302 -0.2386 -0.2257
30932SOL    HW295690  10.119   6.924   9.703  0.1051  0.9631  0.8461
30933SOL     OW95691   5.866   9.989   2.499  0.5475  0.2398  0.1392
30933SOL    HW195692   5.875   9.948   2.413 -0.5384 -1.1191  0.6456
30933SOL    HW295693   5.900   9.923   2.560 -2.0375 -0.3573  1.0500
30934SOL     OW95694   2.591   3.458   8.977 -0.1820  0.2847  0.2418
30934SOL    HW195695   2.652   3.449   9.051  2.2085  1.3694 -1.4567
30934SOL    HW295696   2.539   3.536   8.998 -0.5909 -0.2832  1.4287
30935SOL     OW95697   8.908   5.905   4.502  0.5555 -0.3467 -0.2430
30935SOL    HW195698   8.840   5.972   4.511 -0.0536 -1.1373  1.5367
30935SOL    HW295699   8.934   5.910   4.410  0.1132  1.9013 -0.3148
30936SOL     OW95700   7.958   3.897   5.991 -0.1205 -0.0415 -0.0729
30936SOL    HW195701   7.967   3.963   6.060  1.4530 -1.1884  0.8645
30936SOL    HW295702   8.030   3.914   5.932  0.1249 -0.7361  0.0194
30937SOL     OW95703   9.289   0.003   9.665 -0.1194  0.1537 -0.7137
30937SOL    HW195704   9.347   0.036   9.596  0.7026  3.0348  1.1579
30937SOL    HW295705   9.346  -0.049   9.722 -0.0713  0.3676 -0.5634
30938SOL     OW95706   0.223   8.542   3.479 -0.3804 -0.4392 -0.6998
30938SOL    HW195707   0.266   8.484   3.416  0.1614 -1.6521  0.7302
30938SOL    HW295708   0.162   8.594   3.426  0.3377 -1.1266 -2.2626
30939SOL     OW95709   3.421   1.473   9.746  0.1416  0.1375  0.0561
30939SOL    HW195710   3.447   1.564   9.732  1.3265  0.0595  1.4482
30939SOL    HW295711   3.389   1.471   9.837 -1.1865 -0.5751 -0.4007
30940SOL     OW95712   0.897   8.775   8.429 -0.4321 -0.3146  0.2960
30940SOL    HW195713   0.984   8.800   8.401 -0.5925 -0.4779 -0.3577
30940SOL    HW295714   0.898   8.788   8.524 -0.3595  1.6592  0.0531
30941SOL     OW95715   4.256   4.486   3.994 -0.1365 -0.1103  0.0095
30941SOL    HW195716   4.223   4.439   3.917 -0.5124 -0.3556  0.3155
30941SOL    HW295717   4.315   4.552   3.958  1.5019 -1.7010 -0.3421
30942SOL     OW95718   6.749   5.141   7.233 -0.3131  0.4288 -0.6126
30942SOL    HW195719   6.743   5.104   7.145  0.3740  0.3247 -0.6232
30942SOL    HW295720   6.662   5.177   7.250 -0.7661 -0.4728 -0.9256
30943SOL     OW95721   1.628   1.948   3.249 -0.0320 -0.4265  0.1649
30943SOL    HW195722   1.579   1.889   3.191 -0.4887  1.0766 -1.0522
30943SOL    HW295723   1.599   2.036   3.224  0.8105  0.3465  1.7448
30944SOL     OW95724   5.053   6.768   0.340  0.1984 -0.0294  0.1823
30944SOL    HW195725   5.024   6.690   0.387  0.5154 -1.3081 -1.6368
30944SOL    HW295726   5.006   6.765   0.257  2.4067  0.0283 -1.1741
30945SOL     OW95727   2.076  10.360   7.531 -0.2427 -0.3338  0.3914
30945SOL    HW195728   2.140  10.430   7.539 -0.9207  0.2481  0.9880
30945SOL    HW295729   2.101  10.311   7.453  1.1644 -0.3821  0.8557
30946SOL     OW95730   1.595   8.988   7.190  0.5282  0.1198 -0.0481
30946SOL    HW195731   1.676   9.038   7.181  0.1373  0.8020  0.1264
30946SOL    HW295732   1.526   9.054   7.191  0.0047 -0.4190  0.2899
30947SOL     OW95733   2.983   7.382   9.350  0.6154  0.5318  0.6218
30947SOL    HW195734   3.006   7.347   9.264 -3.2189 -1.1843  0.0723
30947SOL    HW295735   2.935   7.463   9.332 -0.7123 -0.1283  1.0160
30948SOL     OW95736   3.406   8.225   8.818 -0.1026  0.3104  0.1176
30948SOL    HW195737   3.406   8.129   8.813  0.4160  0.2860  0.4474
30948SOL    HW295738   3.499   8.249   8.810 -0.2646  0.8090 -0.3278
30949SOL     OW95739   4.980   5.777   5.381  0.3289 -0.1894  0.0666
30949SOL    HW195740   5.056   5.731   5.347  0.1267 -0.1871 -0.3865
30949SOL    HW295741   4.920   5.708   5.410  0.2563 -0.1992 -0.1096
30950SOL     OW95742   1.133   8.472   1.395  0.5226 -0.6121  0.5826
30950SOL    HW195743   1.172   8.420   1.465  1.4654  2.7976  2.8295
30950SOL    HW295744   1.047   8.498   1.429  0.3173 -0.2343 -0.1992
30951SOL     OW95745   8.951   1.414   0.526 -0.0368 -0.0496 -0.0747
30951SOL    HW195746   8.862   1.407   0.561  0.4360  0.3780  1.2602
30951SOL    HW295747   9.008   1.381   0.595  0.8300 -0.8709 -1.1374
30952SOL     OW95748   9.359  10.391   3.834  0.2289 -0.4317  0.0631
30952SOL    HW195749   9.344  10.485   3.837  0.1590 -0.4122 -0.8417
30952SOL    HW295750   9.406  10.372   3.916 -0.2821  0.2852  0.5319
30953SOL     OW95751   5.358   4.789   7.997  0.2583  0.3664  0.3119
30953SOL    HW195752   5.325   4.879   7.992 -0.9205 -0.0867 -0.1381
30953SOL    HW295753   5.435   4.796   8.055 -1.9294  1.0741  3.4271
30954SOL     OW95754   6.441   4.840   3.603 -0.2627  0.1390 -0.5001
30954SOL    HW195755   6.527   4.808   3.573 -0.1212 -0.0328  0.0824
30954SOL    HW295756   6.387   4.762   3.608  0.4852 -0.3111  2.3191
30955SOL     OW95757   6.042   0.025   3.136 -0.2667  0.1238  0.2708
30955SOL    HW195758   6.110  -0.018   3.189 -1.2563  0.1866  1.6535
30955SOL    HW295759   6.005  -0.046   3.083  0.3128 -0.0674  0.1142
30956SOL     OW95760   5.144   8.695   9.234  0.6404  0.0585 -0.4358
30956SOL    HW195761   5.059   8.655   9.251  0.3799  0.5083 -0.6909
30956SOL    HW295762   5.126   8.770   9.178  1.4644 -1.3192 -2.7127
30957SOL     OW95763   0.117   7.390   9.059  0.2287 -0.3008  0.1437
30957SOL    HW195764   0.177   7.322   9.028  0.4045 -0.2990  0.4700
30957SOL    HW295765   0.056   7.343   9.117 -0.0942 -0.3042 -0.1896
30958SOL     OW95766  10.238   7.071   2.020 -0.4336 -0.8749 -0.2971
30958SOL    HW195767  10.295   7.054   2.094 -0.4856 -1.1235 -0.3139
30958SOL    HW295768  10.225   7.166   2.020 -0.9002 -0.9357  0.3541
30959SOL     OW95769   7.293   7.091   9.403  0.0338  0.4688 -0.0868
30959SOL    HW195770   7.385   7.115   9.402  0.1101  0.3567  1.3939
30959SOL    HW295771   7.259   7.120   9.319  1.4303  0.4426 -0.6808
30960SOL     OW95772   9.898   6.650   8.363 -0.0430  0.5931  0.0562
30960SOL    HW195773   9.959   6.714   8.399  0.2231  0.0077  0.6776
30960SOL    HW295774   9.954   6.587   8.317 -0.3824  1.3864 -1.5083
30961SOL     OW95775   7.620   9.053  10.565 -0.0320  0.0154  0.0217
30961SOL    HW195776   7.619   9.081  10.657  0.0124 -1.2606  0.4308
30961SOL    HW295777   7.602   9.133  10.516 -0.8793  0.5806  1.1815
30962SOL     OW95778   4.115   5.062   7.735  0.0522 -0.0480 -0.1716
30962SOL    HW195779   4.088   5.002   7.666 -0.5386  1.4084 -1.2736
30962SOL    HW295780   4.082   5.023   7.816 -1.8318 -0.3563 -1.0471
30963SOL     OW95781   3.116  10.717   4.508  0.3765  0.0365  0.2113
30963SOL    HW195782   3.032  10.686   4.472  0.4747  0.2339 -0.1856
30963SOL    HW295783   3.114  10.812   4.496  1.1631 -0.0654 -0.8940
30964SOL     OW95784   4.363   2.660  10.703  0.2732 -0.1149 -0.0457
30964SOL    HW195785   4.315   2.737  10.735  1.3433  0.1277  1.0604
30964SOL    HW295786   4.364   2.670  10.608  2.8745  2.8432  0.1379
30965SOL     OW95787   0.568   4.376   3.124 -0.1092  0.1615 -0.1799
30965SOL    HW195788   0.482   4.342   3.150  0.7874 -1.1470  1.1903
30965SOL    HW295789   0.626   4.352   3.195  1.2608  1.7686 -0.7021
30966SOL     OW95790   0.339  10.100   6.836  0.2865 -0.4236  0.0791
30966SOL    HW195791   0.342  10.015   6.881 -0.9103 -0.6825 -0.2972
30966SOL    HW295792   0.406  10.153   6.880 -0.1036 -1.0274  1.4521
30967SOL     OW95793  10.317   4.461  10.109 -0.0892 -0.1830  0.3929
30967SOL    HW195794  10.285   4.388  10.057  1.2050 -0.5440  0.0676
30967SOL    HW295795  10.383   4.422  10.167  0.2293  0.6360  0.5899
30968SOL     OW95796   9.384   0.147   6.659  0.6783 -0.1933  0.5928
30968SOL    HW195797   9.317   0.082   6.680  0.8222  0.0617  1.9045
30968SOL    HW295798   9.441   0.103   6.596 -0.7695 -0.3709 -0.6900
30969SOL     OW95799   0.901   7.205   4.080 -0.0114 -0.5199  0.2581
30969SOL    HW195800   0.816   7.242   4.106  0.2041  1.4705 -1.6122
30969SOL    HW295801   0.964   7.246   4.139 -0.0132  0.5381 -0.4542
30970SOL     OW95802   0.913   5.671   4.017 -0.0236 -0.2075  0.8739
30970SOL    HW195803   0.954   5.611   4.080  0.6977 -0.1651  0.4505
30970SOL    HW295804   0.905   5.621   3.937  3.2508  1.0237 -0.4148
30971SOL     OW95805   5.535   4.737   7.335  0.2539 -0.1487 -0.2894
30971SOL    HW195806   5.466   4.739   7.269 -1.9152 -1.9180  1.7413
30971SOL    HW295807   5.538   4.826   7.370 -1.6798 -0.2003  0.1371
30972SOL     OW95808   5.623   3.824   6.992  0.7017 -0.6637 -0.8851
30972SOL    HW195809   5.593   3.862   7.074  2.0641 -1.9891  0.2861
30972SOL    HW295810   5.591   3.884   6.925 -2.4306 -0.7157  0.3644
30973SOL     OW95811   7.430   4.480   6.600  0.5554  0.9652  0.4192
30973SOL    HW195812   7.340   4.474   6.569  1.5157 -0.2451 -2.5233
30973SOL    HW295813   7.448   4.574   6.605 -0.5886  1.2108  0.1176
30974SOL     OW95814   1.045   4.284   7.065 -0.0057 -0.1131  0.1997
30974SOL    HW195815   1.129   4.252   7.097  0.8826  2.1573  0.3592
30974SOL    HW295816   0.990   4.293   7.143 -0.0262 -0.5473  0.2379
30975SOL     OW95817   3.096   5.553   8.784 -0.2575 -0.3728 -0.2108
30975SOL    HW195818   3.173   5.607   8.766 -1.2301  0.7431 -1.1853
30975SOL    HW295819   3.042   5.607   8.841 -1.5064 -0.0304 -1.6576
30976SOL     OW95820   8.953   4.868   6.320  0.1264 -0.2150  0.3355
30976SOL    HW195821   8.873   4.815   6.311 -0.5621  0.6809  1.0223
30976SOL    HW295822   8.938   4.943   6.264  0.0647  0.4302  1.1908
30977SOL     OW95823   4.686   8.932   0.344 -0.4553  0.4838  0.0936
30977SOL    HW195824   4.631   8.870   0.295  2.3977 -3.6178  1.5353
30977SOL    HW295825   4.630   8.963   0.415 -2.0961 -0.2019 -0.8446
30978SOL     OW95826  10.623   9.841   3.387 -0.1333 -0.2950 -0.4321
30978SOL    HW195827  10.690   9.831   3.455  0.6118 -0.5320 -1.1823
30978SOL    HW295828  10.540   9.837   3.435  0.3596 -0.9988  0.3993
30979SOL     OW95829   4.614   9.819   0.523 -0.2739 -0.1817  0.6537
30979SOL    HW195830   4.679   9.751   0.541 -1.6811 -1.1828  2.2138
30979SOL    HW295831   4.647   9.896   0.570  0.4190 -0.2803  0.3493
30980SOL     OW95832   4.242   8.543   5.444  0.4888  0.6482  0.2563
30980SOL    HW195833   4.208   8.616   5.391 -1.9018 -0.5734 -0.0218
30980SOL    HW295834   4.293   8.490   5.382  1.6188  1.6405  0.2980
30981SOL     OW95835   3.285   2.788   3.674 -0.7155 -0.1543  0.4260
30981SOL    HW195836   3.368   2.751   3.644 -1.5084 -0.5017 -1.4449
30981SOL    HW295837   3.307   2.829   3.758  1.5620  0.5305 -0.4066
30982SOL     OW95838   6.110   7.732   8.723 -0.5638  0.0327  0.1686
30982SOL    HW195839   6.125   7.819   8.761  1.1984 -0.1641  0.0063
30982SOL    HW295840   6.098   7.675   8.799 -0.6057  0.2376  0.3161
30983SOL     OW95841   5.580   3.975   5.417  0.3825  0.2191  0.8650
30983SOL    HW195842   5.669   3.949   5.392  0.1688 -1.3642  1.6618
30983SOL    HW295843   5.584   3.990   5.511 -0.1395  0.4110  0.8624
30984SOL     OW95844   6.913   3.152   1.208 -0.1116 -0.3799 -0.1794
30984SOL    HW195845   6.892   3.146   1.115  0.4731  1.8887 -0.4971
30984SOL    HW295846   6.843   3.205   1.245 -0.2808 -1.1764  0.6963
30985SOL     OW95847  10.310   7.920   3.465  0.0802  0.2170  0.6846
30985SOL    HW195848  10.391   7.959   3.433  0.7843 -0.0254  2.1193
30985SOL    HW295849  10.325   7.826   3.462  0.0353  0.1845  1.4129
30986SOL     OW95850   4.707   5.276   1.445  0.4908 -0.3859  0.4993
30986SOL    HW195851   4.760   5.354   1.426 -2.0263  0.9113 -1.8669
30986SOL    HW295852   4.637   5.308   1.501 -0.7327 -0.8242 -0.7348
30987SOL     OW95853   4.294   5.516   0.107 -0.0139  0.3208 -0.4457
30987SOL    HW195854   4.229   5.586   0.114 -0.1179  0.1730  0.1943
30987SOL    HW295855   4.249   5.439   0.140 -0.3442 -0.3807 -2.4158
30988SOL     OW95856   6.746   5.338  10.383 -0.2681 -0.5681  0.1966
30988SOL    HW195857   6.749   5.280  10.460 -1.3833 -2.0232 -0.7921
30988SOL    HW295858   6.655   5.333  10.353  0.1694 -0.1503 -1.2849
30989SOL     OW95859   5.640   8.639   3.311  0.2949  0.2712  0.1239
30989SOL    HW195860   5.591   8.721   3.310  0.2005  0.2121 -0.2158
30989SOL    HW295861   5.721   8.660   3.356 -0.0143  0.3845  0.6393
30990SOL     OW95862   1.529   2.324  10.053  0.7282  0.1291 -0.1384
30990SOL    HW195863   1.445   2.320  10.098  0.1675  0.0097 -1.1711
30990SOL    HW295864   1.553   2.417  10.056 -0.5246  0.5328 -1.7522
30991SOL     OW95865  10.103   9.032   7.177  0.4543  0.7554  0.0051
30991SOL    HW195866  10.116   8.972   7.250  3.7829 -0.2864 -1.2123
30991SOL    HW295867  10.087   9.117   7.218  0.8305 -0.0496  1.9286
30992SOL     OW95868   5.141   9.095   3.798 -0.4280  0.7172  0.1506
30992SOL    HW195869   5.130   8.999   3.796 -2.1580  0.8885 -1.9272
30992SOL    HW295870   5.231   9.107   3.827  0.1897 -1.6043 -0.5006
30993SOL     OW95871   8.784   7.008  10.776 -0.1007 -0.9922 -0.0158
30993SOL    HW195872   8.752   6.947  10.842 -1.2896 -1.8612 -1.3254
30993SOL    HW295873   8.793   7.091  10.822 -3.4568 -0.9008  0.7136
30994SOL     OW95874   5.672  10.533   1.664  0.4383 -0.4515  0.0926
30994SOL    HW195875   5.648  10.613   1.711  1.2336 -0.6516  0.8601
30994SOL    HW295876   5.655  10.554   1.572 -1.8076 -0.2996  0.4771
30995SOL     OW95877   6.248   6.765   0.552 -0.1740  0.8821 -0.5792
30995SOL    HW195878   6.279   6.775   0.462  0.9223  0.6880 -0.2500
30995SOL    HW295879   6.276   6.676   0.577 -1.7724  0.3600 -0.5225
30996SOL     OW95880   9.368   4.629   8.147  0.7466  0.4080  0.0910
30996SOL    HW195881   9.312   4.653   8.220 -0.2346 -1.3848 -0.0283
30996SOL    HW295882   9.381   4.711   8.099 -0.5226  1.1530  0.9591
30997SOL     OW95883   3.000   7.490   8.165  0.3108  0.0037  0.3799
30997SOL    HW195884   3.030   7.581   8.163  1.2397 -0.2825 -1.6041
30997SOL    HW295885   3.044   7.451   8.240  0.8715  0.8853  0.5195
30998SOL     OW95886   0.383   2.083   1.218 -0.5066 -0.4904  0.1686
30998SOL    HW195887   0.361   2.045   1.133 -0.6326 -2.3447  0.9796
30998SOL    HW295888   0.372   2.011   1.281  0.8423  0.4537  1.5861
30999SOL     OW95889   0.481   3.133   1.424 -0.0846  0.4845 -0.1840
30999SOL    HW195890   0.393   3.136   1.462 -0.6171  0.4633 -1.3706
30999SOL    HW295891   0.466   3.143   1.330  1.1858  0.4502 -0.3950
31000SOL     OW95892   1.923   0.001   9.912  0.1923  0.6810 -0.2894
31000SOL    HW195893   1.965  -0.070   9.961 -0.1809  0.1694 -0.7007
31000SOL    HW295894   1.941  -0.021   9.820  0.9674  1.6733 -0.3956
31001SOL     OW95895   3.800   0.469   8.833  0.9055 -0.0039 -0.8908
31001SOL    HW195896   3.706   0.483   8.826  1.0501  0.6963 -1.5124
31001SOL    HW295897   3.814   0.382   8.795  0.2768 -1.0089  1.0313
31002SOL     OW95898   7.162   5.130   0.045 -1.1959 -0.0319  0.1806
31002SOL    HW195899   7.179   5.122   0.139 -0.8826 -2.5840 -0.0092
31002SOL    HW295900   7.241   5.170   0.010 -0.9043  0.0390  0.8883
31003SOL     OW95901   6.250  10.553   2.604  0.2952  0.5227 -0.8868
31003SOL    HW195902   6.157  10.572   2.593  0.4271  1.5931 -0.3002
31003SOL    HW295903   6.279  10.520   2.519 -0.7083 -0.1998 -0.9532
31004SOL     OW95904   8.318   1.953  10.013  0.3433 -0.7575  0.2685
31004SOL    HW195905   8.257   2.010  10.059  2.0506  1.1294  0.3582
31004SOL    HW295906   8.387   1.935  10.076  1.2985 -0.4664 -0.6583
31005SOL     OW95907   8.280   1.236   7.100 -0.4591 -0.6163  0.0642
31005SOL    HW195908   8.192   1.270   7.118  0.3711  1.1765  0.9267
31005SOL    HW295909   8.265   1.167   7.035 -2.3989  0.3202 -0.5838
31006SOL     OW95910   1.611   3.982   4.492  0.4455 -0.1072  0.5061
31006SOL    HW195911   1.635   4.022   4.408 -1.5969 -2.8375 -1.5472
31006SOL    HW295912   1.676   3.914   4.506  0.8807  0.4554  1.2468
31007SOL     OW95913  10.179   5.386   8.911 -0.2017 -0.5827  0.4851
31007SOL    HW195914  10.251   5.380   8.974  1.1460  1.0518 -0.7941
31007SOL    HW295915  10.179   5.301   8.867  1.4638 -0.3935  0.0320
31008SOL     OW95916   6.842   4.401   9.786  0.4484 -0.1263  0.6168
31008SOL    HW195917   6.896   4.435   9.856  0.8788  0.6241 -0.0679
31008SOL    HW295918   6.855   4.461   9.713 -2.4024  0.9233  0.8475
31009SOL     OW95919   0.261   2.215   8.787 -0.1305 -0.0715 -0.2439
31009SOL    HW195920   0.325   2.286   8.793 -0.0875 -0.2205  1.5201
31009SOL    HW295921   0.217   2.214   8.872 -0.3701 -1.9426 -0.3377
31010SOL     OW95922   0.176   5.861   3.695  0.6403  0.6097 -0.0100
31010SOL    HW195923   0.166   5.956   3.687  0.0103  0.4400 -1.6525
31010SOL    HW295924   0.087   5.827   3.701  0.8823  0.1547  1.2602
31011SOL     OW95925   8.338  10.534   1.859 -0.3785 -0.0136  0.5998
31011SOL    HW195926   8.378  10.509   1.942  1.3700  0.4393 -0.0637
31011SOL    HW295927   8.358  10.627   1.849  1.9226 -0.6285 -1.5825
31012SOL     OW95928   7.375   3.853   5.139  0.0172 -0.1514  0.2200
31012SOL    HW195929   7.319   3.912   5.089  0.0557 -2.6034 -3.0369
31012SOL    HW295930   7.324   3.833   5.218 -2.0019  0.6437 -0.8053
31013SOL     OW95931   9.053   7.236   1.085  0.1510  0.3677  0.6721
31013SOL    HW195932   9.144   7.203   1.083 -0.0813 -0.4071  1.6937
31013SOL    HW295933   9.000   7.159   1.064 -0.2092  1.3016 -2.1038
31014SOL     OW95934   3.752   8.578   2.849  0.3359  0.4606 -0.2355
31014SOL    HW195935   3.748   8.565   2.944 -5.2680 -1.7127 -0.4154
31014SOL    HW295936   3.696   8.653   2.832 -2.4352 -1.7933 -1.8950
31015SOL     OW95937  10.618   6.187   1.139 -0.1254  0.5614 -0.1579
31015SOL    HW195938  10.617   6.208   1.232  0.7904 -1.3593  0.3419
31015SOL    HW295939  10.703   6.146   1.124 -0.8875 -0.6944 -1.4430
31016SOL     OW95940   0.577   6.921   5.629  0.1128 -0.1555 -0.0814
31016SOL    HW195941   0.658   6.899   5.584  0.7432  0.9146  0.4965
31016SOL    HW295942   0.601   6.991   5.690 -1.2676  0.2925 -0.0133
31017SOL     OW95943   9.629   7.254   3.936  0.6238 -0.4296 -0.2840
31017SOL    HW195944   9.552   7.242   3.880 -1.4599 -1.6225  2.6147
31017SOL    HW295945   9.676   7.171   3.931 -0.6351 -1.2818  1.1197
31018SOL     OW95946   9.198   9.460   6.349 -0.2837  0.5676 -0.5603
31018SOL    HW195947   9.177   9.414   6.430 -1.0582  0.9519 -0.5329
31018SOL    HW295948   9.262   9.526   6.374 -0.1694  0.3805 -0.3564
31019SOL     OW95949   0.442   1.177   0.811 -0.2461  0.0809 -0.2590
31019SOL    HW195950   0.522   1.220   0.782 -0.4571  0.9945  0.4673
31019SOL    HW295951   0.469   1.086   0.828  0.7610  0.4877  0.4544
31020SOL     OW95952   7.323   9.668   4.597  0.4212  0.0444  0.5293
31020SOL    HW195953   7.328   9.607   4.670  0.4176  0.5923  0.9934
31020SOL    HW295954   7.294   9.615   4.523 -1.4531 -0.1602  1.3596
31021SOL     OW95955   9.324   9.117   6.300  0.2236  0.2652  0.3390
31021SOL    HW195956   9.351   9.170   6.376 -1.3123  0.2243  0.9578
31021SOL    HW295957   9.384   9.043   6.299 -0.0348  0.0073  1.8401
31022SOL     OW95958   2.321   6.058   6.730 -0.0725 -0.4519  0.1791
31022SOL    HW195959   2.322   5.962   6.725 -0.9564 -0.4874  0.4489
31022SOL    HW295960   2.334   6.087   6.640 -0.6956 -0.8506 -0.0501
31023SOL     OW95961   3.209   7.523   4.731 -0.1096 -0.4334 -0.1854
31023SOL    HW195962   3.228   7.523   4.824  1.5925  0.9168 -0.4707
31023SOL    HW295963   3.128   7.575   4.723  0.8196  1.1842  0.4122
31024SOL     OW95964   9.829   3.440   0.714  0.2026 -0.0524  0.0187
31024SOL    HW195965   9.857   3.377   0.647 -0.2379 -0.9280  0.6465
31024SOL    HW295966   9.765   3.392   0.766  2.3404 -0.2811  2.6458
31025SOL     OW95967   2.832   8.467   3.912 -0.3317  0.7914  0.1954
31025SOL    HW195968   2.871   8.536   3.859  2.8624 -0.1989  1.0604
31025SOL    HW295969   2.867   8.480   4.000 -0.1123 -1.5227  0.5210
31026SOL     OW95970   6.558   6.349   2.066  0.4829 -0.2304 -0.4987
31026SOL    HW195971   6.571   6.423   2.125  0.2210  0.2453 -1.0270
31026SOL    HW295972   6.601   6.376   1.984 -2.3202  0.7277 -1.7759
31027SOL     OW95973   1.122   0.698   5.587  0.4185  0.2628  0.3305
31027SOL    HW195974   1.076   0.718   5.505  0.1570 -1.3286  0.0570
31027SOL    HW295975   1.131   0.782   5.630 -1.0862  0.8892 -0.4890
31028SOL     OW95976   5.600   2.116   7.779  0.0773  0.0548 -0.5773
31028SOL    HW195977   5.565   2.132   7.692 -0.3400  1.8590 -0.1236
31028SOL    HW295978   5.682   2.166   7.781  0.7907 -1.1003 -0.3853
31029SOL     OW95979   0.520   0.030   7.705 -0.0009 -0.6803  0.2797
31029SOL    HW195980   0.490   0.121   7.700  3.2660  0.6102  1.3944
31029SOL    HW295981   0.583   0.022   7.634 -0.2755 -2.1224  0.1739
31030SOL     OW95982   2.552   5.708   6.796  0.5265 -0.2447 -0.6108
31030SOL    HW195983   2.629   5.669   6.755  0.1195 -2.6491  0.7004
31030SOL    HW295984   2.586   5.780   6.849  1.7878 -0.8864 -0.5113
31031SOL     OW95985   0.513   0.691   9.343  0.4076 -0.0480  0.1069
31031SOL    HW195986   0.514   0.786   9.353  1.4916 -0.0710  0.3418
31031SOL    HW295987   0.507   0.677   9.248  1.0603  0.2762  0.0091
31032SOL     OW95988   3.884   3.542   8.373 -0.3334  0.0130  0.5822
31032SOL    HW195989   3.835   3.579   8.300 -2.6125  0.4200  2.2408
31032SOL    HW295990   3.915   3.617   8.423 -0.2866 -0.2800  1.0032
31033SOL     OW95991   2.482   3.449   0.129  0.1996  0.0321 -0.0505
31033SOL    HW195992   2.555   3.391   0.108  0.3065 -0.1243  0.7025
31033SOL    HW295993   2.448   3.415   0.212  0.0294  0.8240  0.2080
31034SOL     OW95994   6.456   3.147   8.669 -0.3531 -0.5942 -0.2817
31034SOL    HW195995   6.524   3.126   8.733 -0.5356 -0.6462 -0.1022
31034SOL    HW295996   6.375   3.146   8.720 -0.5903 -1.3754 -0.6672
31035SOL     OW95997  10.604   0.713   2.614  0.8489 -0.3976 -0.3102
31035SOL    HW195998  10.610   0.648   2.544  0.8239 -1.2450  0.4576
31035SOL    HW295999  10.669   0.779   2.591 -0.4980  0.3690 -2.1522
31036SOL     OW96000  10.113   2.200   0.657 -0.0481 -0.3885  0.2276
31036SOL    HW196001  10.131   2.109   0.681 -0.6383 -0.4973  0.2787
31036SOL    HW296002  10.017   2.206   0.656 -0.0795  0.7854  2.4232
31037SOL     OW96003   9.883   1.592   0.593 -0.2818  0.1127 -0.2524
31037SOL    HW196004   9.934   1.536   0.651  1.0377  2.5807  1.1456
31037SOL    HW296005   9.818   1.534   0.555  1.5164 -2.5158  0.3996
31038SOL     OW96006   5.039   9.251   2.290  0.3041  0.1626 -0.3404
31038SOL    HW196007   5.127   9.274   2.318  0.1769  1.7778 -1.1245
31038SOL    HW296008   4.995   9.336   2.278 -1.3509 -0.6015  0.0175
31039SOL     OW96009   5.648   0.609   7.463  0.1426  0.0356  0.4350
31039SOL    HW196010   5.666   0.536   7.404  1.7495  1.1972 -0.5750
31039SOL    HW296011   5.635   0.568   7.549  1.2314 -1.4143 -0.0714
31040SOL     OW96012   0.791   2.615   7.814 -0.4757 -0.0245  0.4412
31040SOL    HW196013   0.727   2.681   7.842 -1.0227 -0.7649  0.9519
31040SOL    HW296014   0.776   2.605   7.720 -0.4834  0.4750  0.3863
31041SOL     OW96015   1.656   0.344   3.296 -0.0136  0.5634  0.2343
31041SOL    HW196016   1.686   0.273   3.240 -0.4151  0.0449  0.6651
31041SOL    HW296017   1.626   0.300   3.376  2.0484  1.3795  1.5389
31042SOL     OW96018   9.778   0.011   8.853  0.2439 -0.0048 -0.9403
31042SOL    HW196019   9.764  -0.017   8.762  0.3018  1.7526 -1.5281
31042SOL    HW296020   9.873   0.018   8.861  0.1988  0.7587 -1.0465
31043SOL     OW96021   0.734   1.045   5.895 -0.3261  0.3683 -0.4432
31043SOL    HW196022   0.682   1.118   5.863 -0.0690  1.0634  0.6601
31043SOL    HW296023   0.743   1.061   5.989  2.3880  0.6530 -0.6535
31044SOL     OW96024   5.244   9.404   9.842 -0.4477  0.4383 -0.0594
31044SOL    HW196025   5.225   9.340   9.910 -0.0594  1.0554  0.6444
31044SOL    HW296026   5.237   9.355   9.760 -1.4612 -0.1782  0.3860
31045SOL     OW96027   7.715   2.371   5.799 -0.3131 -0.5917  0.1986
31045SOL    HW196028   7.721   2.351   5.705 -0.1930 -1.6275  0.4095
31045SOL    HW296029   7.627   2.405   5.811 -0.2991 -0.3615 -0.3021
31046SOL     OW96030   6.506   5.573   2.429  0.4975  0.0044 -0.0242
31046SOL    HW196031   6.509   5.555   2.523 -0.4625  0.2634  0.0687
31046SOL    HW296032   6.535   5.663   2.420  2.6829 -0.6581 -0.2179
31047SOL     OW96033   5.774   8.848   4.483 -0.0154 -0.4112  0.0694
31047SOL    HW196034   5.769   8.775   4.422  1.4282  0.1273 -0.7305
31047SOL    HW296035   5.688   8.850   4.525  0.0467 -2.8267  0.4538
31048SOL     OW96036   4.556   9.876   7.694  0.2802  0.5190  0.3357
31048SOL    HW196037   4.567   9.950   7.754 -0.0638  1.6177 -0.9041
31048SOL    HW296038   4.577   9.799   7.747 -1.2843  1.3144  2.2434
31049SOL     OW96039   8.019   4.760   9.678  0.3158 -0.2513 -0.0071
31049SOL    HW196040   7.948   4.824   9.668  1.9878  1.6197 -0.6774
31049SOL    HW296041   8.010   4.701   9.603 -0.6066 -0.1406  0.0081
31050SOL     OW96042   5.763   1.079   8.708  0.3254  0.4885 -0.6248
31050SOL    HW196043   5.669   1.098   8.711  0.0701 -0.7893 -0.1322
31050SOL    HW296044   5.781   1.035   8.791  1.1246 -0.3568 -1.2322
31051SOL     OW96045   0.305   1.390  10.721  0.4021  0.4058 -0.3726
31051SOL    HW196046   0.281   1.481  10.700 -0.7499 -0.0457 -1.1285
31051SOL    HW296047   0.392   1.379  10.684  0.0631  0.8604 -1.3260
31052SOL     OW96048   9.086   4.294   3.880  0.3856 -0.1432  0.6481
31052SOL    HW196049   9.048   4.207   3.895  0.8556 -0.8852 -1.8602
31052SOL    HW296050   9.180   4.279   3.876  0.4465  0.3943 -0.1961
31053SOL     OW96051   1.326  10.211   1.676  0.0481 -0.7159 -0.0119
31053SOL    HW196052   1.367  10.135   1.717 -0.2859 -1.1507 -0.4701
31053SOL    HW296053   1.234  10.187   1.667 -0.3739  0.3560  1.2370
31054SOL     OW96054   7.514   1.835  10.404  0.1257  0.4353  0.2065
31054SOL    HW196055   7.511   1.805  10.314 -0.7671  1.5429 -0.1551
31054SOL    HW296056   7.430   1.810  10.442 -1.8983  4.6232 -0.9033
31055SOL     OW96057   5.559  10.264   5.882 -0.9447 -0.6256  0.8903
31055SOL    HW196058   5.585  10.331   5.945 -2.5555 -0.5885  1.5495
31055SOL    HW296059   5.540  10.187   5.936 -0.1615 -1.2970  0.2342
31056SOL     OW96060   8.836   3.528   8.762  0.6773 -0.5667  0.5805
31056SOL    HW196061   8.878   3.590   8.822 -1.4775  1.4412  0.1460
31056SOL    HW296062   8.857   3.561   8.675 -0.2939 -0.5481  0.3402
31057SOL     OW96063   3.684  10.368   2.077 -0.0079 -0.4271  0.8849
31057SOL    HW196064   3.766  10.371   2.028 -0.0327 -0.6269  0.8304
31057SOL    HW296065   3.695  10.295   2.137  0.2926  0.2334  1.6584
31058SOL     OW96066   1.698   7.362   9.630 -0.0027  0.2862 -0.0685
31058SOL    HW196067   1.626   7.300   9.638 -1.0255  1.2853 -1.2264
31058SOL    HW296068   1.777   7.307   9.631 -0.7952 -0.8742  0.5769
31059SOL     OW96069   9.939   1.171   8.249 -0.3489  0.0611  0.5031
31059SOL    HW196070   9.945   1.079   8.224 -0.7430  0.1146  0.2014
31059SOL    HW296071   9.846   1.186   8.264 -0.2411  0.3119  0.9443
31060SOL     OW96072   8.458   1.507   1.492 -0.0619 -0.1076 -0.7462
31060SOL    HW196073   8.516   1.436   1.518 -0.7633 -0.3191  0.3308
31060SOL    HW296074   8.434   1.488   1.401 -0.0037 -1.0821 -0.5647
31061SOL     OW96075   0.933   2.872   9.465  0.4378  0.5014  0.1863
31061SOL    HW196076   0.997   2.926   9.418 -0.1925 -0.5365 -2.0293
31061SOL    HW296077   0.853   2.881   9.413  0.0505 -1.7617  0.3165
31062SOL     OW96078   8.734   5.690   8.319 -0.0809 -0.3951  0.0569
31062SOL    HW196079   8.722   5.665   8.411  2.6341 -0.1670  0.5550
31062SOL    HW296080   8.777   5.614   8.280 -0.5050 -0.1742 -0.8619
31063SOL     OW96081   6.544   3.213   9.366  0.2507 -0.2701 -0.0426
31063SOL    HW196082   6.550   3.256   9.280  2.9754 -2.5414 -1.1615
31063SOL    HW296083   6.584   3.274   9.427  0.6643  0.3167 -0.8867
31064SOL     OW96084   1.507   6.163   0.078  0.5792 -0.1183 -0.6254
31064SOL    HW196085   1.585   6.116   0.048  0.5658 -0.8778  0.4740
31064SOL    HW296086   1.436   6.098   0.074  0.2607  0.2161 -0.4816
31065SOL     OW96087   0.428   4.722   5.932  0.2170  0.4388 -0.1137
31065SOL    HW196088   0.476   4.805   5.932 -0.5129  0.8774 -0.0919
31065SOL    HW296089   0.413   4.703   5.839 -0.3020  0.7524 -0.0998
31066SOL     OW96090   8.278   5.248   3.641 -0.3881  0.1553  0.1493
31066SOL    HW196091   8.255   5.290   3.724 -0.7410  0.2728 -0.0040
31066SOL    HW296092   8.368   5.217   3.653 -0.8419 -0.8727  0.9860
31067SOL     OW96093   9.050   3.635   4.559 -0.7174  0.2763  0.1648
31067SOL    HW196094   9.092   3.722   4.560  2.2375 -0.9716 -1.5524
31067SOL    HW296095   8.965   3.649   4.599 -0.2593  3.9279  0.2016
31068SOL     OW96096   7.446   0.384  10.428 -0.3130 -0.0124  0.4670
31068SOL    HW196097   7.394   0.449  10.382  1.2331  0.9257 -0.0152
31068SOL    HW296098   7.388   0.351  10.497 -2.4639 -0.9803 -1.6649
31069SOL     OW96099   0.485   0.991   9.335  0.3176 -0.2377  0.3152
31069SOL    HW196100   0.419   1.014   9.400  1.1219 -0.6823  1.3295
31069SOL    HW296101   0.555   1.055   9.350  0.7579 -0.7104  0.2873
31070SOL     OW96102   3.111   2.002   2.641 -0.1677 -0.0449  0.0609
31070SOL    HW196103   3.097   1.914   2.608 -0.1026  0.3974 -1.2070
31070SOL    HW296104   3.028   2.026   2.683 -1.1148  0.2489 -1.8942
31071SOL     OW96105   7.951  10.722   9.098 -0.5157  0.1495 -0.0933
31071SOL    HW196106   7.878  10.759   9.148 -0.2300 -1.1422  1.3701
31071SOL    HW296107   7.945  10.763   9.012 -1.6414  1.7113  0.6845
31072SOL     OW96108   2.810   7.908   7.109  0.4458 -0.1641 -0.1087
31072SOL    HW196109   2.832   7.820   7.139  0.6924 -0.2354 -0.4907
31072SOL    HW296110   2.882   7.932   7.049 -0.9916 -0.8060 -2.2035
31073SOL     OW96111   3.062   9.670   7.158 -0.2837  0.0399 -0.1082
31073SOL    HW196112   3.140   9.678   7.212 -1.0881  2.0435  0.8680
31073SOL    HW296113   3.011   9.600   7.198  0.0529  0.1496  0.5170
31074SOL     OW96114   3.332   1.388   4.159 -0.3255 -0.3408  0.4698
31074SOL    HW196115   3.423   1.420   4.161 -0.6033  0.4443  0.7352
31074SOL    HW296116   3.296   1.424   4.078 -0.8178  0.5287  1.0679
31075SOL     OW96117   1.606   1.025   3.181 -0.0385  0.2545 -0.5963
31075SOL    HW196118   1.667   0.970   3.231  0.9430  1.2148 -0.6910
31075SOL    HW296119   1.638   1.019   3.091  0.2357  1.1749 -0.5642
31076SOL     OW96120   7.066   4.805   5.394  0.7112 -0.0059 -0.0665
31076SOL    HW196121   7.050   4.773   5.483  0.6430 -0.9503 -0.4140
31076SOL    HW296122   7.132   4.873   5.405  1.5437 -0.8967  0.5886
31077SOL     OW96123   6.745   4.798   5.056  0.4811 -0.7035 -0.3804
31077SOL    HW196124   6.745   4.892   5.034 -0.6542 -0.4379  0.6069
31077SOL    HW296125   6.778   4.795   5.146 -0.1866 -1.1608 -0.1429
31078SOL     OW96126   5.599   2.257   5.300  0.2152 -0.1215 -0.0796
31078SOL    HW196127   5.653   2.312   5.357 -1.5033 -0.7326  2.2862
31078SOL    HW296128   5.552   2.199   5.360 -0.5031 -1.9646 -2.2614
31079SOL     OW96129   6.748   8.653  10.314 -0.3502 -0.3198  0.3659
31079SOL    HW196130   6.662   8.691  10.329  0.7709  2.5637  0.2200
31079SOL    HW296131   6.731   8.561  10.295 -3.6385  0.5919 -2.0916
31080SOL     OW96132   2.648   0.311   4.806 -0.4143  0.5467  0.0816
31080SOL    HW196133   2.743   0.311   4.818 -0.5202 -1.6011  1.4896
31080SOL    HW296134   2.613   0.341   4.890 -0.9796 -1.3651  0.5761
31081SOL     OW96135   5.620   4.624   1.511  0.0308 -0.6336 -0.0921
31081SOL    HW196136   5.631   4.549   1.570  0.4093  0.4125  1.2240
31081SOL    HW296137   5.530   4.652   1.524  0.5383  0.5141  1.1661
31082SOL     OW96138   8.880   8.877   6.746 -0.0288  0.2257 -0.2434
31082SOL    HW196139   8.855   8.883   6.838 -0.6031 -0.2525 -0.3599
31082SOL    HW296140   8.827   8.944   6.703 -0.3632 -0.0961 -0.3396
31083SOL     OW96141   5.020   1.641   8.314 -0.2707  0.3906 -0.3087
31083SOL    HW196142   4.991   1.654   8.405  0.5239  0.2542 -0.0264
31083SOL    HW296143   4.943   1.606   8.270 -0.0477 -1.8405  0.8865
31084SOL     OW96144   9.835   3.525   5.000  0.1983  0.1846 -0.3069
31084SOL    HW196145   9.901   3.582   5.040 -1.5920  2.7518 -0.7640
31084SOL    HW296146   9.757   3.539   5.053 -0.6485 -0.8881 -1.2389
31085SOL     OW96147   8.791   8.546   7.647 -0.5632  0.0656 -0.4983
31085SOL    HW196148   8.844   8.494   7.586 -0.0295  0.6863 -0.5729
31085SOL    HW296149   8.732   8.596   7.590 -0.1177  0.5873 -0.5124
31086SOL     OW96150   9.884   8.542   5.692  0.0413  0.5955 -0.0916
31086SOL    HW196151   9.942   8.504   5.759  0.6312  1.3725 -0.1509
31086SOL    HW296152   9.842   8.466   5.651 -0.1753  0.0933  1.0146
31087SOL     OW96153   9.274   7.836   5.349  0.4027  0.0809  0.1802
31087SOL    HW196154   9.283   7.811   5.257 -0.0293 -0.3035  0.2431
31087SOL    HW296155   9.364   7.856   5.377  0.7746 -1.4491  0.1454
31088SOL     OW96156   7.983   5.036  10.263  0.7226 -0.0903  0.1552
31088SOL    HW196157   8.042   4.967  10.291  0.9963 -0.0582 -0.3288
31088SOL    HW296158   7.899   5.015  10.305  1.7945  1.5938  3.4619
31089SOL     OW96159   4.691   4.315   9.454 -0.3158 -0.0700  0.9477
31089SOL    HW196160   4.668   4.280   9.540 -1.6216 -3.2531 -0.5315
31089SOL    HW296161   4.774   4.273   9.432  0.7166  1.7746  1.1446
31090SOL     OW96162   6.683   5.533   5.596 -0.1846 -0.0242 -0.2035
31090SOL    HW196163   6.752   5.559   5.535 -1.2554  1.6322 -0.7564
31090SOL    HW296164   6.628   5.611   5.607 -0.7272 -0.6268  1.9547
31091SOL     OW96165   1.936   4.326   0.367  0.4950  0.4548  0.0314
31091SOL    HW196166   1.981   4.266   0.307 -0.3447  0.0400 -0.1907
31091SOL    HW296167   1.862   4.276   0.401  0.7642  0.7984  1.1737
31092SOL     OW96168   1.986   2.434   5.921 -0.1182  0.5387 -0.2268
31092SOL    HW196169   1.950   2.373   5.986  2.4753  0.0910  0.9050
31092SOL    HW296170   1.937   2.415   5.841  0.3801 -2.9090  0.1315
31093SOL     OW96171   8.265  10.029   7.724  0.4056 -0.5018 -0.2102
31093SOL    HW196172   8.223  10.036   7.638  2.3740 -2.8227 -1.4907
31093SOL    HW296173   8.283  10.119   7.750 -2.0044  0.3713 -1.2310
31094SOL     OW96174   2.346   9.165   7.153 -0.0364 -0.2662 -0.1651
31094SOL    HW196175   2.409   9.172   7.081 -2.2626 -0.0904 -2.2282
31094SOL    HW296176   2.360   9.078   7.190  2.0762  0.1697  0.1399
31095SOL     OW96177  10.359   8.220   7.893 -0.3935  0.2429  0.6444
31095SOL    HW196178  10.296   8.289   7.869 -1.4035  0.7764  4.2604
31095SOL    HW296179  10.321   8.180   7.971  1.8857 -2.1398  0.6299
31096SOL     OW96180   1.186   0.492   3.786 -0.0304 -0.0805  0.2275
31096SOL    HW196181   1.139   0.573   3.807 -1.5966 -0.6704 -0.7880
31096SOL    HW296182   1.232   0.512   3.705 -0.1986 -0.1193  0.1217
31097SOL     OW96183   6.620   0.464   6.277 -0.1883 -0.2009  0.2113
31097SOL    HW196184   6.612   0.503   6.365 -0.4260 -0.5619  0.3511
31097SOL    HW296185   6.620   0.370   6.293  0.8124 -0.2628 -0.0926
31098SOL     OW96186   7.127   2.020   2.970  0.6565  0.1360  0.1626
31098SOL    HW196187   7.218   2.008   2.998  1.2726  1.9772 -0.8685
31098SOL    HW296188   7.088   1.934   2.980  2.1866 -0.4543  1.7342
31099SOL     OW96189   2.505   2.891   8.153 -0.1229 -0.0019 -0.4040
31099SOL    HW196190   2.492   2.982   8.126 -3.0287  1.5651  4.8025
31099SOL    HW296191   2.570   2.896   8.224 -0.8522 -1.7875  0.4501
31100SOL     OW96192   6.620   2.146   6.298  0.2650  0.2212  0.2260
31100SOL    HW196193   6.652   2.124   6.386  1.2939  0.5230 -0.0645
31100SOL    HW296194   6.530   2.177   6.312  0.3281  0.0094  1.1385
31101SOL     OW96195  10.308   7.108   1.430  0.0531 -0.2818  0.0487
31101SOL    HW196196  10.325   7.173   1.499  1.4053 -0.1124 -0.4022
31101SOL    HW296197  10.219   7.078   1.447  0.4861 -0.5922  2.1531
31102SOL     OW96198   0.432   8.391  10.185  0.2973  0.6972 -0.7512
31102SOL    HW196199   0.481   8.309  10.190 -1.4449 -0.3360  0.8723
31102SOL    HW296200   0.484   8.453  10.236  1.8547  0.7934 -2.3559
31103SOL     OW96201  10.646   0.928   8.452  0.3771  0.4707  0.1728
31103SOL    HW196202  10.587   0.945   8.526  0.1005  0.2996 -0.0043
31103SOL    HW296203  10.590   0.887   8.386  0.4970  1.1303 -0.3509
31104SOL     OW96204   4.831   4.185   1.556  0.0581 -0.0680  0.5673
31104SOL    HW196205   4.839   4.261   1.613  0.5776  0.4662 -0.2112
31104SOL    HW296206   4.886   4.118   1.598 -1.2946 -0.4349  1.8783
31105SOL     OW96207   6.520   5.203   0.445  0.2068 -0.1872 -0.2104
31105SOL    HW196208   6.594   5.258   0.469  0.4352 -0.2495 -0.7558
31105SOL    HW296209   6.483   5.174   0.528  1.6402 -1.2959  0.0750
31106SOL     OW96210   4.381   8.421   3.306  0.5177  0.2274 -0.5040
31106SOL    HW196211   4.319   8.424   3.379  0.5942  2.1012 -0.4563
31106SOL    HW296212   4.410   8.330   3.301 -0.5224 -0.1979  0.9226
31107SOL     OW96213   9.270   8.261   8.304 -0.5102  0.1272 -1.0979
31107SOL    HW196214   9.305   8.351   8.300  1.2953 -0.3462  1.3448
31107SOL    HW296215   9.188   8.265   8.256 -0.2169  2.9724 -1.5403
31108SOL     OW96216   6.377   4.669   7.281 -0.2139  0.6235 -0.2436
31108SOL    HW196217   6.322   4.606   7.328 -2.6491  0.9033 -2.4806
31108SOL    HW296218   6.364   4.751   7.328 -0.0618  0.2421  0.4692
31109SOL     OW96219   0.603   9.108   2.830 -0.2948  0.4551 -0.0914
31109SOL    HW196220   0.561   9.051   2.765 -2.2847  1.5744  0.1274
31109SOL    HW296221   0.671   9.053   2.869  1.4846 -0.0916 -3.5014
31110SOL     OW96222   4.932   0.573   0.407 -0.8226  0.1000  0.1034
31110SOL    HW196223   4.851   0.566   0.458 -0.7714 -0.7804  0.0628
31110SOL    HW296224   4.964   0.661   0.426 -2.0484  0.6498 -0.2663
31111SOL     OW96225   9.357   7.014   8.269 -0.4554  0.0232  0.4360
31111SOL    HW196226   9.262   7.028   8.274 -0.5111 -0.5615  1.2804
31111SOL    HW296227   9.394   7.079   8.329 -0.5883 -1.9352  2.8290
31112SOL     OW96228   4.984   4.667   0.492  0.4829 -0.3155  0.4941
31112SOL    HW196229   4.931   4.618   0.429  0.5989  1.5934 -1.2065
31112SOL    HW296230   4.924   4.687   0.564 -0.3873 -0.3725 -0.2003
31113SOL     OW96231   1.852   0.860   0.988 -0.4007 -0.5676 -0.7413
31113SOL    HW196232   1.947   0.844   0.987 -0.0610  0.4174  2.7985
31113SOL    HW296233   1.813   0.775   1.007  0.0384 -0.5258  0.4470
31114SOL     OW96234   3.121   9.742   3.389 -0.6049  0.5123 -0.3274
31114SOL    HW196235   3.076   9.826   3.380 -0.1499  0.6129 -2.0734
31114SOL    HW296236   3.167   9.731   3.305  1.7870 -0.0704  0.9635
31115SOL     OW96237   1.350   2.523   0.354  0.1190 -0.3181  0.5784
31115SOL    HW196238   1.278   2.573   0.392  0.5950  1.1663 -0.3838
31115SOL    HW296239   1.429   2.571   0.379  0.5375 -0.0721 -1.1019
31116SOL     OW96240   6.840   2.954   4.034  0.3524 -0.4109 -0.2648
31116SOL    HW196241   6.860   3.047   4.040 -1.0218 -0.1139  0.2871
31116SOL    HW296242   6.913   2.911   4.078  0.4241  0.5009  0.5534
31117SOL     OW96243   6.362   8.780   6.635  0.1347 -0.3566 -0.0190
31117SOL    HW196244   6.419   8.850   6.669  0.5304 -1.4440  1.6441
31117SOL    HW296245   6.310   8.752   6.710 -1.9541 -0.0758 -1.2804
31118SOL     OW96246   0.908   7.199   0.063  0.2242  0.0678 -0.1276
31118SOL    HW196247   0.953   7.193  -0.021 -1.6220 -0.1837 -1.1583
31118SOL    HW296248   0.915   7.291   0.088  3.2627 -0.3419  0.9565
31119SOL     OW96249   9.496   7.326   4.537  0.0960  0.2359  1.0537
31119SOL    HW196250   9.520   7.414   4.507 -1.4059  0.6031  0.8578
31119SOL    HW296251   9.569   7.300   4.594 -0.0764  2.1940  2.2744
31120SOL     OW96252   1.292   0.185   4.782  0.0363  0.6808  0.5196
31120SOL    HW196253   1.348   0.116   4.815 -1.6533 -0.9144  0.2107
31120SOL    HW296254   1.352   0.257   4.762  2.3648 -1.7299 -2.0746
31121SOL     OW96255   0.623   1.875   9.705  0.4771  0.0245 -0.6941
31121SOL    HW196256   0.683   1.929   9.756  1.7220 -0.6563 -1.4047
31121SOL    HW296257   0.659   1.786   9.710 -1.0021 -0.6003 -0.3399
31122SOL     OW96258   3.201   2.358   2.726 -0.2605 -0.1438 -0.3218
31122SOL    HW196259   3.151   2.328   2.802  0.8404 -0.2971  0.3612
31122SOL    HW296260   3.231   2.445   2.750  1.0593 -0.6421 -0.0842
31123SOL     OW96261   1.572   4.921  10.596 -0.0542 -0.3072  0.0108
31123SOL    HW196262   1.541   4.833  10.617 -0.9480 -0.5434 -2.0436
31123SOL    HW296263   1.506   4.955  10.535  0.9195  1.3051 -0.1826
31124SOL     OW96264   3.762   0.950  10.775  0.6206 -0.0658 -0.2706
31124SOL    HW196265   3.673   0.980  10.756  0.5958  0.1938  0.2433
31124SOL    HW296266   3.782   0.987  10.862  1.0606 -0.4904 -0.1886
31125SOL     OW96267   0.300   2.665   3.234 -0.9643  0.4013 -0.1930
31125SOL    HW196268   0.245   2.619   3.298 -2.8983  1.2754 -1.1673
31125SOL    HW296269   0.352   2.726   3.286 -3.0032  1.5912  0.5448
31126SOL     OW96270  10.089   9.253   7.965  0.4701  0.2014 -0.1849
31126SOL    HW196271  10.130   9.185   8.019  0.0711  0.6450  0.6932
31126SOL    HW296272  10.037   9.304   8.027  0.0106  0.7274 -0.9987
31127SOL     OW96273   3.434   3.411   8.744  0.2121  0.2744 -0.0038
31127SOL    HW196274   3.407   3.457   8.665 -1.5401 -2.3400 -1.0600
31127SOL    HW296275   3.502   3.351   8.715  1.2586  0.9175  1.0089
31128SOL     OW96276   5.791   9.436   3.885 -0.8179  0.8798 -0.0203
31128SOL    HW196277   5.784   9.348   3.848 -1.6848  1.2759 -0.8375
31128SOL    HW296278   5.838   9.487   3.818  0.3879  0.8730  0.7804
31129SOL     OW96279   7.297   0.280   6.329 -0.0059 -0.0323  0.0764
31129SOL    HW196280   7.206   0.306   6.336  0.4577  1.4015  1.1693
31129SOL    HW296281   7.341   0.322   6.403  1.5990 -0.4214 -0.5888
31130SOL     OW96282   6.366   7.627   9.230 -0.3584 -0.2936 -0.0095
31130SOL    HW196283   6.321   7.560   9.281  0.6983  0.3314  1.8203
31130SOL    HW296284   6.451   7.589   9.209 -1.1163 -0.9132 -2.2096
31131SOL     OW96285   5.576   7.713   5.757  0.3570  0.3389  0.0245
31131SOL    HW196286   5.672   7.708   5.758  0.3566  0.0665 -0.7215
31131SOL    HW296287   5.550   7.663   5.679 -0.4132  0.0595  0.4493
31132SOL     OW96288   4.418   2.254   2.897 -0.9083 -0.3831 -0.0403
31132SOL    HW196289   4.323   2.249   2.899 -0.8951 -0.5677  0.2115
31132SOL    HW296290   4.439   2.342   2.928 -0.9317 -1.0391  1.9435
31133SOL     OW96291   1.643   7.879   0.652  0.1410 -0.6127 -0.8109
31133SOL    HW196292   1.659   7.920   0.567  0.6951  0.7300 -0.0919
31133SOL    HW296293   1.730   7.872   0.691 -0.2780  0.3447  0.3292
31134SOL     OW96294   9.811   9.046   4.687  0.0597  0.0200  0.1668
31134SOL    HW196295   9.789   8.961   4.649 -0.6534  0.3191 -0.1031
31134SOL    HW296296   9.753   9.108   4.644  0.2395  0.5812  0.7070
31135SOL     OW96297   9.847  10.278   6.744  0.1068  0.3740  0.2972
31135SOL    HW196298   9.931  10.231   6.739  0.1164  0.4706 -0.7131
31135SOL    HW296299   9.869  10.369   6.724 -0.0673  0.6265  1.2291
31136SOL     OW96300   3.783   2.558   9.077 -0.3591 -0.4053 -0.1432
31136SOL    HW196301   3.731   2.477   9.077 -0.7593 -0.2339 -2.6660
31136SOL    HW296302   3.869   2.531   9.044  0.5759 -0.2963  1.9988
31137SOL     OW96303   9.734   8.456   8.111  0.2294 -0.4637  0.3960
31137SOL    HW196304   9.814   8.441   8.161 -0.7663  0.7080  2.4505
31137SOL    HW296305   9.711   8.547   8.129 -1.1804 -0.5564 -0.7484
31138SOL     OW96306   1.251   8.426  10.007  0.1995  0.0644 -0.4422
31138SOL    HW196307   1.330   8.465  10.042 -1.3922  1.9746  1.3078
31138SOL    HW296308   1.196   8.500   9.982 -0.7355 -1.1942 -2.4423
31139SOL     OW96309   0.938   1.147   1.125 -0.2088  0.3282 -0.2996
31139SOL    HW196310   0.857   1.179   1.166  0.0739 -0.4186  0.8986
31139SOL    HW296311   1.006   1.206   1.158 -0.1884  0.7070 -0.9908
31140SOL     OW96312   7.834   2.636   5.930 -0.0349  0.3500  0.1977
31140SOL    HW196313   7.926   2.658   5.946 -0.0637  1.3979 -0.9413
31140SOL    HW296314   7.836   2.575   5.856 -0.3178  1.7450 -1.0127
31141SOL     OW96315   0.586   6.304   1.301  0.0696  0.7572 -0.2139
31141SOL    HW196316   0.527   6.379   1.308  0.4430  0.9559  1.2212
31141SOL    HW296317   0.666   6.339   1.261 -0.2231  0.8342 -0.7307
31142SOL     OW96318   5.633   1.574   4.385 -0.3219 -0.0425  0.0766
31142SOL    HW196319   5.666   1.634   4.451  1.8391  0.9067 -1.7115
31142SOL    HW296320   5.704   1.512   4.371 -1.6185 -1.6357  0.2118
31143SOL     OW96321   6.265   7.270   5.765  0.6998 -0.6247 -0.0782
31143SOL    HW196322   6.297   7.229   5.845  2.1392  1.9900  0.8334
31143SOL    HW296323   6.297   7.214   5.694  1.5682 -1.6650  1.0940
31144SOL     OW96324   0.561   0.744   1.573  0.1841 -0.0260 -0.6189
31144SOL    HW196325   0.609   0.662   1.581  0.4470  0.1005 -0.8755
31144SOL    HW296326   0.586   0.794   1.651  0.5910  0.1013 -0.8288
31145SOL     OW96327   0.151   5.567  10.195 -0.7128 -0.2221  0.1645
31145SOL    HW196328   0.140   5.506  10.122  0.5012  0.7047 -0.8408
31145SOL    HW296329   0.219   5.527  10.249 -0.7149 -0.3043  0.1069
31146SOL     OW96330   6.369   5.829   6.835  0.1870 -0.1286 -0.4225
31146SOL    HW196331   6.326   5.744   6.845  1.2129 -1.0339 -2.9012
31146SOL    HW296332   6.340   5.861   6.750  1.3349  1.0655 -0.3975
31147SOL     OW96333   9.572   6.439  10.011 -0.3698 -0.4372  0.1297
31147SOL    HW196334   9.602   6.515   9.960 -0.6543 -0.8075 -0.6057
31147SOL    HW296335   9.499   6.471  10.063  0.5825  0.2062  1.1069
31148SOL     OW96336   8.560   1.799   0.798 -0.4817 -0.0236  0.2986
31148SOL    HW196337   8.487   1.813   0.738 -1.2112 -0.3946  1.0841
31148SOL    HW296338   8.581   1.887   0.830 -0.6256  0.0762  0.1240
31149SOL     OW96339   0.825   7.327   7.929  0.2073 -0.4973  0.0996
31149SOL    HW196340   0.870   7.391   7.983 -0.7338 -0.0570  0.3838
31149SOL    HW296341   0.742   7.368   7.907  0.7239 -0.4955 -2.0535
31150SOL     OW96342   8.396   2.980   2.607  0.1233 -0.1368 -0.4657
31150SOL    HW196343   8.379   3.057   2.553 -1.5666 -1.7638 -2.3865
31150SOL    HW296344   8.371   3.007   2.696 -1.5245  1.1688 -1.2847
31151SOL     OW96345   5.614   3.889   3.891  0.9118 -0.0952 -0.1717
31151SOL    HW196346   5.596   3.884   3.985 -1.2241 -0.0042 -0.5408
31151SOL    HW296347   5.529   3.903   3.850  1.8650  0.4788 -2.0994
31152SOL     OW96348   9.791   0.052   5.130 -0.7000  0.0467 -0.3781
31152SOL    HW196349   9.862   0.022   5.187 -0.5473  2.8702  1.1188
31152SOL    HW296350   9.728  -0.019   5.130  0.5523 -1.1271  1.1346
31153SOL     OW96351   8.658   1.665   1.935  0.5734 -0.3196  0.0162
31153SOL    HW196352   8.682   1.623   2.018 -1.8235 -0.4001  0.7762
31153SOL    HW296353   8.605   1.599   1.889  0.3578  0.3584 -0.7344
31154SOL     OW96354   9.694   4.312   1.952  0.1134 -0.1805 -0.3134
31154SOL    HW196355   9.775   4.323   2.001  0.4406  0.5854 -0.9932
31154SOL    HW296356   9.648   4.396   1.962  0.4516  0.2125 -1.7351
31155SOL     OW96357   7.702   1.904   6.113  0.6736 -0.7055  0.0389
31155SOL    HW196358   7.721   1.849   6.037  0.7451  0.1194 -0.5476
31155SOL    HW296359   7.712   1.993   6.082  1.3376 -0.3555  1.1867
31156SOL     OW96360   1.662   2.480   1.574 -0.1081 -0.1232  0.4874
31156SOL    HW196361   1.738   2.471   1.632 -1.0855 -2.7348  1.5088
31156SOL    HW296362   1.677   2.414   1.506 -1.5421 -0.8236  0.8289
31157SOL     OW96363   1.441   0.565   3.527  0.3288 -0.4148 -0.3456
31157SOL    HW196364   1.457   0.472   3.543  0.5671 -0.2728  0.2826
31157SOL    HW296365   1.481   0.609   3.602 -1.0072  0.1049  0.0913
31158SOL     OW96366   7.544   0.891   9.057 -0.0155 -0.2836 -0.7415
31158SOL    HW196367   7.550   0.894   9.152 -0.4874 -2.2279 -0.5910
31158SOL    HW296368   7.507   0.976   9.032 -2.7194 -0.7705  1.1110
31159SOL     OW96369   2.825   0.086  10.069 -0.1679 -0.2223  0.8329
31159SOL    HW196370   2.825   0.104   9.975 -1.3470  0.7800  0.9875
31159SOL    HW296371   2.737   0.053  10.087 -1.0243  2.4033  2.0145
31160SOL     OW96372   1.282   5.741  10.024  0.0799 -0.1426  0.0942
31160SOL    HW196373   1.302   5.735   9.931  0.7382  0.5804  0.1820
31160SOL    HW296374   1.364   5.766  10.066 -0.5419  1.0843  0.6751
31161SOL     OW96375   2.833   7.871   0.335  0.1560  0.1510 -0.1478
31161SOL    HW196376   2.800   7.844   0.249  3.0834 -0.6600 -1.1238
31161SOL    HW296377   2.832   7.790   0.386 -1.4555  0.6077  0.6303
31162SOL     OW96378   0.695   6.840   7.816  0.2927  0.0335 -0.1315
31162SOL    HW196379   0.653   6.925   7.828  2.1011  0.9348  0.1040
31162SOL    HW296380   0.728   6.818   7.903  0.3540 -0.6208 -0.3187
31163SOL     OW96381   9.476   6.221   1.233  0.6244  0.4881 -0.4212
31163SOL    HW196382   9.461   6.293   1.295  1.2886 -0.4667  0.8801
31163SOL    HW296383   9.549   6.172   1.270  1.5286  0.2837 -2.3475
31164SOL     OW96384   1.668  10.623   3.170  0.1634  0.8163  0.5565
31164SOL    HW196385   1.578  10.603   3.194 -0.1174  0.0277 -1.0069
31164SOL    HW296386   1.664  10.646   3.077  1.6093  0.4013  0.3567
31165SOL     OW96387   7.042   9.463  10.017  0.4090 -0.4380 -0.3423
31165SOL    HW196388   7.011   9.553  10.009 -2.9245 -1.4688 -0.3197
31165SOL    HW296389   7.095   9.449   9.939  1.6781  1.7256  0.0557
31166SOL     OW96390   1.968   0.524   9.634 -0.3045  0.0430 -0.3622
31166SOL    HW196391   1.937   0.477   9.556  0.7434  1.9496 -2.0153
31166SOL    HW296392   1.945   0.615   9.618  1.6022  0.7706  0.6951
31167SOL     OW96393  10.113   3.019   4.678 -0.3568 -0.1518  0.2885
31167SOL    HW196394  10.056   2.946   4.652 -0.1340  0.3283 -1.7214
31167SOL    HW296395  10.072   3.097   4.641  1.2350  0.2786 -0.6752
31168SOL     OW96396   0.221   8.210   9.186 -0.6621 -0.1739  0.1053
31168SOL    HW196397   0.229   8.127   9.233 -2.8994 -1.0072 -0.8051
31168SOL    HW296398   0.308   8.227   9.151  0.2014 -1.3227  1.5967
31169SOL     OW96399   7.798   1.054   4.061  0.3231  0.0765 -0.1228
31169SOL    HW196400   7.708   1.086   4.066  0.0127 -0.7558 -0.2503
31169SOL    HW296401   7.793   0.976   4.006  1.2102  0.3231 -0.5623
31170SOL     OW96402  10.514   6.132   7.994  0.5515  0.1897 -0.3152
31170SOL    HW196403  10.428   6.092   7.982  1.8628 -2.0591 -3.8989
31170SOL    HW296404  10.518   6.202   7.929  1.2228  0.7278  0.2853
31171SOL     OW96405   9.250   6.744   2.506 -0.2438  0.2384 -0.1437
31171SOL    HW196406   9.304   6.783   2.437  0.3144 -0.1678  0.0555
31171SOL    HW296407   9.308   6.681   2.549 -0.5584  0.5286  0.7338
31172SOL     OW96408   6.985   5.163  10.059  0.4800  0.4172 -0.1390
31172SOL    HW196409   6.913   5.198  10.005  1.1198  0.9999 -0.6244
31172SOL    HW296410   6.940   5.122  10.133 -0.3311  1.7046  0.1228
31173SOL     OW96411   0.287   2.563   7.735  0.2646  0.2058 -0.4090
31173SOL    HW196412   0.209   2.508   7.724  0.1119  0.6813 -2.0542
31173SOL    HW296413   0.275   2.604   7.821 -0.2476 -1.3126  0.2778
31174SOL     OW96414   4.978   0.369   8.046  0.0073  0.4431 -0.1965
31174SOL    HW196415   5.024   0.380   7.963 -1.3653 -2.9526 -1.5864
31174SOL    HW296416   4.903   0.314   8.025 -0.2190 -0.8873  3.3803
31175SOL     OW96417   8.734   6.090   4.256  0.1213  0.3671 -0.5792
31175SOL    HW196418   8.773   6.011   4.218 -2.6611 -1.4258 -0.0841
31175SOL    HW296419   8.672   6.120   4.190 -0.8610  0.4327  0.3414
31176SOL     OW96420   8.905   3.465  10.136  0.6057  0.1273 -0.3798
31176SOL    HW196421   8.975   3.399  10.133  1.6830  1.2095  0.1012
31176SOL    HW296422   8.854   3.442  10.213  1.9632  0.7804  0.7689
31177SOL     OW96423   9.862   5.738   8.449  0.6555  0.5165  0.3204
31177SOL    HW196424   9.931   5.753   8.385  0.1016 -1.4858 -0.7895
31177SOL    HW296425   9.892   5.664   8.501 -0.5218 -0.2418 -0.0305
31178SOL     OW96426   6.051   5.620   9.040  0.0034  0.4443  0.1732
31178SOL    HW196427   5.973   5.625   8.985  1.0415  2.8325 -1.2293
31178SOL    HW296428   6.084   5.531   9.028 -0.3552  0.5980 -2.3668
31179SOL     OW96429   9.250   8.080   7.568  0.4373 -0.5863  0.2373
31179SOL    HW196430   9.204   8.034   7.638 -1.1900  1.4248  0.6063
31179SOL    HW296431   9.180   8.124   7.519  1.8654  1.8403  0.2298
31180SOL     OW96432   5.971   1.057   2.885  0.5299 -0.2858  0.1160
31180SOL    HW196433   5.967   1.061   2.981  0.7524  0.5923  0.0974
31180SOL    HW296434   5.885   1.089   2.857  0.0454 -1.6141  0.0271
31181SOL     OW96435   4.475  10.554   8.664 -0.2275  0.3619 -0.4959
31181SOL    HW196436   4.386  10.587   8.654 -0.3232 -0.1989 -1.6483
31181SOL    HW296437   4.530  10.630   8.647 -0.4777  0.4762 -0.8104
31182SOL     OW96438   4.534   8.305   0.476  0.5223 -0.2645 -0.0767
31182SOL    HW196439   4.511   8.286   0.385  1.0852 -0.1360 -0.2464
31182SOL    HW296440   4.547   8.399   0.478 -0.4097 -0.1397  0.3480
31183SOL     OW96441   1.410   9.187   7.063 -0.0715 -0.1121 -0.0942
31183SOL    HW196442   1.495   9.188   7.019 -0.6936  0.0779 -1.3152
31183SOL    HW296443   1.378   9.277   7.056 -0.6541 -0.3248 -0.1857
31184SOL     OW96444   4.105   3.964   5.378  0.2730  0.0360  0.2398
31184SOL    HW196445   4.190   3.998   5.409 -0.3853  0.8696  1.2182
31184SOL    HW296446   4.045   3.984   5.450 -1.2459  1.6427 -1.4025
31185SOL     OW96447   5.540   2.518   1.877 -0.4934  0.4455 -1.1038
31185SOL    HW196448   5.578   2.548   1.795 -1.2169 -0.2544 -1.7132
31185SOL    HW296449   5.553   2.423   1.876  1.4667  0.6393  0.6225
31186SOL     OW96450   3.286   9.318   3.109 -0.3438 -0.0937  0.2662
31186SOL    HW196451   3.225   9.392   3.107 -0.7396 -0.4078 -1.4390
31186SOL    HW296452   3.230   9.241   3.115  0.0356 -0.3065  1.3187
31187SOL     OW96453   9.671   9.380  10.355  0.2105  0.6845 -0.2174
31187SOL    HW196454   9.642   9.405  10.442 -1.0375 -1.4006  0.0395
31187SOL    HW296455   9.762   9.352  10.367  0.6960  2.3013 -0.0011
31188SOL     OW96456   4.574   0.787   0.825 -0.6253  0.1844  0.1723
31188SOL    HW196457   4.583   0.875   0.861 -1.8851 -0.2299  1.5897
31188SOL    HW296458   4.560   0.730   0.901  1.6025 -1.5011 -0.5627
31189SOL     OW96459   4.048   7.370   8.528  0.3453  0.1835  0.5829
31189SOL    HW196460   4.115   7.384   8.461 -2.2126  0.5116 -2.1201
31189SOL    HW296461   3.983   7.439   8.512 -1.1024 -0.6353  2.4677
31190SOL     OW96462   6.193   2.234   1.949 -0.3481 -0.8285  0.3978
31190SOL    HW196463   6.100   2.230   1.974 -0.7986  1.6300 -0.5810
31190SOL    HW296464   6.195   2.297   1.878  2.1768 -0.4806  0.7078
31191SOL     OW96465   3.156   0.560   4.560  0.6852  0.5983  0.8088
31191SOL    HW196466   3.249   0.539   4.565  0.6844  0.6791  1.2253
31191SOL    HW296467   3.112   0.475   4.559  0.7891  0.5478 -0.0840
31192SOL     OW96468   2.583  10.011   1.595  0.2189 -0.1414  0.0084
31192SOL    HW196469   2.551   9.922   1.578  0.8960 -1.0209  2.9330
31192SOL    HW296470   2.617  10.008   1.684 -0.9482  3.3948  0.7256
31193SOL     OW96471   1.905   3.335   6.315 -0.1240  0.4881 -0.1159
31193SOL    HW196472   1.854   3.416   6.311 -2.5147 -0.9111  0.2943
31193SOL    HW296473   1.888   3.300   6.402  1.3732 -0.1933 -0.0607
31194SOL     OW96474   9.737   7.377   0.397 -0.0386  0.0940  0.5043
31194SOL    HW196475   9.667   7.349   0.456  1.2985 -0.8204  1.7074
31194SOL    HW296476   9.773   7.296   0.362 -0.4094  0.5977 -1.1382
31195SOL     OW96477   0.892   4.789  10.320  0.0548 -0.3888  0.7133
31195SOL    HW196478   0.920   4.800  10.411 -0.7289 -0.8112  1.0111
31195SOL    HW296479   0.933   4.706  10.293 -0.6265 -0.8370  1.0427
31196SOL     OW96480   1.316   5.222   5.846  0.2571 -0.2910 -0.4888
31196SOL    HW196481   1.309   5.226   5.941  1.9394  0.6453 -0.3763
31196SOL    HW296482   1.310   5.129   5.826 -0.8603 -0.4483  0.4387
31197SOL     OW96483   7.619   2.865   9.161  0.4408  0.0039 -0.1820
31197SOL    HW196484   7.634   2.959   9.148  1.1450 -0.0031  0.4990
31197SOL    HW296485   7.635   2.826   9.075  2.6479  0.2337  0.0463
31198SOL     OW96486   1.359   4.234   6.854 -0.6934  0.4576 -0.3010
31198SOL    HW196487   1.389   4.160   6.802 -0.9424 -0.3233  0.6373
31198SOL    HW296488   1.270   4.252   6.822 -0.8510 -0.0261 -0.1406
31199SOL     OW96489   2.913   4.147   6.666 -0.3898  0.2468 -0.2376
31199SOL    HW196490   2.996   4.149   6.618  0.2972  0.0713  0.9136
31199SOL    HW296491   2.847   4.160   6.599  0.3739 -2.2117 -1.5999
31200SOL     OW96492   5.639   7.869   9.238 -0.5687 -0.0397  0.0297
31200SOL    HW196493   5.676   7.860   9.325  1.7462  0.8101 -0.7815
31200SOL    HW296494   5.633   7.780   9.204 -0.3894 -0.2808  0.6298
31201SOL     OW96495   9.921   8.433   5.162  0.1649 -0.3204 -0.3249
31201SOL    HW196496   9.987   8.494   5.129  0.2246 -0.0567  0.2799
31201SOL    HW296497   9.898   8.466   5.249 -1.3677  0.0882 -0.8445
31202SOL     OW96498   7.449   2.835   5.432  0.3822 -0.1816  0.2994
31202SOL    HW196499   7.510   2.787   5.376  1.3254  3.0512 -1.7831
31202SOL    HW296500   7.497   2.849   5.513  0.7955 -1.0871  0.2249
31203SOL     OW96501   3.060   6.315   6.390  0.0395  0.1433  0.0139
31203SOL    HW196502   3.109   6.237   6.414 -3.5638 -1.8204  1.7466
31203SOL    HW296503   3.011   6.290   6.312  0.1260  1.3052 -0.4378
31204SOL     OW96504   3.748   8.073   8.541  0.5019  0.2359  0.9110
31204SOL    HW196505   3.779   8.037   8.458  0.8380 -0.0643  1.1611
31204SOL    HW296506   3.820   8.055   8.603 -0.4960 -1.2578  1.7189
31205SOL     OW96507  10.661   0.473   1.931  0.1469 -0.2895  0.3646
31205SOL    HW196508  10.712   0.393   1.919  0.7704  0.0424  0.7654
31205SOL    HW296509  10.720   0.532   1.978 -0.9206 -0.2213  1.6719
31206SOL     OW96510   5.965   3.349   5.766 -0.0868 -0.1350  0.8720
31206SOL    HW196511   5.993   3.313   5.850  1.2206  2.4193  1.6461
31206SOL    HW296512   5.959   3.444   5.782 -1.6674  0.2161 -1.4252
31207SOL     OW96513   2.499   3.574  10.084  0.2811  0.0218  0.1166
31207SOL    HW196514   2.530   3.634  10.152 -0.9811  0.8840 -0.0146
31207SOL    HW296515   2.456   3.503  10.132  0.3605  0.0598  0.2434
31208SOL     OW96516   8.707   6.331   6.114 -0.1769  0.1944  0.3145
31208SOL    HW196517   8.762   6.385   6.056 -0.4583 -0.3499 -0.4671
31208SOL    HW296518   8.708   6.244   6.075 -0.2640 -0.2257  1.2124
31209SOL     OW96519   0.430   4.850   3.369 -0.2513 -0.1688 -0.7836
31209SOL    HW196520   0.390   4.932   3.397 -0.0662 -1.1120  2.7332
31209SOL    HW296521   0.367   4.783   3.395  0.6693 -1.2793 -1.3279
31210SOL     OW96522   0.891   5.827   5.877 -0.0139  0.1339 -0.0118
31210SOL    HW196523   0.901   5.906   5.825 -2.0400  0.7808  0.4768
31210SOL    HW296524   0.977   5.786   5.877  0.7925  1.7548 -1.2059
31211SOL     OW96525   4.989   3.794   8.541  0.5882 -0.2738  0.4833
31211SOL    HW196526   4.896   3.815   8.530  0.2292 -2.0954 -0.3050
31211SOL    HW296527   4.994   3.755   8.629  0.7706  0.5951  0.8648
31212SOL     OW96528   8.844   9.262   0.936 -0.2907 -0.6566 -0.1458
31212SOL    HW196529   8.900   9.225   1.005 -1.8726 -0.2227  1.4528
31212SOL    HW296530   8.755   9.247   0.968 -1.0637 -0.0234 -1.9159
31213SOL     OW96531   9.566   1.967   2.021  0.4385  0.2333 -0.5522
31213SOL    HW196532   9.659   1.985   2.002  0.7095 -0.4399  0.0826
31213SOL    HW296533   9.568   1.887   2.073 -0.4719  0.5665  0.0003
31214SOL     OW96534  10.557   8.443   1.643 -0.1771  0.1527 -0.1764
31214SOL    HW196535  10.523   8.482   1.562  0.2997 -0.3167 -0.6103
31214SOL    HW296536  10.545   8.349   1.630 -0.6333  0.1068  0.5484
31215SOL     OW96537  10.715   5.399  10.129  0.0508 -0.1590  0.0853
31215SOL    HW196538  10.629   5.442  10.123  0.8681  1.4312 -0.7735
31215SOL    HW296539  10.718   5.366  10.218 -1.1652  0.4074  0.3706
31216SOL     OW96540   6.410   1.097  10.265 -0.0203  0.6391  0.6240
31216SOL    HW196541   6.336   1.109  10.205 -0.5400 -0.9514  0.8757
31216SOL    HW296542   6.384   1.021  10.319  1.3330  0.7345  1.4507
31217SOL     OW96543   5.318   9.870   8.193 -0.1415 -0.0176 -0.2367
31217SOL    HW196544   5.255   9.849   8.262 -0.4309 -0.1867 -0.5478
31217SOL    HW296545   5.390   9.913   8.239 -0.8084  0.8606  0.0269
31218SOL     OW96546   8.473  10.089   0.326  0.0307 -0.7623 -0.1380
31218SOL    HW196547   8.484  10.138   0.244 -1.2444 -0.5536 -0.1984
31218SOL    HW296548   8.431  10.151   0.386 -0.1342 -1.2916  0.2966
31219SOL     OW96549   0.881   1.515   8.108  0.0733 -0.4205  0.1064
31219SOL    HW196550   0.908   1.552   8.192 -0.0827  1.4149 -0.5967
31219SOL    HW296551   0.791   1.484   8.123 -1.8223  4.0412 -0.3843
31220SOL     OW96552   8.313   9.323   6.983  0.7622 -0.3281 -0.3675
31220SOL    HW196553   8.383   9.385   7.001 -0.4349  0.6210  1.3683
31220SOL    HW296554   8.235   9.364   7.019 -0.4403 -1.9988 -0.9193
31221SOL     OW96555   9.946   1.384   1.566 -0.0822 -0.5936 -0.0208
31221SOL    HW196556   9.902   1.315   1.515 -0.5118 -0.3715  0.0424
31221SOL    HW296557   9.986   1.337   1.639 -2.5411 -0.5333  1.4784
31222SOL     OW96558   6.289  10.056   1.899 -0.0315  0.1263 -0.0425
31222SOL    HW196559   6.266  10.037   1.808  1.6772  0.2558 -0.5479
31222SOL    HW296560   6.321   9.973   1.933  0.3399  0.3219  0.0915
31223SOL     OW96561   4.139   5.624   6.202 -0.4319  0.1003  0.6088
31223SOL    HW196562   4.193   5.626   6.123 -1.6256 -0.8541 -0.2875
31223SOL    HW296563   4.186   5.565   6.262 -0.0586 -0.0376  0.1870
31224SOL     OW96564   6.982   6.046   9.120 -0.2022  0.4609 -0.4064
31224SOL    HW196565   6.898   6.045   9.164  0.0365  0.6258  0.0631
31224SOL    HW296566   7.037   5.988   9.173  0.1184  0.7504 -0.4183
31225SOL     OW96567   6.517  10.199   9.557 -0.1019  0.0250 -0.2841
31225SOL    HW196568   6.568  10.227   9.481 -0.8060  1.3257 -0.2951
31225SOL    HW296569   6.431  10.240   9.546 -0.4523 -0.3410  0.8575
31226SOL     OW96570   3.096   0.720   5.722 -0.1019  0.3341  0.2458
31226SOL    HW196571   3.128   0.662   5.652  2.3326 -0.0466  1.5452
31226SOL    HW296572   3.043   0.663   5.777  2.6681 -0.9716  1.7829
31227SOL     OW96573   2.770   6.360   6.834 -0.2303  0.1638  0.0862
31227SOL    HW196574   2.857   6.336   6.865 -0.0585  0.9969  0.2618
31227SOL    HW296575   2.741   6.431   6.892 -0.2132  1.2267 -1.1446
31228SOL     OW96576   0.365   3.725   5.423 -0.4106  0.7959  0.5289
31228SOL    HW196577   0.305   3.779   5.373  0.2892  1.1340  0.0350
31228SOL    HW296578   0.314   3.648   5.448 -0.5596  0.2103 -1.4193
31229SOL     OW96579   4.163   8.401   9.651  0.0768 -0.3250  0.3232
31229SOL    HW196580   4.068   8.389   9.650  0.0210  0.1139  0.0824
31229SOL    HW296581   4.198   8.312   9.655 -0.3463 -0.4539  2.0034
31230SOL     OW96582   4.687  10.419   7.561  0.6986  0.0026  0.2280
31230SOL    HW196583   4.685  10.472   7.482 -0.8896 -1.9114 -1.1065
31230SOL    HW296584   4.753  10.352   7.544 -0.7512 -1.3669 -0.1847
31231SOL     OW96585   0.806   5.544  10.771 -0.2766  0.3066  0.2633
31231SOL    HW196586   0.816   5.639  10.764 -0.4945  0.4793  1.8928
31231SOL    HW296587   0.744   5.521  10.702  1.2467  1.0377 -1.4561
31232SOL     OW96588   2.228   2.835   9.427  0.6224  0.3500  0.0188
31232SOL    HW196589   2.261   2.822   9.338  1.2198 -3.2070  0.6016
31232SOL    HW296590   2.141   2.793   9.426  1.1274 -0.8049  1.3422
31233SOL     OW96591   7.727   4.286   3.180 -0.5225 -0.6699 -0.4168
31233SOL    HW196592   7.666   4.225   3.137 -1.3822 -0.6932  0.8051
31233SOL    HW296593   7.699   4.287   3.271  0.3333  0.5394 -0.1564
31234SOL     OW96594  10.400   7.993   0.040  0.4116  0.2966 -0.4975
31234SOL    HW196595  10.460   8.062   0.071  0.6415 -0.2493  0.2958
31234SOL    HW296596  10.400   8.003  -0.056  1.5163  0.5156 -0.4871
31235SOL     OW96597   5.898   8.870   8.201  0.8330  0.1974  0.1105
31235SOL    HW196598   5.939   8.800   8.252  0.7304  0.0015 -0.0789
31235SOL    HW296599   5.869   8.934   8.267 -0.2358 -0.5426  0.3802
31236SOL     OW96600   2.613   9.666   6.199 -0.9123 -0.3944 -0.4375
31236SOL    HW196601   2.566   9.710   6.128 -0.8486 -1.7840 -1.3918
31236SOL    HW296602   2.547   9.656   6.268 -0.7211  1.8150  0.1228
31237SOL     OW96603   2.115   6.405   2.233  0.0143  0.3039 -0.4979
31237SOL    HW196604   2.116   6.500   2.244  2.3622  0.1042  1.8100
31237SOL    HW296605   2.203   6.383   2.203  0.7261 -1.3683  2.4228
31238SOL     OW96606   9.158   9.765   9.382  0.1434  0.2906  0.2556
31238SOL    HW196607   9.246   9.802   9.374  0.3342 -0.2355 -0.1023
31238SOL    HW296608   9.100   9.841   9.376  0.4641  0.4465 -1.7504
31239SOL     OW96609   0.139   4.010   3.881 -0.1132  0.0094 -0.0331
31239SOL    HW196610   0.213   4.032   3.824 -0.1695  2.3261  0.6972
31239SOL    HW296611   0.177   3.955   3.950  1.1876  1.8863  0.8305
31240SOL     OW96612   9.572   5.449   7.054  0.5572  0.5701 -0.2131
31240SOL    HW196613   9.648   5.393   7.070 -0.3768 -0.6008  0.3185
31240SOL    HW296614   9.590   5.529   7.101  1.8031  0.6119 -0.7389
31241SOL     OW96615   6.457   4.952   0.877 -0.4788  0.5094  0.5090
31241SOL    HW196616   6.422   4.963   0.965 -2.0758  0.4450 -0.0854
31241SOL    HW296617   6.499   4.866   0.878 -1.1181  0.1992  1.0063
31242SOL     OW96618   2.461   4.877   5.234 -0.1887  0.0422  0.6767
31242SOL    HW196619   2.432   4.907   5.148 -0.9347  0.2186  0.9827
31242SOL    HW296620   2.450   4.782   5.232 -2.4533  0.2225  1.3520
31243SOL     OW96621   8.384   6.311   9.422 -0.3998  0.1484  0.3015
31243SOL    HW196622   8.436   6.366   9.364  0.3402  0.7399  1.4874
31243SOL    HW296623   8.423   6.224   9.414 -0.1941  0.2632  0.0494
31244SOL     OW96624   2.107  10.297   4.339  0.0370 -0.0931  0.4883
31244SOL    HW196625   2.132  10.388   4.321  0.3938 -0.4328 -0.8204
31244SOL    HW296626   2.190  10.254   4.360  0.0404 -0.4031 -0.1700
31245SOL     OW96627   8.356   1.791   1.866 -0.4474  0.1866  0.0440
31245SOL    HW196628   8.272   1.760   1.832  0.3323 -1.0512 -0.8603
31245SOL    HW296629   8.416   1.719   1.849  0.1612 -0.3923  3.6592
31246SOL     OW96630   7.135   6.880   5.889  0.0872 -0.0593 -0.2049
31246SOL    HW196631   7.146   6.894   5.983  0.2098  0.6460 -0.3119
31246SOL    HW296632   7.105   6.965   5.856  2.0098  0.3303 -1.1080
31247SOL     OW96633   9.013   8.957   4.186  0.1731 -0.2447 -0.1300
31247SOL    HW196634   9.028   8.865   4.163  0.4009  0.0036 -0.9838
31247SOL    HW296635   8.920   8.972   4.166  0.3939 -0.0035 -0.9897
31248SOL     OW96636   7.075   7.818   0.804 -0.2592 -0.5101  0.4218
31248SOL    HW196637   7.130   7.786   0.732 -0.9099  2.0511 -1.3803
31248SOL    HW296638   7.086   7.913   0.802 -3.0783 -0.0576  1.3331
31249SOL     OW96639   7.991   0.844   5.253 -0.6146  0.2559 -0.1881
31249SOL    HW196640   8.037   0.764   5.225  1.0505  0.9475  0.4850
31249SOL    HW296641   7.899   0.827   5.229 -0.5249 -2.3122  0.9192
31250SOL     OW96642   9.706   1.812   1.320  0.6495 -0.2409 -0.4798
31250SOL    HW196643   9.641   1.880   1.302 -0.2226 -0.8908  0.1299
31250SOL    HW296644   9.662   1.730   1.300  0.6264 -0.8187  1.6959
31251SOL     OW96645   8.036   1.584  10.150 -0.6174 -0.3718 -0.6143
31251SOL    HW196646   8.098   1.571  10.078 -1.4005  1.1794 -1.6336
31251SOL    HW296647   8.079   1.546  10.226  1.2602  0.0154 -1.4365
31252SOL     OW96648   0.395   0.345   4.738  0.5723  0.2320  0.0829
31252SOL    HW196649   0.474   0.379   4.697  0.3731 -0.5938 -1.0335
31252SOL    HW296650   0.326   0.405   4.711  0.3660 -0.5535 -1.1823
31253SOL     OW96651   7.569   9.284   0.659  0.1505 -0.2633  0.4066
31253SOL    HW196652   7.589   9.376   0.643 -0.6829  0.3140  2.3694
31253SOL    HW296653   7.477   9.283   0.687 -0.4402 -1.9422 -1.3606
31254SOL     OW96654   9.556   0.229   6.016  0.4035  0.2288 -0.1240
31254SOL    HW196655   9.487   0.270   6.068  0.7927 -0.0453  0.6390
31254SOL    HW296656   9.569   0.288   5.942  0.4043  1.0786  0.5304
31255SOL     OW96657   0.105   1.052   8.773 -0.2337  0.3822  0.2846
31255SOL    HW196658   0.088   0.959   8.785  0.1949  0.2561 -0.0657
31255SOL    HW296659   0.144   1.059   8.686 -0.1431  0.8743  0.3577
31256SOL     OW96660   5.713   3.959   0.973 -0.1938 -0.5268 -0.4573
31256SOL    HW196661   5.729   3.867   0.951  0.2222 -0.2579 -1.3411
31256SOL    HW296662   5.633   3.957   1.025  0.3995 -1.4888  0.4607
31257SOL     OW96663   6.383   7.926   8.695 -0.0485 -0.2049 -0.1422
31257SOL    HW196664   6.437   7.934   8.773 -1.1560 -3.2640  1.1045
31257SOL    HW296665   6.301   7.969   8.718  0.3807  0.8525 -0.5153
31258SOL     OW96666   4.628   0.223   5.810 -0.8218  0.0908  0.4874
31258SOL    HW196667   4.629   0.183   5.723 -1.4370  0.8005  0.1469
31258SOL    HW296668   4.663   0.311   5.796  0.5721 -0.3198  1.2390
31259SOL     OW96669   5.721   2.165   5.088  0.1636  0.5319 -0.3555
31259SOL    HW196670   5.711   2.253   5.051 -0.2667  0.4433 -0.4487
31259SOL    HW296671   5.673   2.168   5.170  0.1315  0.3754 -0.3696
31260SOL     OW96672  10.534   0.794   8.718 -0.0847 -0.2165  0.1421
31260SOL    HW196673  10.456   0.779   8.665  0.2599  0.4514 -0.5816
31260SOL    HW296674  10.585   0.714   8.709 -1.1730 -1.0940  1.5085
31261SOL     OW96675   8.925   1.303   6.181  0.2588 -0.6080 -0.3854
31261SOL    HW196676   8.929   1.309   6.276  0.4455  1.5440 -0.4685
31261SOL    HW296677   9.014   1.323   6.152  0.1409 -0.9742 -1.0097
31262SOL     OW96678   2.549   0.223   2.956  0.0662  0.7251 -0.0862
31262SOL    HW196679   2.481   0.282   2.925 -0.5376  0.1531  0.1102
31262SOL    HW296680   2.602   0.205   2.879 -2.1819 -1.7209 -1.2296
31263SOL     OW96681   6.491   2.567  10.312  0.4143 -0.5170  0.5658
31263SOL    HW196682   6.442   2.636  10.267  0.1694 -2.1416 -1.8247
31263SOL    HW296683   6.575   2.607  10.333 -0.4373  1.0902  1.0524
31264SOL     OW96684  10.116   6.418   0.751 -0.1814  0.6226  0.4494
31264SOL    HW196685  10.184   6.472   0.792 -0.1724  1.0643 -0.1304
31264SOL    HW296686  10.038   6.474   0.751  0.2722  1.3354 -1.7401
31265SOL     OW96687   7.383   0.109   8.863  0.1135 -0.1580  0.0526
31265SOL    HW196688   7.426   0.067   8.788  0.7271 -0.6279  0.6585
31265SOL    HW296689   7.338   0.185   8.825  1.9381  0.6834 -0.5390
31266SOL     OW96690   2.851   8.968   3.608  0.2852 -0.8050 -0.4429
31266SOL    HW196691   2.869   9.049   3.656  1.1923 -0.7719 -0.8191
31266SOL    HW296692   2.755   8.962   3.606  0.1156  1.2016 -1.9169
31267SOL     OW96693   3.042   8.361   8.623  0.3598 -0.0950 -0.2490
31267SOL    HW196694   3.099   8.437   8.613  0.0001  0.1796 -0.2156
31267SOL    HW296695   3.069   8.301   8.554 -0.2934  0.6464 -1.1639
31268SOL     OW96696   1.361   5.552   9.818  0.0333 -0.4846  0.1843
31268SOL    HW196697   1.365   5.485   9.886 -0.5271 -1.9159 -1.1107
31268SOL    HW296698   1.452   5.576   9.802  0.2055 -0.5896  0.9967
31269SOL     OW96699   3.260   7.702   4.453  0.1451 -0.6240 -0.1826
31269SOL    HW196700   3.197   7.734   4.389 -0.5891 -0.8397  0.4167
31269SOL    HW296701   3.246   7.607   4.455  2.1224 -1.0271 -1.7590
31270SOL     OW96702   2.315   3.474   9.817 -1.4123  0.1002 -0.3528
31270SOL    HW196703   2.267   3.506   9.893 -0.0810 -0.4002  0.7521
31270SOL    HW296704   2.385   3.538   9.804  0.3851 -1.4509  0.9757
31271SOL     OW96705   5.864   3.009   6.036  0.3759  0.1730 -0.2926
31271SOL    HW196706   5.947   3.028   5.991  0.8238  2.0394  1.2117
31271SOL    HW296707   5.889   2.954   6.110  0.4923  1.6117  0.7860
31272SOL     OW96708   3.197   8.987   7.188  0.2678  0.6232 -0.1916
31272SOL    HW196709   3.116   9.036   7.205 -0.7365 -0.8243 -0.5325
31272SOL    HW296710   3.184   8.951   7.100  2.2880  2.1705 -1.1964
31273SOL     OW96711   4.508   6.611   6.530 -0.1371 -0.1013  0.1883
31273SOL    HW196712   4.487   6.540   6.590 -0.1785  0.2437  0.5840
31273SOL    HW296713   4.425   6.635   6.490 -0.1361 -0.2163  0.1164
31274SOL     OW96714   3.042   4.904   1.494  0.1430 -0.1046 -0.4992
31274SOL    HW196715   3.107   4.931   1.430 -0.9986  2.5877 -0.6678
31274SOL    HW296716   2.966   4.879   1.441  0.0143 -0.2400 -0.2523
31275SOL     OW96717   7.960   8.130   5.490 -0.4447 -0.6677  0.7006
31275SOL    HW196718   7.936   8.220   5.514  0.0210 -0.5215  0.6302
31275SOL    HW296719   7.908   8.075   5.548  0.8686 -0.3271  2.2937
31276SOL     OW96720   7.244   3.749   8.368 -0.1988  0.8187  0.2019
31276SOL    HW196721   7.274   3.727   8.456 -0.4932 -0.0204  0.1042
31276SOL    HW296722   7.165   3.800   8.382 -1.4719 -1.1078  0.4497
31277SOL     OW96723   2.367   6.631   7.363 -0.1549 -0.2154 -0.4858
31277SOL    HW196724   2.362   6.647   7.269  1.0528  1.8514 -0.2679
31277SOL    HW296725   2.362   6.718   7.403  2.2119 -0.7127  1.1830
31278SOL     OW96726   9.568   2.032   4.607 -0.3500 -0.0911  0.1123
31278SOL    HW196727   9.611   2.110   4.641 -0.5435  0.2001 -0.3121
31278SOL    HW296728   9.485   2.063   4.571 -0.3678 -0.4690 -0.1842
31279SOL     OW96729  10.402   6.021   0.122  0.6248  0.7884  0.0727
31279SOL    HW196730  10.496   6.019   0.136  0.4557  1.6816  1.5176
31279SOL    HW296731  10.371   5.937   0.156  1.0639 -0.3933 -2.2168
31280SOL     OW96732   5.987  10.221   4.705 -0.1737 -0.6322 -0.5209
31280SOL    HW196733   6.047  10.267   4.764 -0.8945 -0.8963  0.4574
31280SOL    HW296734   6.017  10.130   4.707  0.5162 -0.4361 -1.5042
31281SOL     OW96735  10.502  10.680   3.503 -0.3385  0.0013 -0.1359
31281SOL    HW196736  10.559  10.607   3.479  0.9956  0.8287  0.3632
31281SOL    HW296737  10.452  10.699   3.423  0.2851 -0.5692 -0.6772
31282SOL     OW96738   9.259   5.015  10.476  0.0589  0.4616 -0.2854
31282SOL    HW196739   9.220   5.089  10.523 -1.3508 -0.3724 -0.0894
31282SOL    HW296740   9.352   5.017  10.502 -0.1639  1.5178  0.5330
31283SOL     OW96741   5.011   0.488   0.980 -0.1366  0.1632  0.0964
31283SOL    HW196742   5.081   0.451   1.033 -0.4982 -0.1257  0.3722
31283SOL    HW296743   4.954   0.532   1.042  0.6173  1.7532 -0.2830
31284SOL     OW96744   7.042  10.539   1.647 -0.7526 -0.0681 -0.1337
31284SOL    HW196745   7.112  10.516   1.585  0.2644 -0.9428  1.2867
31284SOL    HW296746   7.028  10.633   1.633  0.1371 -0.0471 -1.0181
31285SOL     OW96747   0.478   4.739   4.409  0.2742 -0.6961 -0.1574
31285SOL    HW196748   0.383   4.740   4.424  0.3551 -0.7248  0.3922
31285SOL    HW296749   0.488   4.752   4.315 -0.2379  0.2590 -0.0850
31286SOL     OW96750   7.916   9.345   9.302  0.2774  0.4775 -0.0410
31286SOL    HW196751   7.874   9.265   9.334  0.3189 -0.0732 -1.3006
31286SOL    HW296752   7.883   9.355   9.212  1.0472  1.3257 -0.2453
31287SOL     OW96753   0.754  10.744   8.271  0.3077  0.0278  0.1428
31287SOL    HW196754   0.751  10.649   8.258  0.0570 -0.3656  2.5957
31287SOL    HW296755   0.772  10.779   8.184 -0.6747 -2.1842 -1.0504
31288SOL     OW96756   0.907   8.587   1.500 -0.2853 -0.1613  0.5863
31288SOL    HW196757   0.846   8.621   1.433  0.0141  0.2790  0.5316
31288SOL    HW296758   0.899   8.649   1.573  0.6969  0.3777  0.2591
31289SOL     OW96759   9.757   1.975   0.727 -0.0393  0.0709 -0.2834
31289SOL    HW196760   9.703   1.986   0.805 -0.4760  0.1223 -0.5920
31289SOL    HW296761   9.696   1.948   0.659  0.1063  1.4297 -0.9763
31290SOL     OW96762   2.980   1.935   7.900  0.2345  0.1099  0.2376
31290SOL    HW196763   3.011   1.845   7.913 -1.3370 -0.3577  0.9999
31290SOL    HW296764   2.886   1.930   7.915 -0.3693  1.3357 -2.5661
31291SOL     OW96765   3.662   5.639   7.057  0.1932 -0.0800 -0.3102
31291SOL    HW196766   3.587   5.581   7.042  0.2690  0.2010 -1.9914
31291SOL    HW296767   3.733   5.601   7.005  0.5416  0.9320 -0.6087
31292SOL     OW96768   1.119   1.019   6.861 -0.2814  0.3086 -0.2333
31292SOL    HW196769   1.148   1.091   6.804  0.5220  0.4462  0.3269
31292SOL    HW296770   1.196   0.998   6.913 -0.3288 -1.3246 -0.7476
31293SOL     OW96771   4.358  10.253  10.034  0.4489  0.6458 -0.2083
31293SOL    HW196772   4.449  10.280  10.025  0.2745  1.6609  0.8758
31293SOL    HW296773   4.342  10.197   9.958  1.5173  1.7165 -1.2567
31294SOL     OW96774   7.036   4.099   2.032  0.3937 -0.0034 -0.5723
31294SOL    HW196775   7.081   4.173   1.992 -0.7244  1.2020  0.2858
31294SOL    HW296776   6.980   4.065   1.962  0.9365 -0.0508 -0.9864
31295SOL     OW96777   4.886   7.715  10.510 -0.2191 -0.0219  0.0543
31295SOL    HW196778   4.834   7.669  10.576  0.5761 -0.5690  0.3162
31295SOL    HW296779   4.976   7.712  10.544 -0.1012  1.4555 -0.0828
31296SOL     OW96780   4.093   4.798   7.586  0.3642  0.2005  0.5732
31296SOL    HW196781   4.118   4.709   7.559  1.0528  1.0551 -1.8030
31296SOL    HW296782   4.003   4.807   7.557  1.0437  1.0560 -1.3782
31297SOL     OW96783   1.768   7.212   5.057  0.2668 -0.3276  0.2219
31297SOL    HW196784   1.717   7.200   5.138  0.9157 -0.0400  0.6866
31297SOL    HW296785   1.737   7.144   4.998 -1.1338  0.2489  0.2482
31298SOL     OW96786   2.250   1.722   2.787 -0.2299  0.0612 -0.8991
31298SOL    HW196787   2.323   1.780   2.808 -0.8576  0.3988  0.4573
31298SOL    HW296788   2.273   1.639   2.830 -0.6097  0.1587 -0.4974
31299SOL     OW96789   7.623   5.532   1.069  0.0465 -0.0470 -0.2638
31299SOL    HW196790   7.693   5.546   1.133 -1.3310  0.9804  1.0820
31299SOL    HW296791   7.589   5.445   1.088 -0.7383  0.4820  0.8086
31300SOL     OW96792   0.722   3.272   4.359 -0.0130 -0.1890  0.1223
31300SOL    HW196793   0.685   3.298   4.274 -0.2784 -0.5365  0.1289
31300SOL    HW296794   0.801   3.326   4.368  0.4080 -0.6506 -0.6644
31301SOL     OW96795   4.278   8.914  10.615 -0.3148 -0.6971  0.1949
31301SOL    HW196796   4.204   8.858  10.593 -1.2016  0.6835 -0.4090
31301SOL    HW296797   4.246   8.972  10.683  0.2371 -0.1634  0.0137
31302SOL     OW96798   7.897   3.517   7.605  1.1098  0.1350 -0.2301
31302SOL    HW196799   7.879   3.427   7.631  1.8839 -0.1905 -0.7879
31302SOL    HW296800   7.900   3.515   7.510 -1.6899  1.3136 -0.4659
31303SOL     OW96801   3.907   6.285   0.984  0.3625  0.3768 -0.2018
31303SOL    HW196802   3.972   6.300   0.915  0.7181 -1.5502 -0.3491
31303SOL    HW296803   3.960   6.275   1.064  0.1970 -0.2295 -0.1603
31304SOL     OW96804   6.234   8.926   0.187  0.4376  0.0430  0.7124
31304SOL    HW196805   6.261   8.999   0.243  0.2955  2.7917 -2.4905
31304SOL    HW296806   6.143   8.911   0.211  0.6603  0.4040  1.8908
31305SOL     OW96807   8.503   2.110   2.457  0.2217 -0.4959  0.2872
31305SOL    HW196808   8.590   2.094   2.422  0.0466 -1.9550  0.4552
31305SOL    HW296809   8.483   2.032   2.509 -1.6251 -0.7092 -0.6371
31306SOL     OW96810   8.310   6.349   8.969  0.3498  0.4660  0.0617
31306SOL    HW196811   8.317   6.363   8.874  0.6250  0.0925  0.0253
31306SOL    HW296812   8.310   6.254   8.979  0.7503  0.5105  0.4703
31307SOL     OW96813   6.598   9.159   2.977  0.6235 -0.3082  0.5926
31307SOL    HW196814   6.658   9.085   2.980  0.7073 -0.2963 -0.3894
31307SOL    HW296815   6.518   9.124   2.937 -0.2465 -0.4557  2.3891
31308SOL     OW96816   5.670   6.103   5.021  0.3891  0.0517 -0.0652
31308SOL    HW196817   5.718   6.060   5.092  2.6642  0.4641 -1.2767
31308SOL    HW296818   5.613   6.166   5.065  0.3115 -1.0411  1.4670
31309SOL     OW96819   8.165   8.291   9.257 -0.2580  0.5117 -0.0481
31309SOL    HW196820   8.155   8.346   9.335  0.5723  0.9134 -0.2088
31309SOL    HW296821   8.257   8.304   9.231  0.1837 -1.5235  0.3461
31310SOL     OW96822   8.811   6.517   7.105  0.1661 -0.1242  0.5440
31310SOL    HW196823   8.831   6.480   7.191 -0.8637 -0.9963  0.4277
31310SOL    HW296824   8.805   6.441   7.047 -0.0941  0.3783 -0.1017
31311SOL     OW96825   7.081   6.891   8.345  0.2946  0.0600 -0.1500
31311SOL    HW196826   7.161   6.896   8.292  0.1385 -2.4403 -0.7223
31311SOL    HW296827   7.012   6.872   8.282 -0.1993 -1.0989  0.7113
31312SOL     OW96828   5.054   5.594   8.136 -0.6716  0.1471 -0.0936
31312SOL    HW196829   5.144   5.582   8.107 -0.8744 -2.5071  0.0974
31312SOL    HW296830   5.037   5.520   8.194 -3.2882 -0.0127 -0.9043
31313SOL     OW96831   7.237  10.151   7.467 -0.2383 -0.2655  0.0762
31313SOL    HW196832   7.279  10.234   7.443  1.7653 -1.5371 -1.0498
31313SOL    HW296833   7.191  10.170   7.549  0.2088  1.9268 -0.1251
31314SOL     OW96834   7.640   1.537   2.404 -0.2967 -0.2963 -0.3572
31314SOL    HW196835   7.651   1.442   2.397 -0.0773 -0.1946 -1.8952
31314SOL    HW296836   7.601   1.562   2.320  0.0102  1.0147 -0.1307
31315SOL     OW96837   0.290   6.643   1.819 -0.4943  0.1191 -0.0692
31315SOL    HW196838   0.251   6.684   1.742 -0.0907 -1.1793 -1.0075
31315SOL    HW296839   0.384   6.644   1.801 -0.4248 -0.5367  0.2292
31316SOL     OW96840   8.164   9.226   9.381 -0.4982  0.3394  0.3852
31316SOL    HW196841   8.217   9.243   9.304 -0.7910 -0.0746  0.0912
31316SOL    HW296842   8.078   9.261   9.359 -0.7126 -0.2068  0.3349
31317SOL     OW96843   7.732   5.853  10.779  0.0919 -0.3422 -0.0408
31317SOL    HW196844   7.702   5.934  10.820 -2.3571 -0.4105 -1.5138
31317SOL    HW296845   7.702   5.783  10.837  0.6625 -0.2781  0.3392
31318SOL     OW96846   7.426   1.871   7.647 -0.4702 -0.1113  0.4271
31318SOL    HW196847   7.455   1.822   7.570 -1.8785 -0.5431  0.1373
31318SOL    HW296848   7.330   1.865   7.644 -0.6681  2.0584  0.7702
31319SOL     OW96849   9.054   2.420   2.799  0.6855 -0.4438  0.4882
31319SOL    HW196850   9.022   2.394   2.713  0.2606  0.2099  0.4411
31319SOL    HW296851   9.146   2.393   2.800  0.4264 -1.3929  0.2257
31320SOL     OW96852   7.844   3.099   3.907  0.3825  0.1408  0.6475
31320SOL    HW196853   7.752   3.077   3.888  0.6458 -0.4142 -0.0411
31320SOL    HW296854   7.874   3.028   3.964  0.2027  0.6761  1.4242
31321SOL     OW96855   4.412   5.392   8.437  0.3816 -0.2856 -0.8251
31321SOL    HW196856   4.455   5.324   8.386 -0.2376 -1.1325 -0.2490
31321SOL    HW296857   4.384   5.457   8.372  1.2977 -0.3868 -1.3405
31322SOL     OW96858  10.109   5.833   6.769  0.1287  0.2251  0.0882
31322SOL    HW196859  10.088   5.851   6.677 -0.4474  0.1281  0.1957
31322SOL    HW296860  10.194   5.789   6.766  0.0438  0.0877 -0.4103
31323SOL     OW96861   6.454   6.417   3.160 -0.0259  0.4279 -0.1747
31323SOL    HW196862   6.365   6.385   3.174 -0.2235  0.6265 -0.9422
31323SOL    HW296863   6.442   6.500   3.113  0.5888 -0.0128 -1.1286
31324SOL     OW96864   9.832   5.411   0.146 -0.1758 -0.2402  0.3443
31324SOL    HW196865   9.747   5.436   0.183  1.1464  1.2434  2.6336
31324SOL    HW296866   9.893   5.478   0.178  2.1946 -2.2687  0.3958
31325SOL     OW96867   1.260   1.609   2.810  0.1559 -0.0318 -0.5785
31325SOL    HW196868   1.332   1.652   2.856  0.0463  0.1817 -0.6087
31325SOL    HW296869   1.304   1.546   2.752  0.2444 -3.4898  2.8597
31326SOL     OW96870   5.802  10.626   7.153  0.0490  0.0825 -0.1049
31326SOL    HW196871   5.864  10.678   7.204 -1.4228  1.3632  0.4536
31326SOL    HW296872   5.767  10.687   7.088  0.0782 -0.8875 -1.0642
31327SOL     OW96873   5.775   7.015  10.619  0.2292 -0.3183 -0.1962
31327SOL    HW196874   5.720   7.002  10.542 -0.4036 -0.5826  0.2894
31327SOL    HW296875   5.715   7.003  10.693  0.7920  0.0771  0.3336
31328SOL     OW96876   7.776   3.803   5.795  0.5753  0.0866  0.2765
31328SOL    HW196877   7.689   3.845   5.792  0.7396  0.4446 -2.6320
31328SOL    HW296878   7.822   3.849   5.865 -1.6218 -0.2660  2.0623
31329SOL     OW96879   3.771   8.072   6.307 -0.5779 -0.1162 -0.3208
31329SOL    HW196880   3.797   8.159   6.276 -0.4728  0.0727  0.2929
31329SOL    HW296881   3.691   8.052   6.258 -1.0891  0.6966  0.1581
31330SOL     OW96882   2.922   2.536  10.626  0.2736  0.2411  0.6081
31330SOL    HW196883   2.916   2.441  10.641  1.5887 -0.0185 -0.2885
31330SOL    HW296884   2.961   2.543  10.539  0.2682  1.6206  0.7051
31331SOL     OW96885   2.954   3.792   9.319 -0.0110  0.0293  0.0448
31331SOL    HW196886   2.993   3.830   9.241  0.4421 -0.7476 -0.1073
31331SOL    HW296887   2.956   3.863   9.383  0.8582  0.2632 -0.2281
31332SOL     OW96888   7.293   9.153   9.125 -0.7697  0.6604  0.3150
31332SOL    HW196889   7.256   9.091   9.062 -0.2904  0.3913  0.2963
31332SOL    HW296890   7.283   9.239   9.082  1.4037  0.2975 -1.0653
31333SOL     OW96891   5.012  10.782   2.132  0.1228 -0.2639 -0.1382
31333SOL    HW196892   5.054  10.714   2.184  0.3914 -0.3549 -0.4747
31333SOL    HW296893   5.085  10.836   2.101 -0.1469  0.8857  1.1065
31334SOL     OW96894   1.086   2.098   2.297 -0.1128  0.3644  0.6583
31334SOL    HW196895   1.110   2.006   2.298 -0.7101  0.1871 -0.3442
31334SOL    HW296896   1.071   2.119   2.205  1.3800  1.8440  0.6887
31335SOL     OW96897   1.619   6.687   4.647 -0.0416  0.3211 -0.4329
31335SOL    HW196898   1.677   6.757   4.617 -0.0237  0.6925  0.4360
31335SOL    HW296899   1.545   6.690   4.585 -0.2152  1.3575 -0.2075
31336SOL     OW96900   6.654   7.839   6.553  0.1438  0.4986  0.1216
31336SOL    HW196901   6.730   7.797   6.513 -0.5457 -1.2358  0.5055
31336SOL    HW296902   6.583   7.822   6.490 -0.2574  0.6390  0.5329
31337SOL     OW96903   1.699   2.104   2.983 -0.5814 -0.5332 -0.6128
31337SOL    HW196904   1.680   2.158   3.059  1.2343  1.3399 -1.3957
31337SOL    HW296905   1.759   2.036   3.015 -0.2620 -0.0872 -0.2661
31338SOL     OW96906   9.709   9.048   5.813  0.5550 -0.0394  0.4043
31338SOL    HW196907   9.667   9.079   5.893  0.6687 -2.7835  1.6580
31338SOL    HW296908   9.803   9.060   5.830  0.5305  0.4939  0.1662
31339SOL     OW96909   6.934  10.062   7.989  0.2632  0.5173 -0.0245
31339SOL    HW196910   6.856  10.098   7.946 -0.0775  1.3240  1.2309
31339SOL    HW296911   7.007  10.094   7.936 -0.2076  0.3975 -0.7663
31340SOL     OW96912   5.964   7.800   6.123 -0.3460  0.4361  0.0566
31340SOL    HW196913   5.996   7.871   6.178 -1.6345  0.0774  1.3543
31340SOL    HW296914   6.010   7.722   6.155  0.8188  0.6030 -1.1423
31341SOL     OW96915   5.895   2.395  10.060  0.0451  0.0380 -0.1765
31341SOL    HW196916   5.982   2.404  10.021  0.1916 -1.5611 -0.2846
31341SOL    HW296917   5.842   2.461  10.016  0.7467 -0.2724 -1.5318
31342SOL     OW96918   8.849   4.456  10.178  0.0787  0.1618 -0.2012
31342SOL    HW196919   8.866   4.384  10.118 -1.5368  0.0316 -0.5373
31342SOL    HW296920   8.781   4.508  10.136 -0.2147  0.7550  0.9506
31343SOL     OW96921   0.124   2.145   8.536  0.1381 -1.1096 -0.0310
31343SOL    HW196922   0.169   2.176   8.615 -1.8186  1.5293  0.1498
31343SOL    HW296923   0.161   2.198   8.465 -0.7859 -0.8072 -0.2918
31344SOL     OW96924   2.782   2.379   0.775  0.2818 -0.5839  0.0910
31344SOL    HW196925   2.727   2.390   0.853 -0.0352 -0.8759 -0.0902
31344SOL    HW296926   2.871   2.382   0.809  0.2817  2.6458  0.0715
31345SOL     OW96927   5.297   2.267  10.767 -0.2481 -0.5366  0.7745
31345SOL    HW196928   5.316   2.220  10.686  0.3459 -0.6227  0.9555
31345SOL    HW296929   5.214   2.312  10.751 -1.3823 -2.4415  0.9306
31346SOL     OW96930   0.780   5.654   4.734 -0.1353 -0.0249  0.3393
31346SOL    HW196931   0.787   5.720   4.803 -1.7084 -1.8123  2.3345
31346SOL    HW296932   0.744   5.576   4.778  3.4070 -2.9615 -1.3868
31347SOL     OW96933   4.230  10.237   8.811 -0.7324 -0.5107  0.3554
31347SOL    HW196934   4.311  10.281   8.837  0.7637 -2.7224 -0.2772
31347SOL    HW296935   4.161  10.298   8.835  1.1874  2.2639 -0.6872
31348SOL     OW96936   7.619  10.569   7.071 -0.0866 -0.1473  0.3874
31348SOL    HW196937   7.668  10.619   7.136 -2.1094  0.6337  1.3696
31348SOL    HW296938   7.615  10.480   7.106 -0.0234 -0.0374  0.6701
31349SOL     OW96939  10.089  10.036   4.117 -0.3933 -0.7429 -0.2156
31349SOL    HW196940  10.010  10.060   4.068  0.9902  1.0469 -1.7443
31349SOL    HW296941  10.136  10.118   4.129  1.2973 -1.7591  0.5455
31350SOL     OW96942   7.571   0.498  10.113 -0.2754  0.3152  0.1475
31350SOL    HW196943   7.635   0.549  10.163  1.2397  1.3559 -2.6039
31350SOL    HW296944   7.597   0.407  10.126  0.2309  0.5743  1.0124
31351SOL     OW96945   5.161  10.128   8.947  0.3063 -0.0579  0.1348
31351SOL    HW196946   5.174  10.195   9.014 -1.9812  0.4082  0.1985
31351SOL    HW296947   5.163  10.046   8.995  0.7429  0.1288  0.4455
31352SOL     OW96948   0.791   6.963   1.885 -0.0387 -0.1514  0.0818
31352SOL    HW196949   0.724   7.030   1.890  0.7300  0.6194  0.2165
31352SOL    HW296950   0.819   6.950   1.975  1.2505  0.8477 -0.1415
31353SOL     OW96951   8.458   3.389   9.478  0.2109  0.5955 -0.3402
31353SOL    HW196952   8.549   3.369   9.500 -0.2177 -0.0398  0.9510
31353SOL    HW296953   8.407   3.324   9.525 -0.9891  1.7852  0.0798
31354SOL     OW96954   6.873   6.060  10.374  0.3286 -0.5205  0.3370
31354SOL    HW196955   6.812   6.122  10.335  0.9970  0.1682  0.3528
31354SOL    HW296956   6.904   6.006  10.301  0.4282 -0.2339  0.1662
31355SOL     OW96957   5.242   9.725   8.409  0.1331 -0.0326  0.0746
31355SOL    HW196958   5.283   9.641   8.426 -1.0867 -0.1465  3.0313
31355SOL    HW296959   5.148   9.707   8.411 -0.1576  1.3960  1.1471
31356SOL     OW96960   7.797  10.531   8.344 -0.3071 -0.0538 -0.8707
31356SOL    HW196961   7.758  10.486   8.419 -0.6695  0.1574 -0.9265
31356SOL    HW296962   7.724  10.541   8.282  0.2468 -1.2176 -1.7310
31357SOL     OW96963   6.254   5.393   3.522  0.2444 -0.3200  0.1119
31357SOL    HW196964   6.301   5.309   3.525 -1.3131 -1.2197  2.1186
31357SOL    HW296965   6.192   5.388   3.595 -1.4613  1.6785 -1.0919
31358SOL     OW96966   2.011   7.393   0.828 -0.5575  0.0137  0.2268
31358SOL    HW196967   1.985   7.355   0.744 -0.3636  0.1327  0.1128
31358SOL    HW296968   2.049   7.320   0.877 -1.0966 -0.1590  0.3896
31359SOL     OW96969   1.703   0.622   3.340  0.1784 -0.1204 -0.4045
31359SOL    HW196970   1.619   0.639   3.383  0.9533  1.3723  0.6591
31359SOL    HW296971   1.710   0.527   3.337 -2.3686 -0.3591 -2.2754
31360SOL     OW96972   5.514   1.712   7.200  0.2479  0.5065  0.1419
31360SOL    HW196973   5.585   1.681   7.143 -0.6989  1.0069 -1.3596
31360SOL    HW296974   5.512   1.806   7.186 -0.9716  0.4488 -0.1718
31361SOL     OW96975  10.648   5.668   5.528  0.3168 -0.2395 -0.5122
31361SOL    HW196976  10.674   5.598   5.468  0.7818 -1.5646  1.1531
31361SOL    HW296977  10.567   5.703   5.491  0.4891 -1.1212 -1.7976
31362SOL     OW96978   8.622   2.059   0.837 -0.2821  0.5651 -0.5982
31362SOL    HW196979   8.604   2.134   0.781  0.3673  1.2774  0.1277
31362SOL    HW296980   8.711   2.074   0.870  0.9759 -1.8802 -2.5727
31363SOL     OW96981   7.895   6.359   2.918  0.0464  0.1619  0.0503
31363SOL    HW196982   7.895   6.426   2.850  0.9016  0.8350  0.6916
31363SOL    HW296983   7.929   6.404   2.995 -0.0759 -0.8239  0.6909
31364SOL     OW96984   0.645   3.521   5.840  0.1830  0.7591  0.6523
31364SOL    HW196985   0.633   3.565   5.756 -1.3505  0.2470  0.5705
31364SOL    HW296986   0.670   3.592   5.900  0.4430  1.2736 -0.0431
31365SOL     OW96987   0.829   9.338   6.560  0.1700 -0.2471  0.2747
31365SOL    HW196988   0.919   9.318   6.584  0.6062 -0.1136 -1.1438
31365SOL    HW296989   0.798   9.396   6.629  1.4179  0.3156  0.3830
31366SOL     OW96990   5.478   1.521   1.145 -0.1522  0.2007  0.1728
31366SOL    HW196991   5.396   1.535   1.194 -0.2704  0.4933 -0.1024
31366SOL    HW296992   5.541   1.579   1.189 -0.3449  0.7265 -0.2271
31367SOL     OW96993   8.216   5.359   7.511 -0.4015  0.8034  0.4127
31367SOL    HW196994   8.160   5.351   7.588  2.0364 -0.0135  2.2306
31367SOL    HW296995   8.251   5.270   7.497 -0.2227  1.0925 -1.2183
31368SOL     OW96996   6.609   2.688   3.340  0.0927  0.4176  0.3002
31368SOL    HW196997   6.554   2.736   3.403 -1.4508  0.1189 -0.7672
31368SOL    HW296998   6.696   2.690   3.379 -0.3594  2.1970  1.3467
31369SOL     OW96999   4.829   9.487   3.788  0.1210 -0.1012 -0.0684
31369SOL    HW197000   4.813   9.575   3.756 -1.3098 -0.3611 -0.1573
31369SOL    HW297001   4.921   9.486   3.814  0.4933  1.0261 -1.2559
31370SOL     OW97002   6.502   0.569   4.266 -0.2267 -0.1382  0.0833
31370SOL    HW197003   6.488   0.531   4.179  4.8770 -0.6762 -0.7843
31370SOL    HW297004   6.551   0.650   4.250 -2.0385  1.5850  2.4435
31371SOL     OW97005   1.469   4.170   8.680 -0.2968  0.2224  0.3878
31371SOL    HW197006   1.425   4.224   8.614  2.7871  1.8145 -0.5465
31371SOL    HW297007   1.512   4.101   8.629 -0.2569 -0.2754  1.0863
31372SOL     OW97008   5.492   5.954   1.655 -0.4868  0.2430 -0.1107
31372SOL    HW197009   5.587   5.967   1.664 -0.4094  0.7553 -1.3714
31372SOL    HW297010   5.462   6.031   1.607 -1.2399 -0.7217 -1.2629
31373SOL     OW97011   4.438  10.391   3.195 -0.5219 -0.2161  0.2820
31373SOL    HW197012   4.440  10.302   3.160 -0.5308 -0.3037  0.5018
31373SOL    HW297013   4.347  10.419   3.186 -0.1290  0.5534 -1.7291
31374SOL     OW97014   3.716   9.499   8.536 -0.2811  0.7382  0.0162
31374SOL    HW197015   3.668   9.420   8.512  0.2706  0.0815  0.9938
31374SOL    HW297016   3.677   9.527   8.618  0.7098  0.4286  0.6152
31375SOL     OW97017   7.606   5.274   2.269  0.5371 -0.2962  0.0507
31375SOL    HW197018   7.603   5.368   2.255  0.0735  0.1335  2.6428
31375SOL    HW297019   7.525   5.253   2.314  0.5580 -2.0013 -0.6120
31376SOL     OW97020   1.553   4.393   4.884  0.6989 -0.3724  0.4332
31376SOL    HW197021   1.570   4.349   4.967  1.2668  1.0084  1.0974
31376SOL    HW297022   1.590   4.335   4.818 -0.4258 -1.8551  1.0611
31377SOL     OW97023   0.468   4.059   7.629 -0.2314 -0.0915  0.3243
31377SOL    HW197024   0.538   4.083   7.569 -0.1368 -0.1405  0.4133
31377SOL    HW297025   0.452   3.966   7.611 -0.1381 -0.1302  0.4389
31378SOL     OW97026   1.417   5.500  10.262  0.0105 -0.1502 -0.3388
31378SOL    HW197027   1.501   5.545  10.263  0.8244 -1.5900 -0.9328
31378SOL    HW297028   1.398   5.485  10.170  0.6779 -2.5658 -0.1703
31379SOL     OW97029   9.361   0.294   3.605 -0.5345  0.1384  0.2435
31379SOL    HW197030   9.307   0.357   3.557  0.1884 -0.4617 -1.4437
31379SOL    HW297031   9.302   0.256   3.670 -1.6767  0.7117 -0.4327
31380SOL     OW97032   7.824   5.170  10.537  0.0519  0.0836  0.4996
31380SOL    HW197033   7.789   5.136  10.455  0.4973 -1.5006  0.9164
31380SOL    HW297034   7.919   5.162  10.528  0.1162  0.1447  1.0583
31381SOL     OW97035   9.156   5.568   1.648 -0.3561  0.3871 -0.5266
31381SOL    HW197036   9.088   5.635   1.638 -1.2405 -0.7549 -2.8907
31381SOL    HW297037   9.139   5.505   1.578  2.8018 -0.2750 -0.8745
31382SOL     OW97038   9.480  10.230   6.146  0.2527  0.1447 -0.7559
31382SOL    HW197039   9.481  10.310   6.095 -0.5000 -0.1117 -1.1917
31382SOL    HW297040   9.398  10.234   6.196  2.4551  2.0762  3.2234
31383SOL     OW97041   5.125  10.323   7.419 -0.1100 -0.4053  0.4558
31383SOL    HW197042   5.195  10.257   7.422  0.6482  0.3381 -0.1572
31383SOL    HW297043   5.148  10.379   7.344  0.4874  1.8519  2.1949
31384SOL     OW97044   9.859   6.422   7.891  0.0697  0.5019  0.1286
31384SOL    HW197045   9.797   6.406   7.963  0.4752  1.3528  0.6924
31384SOL    HW297046   9.803   6.446   7.817 -0.4440 -1.7803 -0.2930
31385SOL     OW97047   2.484   4.219   0.162  0.2134 -0.3341  0.3830
31385SOL    HW197048   2.576   4.221   0.186  0.4956  0.1749 -0.6732
31385SOL    HW297049   2.460   4.126   0.164  0.8849 -0.5163  0.1668
31386SOL     OW97050   6.012   3.564   9.164 -0.1716 -0.3336  0.3767
31386SOL    HW197051   6.019   3.650   9.205  2.9775 -0.8535  1.1859
31386SOL    HW297052   5.937   3.571   9.105  0.9226  3.5215 -0.8543
31387SOL     OW97053   5.515   4.560   4.216  0.1585 -0.0515  0.0420
31387SOL    HW197054   5.468   4.565   4.133 -0.8293 -1.0063  0.5146
31387SOL    HW297055   5.604   4.535   4.193 -0.0815 -0.2004 -0.7294
31388SOL     OW97056   6.371   7.818   5.984  0.0565 -0.1357  0.3080
31388SOL    HW197057   6.411   7.884   6.041  1.1058 -1.4874  1.1913
31388SOL    HW297058   6.446   7.771   5.947 -0.4985  1.4456 -3.2213
31389SOL     OW97059   0.653   7.183   8.216 -0.6250  0.5571  0.0258
31389SOL    HW197060   0.634   7.214   8.305  0.5677  1.0735  0.1190
31389SOL    HW297061   0.731   7.128   8.227 -1.4071 -0.6821 -0.4757
31390SOL     OW97062   1.486  10.531   7.661  0.4115  0.5195 -0.3068
31390SOL    HW197063   1.516  10.444   7.633  0.8904  0.4269  0.4746
31390SOL    HW297064   1.563  10.573   7.698 -0.4078  0.1629  2.0034
31391SOL     OW97065   8.563   0.813  10.793  0.1113 -0.2019  0.0882
31391SOL    HW197066   8.541   0.883  10.731  0.4927  1.1893  1.4674
31391SOL    HW297067   8.635   0.766  10.751 -1.5927 -1.2520 -1.8869
31392SOL     OW97068  10.017   2.575   5.097 -0.0306 -0.1927  0.1531
31392SOL    HW197069   9.942   2.630   5.119 -0.3036 -0.7187  0.5568
31392SOL    HW297070  10.084   2.636   5.067 -1.1393  0.1635 -1.7459
31393SOL     OW97071   5.592   6.327   4.420 -0.0565  0.0928 -0.2611
31393SOL    HW197072   5.516   6.380   4.395  0.1922  0.1122 -1.0014
31393SOL    HW297073   5.578   6.307   4.512  0.1318  1.9262  0.2060
31394SOL     OW97074   0.627   7.724   4.963  0.1172  0.3711  0.2582
31394SOL    HW197075   0.606   7.640   4.921  3.1939 -0.4873  0.1547
31394SOL    HW297076   0.557   7.782   4.937 -0.2109 -1.1910 -2.8218
31395SOL     OW97077   8.375   4.508   4.775  0.3692 -0.2057 -0.1593
31395SOL    HW197078   8.403   4.522   4.865 -0.2328  0.3705 -0.0479
31395SOL    HW297079   8.282   4.485   4.782 -0.2034  1.7204 -0.7158
31396SOL     OW97080   5.107   3.245   2.528 -0.6796 -0.1570 -0.7904
31396SOL    HW197081   5.192   3.285   2.545  0.2066 -1.8969 -0.9281
31396SOL    HW297082   5.044   3.303   2.571  0.5621  1.1640 -0.6873
31397SOL     OW97083   9.605   0.240   3.248  0.4834  0.3621  0.1172
31397SOL    HW197084   9.539   0.304   3.224 -0.4964 -0.6087  0.1770
31397SOL    HW297085   9.591   0.226   3.342 -0.0819 -0.7967 -0.1299
31398SOL     OW97086   2.705   5.748   5.829 -0.4220 -0.6295 -0.1698
31398SOL    HW197087   2.761   5.706   5.764  2.2698  1.4560  0.6111
31398SOL    HW297088   2.649   5.807   5.779 -1.0370 -1.7600 -0.8546
31399SOL     OW97089   2.649   3.660   7.005 -0.0496 -0.2834  0.0001
31399SOL    HW197090   2.717   3.634   7.068  3.1470  1.8519 -2.2580
31399SOL    HW297091   2.692   3.654   6.919 -2.8845  0.8129 -1.6566
31400SOL     OW97092   8.139   7.711   8.211 -0.3522 -0.4775  0.1976
31400SOL    HW197093   8.206   7.670   8.157 -1.4387 -2.4295  0.2467
31400SOL    HW297094   8.057   7.671   8.182 -1.6008  2.0151 -0.0442
31401SOL     OW97095   2.250   5.322   7.101 -0.3834 -0.4272 -0.0900
31401SOL    HW197096   2.199   5.401   7.119 -0.7580 -0.9398  1.2452
31401SOL    HW297097   2.201   5.277   7.033 -0.4487  0.2317 -0.4892
31402SOL     OW97098   2.382   3.627   6.939  0.6955  0.2559  0.0087
31402SOL    HW197099   2.353   3.714   6.911  0.5967  0.0904 -0.4104
31402SOL    HW297100   2.476   3.637   6.952  0.9429  0.0815 -1.4249
31403SOL     OW97101   8.047   5.176   6.484  0.4884  0.1890 -0.3114
31403SOL    HW197102   8.095   5.094   6.474  1.1313  0.5902 -0.5051
31403SOL    HW297103   7.969   5.151   6.534  0.9082 -0.4606  0.0370
31404SOL     OW97104   1.860   2.430  10.157 -0.5985 -0.6845  0.1931
31404SOL    HW197105   1.859   2.458  10.249 -2.9474 -0.0042  0.0099
31404SOL    HW297106   1.950   2.399  10.143 -0.0109 -0.2450  2.5352
31405SOL     OW97107   0.279   7.079   7.721  0.2678 -0.2826 -0.2708
31405SOL    HW197108   0.257   7.018   7.650  2.7469 -1.2582 -0.3082
31405SOL    HW297109   0.306   7.159   7.676  1.3033 -0.7111 -0.4326
31406SOL     OW97110   3.678   2.312   9.223 -0.6148  0.3243 -0.0251
31406SOL    HW197111   3.754   2.338   9.275 -0.4940  0.4603 -0.2637
31406SOL    HW297112   3.686   2.217   9.214  1.2778  0.6139 -2.6660
31407SOL     OW97113   8.766   1.830   9.150 -0.6132  0.1937  0.1645
31407SOL    HW197114   8.713   1.751   9.141 -2.1433  0.9813  1.8457
31407SOL    HW297115   8.704   1.902   9.143  0.7951  1.3360 -1.6757
31408SOL     OW97116   0.953   6.327   4.733  0.1500 -0.1318  0.1397
31408SOL    HW197117   0.869   6.351   4.773 -0.9727 -0.2057 -2.0031
31408SOL    HW297118   1.010   6.306   4.807 -2.2124 -1.7118  1.6507
31409SOL     OW97119   7.367   9.115   6.999 -0.5061 -0.1016  0.0693
31409SOL    HW197120   7.438   9.149   7.054  1.1184 -1.1478 -1.2899
31409SOL    HW297121   7.347   9.029   7.035  2.8758 -2.3189 -2.6811
31410SOL     OW97122   0.256   5.799   0.276 -0.4467  0.5477 -0.2227
31410SOL    HW197123   0.216   5.839   0.353  1.3127  0.0231  1.0050
31410SOL    HW297124   0.342   5.840   0.268 -0.4667  0.3589 -1.7229
31411SOL     OW97125   9.801   7.402   4.094 -0.5626 -0.4110  0.6708
31411SOL    HW197126   9.869   7.339   4.118  0.1667 -0.3803 -1.1846
31411SOL    HW297127   9.758   7.364   4.018 -1.7324  0.2298  0.9849
31412SOL     OW97128   4.185   1.461  10.346  0.4817  0.4951 -0.2668
31412SOL    HW197129   4.238   1.394  10.389 -0.9346 -0.7825 -0.4356
31412SOL    HW297130   4.242   1.538  10.343  2.3783 -0.8402 -0.5662
31413SOL     OW97131   5.052   2.993   3.877 -0.2825 -0.0714 -0.2537
31413SOL    HW197132   5.042   3.076   3.924  1.7181 -0.1368  0.3922
31413SOL    HW297133   4.963   2.963   3.862 -1.0255  1.3543  1.0340
31414SOL     OW97134   5.661   3.325   1.457 -0.2611 -0.1589 -0.5275
31414SOL    HW197135   5.604   3.401   1.466 -1.4928 -1.0138 -0.7822
31414SOL    HW297136   5.730   3.354   1.396  1.8303  2.0866  2.6197
31415SOL     OW97137   8.887   1.657   4.248  0.0705 -0.0023 -0.0180
31415SOL    HW197138   8.869   1.710   4.326 -1.2198  0.8024 -0.8169
31415SOL    HW297139   8.843   1.705   4.177 -0.8720 -1.9702 -0.8267
31416SOL     OW97140   4.528   8.319   8.853  0.1072 -0.8069  0.4414
31416SOL    HW197141   4.568   8.405   8.864 -1.2668 -0.1781  0.6583
31416SOL    HW297142   4.561   8.287   8.769  1.2963 -0.4573  0.7588
31417SOL     OW97143   2.139   2.050   3.215  0.4430  0.0290 -1.0712
31417SOL    HW197144   2.193   2.119   3.177  0.9826 -0.2031 -0.7390
31417SOL    HW297145   2.062   2.045   3.158  0.9816  0.0529 -1.8042
31418SOL     OW97146   6.371   7.205   0.558 -0.0184 -0.3108  0.0480
31418SOL    HW197147   6.460   7.242   0.555  0.0468 -0.5198 -0.9164
31418SOL    HW297148   6.385   7.110   0.554 -0.2760 -0.3663  0.3769
31419SOL     OW97149   6.003   3.077   2.079  0.2297 -0.3601  0.5067
31419SOL    HW197150   6.067   3.015   2.115  0.4153 -0.2052  0.4441
31419SOL    HW297151   6.053   3.127   2.015  0.5235  1.0115  1.7531
31420SOL     OW97152   2.987   1.701   1.852  0.2613 -0.2100  0.1081
31420SOL    HW197153   3.033   1.617   1.848  0.1418 -0.2295 -1.6235
31420SOL    HW297154   2.982   1.730   1.761 -5.5017 -1.4917 -0.3897
31421SOL     OW97155   0.069   0.361   4.848 -0.2059 -0.2262  0.2413
31421SOL    HW197156   0.038   0.415   4.921 -1.5420 -1.2438  0.4562
31421SOL    HW297157   0.098   0.425   4.782 -3.1372  0.9098 -0.1382
31422SOL     OW97158   2.995   3.888   1.662 -0.3114 -0.1822  0.4273
31422SOL    HW197159   2.910   3.915   1.699 -1.4973 -3.6637  0.6329
31422SOL    HW297160   3.027   3.822   1.723  1.7007 -0.2510 -0.6329
31423SOL     OW97161   3.055  10.745   9.371  0.2811 -0.0860 -0.3094
31423SOL    HW197162   3.092  10.666   9.333  2.5743  1.0016 -0.5136
31423SOL    HW297163   3.131  10.798   9.397 -1.1521  1.9525  0.0363
31424SOL     OW97164   3.862   5.915   6.678 -0.2572 -0.3060  0.0812
31424SOL    HW197165   3.906   5.945   6.758 -0.9939  0.8198  0.0928
31424SOL    HW297166   3.803   5.987   6.655 -0.7899 -1.0375 -0.9199
31425SOL     OW97167   3.934   8.578   4.359  0.2400  0.2357  0.2804
31425SOL    HW197168   3.954   8.643   4.427  1.1879 -0.3278  0.5672
31425SOL    HW297169   4.019   8.557   4.320 -0.3619  1.0133 -1.5428
31426SOL     OW97170   9.663   7.610   0.959  0.8996  0.4445  0.1119
31426SOL    HW197171   9.635   7.695   0.927 -1.1219 -0.6072 -1.0876
31426SOL    HW297172   9.757   7.620   0.973  1.5921  1.6806 -4.1054
31427SOL     OW97173  10.633   9.592   9.801 -0.1989 -0.7777  0.1467
31427SOL    HW197174  10.673   9.534   9.736 -2.0774 -2.1213  0.1125
31427SOL    HW297175  10.651   9.550   9.885  0.6352 -0.0303  0.3458
31428SOL     OW97176   9.455  10.396   6.857 -0.1482  0.0443  0.0863
31428SOL    HW197177   9.497  10.477   6.828  1.3908 -0.5540  0.5200
31428SOL    HW297178   9.362  10.417   6.862  0.1549  1.6128 -0.3450
31429SOL     OW97179   4.720   3.063   0.036 -0.2337  0.0170 -0.0175
31429SOL    HW197180   4.709   3.057  -0.059 -0.2763 -0.3524  0.0119
31429SOL    HW297181   4.660   3.133   0.063  0.3829  0.6997 -0.3702
31430SOL     OW97182   2.626   5.103   5.064 -0.5352  0.4306  0.0774
31430SOL    HW197183   2.628   5.012   5.094  0.2146  0.9150  1.6117
31430SOL    HW297184   2.693   5.147   5.117  0.7833  1.4185 -2.2766
31431SOL     OW97185   1.225   3.937   8.383  0.7559  0.0065  0.1731
31431SOL    HW197186   1.214   3.956   8.476  2.6241 -0.5834  0.5511
31431SOL    HW297187   1.289   4.001   8.352  0.6902 -0.2609 -0.5427
31432SOL     OW97188   0.953   4.057   1.689  0.4538 -0.5273 -0.2310
31432SOL    HW197189   0.929   4.148   1.671 -1.2452 -0.7349  0.6765
31432SOL    HW297190   0.923   4.008   1.613 -2.2869 -0.7827  0.8951
31433SOL     OW97191   3.425   0.614  10.166  0.6963 -0.1250  0.6303
31433SOL    HW197192   3.451   0.532  10.209  2.0067  0.8714  1.8645
31433SOL    HW297193   3.432   0.680  10.236  0.3637  1.1539 -0.5086
31434SOL     OW97194   2.594  10.245   0.153 -0.8352 -0.0151 -0.0530
31434SOL    HW197195   2.582  10.325   0.101 -0.7276  0.3717  0.5090
31434SOL    HW297196   2.679  10.257   0.196 -0.8624 -0.3893  0.1117
31435SOL     OW97197   9.721   9.466   8.495 -0.2260 -0.1650  0.3653
31435SOL    HW197198   9.685   9.507   8.416  1.9432  0.3118 -0.4603
31435SOL    HW297199   9.692   9.375   8.490 -0.8009  0.0525 -0.5376
31436SOL     OW97200   9.206   6.309   1.627  0.5741 -0.1941 -0.2343
31436SOL    HW197201   9.163   6.321   1.712 -0.0894 -0.0064 -0.5869
31436SOL    HW297202   9.271   6.379   1.623  1.2841 -0.8055  0.5338
31437SOL     OW97203   8.083   6.650   4.681 -0.0912 -0.1688  0.0918
31437SOL    HW197204   8.025   6.653   4.757 -1.3233  1.2957 -0.8477
31437SOL    HW297205   8.040   6.590   4.620  0.0252 -0.0341 -0.1234
31438SOL     OW97206   4.472   9.821   4.344 -0.6659  0.2047  0.0635
31438SOL    HW197207   4.404   9.771   4.298 -0.2418  0.2732 -0.6590
31438SOL    HW297208   4.434   9.840   4.430 -1.2809 -0.3654 -0.0713
31439SOL     OW97209   1.288   1.415   9.635  0.5359  0.3545 -0.3042
31439SOL    HW197210   1.357   1.355   9.607 -0.7914 -0.6095 -1.6748
31439SOL    HW297211   1.226   1.417   9.562 -2.5644 -1.3614  2.0146
31440SOL     OW97212   5.739   8.840   7.147  0.3130 -0.4093  0.5854
31440SOL    HW197213   5.691   8.923   7.138  1.5629  0.1374 -1.5701
31440SOL    HW297214   5.829   8.866   7.167  1.3314 -1.0227 -2.6345
31441SOL     OW97215   4.292   6.933   8.487  0.0782  0.2397  0.0375
31441SOL    HW197216   4.342   6.924   8.405 -0.1328  4.1308 -0.7342
31441SOL    HW297217   4.359   6.935   8.555  0.5163 -0.0556 -0.3778
31442SOL     OW97218   6.671   7.523   0.613 -0.0058  0.2320  0.5574
31442SOL    HW197219   6.587   7.567   0.625  0.8002  1.7063  1.0132
31442SOL    HW297220   6.731   7.569   0.672  0.6863 -2.1144  1.8226
31443SOL     OW97221   1.878   9.795   5.090  0.0120  0.3685 -0.4453
31443SOL    HW197222   1.881   9.881   5.047 -0.5713  0.4699 -0.2923
31443SOL    HW297223   1.808   9.803   5.155  0.4137 -0.0073  0.0482
31444SOL     OW97224   8.926   9.964   1.317 -0.4924  0.5809 -0.0276
31444SOL    HW197225   8.989   9.894   1.333  0.4594  0.9503 -1.8101
31444SOL    HW297226   8.973  10.044   1.340 -0.4990  0.8207 -0.8222
31445SOL     OW97227   2.400   8.982   2.161  0.2812  0.0410  0.2911
31445SOL    HW197228   2.336   8.956   2.228 -0.4227 -0.0641 -0.4048
31445SOL    HW297229   2.400   9.078   2.164  0.3370  0.0357  0.5136
31446SOL     OW97230   6.547   2.907   7.700  0.0461  0.3687  0.1251
31446SOL    HW197231   6.533   2.823   7.656  0.1966  0.1898  0.4140
31446SOL    HW297232   6.589   2.962   7.635  0.6088 -0.0119  0.1563
31447SOL     OW97233   3.289   2.618   3.070  0.1302 -0.2110 -0.7872
31447SOL    HW197234   3.304   2.599   2.978 -1.7587 -0.0727 -1.1640
31447SOL    HW297235   3.232   2.695   3.070  0.7522  0.2822  0.5314
31448SOL     OW97236   4.125   8.523   7.252  0.3300 -0.0673 -0.5690
31448SOL    HW197237   4.105   8.598   7.196  0.5664  1.6596  1.5522
31448SOL    HW297238   4.216   8.537   7.280  0.5203 -1.3859 -0.4497
31449SOL     OW97239   2.690   7.300   7.671  0.3714 -0.7420  0.1489
31449SOL    HW197240   2.599   7.275   7.689  0.3223  0.3399  1.5482
31449SOL    HW297241   2.741   7.258   7.741  0.9614 -1.2931 -0.5911
31450SOL     OW97242   0.175   1.659   7.708  0.1457  0.2776 -0.0933
31450SOL    HW197243   0.147   1.567   7.709 -2.6185  0.9745  2.9276
31450SOL    HW297244   0.262   1.657   7.669  0.3663 -3.6533  0.2103
31451SOL     OW97245   0.497  10.586   8.896  0.2436  0.2174 -0.2457
31451SOL    HW197246   0.531  10.574   8.808  2.0726  0.8904  0.3187
31451SOL    HW297247   0.508  10.680   8.913 -3.5036  0.8684 -0.5922
31452SOL     OW97248   8.891   5.982   3.701  0.2520 -1.2274 -0.5859
31452SOL    HW197249   8.932   6.059   3.660  1.7280 -1.2693  0.7506
31452SOL    HW297250   8.800   6.009   3.714  0.0471 -0.7202 -2.5959
31453SOL     OW97251   4.729   4.516  10.677 -0.0526  0.1142 -0.1280
31453SOL    HW197252   4.810   4.466  10.688  1.2232  2.0476 -0.1038
31453SOL    HW297253   4.702   4.538  10.766  1.2033  2.0807 -0.1620
31454SOL     OW97254   3.512   4.814   2.325  0.0630 -0.1810 -0.8038
31454SOL    HW197255   3.487   4.820   2.417 -1.1465  1.4778 -1.2065
31454SOL    HW297256   3.507   4.720   2.305 -1.9799 -0.3378  0.2070
31455SOL     OW97257   3.238   3.341   8.966 -0.2622  0.8593 -0.3427
31455SOL    HW197258   3.283   3.337   8.881 -0.7555  1.8444 -0.6679
31455SOL    HW297259   3.199   3.254   8.976 -0.5642  0.8590 -1.3422
31456SOL     OW97260   1.402   3.035   0.491 -0.1030  0.3021 -0.1033
31456SOL    HW197261   1.386   3.035   0.585 -2.0770 -0.6988 -0.3762
31456SOL    HW297262   1.442   3.120   0.473  0.6378  0.3698  1.6628
31457SOL     OW97263   0.079   5.253   5.186 -0.6629  0.4052 -0.2380
31457SOL    HW197264   0.074   5.348   5.181  0.6175  0.4371 -1.6485
31457SOL    HW297265   0.046   5.223   5.101 -0.4467 -0.3812 -0.0559
31458SOL     OW97266   6.010   6.014   3.392  0.3054 -0.0602 -0.2971
31458SOL    HW197267   6.059   6.069   3.453  0.5061  1.5074 -1.7819
31458SOL    HW297268   6.073   5.949   3.363  0.8814  0.5807 -0.5155
31459SOL     OW97269   5.593   2.834   1.574  0.3583 -0.2635 -0.1604
31459SOL    HW197270   5.523   2.869   1.629 -1.4868 -1.6876 -1.4742
31459SOL    HW297271   5.646   2.780   1.634 -0.1659  0.1516  0.6966
31460SOL     OW97272   2.398   9.532   4.922 -0.3352 -0.2343 -0.5141
31460SOL    HW197273   2.474   9.496   4.876  0.0675 -0.4135  0.2817
31460SOL    HW297274   2.329   9.535   4.855  0.4185  0.1146 -1.2984
31461SOL     OW97275  10.205   0.019   5.608 -0.5903 -0.7571 -0.0965
31461SOL    HW197276  10.185  -0.067   5.643  0.0825 -1.4783 -1.3921
31461SOL    HW297277  10.120   0.062   5.599 -0.7474 -0.0249  3.4568
31462SOL     OW97278   3.977   7.064   1.609 -0.2825  0.3131  0.4309
31462SOL    HW197279   3.986   6.970   1.625  1.6418  0.1060 -1.3398
31462SOL    HW297280   3.996   7.075   1.515  0.0415  2.5118  0.6851
31463SOL     OW97281   9.185   7.416   9.184  0.0221 -0.5345  0.4638
31463SOL    HW197282   9.176   7.326   9.213 -1.3362 -0.3808  0.5615
31463SOL    HW297283   9.144   7.418   9.097  1.1311 -0.2717 -0.0719
31464SOL     OW97284   9.783   4.013   0.112  0.9053  0.0591 -0.1335
31464SOL    HW197285   9.755   3.950   0.045 -0.6402  0.3142  0.2347
31464SOL    HW297286   9.742   4.095   0.086 -0.0582  0.0687  1.3223
31465SOL     OW97287   1.210   3.502   6.097  0.1454 -0.1191  0.3194
31465SOL    HW197288   1.260   3.583   6.099  0.5624 -0.1549 -2.7285
31465SOL    HW297289   1.119   3.530   6.083  0.0407 -0.1647  0.8824
31466SOL     OW97290   0.450   3.541   7.476 -0.3332  0.6787  0.2330
31466SOL    HW197291   0.406   3.456   7.483  0.0541  0.4672  0.1246
31466SOL    HW297292   0.384   3.598   7.436 -0.6536  0.4750  0.4620
31467SOL     OW97293   2.356   1.598   5.772  0.2901  0.0106  0.0435
31467SOL    HW197294   2.414   1.674   5.772  2.0957 -1.3131 -0.8680
31467SOL    HW297295   2.311   1.602   5.857  2.7368  0.3172  1.3937
31468SOL     OW97296   5.741   3.734   7.656  0.4020 -0.1574 -0.3106
31468SOL    HW197297   5.678   3.774   7.715  1.3634  0.8462  0.0859
31468SOL    HW297298   5.800   3.685   7.714  1.5706  1.1360 -0.3642
31469SOL     OW97299   5.509   1.374   1.565  0.4541 -0.2428 -0.0217
31469SOL    HW197300   5.425   1.340   1.598  1.2470 -0.8145  1.5451
31469SOL    HW297301   5.533   1.313   1.495 -0.3080 -0.2374 -0.2979
31470SOL     OW97302   7.146   1.267   5.646  0.1196  0.2731  0.3781
31470SOL    HW197303   7.128   1.331   5.577 -0.9790  1.6561  1.8808
31470SOL    HW297304   7.218   1.305   5.695 -1.4986  1.1712  2.1747
31471SOL     OW97305   8.070   2.233   2.078  0.2404 -0.2011  0.0074
31471SOL    HW197306   8.090   2.327   2.076 -0.6289  0.0913  2.0255
31471SOL    HW297307   8.141   2.195   2.129 -1.5023  0.1073  2.9399
31472SOL     OW97308   3.927   5.309   4.177  0.2375 -0.2745 -0.0443
31472SOL    HW197309   3.858   5.264   4.226 -0.3426  0.4158 -0.2197
31472SOL    HW297310   4.001   5.249   4.181 -0.1493 -0.7179  0.7381
31473SOL     OW97311   2.368   9.360   2.835 -0.0560  0.0405  0.0913
31473SOL    HW197312   2.338   9.432   2.890  0.8429  1.1723 -0.8294
31473SOL    HW297313   2.462   9.354   2.852 -0.2822 -1.6541  0.9388
31474SOL     OW97314   0.550   9.909   4.327  0.3084  0.1832 -0.3528
31474SOL    HW197315   0.530   9.930   4.236 -0.1310 -1.8250 -0.7512
31474SOL    HW297316   0.642   9.935   4.338  0.0203  1.5524 -0.9887
31475SOL     OW97317   1.962   4.241  10.022 -0.3456 -0.1981  0.5771
31475SOL    HW197318   1.953   4.245  10.117 -0.4654 -1.3621  0.6228
31475SOL    HW297319   1.975   4.149  10.003  1.0236  0.1875 -0.4368
31476SOL     OW97320   2.272   2.093   5.449  0.0048 -0.0952  0.2662
31476SOL    HW197321   2.240   2.091   5.539  0.5040 -0.1641  0.4452
31476SOL    HW297322   2.366   2.108   5.457  0.3506 -1.8132 -0.1780
31477SOL     OW97323   7.436   9.925   2.461  0.1106 -0.5998 -0.1171
31477SOL    HW197324   7.385   9.874   2.523 -1.3505 -0.1462 -0.8907
31477SOL    HW297325   7.497   9.975   2.515 -1.4055  0.1079  1.0219
31478SOL     OW97326   8.893   0.173   4.064 -0.3781 -0.2365  0.2540
31478SOL    HW197327   8.945   0.093   4.061  0.7019  0.4573 -1.7819
31478SOL    HW297328   8.938   0.229   4.128 -0.9456 -1.0971  1.4324
31479SOL     OW97329   8.673   5.294   0.942  0.2073  0.0348 -0.5537
31479SOL    HW197330   8.647   5.330   0.857 -0.3154 -1.6283 -1.1309
31479SOL    HW297331   8.758   5.252   0.925  0.6483  0.6601  0.0325
31480SOL     OW97332   9.209   4.224   0.320  0.2889 -0.5082 -0.0052
31480SOL    HW197333   9.256   4.151   0.360  1.3023  0.8136  1.3668
31480SOL    HW297334   9.117   4.206   0.336  0.5674 -1.0947  1.0297
31481SOL     OW97335   5.214   0.185   2.816 -0.1055 -0.1045 -1.0625
31481SOL    HW197336   5.298   0.140   2.824 -0.7442 -1.2601 -0.6324
31481SOL    HW297337   5.228   0.249   2.746  0.6461 -1.4090 -2.1689
31482SOL     OW97338   8.069   7.118   4.342  0.1365  0.3374 -0.2494
31482SOL    HW197339   7.985   7.082   4.371 -0.8033  0.5761 -2.4671
31482SOL    HW297340   8.072   7.098   4.248  2.6431  0.2164 -0.2006
31483SOL     OW97341   0.660   2.863   2.509 -0.6644  0.4622 -0.0214
31483SOL    HW197342   0.733   2.801   2.516 -0.9683  0.0048 -0.7032
31483SOL    HW297343   0.594   2.815   2.458 -1.7723  0.5557  1.2664
31484SOL     OW97344   5.081   7.088   8.159 -1.2435  0.4031 -0.0704
31484SOL    HW197345   5.058   7.032   8.085 -1.0094 -0.0256  0.1779
31484SOL    HW297346   5.161   7.133   8.130 -0.8367 -0.1810  0.1299
31485SOL     OW97347   5.005   4.882   6.543  0.2504 -0.0145  0.1477
31485SOL    HW197348   5.008   4.853   6.452  0.4838 -1.2130  0.5260
31485SOL    HW297349   5.049   4.967   6.542  1.2530 -0.5209 -0.6741
31486SOL     OW97350   7.959   9.521   1.207 -0.1559  0.2469  0.1778
31486SOL    HW197351   7.990   9.571   1.282 -0.6809 -0.2816  0.7630
31486SOL    HW297352   8.009   9.555   1.133  3.0647 -1.6109  1.2702
31487SOL     OW97353   6.471   5.370   5.346  0.3847  0.3676 -0.3104
31487SOL    HW197354   6.565   5.356   5.340  0.3309  0.0299 -0.4328
31487SOL    HW297355   6.461   5.462   5.368  0.7925  0.0466  1.4043
31488SOL     OW97356   2.392   4.710   5.627  0.1563 -0.2330 -0.0842
31488SOL    HW197357   2.389   4.806   5.631 -2.8352 -0.2371  0.7219
31488SOL    HW297358   2.463   4.691   5.567  2.2566  2.3956  1.3179
31489SOL     OW97359   7.315   7.627   8.735 -0.2600 -0.1156  0.3594
31489SOL    HW197360   7.398   7.616   8.781  0.1460 -1.8879 -0.7196
31489SOL    HW297361   7.293   7.719   8.749  2.2540  0.6069  0.0640
31490SOL     OW97362   4.806   1.512   0.927 -0.1262 -0.6519 -0.1991
31490SOL    HW197363   4.718   1.530   0.894  0.3048 -1.4363 -1.8808
31490SOL    HW297364   4.807   1.417   0.942 -0.0710 -0.4158  1.4385
31491SOL     OW97365   1.152   5.634   7.916  0.3117 -0.1954  0.7548
31491SOL    HW197366   1.208   5.583   7.857 -0.4422  2.2871 -2.3477
31491SOL    HW297367   1.211   5.698   7.955  0.3802 -0.3817  0.9656
31492SOL     OW97368   5.250   8.484   8.725 -0.2041  0.5866 -0.6294
31492SOL    HW197369   5.311   8.411   8.738 -2.0013 -1.3484 -2.3054
31492SOL    HW297370   5.164   8.448   8.746 -0.9205  3.1671  1.4548
31493SOL     OW97371   7.275   9.139   4.789 -0.6552  0.2010 -0.2206
31493SOL    HW197372   7.240   9.121   4.876 -0.8423 -1.5396 -0.6131
31493SOL    HW297373   7.370   9.127   4.799 -0.7403 -0.7067 -0.3847
31494SOL     OW97374   2.499   4.290   3.175 -0.3985  0.6226 -0.3592
31494SOL    HW197375   2.465   4.203   3.152  2.0963 -0.1206 -1.6772
31494SOL    HW297376   2.479   4.344   3.099  0.2950  0.4856 -0.6480
31495SOL     OW97377   4.010   1.838   9.891 -0.4835 -0.1249 -0.1168
31495SOL    HW197378   3.948   1.843   9.819 -0.1251 -2.9742 -0.7524
31495SOL    HW297379   4.007   1.747   9.919  1.4345  0.2644  1.6421
31496SOL     OW97380   6.837   6.027   2.526 -0.0315 -0.7954  0.7347
31496SOL    HW197381   6.823   6.057   2.616 -0.6608 -0.6289  0.5878
31496SOL    HW297382   6.759   5.975   2.505  0.0141 -0.6632  0.2183
31497SOL     OW97383   2.476   8.806   7.598 -0.1884 -0.3677 -0.3420
31497SOL    HW197384   2.476   8.786   7.691  2.3840  0.0454 -0.1849
31497SOL    HW297385   2.532   8.739   7.559  0.0811  0.4191 -1.3368
31498SOL     OW97386   9.655   7.299   2.044  0.4530  0.1162 -0.2757
31498SOL    HW197387   9.630   7.212   2.013  0.5859 -0.4869  1.2608
31498SOL    HW297388   9.751   7.296   2.052  0.3172 -0.2262  1.5395
31499SOL     OW97389   4.734   8.091  10.306 -0.1053  0.2645  0.0417
31499SOL    HW197390   4.679   8.016  10.327  0.9278 -0.8299 -1.0609
31499SOL    HW297391   4.731   8.145  10.385 -0.3334 -1.2523  1.1151
31500SOL     OW97392   5.780   3.239   8.801 -0.3486 -0.3142  0.3014
31500SOL    HW197393   5.747   3.315   8.753  0.6850 -0.2936 -0.4203
31500SOL    HW297394   5.703   3.203   8.845 -1.3505 -0.2899 -1.3320
31501SOL     OW97395   0.433   1.668   9.066 -0.3900 -0.0218 -0.2545
31501SOL    HW197396   0.365   1.727   9.096 -1.6849 -1.1333 -0.9123
31501SOL    HW297397   0.392   1.617   8.996  1.4024 -0.0732 -1.3476
31502SOL     OW97398   2.826   7.055   0.473  0.9496  1.3241 -0.3160
31502SOL    HW197399   2.846   7.050   0.566  0.4094  2.3490 -0.1238
31502SOL    HW297400   2.747   7.109   0.468  0.9935  1.3271 -1.3688
31503SOL     OW97401   9.723  10.264   9.828  0.7987  0.4035  0.2968
31503SOL    HW197402   9.679  10.233   9.907  0.2600 -0.2108 -0.2359
31503SOL    HW297403   9.707  10.196   9.763  0.3449  1.3849 -0.6458
31504SOL     OW97404   2.087   6.728   4.819  0.4629 -0.5902 -0.1646
31504SOL    HW197405   2.082   6.782   4.898  0.0194 -0.2230 -0.4399
31504SOL    HW297406   2.145   6.777   4.760  1.7605 -1.4330  0.3626
31505SOL     OW97407   4.016   3.923   2.794  0.2222  0.2643 -0.2718
31505SOL    HW197408   3.954   3.913   2.866  0.8667 -0.9698  0.1399
31505SOL    HW297409   4.013   4.016   2.772  0.2407  0.7250  1.5627
31506SOL     OW97410   1.594   4.566   1.465  0.3248 -0.3209  0.0794
31506SOL    HW197411   1.563   4.532   1.381 -0.1460 -0.4379  0.2976
31506SOL    HW297412   1.679   4.607   1.445  0.0872 -0.1067 -0.5025
31507SOL     OW97413   8.402   8.101   0.390 -0.1643  0.2908 -1.2024
31507SOL    HW197414   8.338   8.034   0.367  0.2046 -0.7528  0.6376
31507SOL    HW297415   8.356   8.160   0.450  0.3536 -0.0457 -0.4500
31508SOL     OW97416   2.871   5.325   9.450 -0.4678 -0.2460  0.5277
31508SOL    HW197417   2.842   5.287   9.533  1.1310 -0.9192  0.8232
31508SOL    HW297418   2.792   5.363   9.412 -1.6605 -1.7508  1.3733
31509SOL     OW97419   0.467   8.567   2.293  0.0754 -0.2022 -0.4166
31509SOL    HW197420   0.538   8.632   2.288  0.7370 -0.5250  2.7900
31509SOL    HW297421   0.510   8.483   2.276  0.8601 -0.5415  2.7107
31510SOL     OW97422   1.944  10.334   3.174  0.2033 -0.0879 -0.0289
31510SOL    HW197423   1.979  10.245   3.170 -2.0534 -1.1913  2.2478
31510SOL    HW297424   1.979  10.371   3.255  0.6735  0.9578 -0.6732
31511SOL     OW97425   6.913   8.277   2.567  0.0922  0.6132  0.3393
31511SOL    HW197426   6.889   8.214   2.635  1.7167  0.4723  0.8321
31511SOL    HW297427   7.008   8.283   2.572  0.1366  1.6687 -0.9977
31512SOL     OW97428   0.982   9.503   5.618 -0.2607 -0.4646  0.0226
31512SOL    HW197429   0.996   9.586   5.665  0.1472 -1.0928  1.0525
31512SOL    HW297430   1.060   9.452   5.636 -0.4017 -0.9929 -0.8103
31513SOL     OW97431   0.155   2.482   5.192 -0.1066 -0.1299  0.0684
31513SOL    HW197432   0.226   2.464   5.253 -0.5723  2.0506  1.3636
31513SOL    HW297433   0.150   2.404   5.137 -0.3181 -2.7096  3.4337
31514SOL     OW97434   3.443   0.494   4.229  0.3082 -0.4825 -0.1982
31514SOL    HW197435   3.498   0.555   4.277 -0.2096 -0.7806  0.8224
31514SOL    HW297436   3.387   0.549   4.174  1.0459 -0.1441 -0.6176
31515SOL     OW97437   3.608   6.711   7.739 -0.3667 -0.0931  0.2819
31515SOL    HW197438   3.581   6.683   7.827 -0.2637 -2.4761 -0.3526
31515SOL    HW297439   3.703   6.710   7.742 -0.3515 -1.1732 -0.0980
31516SOL     OW97440   4.803   4.988  10.246  0.0297  1.2375 -0.4767
31516SOL    HW197441   4.732   5.049  10.263 -0.2972  1.0341 -1.0833
31516SOL    HW297442   4.859   4.993  10.324 -1.5095  0.2036  0.7740
31517SOL     OW97443   2.189   9.951   8.222  0.2083 -0.8241  1.0328
31517SOL    HW197444   2.183   9.924   8.131  0.3770  1.0898  0.4014
31517SOL    HW297445   2.277   9.987   8.231 -0.2153  0.1253  1.5932
31518SOL     OW97446  10.329   0.273   6.083  0.0452 -0.2822 -0.7686
31518SOL    HW197447  10.348   0.347   6.026  0.9330  1.2423  1.3625
31518SOL    HW297448  10.363   0.197   6.036  2.8151  1.1641 -1.3064
31519SOL     OW97449   1.009   1.146   0.040  0.2528 -0.1356  0.4120
31519SOL    HW197450   0.954   1.110  -0.030  0.1680  1.5418 -0.4207
31519SOL    HW297451   1.094   1.160  -0.000  0.9933 -1.6118  1.3874
31520SOL     OW97452   2.664   7.038   9.847 -0.6880  0.6150 -0.8428
31520SOL    HW197453   2.571   7.019   9.852 -0.1405 -2.4914 -0.1917
31520SOL    HW297454   2.682   7.091   9.925 -1.6162 -0.4881  0.1677
31521SOL     OW97455   0.991   5.216   6.381  0.2050 -0.2312 -0.3984
31521SOL    HW197456   0.901   5.214   6.350 -0.8496 -0.4516  2.4092
31521SOL    HW297457   1.023   5.127   6.369 -0.5951 -0.6176  0.2420
31522SOL     OW97458   0.440   2.976   0.138 -0.4121 -0.4894 -0.0960
31522SOL    HW197459   0.442   3.031   0.216  0.2333  0.3142 -0.6683
31522SOL    HW297460   0.351   2.987   0.104 -0.3698 -0.0174 -0.0580
31523SOL     OW97461   8.624   1.418  10.298 -0.1642 -0.2142  0.3066
31523SOL    HW197462   8.605   1.400  10.205 -1.1295 -2.3848  0.8592
31523SOL    HW297463   8.703   1.472  10.296 -0.2285 -0.0969 -1.7810
31524SOL     OW97464   0.894   5.703   9.323 -0.3421 -0.5840 -0.8362
31524SOL    HW197465   0.825   5.727   9.262 -1.2520 -0.2628  0.2857
31524SOL    HW297466   0.864   5.622   9.362  1.3874 -2.1422 -2.5373
31525SOL     OW97467   9.410   8.163   5.777 -0.1134  0.4006  0.2270
31525SOL    HW197468   9.486   8.206   5.817 -0.6677  0.3322  1.4046
31525SOL    HW297469   9.430   8.069   5.782  0.0760  0.4153 -0.2116
31526SOL     OW97470   7.035  10.389   7.574  0.2203 -0.2719  0.0726
31526SOL    HW197471   7.004  10.315   7.627  0.5212 -0.1445  0.4327
31526SOL    HW297472   6.957  10.441   7.557  0.4826  1.0985  2.6267
31527SOL     OW97473   4.975   1.124   5.222 -0.5417 -0.4745 -0.3481
31527SOL    HW197474   4.913   1.055   5.197 -1.2447  0.2737 -0.7038
31527SOL    HW297475   4.930   1.172   5.291 -0.7642  0.6374 -1.2331
31528SOL     OW97476   7.471   2.485   5.769  0.1592 -0.0348 -0.0024
31528SOL    HW197477   7.427   2.570   5.779 -2.2051 -1.0891 -0.8669
31528SOL    HW297478   7.462   2.464   5.676 -0.5549 -1.8703  0.4404
31529SOL     OW97479   4.674   6.134   8.759  0.8307  0.2387 -0.8496
31529SOL    HW197480   4.758   6.146   8.803 -0.1077  0.0495  1.0901
31529SOL    HW297481   4.646   6.046   8.784  0.6963 -0.2779 -2.6777
31530SOL     OW97482   0.697   0.367   1.663  0.3168 -0.2871 -0.3645
31530SOL    HW197483   0.752   0.398   1.735  1.0691 -1.7957 -0.2557
31530SOL    HW297484   0.615   0.341   1.705  0.5226 -0.5704 -0.1302
31531SOL     OW97485   5.013   9.978   4.632  0.3782 -0.4113  0.3479
31531SOL    HW197486   5.013   9.930   4.715 -1.1451 -1.3409 -0.1498
31531SOL    HW297487   4.931   9.953   4.590  0.9511  0.3254 -1.2868
31532SOL     OW97488   7.130   0.672   1.921  0.6892 -0.1191 -0.0488
31532SOL    HW197489   7.192   0.723   1.868  0.5556 -0.3623 -0.4450
31532SOL    HW297490   7.086   0.616   1.858  0.4377 -0.3248  0.3092
31533SOL     OW97491   3.467   9.759   5.508 -0.1523 -0.6169  0.1652
31533SOL    HW197492   3.478   9.786   5.599  1.6184  0.8205 -0.4183
31533SOL    HW297493   3.378   9.722   5.505 -0.6265  0.1931  2.2390
31534SOL     OW97494   3.547   7.087   5.485 -0.2996 -0.0585 -0.4596
31534SOL    HW197495   3.553   7.117   5.576  0.4737  1.8227 -1.0819
31534SOL    HW297496   3.539   7.168   5.434  0.9610 -0.9809 -2.1933
31535SOL     OW97497   1.721   0.275   8.649 -0.2756  0.3523 -0.1609
31535SOL    HW197498   1.703   0.181   8.637 -2.3324  0.7843 -0.7671
31535SOL    HW297499   1.637   0.318   8.635  0.1218  2.1463  2.3612
31536SOL     OW97500   7.195   6.956   6.914  0.1476 -0.4618  0.0782
31536SOL    HW197501   7.198   7.029   6.852 -0.9592 -0.7462 -0.3491
31536SOL    HW297502   7.275   6.963   6.965  0.2368  0.8233 -0.2189
31537SOL     OW97503   8.586   6.194   4.065  0.4763  0.1652  0.1014
31537SOL    HW197504   8.630   6.153   3.990  1.0458  1.4682 -0.2952
31537SOL    HW297505   8.558   6.279   4.033 -0.8461  0.0370  0.8671
31538SOL     OW97506   4.224   4.055   8.846  0.3189  0.5004 -0.1587
31538SOL    HW197507   4.237   4.146   8.818  1.7699  0.2264 -0.4754
31538SOL    HW297508   4.183   4.012   8.771 -0.3052  0.8582 -0.0352
31539SOL     OW97509   5.801   0.026   4.803 -0.1787  0.2745 -0.2599
31539SOL    HW197510   5.775   0.027   4.895  0.4977  0.8225 -0.0732
31539SOL    HW297511   5.827   0.116   4.784 -0.0416  0.1006 -0.9127
31540SOL     OW97512   6.271   7.393   6.999 -0.1699  0.0834 -0.1475
31540SOL    HW197513   6.197   7.452   7.018 -0.5163 -0.3546 -0.1076
31540SOL    HW297514   6.299   7.417   6.911 -0.9886 -0.3874 -0.5503
31541SOL     OW97515   2.029   6.104   0.665  0.0023  0.4838  0.6277
31541SOL    HW197516   2.047   6.158   0.589 -1.4769  1.2306  0.7774
31541SOL    HW297517   2.102   6.042   0.669  1.2054  1.8106 -0.1331
31542SOL     OW97518   8.878   7.233   5.517  0.5579  0.6778  0.0361
31542SOL    HW197519   8.908   7.219   5.427 -0.6190  1.2815 -0.4784
31542SOL    HW297520   8.956   7.258   5.565  1.4930 -1.1072 -0.4649
31543SOL     OW97521   0.282   1.234   8.116 -0.6742 -0.0628 -0.1092
31543SOL    HW197522   0.205   1.180   8.137 -1.2880  0.0003 -1.9947
31543SOL    HW297523   0.356   1.174   8.125 -1.1652 -0.7263 -0.3878
31544SOL     OW97524   4.316  10.318   2.665 -0.5183  0.2284 -0.0705
31544SOL    HW197525   4.322  10.392   2.606 -1.8113 -0.1101 -0.6613
31544SOL    HW297526   4.364  10.345   2.744 -1.0917  1.7277 -0.2228
31545SOL     OW97527  10.708   3.811   9.613 -0.0190 -0.1534  0.1881
31545SOL    HW197528  10.804   3.809   9.605 -0.1587 -0.7039 -2.1567
31545SOL    HW297529  10.691   3.877   9.680  1.9870  0.4348  0.1983
31546SOL     OW97530   8.655   4.657   4.868  0.1826  0.3832 -0.0439
31546SOL    HW197531   8.672   4.630   4.778 -0.2157  1.0561 -0.3351
31546SOL    HW297532   8.742   4.673   4.905  0.3134  2.2178 -1.0049
31547SOL     OW97533   5.337   4.469   4.014  0.0215 -0.4162  0.1486
31547SOL    HW197534   5.402   4.447   3.947  0.3070  1.4158 -0.2381
31547SOL    HW297535   5.262   4.503   3.964 -0.3040 -0.3072  0.7021
31548SOL     OW97536   1.035   8.050  10.056  0.4077  0.1481 -0.4540
31548SOL    HW197537   1.024   7.962  10.092 -0.5891  0.5982  0.3861
31548SOL    HW297538   1.130   8.062  10.051  0.6120  0.0887  2.1360
31549SOL     OW97539   2.657   0.394  10.154 -0.2158 -0.0217 -0.1266
31549SOL    HW197540   2.695   0.444  10.082 -0.6362  0.6208  0.0876
31549SOL    HW297541   2.730   0.382  10.216 -0.1570  0.5095 -0.0859
31550SOL     OW97542   4.274   0.936   0.906  0.1648  0.4052  0.2071
31550SOL    HW197543   4.256   1.010   0.848  1.9316  0.9691  0.3305
31550SOL    HW297544   4.356   0.959   0.950  0.0367 -1.0227  1.2657
31551SOL     OW97545   6.960   9.264   0.213 -0.1602 -0.2644  0.4404
31551SOL    HW197546   7.039   9.279   0.265  0.6938  1.2900 -1.1824
31551SOL    HW297547   6.988   9.203   0.144 -0.4809 -0.0613  0.1266
31552SOL     OW97548   1.148   2.346   0.041  0.5117  0.4447 -0.0786
31552SOL    HW197549   1.137   2.395  -0.040  2.5064  0.8584 -0.1571
31552SOL    HW297550   1.109   2.402   0.108 -1.2860  0.0298 -0.7363
31553SOL     OW97551   7.600   8.312   9.702  0.2417 -0.1786  0.3677
31553SOL    HW197552   7.575   8.286   9.613  1.3461 -0.6770  0.1878
31553SOL    HW297553   7.689   8.344   9.693  0.9645 -1.7611  1.5561
31554SOL     OW97554   5.627   0.907   0.875  0.2248 -0.0025 -0.3939
31554SOL    HW197555   5.677   0.989   0.870  2.5044 -1.2586  0.3948
31554SOL    HW297556   5.607   0.897   0.968  1.7879 -1.3009 -0.1495
31555SOL     OW97557  10.429   4.975   8.779  0.4122 -0.4660 -0.1225
31555SOL    HW197558  10.451   4.991   8.687  1.5607 -1.0731  0.0261
31555SOL    HW297559  10.502   5.012   8.828 -0.4110  0.2556  0.5828
31556SOL     OW97560   5.044   6.412   1.723  0.2184  0.0049 -0.4700
31556SOL    HW197561   5.071   6.450   1.639 -0.3779  0.8661 -0.2893
31556SOL    HW297562   5.117   6.430   1.782  0.5285 -0.3705 -0.7359
31557SOL     OW97563   7.441   3.011   8.464 -0.1826 -0.5419  0.1810
31557SOL    HW197564   7.383   2.985   8.393 -1.4857  4.3462 -0.9710
31557SOL    HW297565   7.388   3.001   8.543 -0.4406 -1.5848 -0.1147
31558SOL     OW97566   3.846   9.325   9.083 -0.4161 -0.0226 -0.0289
31558SOL    HW197567   3.811   9.244   9.120 -1.5427  0.4766  0.0188
31558SOL    HW297568   3.788   9.394   9.115 -0.9081  0.5444 -2.0099
31559SOL     OW97569   3.171   6.645  10.742  0.1204 -0.5025  0.4178
31559SOL    HW197570   3.197   6.696  10.819  0.6927 -1.2568  0.7300
31559SOL    HW297571   3.091   6.687  10.712 -0.0438 -0.1226  1.3569
31560SOL     OW97572   3.347   6.704   9.754  0.1445  0.2501  0.0794
31560SOL    HW197573   3.277   6.736   9.811  0.2167  1.5591 -0.5199
31560SOL    HW297574   3.420   6.685   9.812  0.6394  2.7127  0.3827
31561SOL     OW97575   2.016   0.432   9.140 -0.3261  0.2345 -0.1974
31561SOL    HW197576   1.924   0.406   9.132 -0.0902 -0.4993 -0.6968
31561SOL    HW297577   2.041   0.404   9.228 -1.2158  2.6244  0.9125
31562SOL     OW97578   5.558   5.770   5.908  0.3701 -0.1944 -0.5928
31562SOL    HW197579   5.508   5.843   5.873  0.4820  0.2952  0.2599
31562SOL    HW297580   5.590   5.724   5.830  1.1698  1.2522 -1.1594
31563SOL     OW97581   6.705   3.427   6.608  0.4290 -0.1875 -0.4275
31563SOL    HW197582   6.774   3.387   6.660 -1.3722  1.4017  3.6353
31563SOL    HW297583   6.726   3.521   6.607  0.2262 -0.1104 -2.4340
31564SOL     OW97584   3.474   0.021   7.590  0.0576  0.3505  0.3474
31564SOL    HW197585   3.553   0.004   7.642 -1.4766 -0.8560  2.4679
31564SOL    HW297586   3.417   0.072   7.649 -1.1633  0.2715 -0.7227
31565SOL     OW97587   0.774   1.832   2.244 -0.0176 -0.1071 -0.2562
31565SOL    HW197588   0.694   1.785   2.221 -0.4808  0.3375  0.4275
31565SOL    HW297589   0.766   1.849   2.338  1.6207 -1.4766  0.1880
31566SOL     OW97590   7.078   9.248   5.155 -0.1659  0.2680 -0.0181
31566SOL    HW197591   7.085   9.262   5.250 -0.9783 -1.1535  0.2859
31566SOL    HW297592   7.027   9.322   5.124 -1.1321  0.0210  0.9067
31567SOL     OW97593   8.239   2.813   1.255 -0.1787  0.9247  0.3121
31567SOL    HW197594   8.195   2.812   1.170 -0.4823 -0.4409  0.4607
31567SOL    HW297595   8.300   2.739   1.251  0.7527  1.6574  0.8011
31568SOL     OW97596   0.920   6.541   5.239 -0.1696 -0.4343  1.1848
31568SOL    HW197597   0.929   6.458   5.286  1.7825 -0.4150  0.9203
31568SOL    HW297598   0.996   6.593   5.267 -1.0073  1.0202  0.8577
31569SOL     OW97599   8.603   3.595   6.260  0.7211  0.6623 -0.2293
31569SOL    HW197600   8.694   3.570   6.274  0.1748 -1.3736  0.0357
31569SOL    HW297601   8.556   3.560   6.336 -0.5631 -0.2340 -1.3554
31570SOL     OW97602   8.287  10.278   6.156  0.3907  0.1275 -0.7910
31570SOL    HW197603   8.216  10.330   6.192 -0.4150 -0.7262 -1.1185
31570SOL    HW297604   8.262  10.187   6.172  1.9856 -0.1828  0.1733
31571SOL     OW97605   8.578   3.942   2.572  0.1405  0.6769  0.1172
31571SOL    HW197606   8.578   3.893   2.489 -1.6969  0.6473  0.0924
31571SOL    HW297607   8.665   3.927   2.608  1.4930  1.7583 -2.4125
31572SOL     OW97608   4.040  10.682   5.468 -0.5654 -0.0820 -0.5954
31572SOL    HW197609   3.968  10.620   5.471  0.6272 -1.5180  1.6775
31572SOL    HW297610   4.029  10.735   5.547  1.4559 -1.1365  0.4767
31573SOL     OW97611   3.629  10.567   8.000 -0.0951  0.3271 -0.4810
31573SOL    HW197612   3.661  10.645   7.956 -0.6367  0.4199 -0.7169
31573SOL    HW297613   3.699  10.543   8.061 -0.2442  1.4407  0.1616
31574SOL     OW97614   3.571   5.985   6.754  0.6912 -0.7659  0.0682
31574SOL    HW197615   3.564   5.952   6.843 -0.3719 -0.4045  0.1355
31574SOL    HW297616   3.539   6.075   6.759  2.0555 -0.2290 -0.4066
31575SOL     OW97617   8.837   2.041   3.550 -0.1052 -0.0946 -0.5939
31575SOL    HW197618   8.757   1.989   3.545 -1.0145  1.1606  0.2105
31575SOL    HW297619   8.854   2.049   3.644  1.3530 -0.9046 -0.7735
31576SOL     OW97620   8.483   1.768   3.529  0.0225 -0.2548 -0.0966
31576SOL    HW197621   8.446   1.855   3.515  1.1165  0.0499 -1.1719
31576SOL    HW297622   8.481   1.757   3.624 -0.1448  0.9327  0.0575
31577SOL     OW97623  10.442   6.510   8.622  0.6825 -0.1240  0.0445
31577SOL    HW197624  10.381   6.486   8.692  1.5346 -0.8745  0.5367
31577SOL    HW297625  10.450   6.605   8.630 -0.3763 -0.0140  0.0017
31578SOL     OW97626   3.960   0.340   4.419  0.6485  0.0401  0.1711
31578SOL    HW197627   3.963   0.245   4.421 -0.2102 -0.0717 -1.9014
31578SOL    HW297628   3.876   0.361   4.378  1.4390  1.6389 -0.7409
31579SOL     OW97629  10.031   0.710   3.647  0.0119 -0.1184 -0.6170
31579SOL    HW197630   9.994   0.798   3.657 -0.8853 -0.4466 -1.0093
31579SOL    HW297631  10.061   0.707   3.557 -1.9643 -0.9522 -1.2871
31580SOL     OW97632  10.657   3.364   2.712  0.4835 -0.2572  0.0338
31580SOL    HW197633  10.723   3.433   2.709 -0.5656  0.8736  1.4825
31580SOL    HW297634  10.588   3.394   2.653  0.4134 -0.5141 -0.0163
31581SOL     OW97635   8.209   6.646   1.159 -0.4689 -0.0253  1.2902
31581SOL    HW197636   8.258   6.593   1.221  0.8821 -0.8711 -0.4341
31581SOL    HW297637   8.183   6.585   1.090 -0.2903  1.2240  0.0726
31582SOL     OW97638   4.209   4.906   4.597  0.1452 -0.2136 -0.2310
31582SOL    HW197639   4.122   4.864   4.597  0.9615 -2.0963 -1.7149
31582SOL    HW297640   4.254   4.869   4.673 -0.4188  0.9962  0.7176
31583SOL     OW97641   8.541   7.026   9.325 -0.1291  0.5530  0.1768
31583SOL    HW197642   8.510   7.108   9.289  0.9273  2.1892  2.6900
31583SOL    HW297643   8.482   7.008   9.398  0.6055 -0.0457  0.6366
31584SOL     OW97644   4.641   4.654   7.965 -0.3965  0.1042  0.1324
31584SOL    HW197645   4.630   4.749   7.962 -0.0312  0.1101 -1.7509
31584SOL    HW297646   4.734   4.640   7.949 -0.8945 -0.6375 -2.5891
31585SOL     OW97647   9.336   1.160   6.675 -0.3406 -0.2326  0.5208
31585SOL    HW197648   9.375   1.248   6.676  1.4605 -0.9769  0.6460
31585SOL    HW297649   9.399   1.107   6.626 -1.4574 -1.4396  0.3477
31586SOL     OW97650   9.081   1.136   9.732  0.6256  0.3030  0.5326
31586SOL    HW197651   9.048   1.151   9.644  1.9645 -0.8679 -0.2047
31586SOL    HW297652   9.161   1.189   9.737  0.8110 -0.0048  0.8772
31587SOL     OW97653  10.526   4.981   1.361 -0.1578 -0.3508  0.7730
31587SOL    HW197654  10.484   4.915   1.307 -0.6323  0.6905 -0.1591
31587SOL    HW297655  10.454   5.040   1.387  0.4006  0.3164  0.8261
31588SOL     OW97656   9.280   5.486   7.074 -0.1383  0.1285 -0.1752
31588SOL    HW197657   9.279   5.540   6.995  1.0062  1.0498  0.4014
31588SOL    HW297658   9.373   5.467   7.088 -0.1857  1.0504  1.6415
31589SOL     OW97659   1.955   5.260   0.576 -0.5862 -0.5887  0.2714
31589SOL    HW197660   2.047   5.280   0.558 -0.2906 -1.4902  0.7034
31589SOL    HW297661   1.948   5.166   0.559 -2.1632 -0.0529 -2.7854
31590SOL     OW97662   9.021   1.736   6.196 -0.3989  0.2956  0.3702
31590SOL    HW197663   8.998   1.679   6.123 -0.8668 -0.2336  0.9232
31590SOL    HW297664   9.001   1.685   6.274 -1.0351  1.2877  0.8800
31591SOL     OW97665   5.955   5.303   4.038 -0.1669 -0.3613  0.4868
31591SOL    HW197666   6.014   5.237   4.000 -1.0908 -1.0979  0.2848
31591SOL    HW297667   6.000   5.334   4.117 -0.5781 -2.7386  1.7471
31592SOL     OW97668   0.194   8.575   5.925  0.1900  0.0558 -0.7216
31592SOL    HW197669   0.220   8.535   5.842  1.3575 -1.1805  0.1890
31592SOL    HW297670   0.144   8.506   5.969 -1.0985  0.9740 -0.6929
31593SOL     OW97671  10.175   6.424   7.099 -0.0669  0.2449  0.6583
31593SOL    HW197672  10.195   6.511   7.066 -0.6149 -0.0726 -0.5546
31593SOL    HW297673  10.186   6.366   7.024 -1.4773 -0.4929  0.9763
31594SOL     OW97674  10.028   3.563   1.914  0.4709 -0.0074  0.0788
31594SOL    HW197675  10.027   3.478   1.870 -0.3868  0.3397 -0.5930
31594SOL    HW297676   9.938   3.593   1.911  0.4335  0.1735  1.8240
31595SOL     OW97677  10.668  10.306   6.026 -0.0203  0.2978  0.2076
31595SOL    HW197678  10.680  10.231   6.084 -0.3195  1.4278  1.7907
31595SOL    HW297679  10.618  10.369   6.078  0.1153  1.5556 -1.1171
31596SOL     OW97680   4.320   9.621   2.205 -0.1804 -0.2133 -0.0977
31596SOL    HW197681   4.280   9.659   2.283  0.9389 -1.2791  1.0383
31596SOL    HW297682   4.349   9.534   2.233  1.1918 -0.2087 -1.4023
31597SOL     OW97683   7.809   6.095  10.390  0.1960  0.0086 -0.0445
31597SOL    HW197684   7.810   6.121  10.482  2.4258 -0.4561  0.1301
31597SOL    HW297685   7.718   6.103  10.363 -0.2571  1.6469  1.7733
31598SOL     OW97686   2.681   8.016   5.681 -0.0322 -0.6170 -0.1461
31598SOL    HW197687   2.764   7.994   5.638 -0.3853 -0.1055 -1.1365
31598SOL    HW297688   2.617   7.957   5.642 -0.6960  1.0248 -1.7010
31599SOL     OW97689   6.332  10.608   4.402 -0.4424 -0.2026 -0.6638
31599SOL    HW197690   6.351  10.552   4.478  2.6104  1.4454 -0.0430
31599SOL    HW297691   6.254  10.657   4.428  1.2509  1.2936  2.1599
31600SOL     OW97692   9.332   4.789   7.006  0.3274 -0.3465 -0.1034
31600SOL    HW197693   9.380   4.757   6.930 -1.0660 -0.8937 -0.7973
31600SOL    HW297694   9.352   4.882   7.010 -1.0044  0.1008 -2.2869
31601SOL     OW97695   6.967   7.025   4.947 -0.2465 -0.6202  0.0756
31601SOL    HW197696   6.974   6.930   4.957 -0.4394 -0.5889  0.5384
31601SOL    HW297697   6.904   7.051   5.015  0.1867 -0.1033  0.2830
31602SOL     OW97698   7.526   7.219   9.023  0.4610 -0.2662 -0.1592
31602SOL    HW197699   7.603   7.217   8.966 -0.3875 -0.9746 -1.3372
31602SOL    HW297700   7.527   7.306   9.061  0.5696  0.5850 -1.9853
31603SOL     OW97701   7.784   8.022   6.798  1.0694 -0.3830  0.4014
31603SOL    HW197702   7.826   8.090   6.850  0.7795  0.2268 -0.1540
31603SOL    HW297703   7.690   8.037   6.809  0.9768  0.6866 -1.4434
31604SOL     OW97704   1.328   8.865   5.602  0.3251 -0.0022 -0.6509
31604SOL    HW197705   1.390   8.800   5.636 -0.3451 -0.1628  0.3032
31604SOL    HW297706   1.316   8.926   5.675  1.1911  1.3976 -1.6334
31605SOL     OW97707   7.809   9.700   0.750 -0.1842  0.2788 -0.1487
31605SOL    HW197708   7.773   9.744   0.673  0.0486  0.1385 -0.3417
31605SOL    HW297709   7.772   9.612   0.748  2.1754 -0.8012 -1.8681
31606SOL     OW97710   7.636   9.712   2.292 -0.5490 -0.4968  0.5508
31606SOL    HW197711   7.586   9.772   2.347  0.0807  1.8879 -1.3170
31606SOL    HW297712   7.727   9.726   2.318 -0.0185  2.0403 -2.0728
31607SOL     OW97713   2.849   6.775   1.729 -0.3701 -0.4669 -0.6145
31607SOL    HW197714   2.795   6.714   1.679  0.4012 -0.1750 -1.8603
31607SOL    HW297715   2.935   6.771   1.686  0.6933 -1.0830  1.4303
31608SOL     OW97716   4.259   7.211   0.783 -0.6056  0.9218  0.1339
31608SOL    HW197717   4.214   7.144   0.731  0.1354 -0.7867  1.5855
31608SOL    HW297718   4.194   7.280   0.795 -0.8998  1.2603 -2.7321
31609SOL     OW97719   7.903   2.629   0.669  0.6344  0.0579  0.1426
31609SOL    HW197720   7.818   2.653   0.706 -0.6919 -0.0935 -2.5548
31609SOL    HW297721   7.947   2.713   0.656  1.1622  0.1101  1.9938
31610SOL     OW97722  10.704   9.366   8.357  0.0851  1.0240 -0.1653
31610SOL    HW197723  10.645   9.300   8.321  1.4739  0.2190 -1.0881
31610SOL    HW297724  10.745   9.406   8.281  1.1730  1.1114  0.4401
31611SOL     OW97725   7.579   7.335   7.061 -0.2821  0.5904 -0.2624
31611SOL    HW197726   7.670   7.364   7.071  0.3912 -1.9043  2.0646
31611SOL    HW297727   7.538   7.357   7.144 -0.7089 -1.7018  0.1745
31612SOL     OW97728   4.225   6.317   9.918 -0.5519  0.1834 -0.7536
31612SOL    HW197729   4.165   6.284   9.852  0.7196  2.0680 -3.0060
31612SOL    HW297730   4.301   6.347   9.869  0.4331  1.7842  1.5557
31613SOL     OW97731   7.269   8.325   8.305  0.4297 -0.6143 -0.5498
31613SOL    HW197732   7.209   8.336   8.231 -0.2119 -1.7561 -0.2133
31613SOL    HW297733   7.314   8.410   8.311  1.0283 -0.7199 -2.6819
31614SOL     OW97734   4.080   4.505   6.505 -0.2087  0.0906 -0.0014
31614SOL    HW197735   4.105   4.519   6.413 -1.3283  0.8370 -0.2105
31614SOL    HW297736   4.004   4.448   6.501  0.4399 -0.8447  0.5454
31615SOL     OW97737   6.401   9.077   4.904  0.1288 -0.4608  0.2824
31615SOL    HW197738   6.412   9.035   4.819  0.1252 -1.2033  0.6443
31615SOL    HW297739   6.311   9.059   4.929  0.4625 -1.2361  0.9629
31616SOL     OW97740   2.764   9.879   6.697 -0.2644  0.4209 -0.2731
31616SOL    HW197741   2.788   9.842   6.612  1.1709  0.9188 -0.1089
31616SOL    HW297742   2.755   9.803   6.754  1.5529  0.2080 -0.2097
31617SOL     OW97743   4.390   3.986   5.165  0.3387 -0.3742  0.1598
31617SOL    HW197744   4.462   4.034   5.206 -1.1647  0.0738  2.4882
31617SOL    HW297745   4.338   4.053   5.121  1.1444 -0.6661 -1.3030
31618SOL     OW97746   2.378   2.791   8.681 -0.5863  0.3447 -0.0307
31618SOL    HW197747   2.374   2.743   8.598  0.3035  1.2322 -0.6119
31618SOL    HW297748   2.411   2.878   8.657 -1.5106  1.0396  1.0863
31619SOL     OW97749   6.599   7.247   7.090  0.1253  0.4151 -0.3291
31619SOL    HW197750   6.622   7.245   7.182 -0.4410  0.5509 -0.1781
31619SOL    HW297751   6.572   7.338   7.074  1.6020  0.7685 -0.9866
31620SOL     OW97752   3.442   2.038   8.691  0.0147  0.2796  0.0320
31620SOL    HW197753   3.351   2.029   8.719 -0.3897 -0.3356 -1.3916
31620SOL    HW297754   3.489   1.969   8.737 -0.2976  0.3826  0.5092
31621SOL     OW97755  10.354   1.780   8.623 -0.1028  0.1433  0.1207
31621SOL    HW197756  10.314   1.779   8.710 -0.0815 -0.7575  0.1226
31621SOL    HW297757  10.409   1.859   8.623  1.1227 -0.6802  1.4741
31622SOL     OW97758   4.815   6.873   8.361  0.4863  0.2313  0.3311
31622SOL    HW197759   4.876   6.803   8.339  0.0269 -0.1536  0.2846
31622SOL    HW297760   4.858   6.920   8.433 -0.1320 -1.3525  1.7924
31623SOL     OW97761   0.547   8.548   9.391 -0.0913  0.1739 -0.0516
31623SOL    HW197762   0.515   8.472   9.439  0.6907 -0.3532 -0.3319
31623SOL    HW297763   0.639   8.555   9.417  0.4957 -0.4332 -1.8234
31624SOL     OW97764   6.641   9.834   4.293 -0.4928 -0.3107  0.1969
31624SOL    HW197765   6.628   9.922   4.328 -1.7979 -0.3263 -0.2174
31624SOL    HW297766   6.553   9.799   4.281 -0.0027 -1.5038 -0.0940
31625SOL     OW97767  10.015  10.013   5.266 -0.0529  0.1567 -0.3076
31625SOL    HW197768   9.986   9.928   5.233 -1.5810 -0.5473  2.5343
31625SOL    HW297769   9.976  10.077   5.205 -0.6262 -1.0933 -1.2984
31626SOL     OW97770   0.707   3.622   7.359 -0.1686  0.5158 -0.3441
31626SOL    HW197771   0.703   3.697   7.300  0.3845  2.0139  1.4198
31626SOL    HW297772   0.616   3.606   7.384 -0.6541 -1.3034 -2.8704
31627SOL     OW97773   4.585   4.637   4.469  0.1070  0.3791  0.0023
31627SOL    HW197774   4.489   4.645   4.461 -0.0558 -2.0907 -1.5455
31627SOL    HW297775   4.598   4.554   4.513  1.5730  0.4236 -0.3100
31628SOL     OW97776   2.986   4.837   7.406 -0.0627  0.4709 -0.7695
31628SOL    HW197777   2.963   4.745   7.403  0.4142  0.1533  2.2019
31628SOL    HW297778   3.077   4.840   7.378 -0.0694  0.0181 -0.8408
31629SOL     OW97779   5.229   7.500   1.150 -0.5649 -0.7554  0.4370
31629SOL    HW197780   5.269   7.578   1.111 -2.1461 -0.5059 -0.7819
31629SOL    HW297781   5.190   7.531   1.231 -1.6874 -0.1193 -0.3257
31630SOL     OW97782  10.436   4.478   5.229 -0.1284  0.1288 -0.1808
31630SOL    HW197783  10.423   4.465   5.323 -0.2600  0.4859 -0.1490
31630SOL    HW297784  10.365   4.537   5.203 -0.9473 -1.0637 -0.7743
31631SOL     OW97785   1.397   4.307   5.806  0.2693 -0.0056  0.0430
31631SOL    HW197786   1.461   4.377   5.822  1.1365 -0.5382 -0.9804
31631SOL    HW297787   1.312   4.352   5.807  0.8063  1.0794 -0.5675
31632SOL     OW97788   1.432   3.005   6.028  0.3513  0.2175 -0.4687
31632SOL    HW197789   1.393   3.066   6.090  2.2712  1.0247  0.0167
31632SOL    HW297790   1.486   3.060   5.971  1.6173 -0.9447 -0.4392
31633SOL     OW97791   4.163   8.472   1.692 -0.0238 -0.0550  0.1979
31633SOL    HW197792   4.111   8.429   1.760  2.9046 -1.6493  1.6232
31633SOL    HW297793   4.141   8.565   1.700 -1.9471 -0.5493  1.2660
31634SOL     OW97794   0.431   8.509   6.385 -0.0670  0.5010  0.3616
31634SOL    HW197795   0.427   8.514   6.290  0.3602  1.1153  0.3660
31634SOL    HW297796   0.525   8.510   6.405 -0.1391 -0.1172  0.7707
31635SOL     OW97797   1.182   2.008   7.519 -0.2353 -0.1427  0.0346
31635SOL    HW197798   1.249   1.949   7.553  1.1944  1.0488 -0.6015
31635SOL    HW297799   1.130   2.032   7.595  2.8131  2.3846  1.5508
31636SOL     OW97800   8.185   8.729  10.163 -0.1673  0.4444 -0.1906
31636SOL    HW197801   8.255   8.763  10.219  0.0677 -1.7177  0.9361
31636SOL    HW297802   8.151   8.806  10.117 -0.2230  2.3401  2.7553
31637SOL     OW97803   4.026   7.654  10.430 -0.0657 -0.7099  0.1007
31637SOL    HW197804   3.988   7.608  10.355 -0.0569 -0.0079 -0.3506
31637SOL    HW297805   4.048   7.585  10.493 -1.5632 -1.1912  0.1384
31638SOL     OW97806   2.504  10.490   7.067  0.0189  0.1254 -0.0284
31638SOL    HW197807   2.514  10.437   7.146 -1.2866 -0.2447 -0.0974
31638SOL    HW297808   2.525  10.430   6.996  3.2232  0.9733  0.0471
31639SOL     OW97809   8.670   6.194   0.516  0.2513 -0.2578  0.0254
31639SOL    HW197810   8.611   6.144   0.459  0.6894 -1.3327  0.4915
31639SOL    HW297811   8.650   6.286   0.495 -1.7646 -0.5648  0.3590
31640SOL     OW97812   0.186   2.513   3.028  0.0280  0.3021  0.0821
31640SOL    HW197813   0.101   2.531   3.067 -0.0098  1.9402 -0.6571
31640SOL    HW297814   0.241   2.586   3.055  0.6799  0.2143 -0.9339
31641SOL     OW97815   7.984   2.030   3.923  0.6849 -0.2811  0.5656
31641SOL    HW197816   8.011   2.103   3.980  0.9036 -0.6020  0.8747
31641SOL    HW297817   7.917   2.068   3.866 -0.4521 -0.2699  1.8722
31642SOL     OW97818   5.695   4.607   3.497  0.0800 -0.5073 -0.7722
31642SOL    HW197819   5.773   4.608   3.442 -0.7994  2.2576 -2.1362
31642SOL    HW297820   5.728   4.616   3.586  1.3624  1.8184 -1.4074
31643SOL     OW97821   0.282   2.264   8.120  0.2184  0.4799  0.3186
31643SOL    HW197822   0.341   2.251   8.045  0.0525  0.4410  0.1928
31643SOL    HW297823   0.201   2.299   8.081  0.0938  0.3614  0.4676
31644SOL     OW97824   1.695  10.292   0.049 -0.4358  0.5431  0.2563
31644SOL    HW197825   1.689  10.204   0.087 -0.6840 -0.2660 -1.5440
31644SOL    HW297826   1.642  10.347   0.106  1.8810  0.1645  3.0003
31645SOL     OW97827   1.424   3.948   5.080 -0.1397  0.8716  0.0250
31645SOL    HW197828   1.504   3.903   5.051 -0.1474  1.2721 -0.6483
31645SOL    HW297829   1.353   3.889   5.055 -0.0144  0.0565  1.5155
31646SOL     OW97830   5.455   4.843  10.332 -0.1732 -0.5906  0.0909
31646SOL    HW197831   5.483   4.919  10.385 -1.7976  0.2550 -0.1967
31646SOL    HW297832   5.406   4.881  10.259 -0.1198 -1.8841 -0.6524
31647SOL     OW97833   9.470   4.277   5.254  0.5461  0.1601  0.0176
31647SOL    HW197834   9.538   4.279   5.322  0.5848 -0.6994  0.0171
31647SOL    HW297835   9.440   4.186   5.253  0.2671  0.2510 -0.8485
31648SOL     OW97836   1.100  10.408   7.318  0.0686  0.2609 -0.0305
31648SOL    HW197837   1.087  10.339   7.253 -2.6547 -0.4897  1.1690
31648SOL    HW297838   1.181  10.383   7.363  0.9516 -0.2558 -1.7909
31649SOL     OW97839   0.314   9.795   6.215 -0.0166 -0.2028  0.3030
31649SOL    HW197840   0.392   9.739   6.220 -0.4732 -1.1097 -1.5655
31649SOL    HW297841   0.325   9.843   6.132 -0.5832  1.0179  0.9144
31650SOL     OW97842   8.363   9.781   3.401 -0.9449 -0.6683  0.3825
31650SOL    HW197843   8.392   9.776   3.492  0.1070  0.1251  0.1052
31650SOL    HW297844   8.281   9.831   3.405 -0.4979  0.0404  0.8037
31651SOL     OW97845   0.658   5.003   4.097 -0.6279 -0.0224 -0.2732
31651SOL    HW197846   0.649   4.929   4.038  1.7499 -0.3434 -0.3143
31651SOL    HW297847   0.712   4.970   4.169  1.3675  1.8587 -0.7921
31652SOL     OW97848   0.823   1.262   1.679  0.4402  0.7050 -0.2101
31652SOL    HW197849   0.826   1.203   1.604 -0.5249 -0.2402  0.4576
31652SOL    HW297850   0.768   1.335   1.650  0.0922  0.3588 -0.4378
31653SOL     OW97851   9.198   8.657   5.612  0.5213 -0.0714  0.1698
31653SOL    HW197852   9.283   8.683   5.648 -0.2633  0.4485  1.7680
31653SOL    HW297853   9.220   8.600   5.538  2.2548  0.0371  0.5408
31654SOL     OW97854   1.113   7.491   2.694  0.5514 -0.1962  0.0323
31654SOL    HW197855   1.165   7.452   2.624 -0.1574  1.4719 -1.5184
31654SOL    HW297856   1.172   7.554   2.735  0.8402 -0.8815  0.6857
31655SOL     OW97857   7.938   6.072   9.687  0.5094 -0.2052 -0.3099
31655SOL    HW197858   7.988   6.154   9.692  2.3309 -1.2833 -0.3564
31655SOL    HW297859   7.904   6.071   9.598  0.7591  0.3338 -0.4166
31656SOL     OW97860   1.779   7.618   1.974 -0.1327 -0.1771  0.3288
31656SOL    HW197861   1.816   7.675   2.041  0.4969 -0.1649 -0.0208
31656SOL    HW297862   1.754   7.539   2.022  0.4264 -0.2187  0.5592
31657SOL     OW97863   0.074   1.385   4.571 -0.2651  0.4141 -0.6187
31657SOL    HW197864   0.143   1.357   4.511  0.0662  0.2539 -0.1661
31657SOL    HW297865   0.030   1.456   4.524  1.6443  2.1116  0.0029
31658SOL     OW97866   4.687   9.679   0.266  0.6532 -0.1281  0.5763
31658SOL    HW197867   4.663   9.624   0.340 -0.5460  1.7164  1.6443
31658SOL    HW297868   4.666   9.768   0.295  2.3579  0.8931 -1.1221
31659SOL     OW97869   4.354   0.531   7.608 -0.1070 -0.2953 -0.3560
31659SOL    HW197870   4.261   0.545   7.591 -0.3306  0.2420  1.1754
31659SOL    HW297871   4.394   0.618   7.596  0.0882 -0.3786 -0.3200
31660SOL     OW97872   7.887  10.311   1.631  0.1333 -0.8512 -0.1836
31660SOL    HW197873   7.830  10.381   1.664  0.6034 -0.9369  0.8499
31660SOL    HW297874   7.928  10.348   1.553  0.0522 -0.1242  0.1143
31661SOL     OW97875   1.294   2.287   2.309  0.5432  0.4453 -0.0355
31661SOL    HW197876   1.214   2.235   2.317  1.1432 -0.5251 -0.1505
31661SOL    HW297877   1.340   2.248   2.235  2.0759 -0.3266  1.2811
31662SOL     OW97878   5.533   0.744   4.484  0.1827  0.2131 -0.4838
31662SOL    HW197879   5.573   0.684   4.421 -0.0559  0.3101 -0.7280
31662SOL    HW297880   5.502   0.818   4.431 -0.5845  0.0025 -0.3367
31663SOL     OW97881   3.399   0.877   1.026 -0.5410  0.1662 -0.4024
31663SOL    HW197882   3.393   0.820   0.950 -0.4637 -2.6888  1.5516
31663SOL    HW297883   3.445   0.824   1.092 -1.7246  1.9685  2.0581
31664SOL     OW97884   7.192   1.844   9.400  0.2304 -0.4250 -0.4749
31664SOL    HW197885   7.176   1.937   9.414 -0.9597 -0.7772  0.6189
31664SOL    HW297886   7.108   1.802   9.415  1.4862 -2.1104  2.9582
31665SOL     OW97887   2.086   9.150   4.656 -0.2306  0.0576 -0.5010
31665SOL    HW197888   2.178   9.175   4.647 -0.9164  2.5616 -1.5503
31665SOL    HW297889   2.055   9.198   4.732 -0.8397 -0.1755 -0.5966
31666SOL     OW97890   3.117   7.516   1.136  0.1248  0.1044 -0.0560
31666SOL    HW197891   3.075   7.431   1.145 -0.9074  0.6613  0.5567
31666SOL    HW297892   3.171   7.508   1.058 -2.8172  0.0474 -2.2255
31667SOL     OW97893   7.473   3.913   0.530 -0.0140  0.6984  0.1051
31667SOL    HW197894   7.506   4.003   0.538  1.1633  0.3448 -0.5650
31667SOL    HW297895   7.495   3.887   0.440  1.6339 -1.0023  0.9285
31668SOL     OW97896   2.516   9.623   9.089  0.4743  0.0346  0.8658
31668SOL    HW197897   2.551   9.700   9.046  0.0038 -0.1548  0.1251
31668SOL    HW297898   2.469   9.576   9.020  0.1012 -0.5132  1.4788
31669SOL     OW97899   3.346   6.482   3.236  0.2666  0.0146 -0.3504
31669SOL    HW197900   3.370   6.560   3.287  0.4610  1.3258 -2.3422
31669SOL    HW297901   3.278   6.440   3.289  1.0670  0.7893  1.4076
31670SOL     OW97902   3.072   8.401  10.044 -0.0651  0.3208  0.7664
31670SOL    HW197903   3.081   8.323   9.989  3.4530  0.5051  0.8444
31670SOL    HW297904   3.088   8.369  10.133  3.3995  1.2389  0.6164
31671SOL     OW97905   9.115   0.863   9.048 -0.7294  0.2859  0.6526
31671SOL    HW197906   9.030   0.895   9.079 -0.5450  1.7742 -0.2543
31671SOL    HW297907   9.109   0.868   8.953  0.3858  0.4112  0.5742
31672SOL     OW97908   6.523   3.080   4.518  0.2344 -0.0242 -0.0321
31672SOL    HW197909   6.553   3.058   4.607  1.1621 -2.3554 -0.8370
31672SOL    HW297910   6.450   3.019   4.502  0.3618  0.0704 -1.0061
31673SOL     OW97911   0.172   3.643   6.202  0.6610  0.1057 -0.0583
31673SOL    HW197912   0.079   3.640   6.177 -0.2676 -0.1311  3.0057
31673SOL    HW297913   0.199   3.733   6.184 -1.2367  1.2236  2.1202
31674SOL     OW97914   3.890   1.166   0.911  0.4014  0.6542 -0.3441
31674SOL    HW197915   3.882   1.075   0.937  0.2883  0.5515 -0.7240
31674SOL    HW297916   3.983   1.178   0.892  0.2964  0.3990 -1.0557
31675SOL     OW97917   7.161   0.267  10.417  0.3268  0.2163 -0.6732
31675SOL    HW197918   7.238   0.215  10.395  0.3320  0.3010 -0.8568
31675SOL    HW297919   7.092   0.203  10.436  0.4279  0.1412 -0.5602
31676SOL     OW97920   8.320   7.703   2.808 -0.3206 -0.5274  0.5014
31676SOL    HW197921   8.289   7.753   2.883  0.3136 -0.2755  0.5994
31676SOL    HW297922   8.415   7.713   2.809 -0.2313 -1.2407  0.1720
31677SOL     OW97923   7.762  10.784   2.317 -0.1202 -0.0231 -0.0177
31677SOL    HW197924   7.750  10.797   2.411 -0.6654  0.3385 -0.1367
31677SOL    HW297925   7.846  10.824   2.298 -0.4580  0.7708  0.1393
31678SOL     OW97926   8.980   1.616   6.593  0.0726  0.3330  0.0370
31678SOL    HW197927   8.910   1.599   6.656 -0.7204  1.1257 -0.6056
31678SOL    HW297928   9.010   1.705   6.614  1.7132 -0.4186  1.0570
31679SOL     OW97929   8.051   5.623   7.765  0.8630 -0.0551  0.3910
31679SOL    HW197930   8.087   5.668   7.841 -0.6589  0.6146  0.7525
31679SOL    HW297931   8.073   5.679   7.690  1.0049  0.0859  0.5398
31680SOL     OW97932   1.138   2.582   0.507 -0.2814  0.6235 -0.1021
31680SOL    HW197933   1.091   2.564   0.589  1.6735  0.4171  1.0325
31680SOL    HW297934   1.164   2.674   0.514  0.0666  0.5515 -0.4048
31681SOL     OW97935   0.557   0.240   9.632 -0.0079  0.0408  0.2822
31681SOL    HW197936   0.592   0.182   9.565 -2.4949 -2.1521  0.7054
31681SOL    HW297937   0.619   0.233   9.705  1.5988  0.8074 -0.9483
31682SOL     OW97938   7.234   3.108   1.901  0.0990 -0.1047  0.1421
31682SOL    HW197939   7.214   3.179   1.840  0.9091  0.9034  1.0162
31682SOL    HW297940   7.231   3.029   1.847 -1.9751  0.4267 -0.6098
31683SOL     OW97941   8.603   0.148   7.438  0.1328  0.1321 -0.7485
31683SOL    HW197942   8.671   0.082   7.450 -1.0413 -1.0650 -0.3068
31683SOL    HW297943   8.525   0.097   7.415 -0.8025  1.3830 -0.4644
31684SOL     OW97944   8.699  10.374   9.679  0.2844 -0.2318  1.0297
31684SOL    HW197945   8.742  10.433   9.617  1.2323 -0.6322  1.2971
31684SOL    HW297946   8.650  10.432   9.737  0.6228  0.2488  0.8439
31685SOL     OW97947   4.256   7.320   9.427  0.0100  0.1550 -0.3486
31685SOL    HW197948   4.253   7.407   9.388 -0.0408  0.5100  0.4297
31685SOL    HW297949   4.300   7.266   9.362 -0.3799  0.6554 -1.0334
31686SOL     OW97950  10.723   9.229   8.779 -0.0234  0.3122 -0.3902
31686SOL    HW197951  10.659   9.223   8.708 -1.4944 -4.4042  0.9601
31686SOL    HW297952  10.677   9.275   8.849 -1.5465 -1.7493  0.0450
31687SOL     OW97953   6.089   2.167   3.979  0.2257 -0.3236  0.0446
31687SOL    HW197954   6.125   2.186   4.066 -0.7188 -3.1904  1.1767
31687SOL    HW297955   6.051   2.250   3.950  1.8124  1.0634  1.7087
31688SOL     OW97956   9.579   2.331   8.406 -0.1003  0.0078 -0.0114
31688SOL    HW197957   9.499   2.278   8.409 -1.3244  1.6323 -1.2553
31688SOL    HW297958   9.626   2.299   8.329  0.6737 -1.2345  0.9680
31689SOL     OW97959  10.069   4.696   4.109 -0.4089 -0.3967 -0.1312
31689SOL    HW197960  10.016   4.701   4.189 -0.1483  0.4943  0.0044
31689SOL    HW297961  10.160   4.698   4.141 -0.2651  2.2832 -0.4986
31690SOL     OW97962   6.585   7.631   7.836 -0.2773 -0.2948  0.1167
31690SOL    HW197963   6.590   7.725   7.817 -0.9215  0.0158  1.3389
31690SOL    HW297964   6.493   7.615   7.856  0.0200 -0.9288  1.0771
31691SOL     OW97965   8.947   7.298   0.801 -0.0514 -0.0960  0.0700
31691SOL    HW197966   8.877   7.344   0.754 -0.8681  0.2158  1.5315
31691SOL    HW297967   8.998   7.367   0.843 -0.9731 -0.4408  1.8501
31692SOL     OW97968   2.960   6.000   7.648  0.3951  0.1119  0.3552
31692SOL    HW197969   2.901   6.034   7.715 -2.0746 -3.4549  0.3010
31692SOL    HW297970   3.044   5.989   7.693 -0.1844  1.1989  1.7764
31693SOL     OW97971   4.008   6.228   1.657  0.1780 -0.0941  0.1296
31693SOL    HW197972   3.977   6.139   1.675 -1.5045  0.3412 -0.4264
31693SOL    HW297973   3.940   6.284   1.694  0.4787  0.9342 -0.8299
31694SOL     OW97974   6.445   7.096   9.034 -0.4425 -0.1210 -0.4421
31694SOL    HW197975   6.408   7.008   9.044 -0.8659  0.2334  1.4141
31694SOL    HW297976   6.528   7.082   8.989 -2.1878 -1.0619 -3.6929
31695SOL     OW97977   1.600   1.721   4.456 -0.4617  0.4649  0.3097
31695SOL    HW197978   1.673   1.782   4.453 -1.0908  1.2568  0.6823
31695SOL    HW297979   1.619   1.657   4.387  0.9499  0.2063  0.9097
31696SOL     OW97980   7.397   3.458   3.362 -0.0035  0.1759 -0.5427
31696SOL    HW197981   7.348   3.462   3.445  0.1234 -1.0002 -0.3863
31696SOL    HW297982   7.489   3.456   3.389  0.0624  0.4163 -0.7481
31697SOL     OW97983   0.652   5.941   8.013  0.3801 -0.7093 -0.1916
31697SOL    HW197984   0.617   5.955   7.925  0.9286  2.4896 -0.0162
31697SOL    HW297985   0.592   5.878   8.053 -1.4998 -0.1405 -1.9547
31698SOL     OW97986   3.065   8.217   6.522  0.1587  0.2517  0.0335
31698SOL    HW197987   2.987   8.220   6.467 -0.0708 -0.5905  0.2970
31698SOL    HW297988   3.061   8.132   6.565  2.1576 -0.6036 -1.3081
31699SOL     OW97989   3.310   3.744  10.465 -1.1009  0.3948 -0.1472
31699SOL    HW197990   3.369   3.669  10.462  0.4429  1.5612  0.0591
31699SOL    HW297991   3.223   3.706  10.455 -0.3227 -1.3604 -0.6331
31700SOL     OW97992   8.444   6.998   9.564 -0.2014 -0.1917  0.0745
31700SOL    HW197993   8.381   7.052   9.612  0.0786  1.2206 -1.0663
31700SOL    HW297994   8.521   6.993   9.621  0.1379  1.4755 -0.1964
31701SOL     OW97995   1.272   6.047   1.388 -0.2240 -0.4025 -0.4590
31701SOL    HW197996   1.176   6.053   1.383 -0.4224  0.8314  2.5900
31701SOL    HW297997   1.303   6.130   1.354 -0.6108  1.2504  2.8741
31702SOL     OW97998  10.555   2.012   5.806 -0.6065  0.4136  0.6148
31702SOL    HW197999  10.546   2.101   5.839  1.5481  0.8032  0.2924
31702SOL    HW298000  10.650   1.996   5.805 -0.7686 -0.8702 -1.9241
31703SOL     OW98001   3.767   1.105   2.557 -0.7244  0.0664  0.0340
31703SOL    HW198002   3.828   1.092   2.485 -1.4048 -1.4770 -0.3049
31703SOL    HW298003   3.817   1.080   2.635 -1.0616 -1.7956 -0.3018
31704SOL     OW98004   9.334   4.202  10.579  0.5460  1.2067 -0.0779
31704SOL    HW198005   9.364   4.283  10.538  0.3040  0.6319 -1.4292
31704SOL    HW298006   9.239   4.207  10.575  0.5229  1.0598  0.2680
31705SOL     OW98007   2.974   4.233   6.936  0.2973  0.2886 -0.1919
31705SOL    HW198008   2.941   4.216   6.848 -0.8087 -0.4144  0.3376
31705SOL    HW298009   3.069   4.237   6.926  0.3552 -1.8555 -1.1027
31706SOL     OW98010   1.773   0.968   2.235  0.0420  0.0844 -0.1129
31706SOL    HW198011   1.859   0.941   2.267 -1.0585 -2.0644  1.2432
31706SOL    HW298012   1.737   1.023   2.305 -0.2729 -0.2441 -0.0156
31707SOL     OW98013  10.174   8.369   6.280 -0.7649  0.1867 -0.2901
31707SOL    HW198014  10.227   8.290   6.283 -1.4893 -0.3622 -1.4329
31707SOL    HW298015  10.238   8.440   6.266  0.0798  0.0848  2.4137
31708SOL     OW98016   3.969   7.901   1.586 -0.2525 -0.3252 -0.3087
31708SOL    HW198017   4.025   7.899   1.664 -1.4421 -2.7453  0.5955
31708SOL    HW298018   3.904   7.969   1.606  1.7587  1.9504 -1.0334
31709SOL     OW98019   5.062   4.021   8.864  0.1654 -0.1534  0.2232
31709SOL    HW198020   4.981   4.057   8.826 -0.8049 -0.5627  1.8046
31709SOL    HW298021   5.041   3.929   8.881  1.3752 -0.5549 -0.3941
31710SOL     OW98022   2.252  10.421  10.602  0.1045  0.0995  0.0889
31710SOL    HW198023   2.286  10.332  10.613 -0.5832 -0.0345  1.3129
31710SOL    HW298024   2.301  10.457  10.529  1.1553 -0.9176  0.2731
31711SOL     OW98025   5.383   2.787   3.779 -0.6103 -0.1580 -0.1201
31711SOL    HW198026   5.439   2.751   3.847 -0.1825 -0.7967 -0.8006
31711SOL    HW298027   5.294   2.779   3.815 -0.4926 -1.5105 -0.0823
31712SOL     OW98028   8.895   5.499   0.021  0.0978 -0.1073 -0.2154
31712SOL    HW198029   8.828   5.443   0.059  0.2039  0.3290  0.6400
31712SOL    HW298030   8.886   5.582   0.068  2.1413 -0.4703  0.9228
31713SOL     OW98031   1.830   0.807   0.652 -0.2075  0.0934 -0.8201
31713SOL    HW198032   1.905   0.767   0.696 -0.8295 -1.6850 -1.2955
31713SOL    HW298033   1.825   0.895   0.690  1.7626  0.0698 -0.3844
31714SOL     OW98034   4.754  10.553   2.606  0.9711 -0.3848 -0.3841
31714SOL    HW198035   4.744  10.458   2.595 -0.3852 -0.0521 -2.5850
31714SOL    HW298036   4.842  10.563   2.641  1.3186 -2.4331 -0.5118
31715SOL     OW98037  10.753   3.291   1.798 -0.3333  0.0542 -0.0311
31715SOL    HW198038  10.816   3.270   1.867 -0.3977  2.7749  0.9813
31715SOL    HW298039  10.693   3.216   1.797  0.2588 -0.5224  2.2024
31716SOL     OW98040   2.674   4.045  10.206  0.3695 -0.0636  1.2962
31716SOL    HW198041   2.649   4.121  10.259  0.2397  0.0684  1.0478
31716SOL    HW298042   2.741   4.080  10.147  1.4275 -0.4929  2.2013
31717SOL     OW98043   2.297   3.446   2.605  0.6802 -0.2489  0.1501
31717SOL    HW198044   2.257   3.521   2.651  0.5769 -0.1646 -0.0734
31717SOL    HW298045   2.390   3.465   2.605  0.4844  1.0443 -1.9084
31718SOL     OW98046   2.981   0.218  10.780 -0.2313  0.4132 -0.5459
31718SOL    HW198047   2.950   0.129  10.798 -0.1409  0.3411 -0.7389
31718SOL    HW298048   2.905   0.274  10.795 -0.2356  0.3259 -0.2254
31719SOL     OW98049   7.957  10.637   0.431  0.4229  0.0539  0.0730
31719SOL    HW198050   7.937  10.722   0.390  0.3928  0.8192  1.5810
31719SOL    HW298051   8.028  10.601   0.378  2.4553  2.3782  1.0268
31720SOL     OW98052   7.391   8.706   9.704  0.2794  0.6393 -0.1998
31720SOL    HW198053   7.297   8.711   9.687  0.4864 -0.0910 -1.7191
31720SOL    HW298054   7.398   8.707   9.800 -1.2554  0.8336 -0.0604
31721SOL     OW98055   4.952   0.595   1.210 -0.2262 -0.3942 -0.2616
31721SOL    HW198056   4.930   0.527   1.275 -0.7441  0.5586  0.5886
31721SOL    HW298057   4.899   0.671   1.236 -0.8925 -0.1512 -2.1479
31722SOL     OW98058   0.208   9.788   3.966  0.0734 -0.1375 -0.3214
31722SOL    HW198059   0.173   9.714   3.917  1.2785 -1.2148  0.3702
31722SOL    HW298060   0.186   9.768   4.058  2.1159 -0.7026  0.0998
31723SOL     OW98061   7.436   9.962   7.209 -0.2920  0.2892 -0.0218
31723SOL    HW198062   7.440  10.044   7.259 -3.0255  1.6896 -1.8388
31723SOL    HW298063   7.363   9.915   7.248 -1.5249  0.7500 -1.6988
31724SOL     OW98064  10.087   1.207   7.280  0.3316 -0.0701 -0.2634
31724SOL    HW198065  10.043   1.157   7.348 -0.6644 -1.1745 -1.6539
31724SOL    HW298066  10.164   1.155   7.257 -0.0458 -0.3724 -0.8700
31725SOL     OW98067   9.934   8.547   3.559 -0.7213 -0.5623 -0.3533
31725SOL    HW198068   9.979   8.477   3.607  0.1504 -0.1196 -0.5155
31725SOL    HW298069   9.853   8.506   3.528  0.4537 -1.9695 -1.7252
31726SOL     OW98070   0.860   0.169  10.159  0.2256  0.7369  0.4845
31726SOL    HW198071   0.862   0.154  10.253 -1.4524  2.2067  0.8112
31726SOL    HW298072   0.883   0.261  10.149 -2.4236  1.4335 -0.2109
31727SOL     OW98073   1.930  10.285   5.027  0.1253 -0.3415 -0.0205
31727SOL    HW198074   1.902  10.257   5.114 -1.0798  0.8305 -0.0035
31727SOL    HW298075   1.957  10.204   4.983  2.0413 -0.8044  1.8606
31728SOL     OW98076   9.942   3.059   5.616  0.1763  0.0702 -0.2575
31728SOL    HW198077   9.866   3.037   5.563 -1.8785 -0.7365  2.7304
31728SOL    HW298078   9.953   3.154   5.605 -1.8385  0.3510 -0.1520
31729SOL     OW98079   1.596   0.823   5.499  0.2125 -0.0508 -0.6110
31729SOL    HW198080   1.559   0.735   5.500 -0.9745  0.4305 -0.1323
31729SOL    HW298081   1.668   0.820   5.563 -1.5900  0.0249  1.5560
31730SOL     OW98082  10.637   3.547   4.793 -0.3300 -0.0626 -0.7207
31730SOL    HW198083  10.732   3.543   4.801 -0.4314 -0.1286  0.6516
31730SOL    HW298084  10.614   3.635   4.819 -0.8773 -0.9691  2.1613
31731SOL     OW98085  10.178   9.370   6.524  0.4758 -0.1629 -0.1257
31731SOL    HW198086  10.162   9.323   6.606  0.2031  0.1253 -0.0115
31731SOL    HW298087  10.180   9.302   6.457 -0.8437 -0.2666 -0.0928
31732SOL     OW98088   0.440  10.686   2.079 -0.1600 -0.2555 -0.2247
31732SOL    HW198089   0.492  10.747   2.026 -0.6840  0.0091 -0.4402
31732SOL    HW298090   0.462  10.709   2.169  0.4770 -0.4793 -0.3209
31733SOL     OW98091   3.291   4.848   5.596  0.0900  0.1549  0.6614
31733SOL    HW198092   3.306   4.766   5.644 -0.3547  0.7333  1.8235
31733SOL    HW298093   3.215   4.887   5.638  0.0099  0.9509 -0.1842
31734SOL     OW98094   6.984   3.659   8.866  0.4568 -0.1458  0.3290
31734SOL    HW198095   6.924   3.646   8.939  1.1943 -1.8194  0.6825
31734SOL    HW298096   7.062   3.608   8.889  1.4516  0.8135 -0.7762
31735SOL     OW98097   7.830   7.880   4.787  0.0870 -0.1310 -0.1658
31735SOL    HW198098   7.746   7.869   4.742  1.0478 -1.2554 -1.7939
31735SOL    HW298099   7.819   7.832   4.870 -0.1529 -2.4017 -1.4090
31736SOL     OW98100   0.834   4.732   8.225  0.6212  0.2688  0.0635
31736SOL    HW198101   0.817   4.757   8.134  1.1439 -1.3430 -0.5088
31736SOL    HW298102   0.752   4.694   8.256  0.3307  1.1449  0.4059
31737SOL     OW98103   2.491   7.372   4.462  0.3597  0.3461 -0.6741
31737SOL    HW198104   2.415   7.357   4.518 -0.1543 -0.4065 -1.5603
31737SOL    HW298105   2.560   7.400   4.523 -0.2752 -0.1335  0.2880
31738SOL     OW98106   4.544   3.404   0.363  0.4368  0.1592  0.1272
31738SOL    HW198107   4.625   3.388   0.411  0.2713  0.2551  0.4381
31738SOL    HW298108   4.556   3.489   0.321  0.9398 -0.3259 -0.7493
31739SOL     OW98109   3.614   6.718   7.459  0.2318  0.1694  0.3217
31739SOL    HW198110   3.605   6.739   7.552 -0.2621  0.8855  0.1194
31739SOL    HW298111   3.528   6.737   7.421  0.7642  1.0201 -0.4968
31740SOL     OW98112   1.123   3.597   2.190 -0.6546 -0.1458 -0.0468
31740SOL    HW198113   1.087   3.665   2.133  2.1074  0.6240 -1.0272
31740SOL    HW298114   1.109   3.515   2.143 -2.9471 -0.1984  0.6046
31741SOL     OW98115   7.040   6.411   2.195 -0.3347 -0.0280  0.3142
31741SOL    HW198116   6.969   6.398   2.258 -0.9941  3.2642  0.4446
31741SOL    HW298117   7.119   6.387   2.243 -1.0843 -0.5855  1.3195
31742SOL     OW98118   8.577   0.603   3.959  0.1633  0.3601 -0.4182
31742SOL    HW198119   8.507   0.581   4.021  1.3145  0.0602  0.8218
31742SOL    HW298120   8.569   0.536   3.890 -1.7985  1.3253 -1.2037
31743SOL     OW98121   6.011   2.567   4.440 -0.1751  0.3469  0.4702
31743SOL    HW198122   6.031   2.593   4.530 -1.8695  1.2619  0.6169
31743SOL    HW298123   5.951   2.492   4.450  1.3798 -1.0193  0.0551
31744SOL     OW98124  10.621   3.817   8.462 -0.1460 -0.1288  0.0369
31744SOL    HW198125  10.697   3.776   8.504 -0.6028  0.7834  1.8687
31744SOL    HW298126  10.545   3.771   8.500 -0.5710  0.6275  0.1239
31745SOL     OW98127   7.496   2.253   4.304 -0.3125 -0.2835  0.4188
31745SOL    HW198128   7.469   2.344   4.308 -0.3990 -0.2754 -0.2504
31745SOL    HW298129   7.467   2.223   4.217  2.1069 -0.1833 -0.4892
31746SOL     OW98130   7.783   5.955   0.608  0.1204  0.0813 -0.9135
31746SOL    HW198131   7.858   5.897   0.592 -1.1403 -1.7330 -0.5435
31746SOL    HW298132   7.706   5.900   0.593 -1.1487  1.5826 -0.2087
31747SOL     OW98133   0.683   3.804   9.566 -0.1223 -0.3482 -0.1140
31747SOL    HW198134   0.683   3.876   9.629  0.6383  0.5636 -1.1111
31747SOL    HW298135   0.717   3.729   9.616 -2.6645 -0.5640  1.4501
31748SOL     OW98136   1.301   0.565   6.803  0.0078  0.4986 -0.4040
31748SOL    HW198137   1.353   0.542   6.880 -1.5221 -0.0766  0.4962
31748SOL    HW298138   1.355   0.628   6.755  1.4006  0.1205  0.6225
31749SOL     OW98139   7.259  10.532   8.024 -0.6343  0.3099 -0.5956
31749SOL    HW198140   7.288  10.520   7.934  0.1511  2.8068 -0.7439
31749SOL    HW298141   7.310  10.606   8.057 -1.9138  0.3812  1.4411
31750SOL     OW98142   9.673   6.821   5.834 -0.0509  0.4840  0.0430
31750SOL    HW198143   9.582   6.837   5.858 -0.0611 -0.2129  0.5016
31750SOL    HW298144   9.724   6.878   5.892  0.0592 -2.7560  3.5906
31751SOL     OW98145   5.098   7.197   0.198 -0.0406  0.0471 -0.4311
31751SOL    HW198146   5.121   7.243   0.279  0.8450 -0.6800 -0.2621
31751SOL    HW298147   5.127   7.107   0.212 -2.5320 -0.8325 -0.4197
31752SOL     OW98148   4.457   1.746   7.059  0.1474 -0.4382  0.2562
31752SOL    HW198149   4.431   1.805   7.130  0.2236  1.2026 -1.0283
31752SOL    HW298150   4.452   1.659   7.098  1.0095  0.4499  2.5242
31753SOL     OW98151   9.657   3.365   4.363 -0.1402  0.6634 -0.2683
31753SOL    HW198152   9.701   3.392   4.443  0.6473 -1.3674  0.0484
31753SOL    HW298153   9.614   3.444   4.331 -1.6986  1.2497  2.8988
31754SOL     OW98154   7.463   5.553   8.726  0.0421 -0.5029  0.0063
31754SOL    HW198155   7.550   5.580   8.757  0.1596 -1.7232  0.8141
31754SOL    HW298156   7.416   5.635   8.712  0.4390  0.1562  2.1266
31755SOL     OW98157   4.004   7.488  10.227 -0.4010  0.2437 -0.9412
31755SOL    HW198158   3.940   7.500  10.157  0.7132  0.4308 -1.9539
31755SOL    HW298159   4.089   7.486  10.182  0.3246  0.1996  0.3873
31756SOL     OW98160   6.128   3.035   0.415 -0.2122 -0.0915 -0.0184
31756SOL    HW198161   6.058   3.096   0.391 -0.0922  0.0182 -0.0887
31756SOL    HW298162   6.130   3.039   0.511  1.6288  2.1223 -0.0513
31757SOL     OW98163   7.593   3.697   7.578  0.5918  0.1568  0.6236
31757SOL    HW198164   7.636   3.778   7.605 -1.3589  1.0877  1.1061
31757SOL    HW298165   7.530   3.725   7.511 -0.7990 -0.7604  1.4873
31758SOL     OW98166   1.352   4.365   3.579  0.8286  0.3087 -0.5821
31758SOL    HW198167   1.389   4.314   3.506  0.2605 -0.7348 -0.1659
31758SOL    HW298168   1.421   4.363   3.646  0.4589 -0.7100 -0.2197
31759SOL     OW98169   3.560   8.427   7.321  0.1813 -0.0299 -0.0421
31759SOL    HW198170   3.486   8.420   7.381  1.2736 -1.6580  1.1930
31759SOL    HW298171   3.537   8.369   7.249  0.9828 -1.9725  1.2007
31760SOL     OW98172   2.437   5.215   9.308 -0.4091  0.4385  0.2526
31760SOL    HW198173   2.484   5.251   9.383  1.4368 -1.6134  0.1726
31760SOL    HW298174   2.349   5.199   9.342  0.3050 -0.2100  1.9596
31761SOL     OW98175   6.689   9.395   1.416  0.3219 -0.0402 -0.2840
31761SOL    HW198176   6.737   9.327   1.367  0.4895  0.8039 -1.3315
31761SOL    HW298177   6.751   9.466   1.425 -0.1241  0.3084  0.0654
31762SOL     OW98178  10.145  10.540   8.937 -0.0991  0.3264  0.0240
31762SOL    HW198179  10.119  10.512   8.850  2.7530  1.6676 -1.4201
31762SOL    HW298180  10.123  10.633   8.939 -0.1386  0.3051  0.7557
31763SOL     OW98181   9.084   8.222   9.054  0.2411  0.3533  0.0384
31763SOL    HW198182   9.074   8.311   9.088  0.1606 -0.0166  1.0361
31763SOL    HW298183   9.103   8.169   9.132 -0.9274 -0.6900 -0.3451
31764SOL     OW98184   3.194   7.719   0.696 -0.0295 -0.1557 -0.4983
31764SOL    HW198185   3.133   7.777   0.651 -1.1601 -1.2112 -0.3660
31764SOL    HW298186   3.170   7.726   0.788 -1.5090 -2.2890 -0.6626
31765SOL     OW98187   0.567   1.969   6.452  0.4495  0.0723  0.6514
31765SOL    HW198188   0.626   1.902   6.418  0.1744  0.6369 -1.0687
31765SOL    HW298189   0.482   1.927   6.455  0.4864  0.0017  0.6942
31766SOL     OW98190   8.356   4.291   7.577 -0.2534 -0.0114  1.1505
31766SOL    HW198191   8.316   4.208   7.551 -1.8787  0.7991  0.9297
31766SOL    HW298192   8.338   4.297   7.671 -2.8307  1.4122  0.6607
31767SOL     OW98193   3.030   8.889   1.120  0.0598  0.3672  0.2624
31767SOL    HW198194   2.977   8.926   1.050  0.8818 -1.3279 -1.3547
31767SOL    HW298195   2.988   8.918   1.201 -1.0851  2.1527 -0.9190
31768SOL     OW98196   1.059   6.275   8.371  0.1459  0.0112 -0.4520
31768SOL    HW198197   1.012   6.332   8.310 -1.0258 -0.0325  0.3740
31768SOL    HW298198   0.990   6.228   8.418  1.0040  0.1172  0.9742
31769SOL     OW98199   5.344   2.794   9.974  0.1894 -0.1586  0.0121
31769SOL    HW198200   5.302   2.786   9.888 -1.7261 -0.3855  0.9077
31769SOL    HW298201   5.275   2.829  10.031  1.7797  1.1803  1.1984
31770SOL     OW98202   9.054   4.759  10.163  0.2202  0.2703  0.0993
31770SOL    HW198203   9.120   4.711  10.113  1.6524  1.8420  0.3966
31770SOL    HW298204   8.974   4.750  10.112  0.6064 -1.7334 -0.2469
31771SOL     OW98205   3.495   1.546   8.269 -0.4054 -0.5459 -0.0071
31771SOL    HW198206   3.521   1.556   8.361 -1.5330  1.4099  0.1533
31771SOL    HW298207   3.405   1.513   8.274  0.1958 -2.3590 -0.4791
31772SOL     OW98208   2.265  10.584   9.839 -0.0425  0.5677  0.1769
31772SOL    HW198209   2.261  10.489   9.830 -0.9545  0.6235 -0.1092
31772SOL    HW298210   2.216  10.603   9.918 -0.6758  0.8671 -0.2795
31773SOL     OW98211   3.454   5.567   9.002 -0.5318  0.4060  0.2624
31773SOL    HW198212   3.495   5.518   9.073 -0.3341 -1.1299 -0.8623
31773SOL    HW298213   3.391   5.624   9.046  0.5777  0.5454  1.7720
31774SOL     OW98214  10.438   1.346   8.524  0.3042  0.0416 -0.0133
31774SOL    HW198215  10.532   1.327   8.517  0.1927 -0.3523 -0.4914
31774SOL    HW298216  10.430   1.435   8.488  0.5111  0.1412  0.1767
31775SOL     OW98217   8.752   9.408   1.193  0.1956  0.3856  0.6575
31775SOL    HW198218   8.678   9.433   1.250  0.7091  0.1403  1.4517
31775SOL    HW298219   8.733   9.317   1.168 -1.4514  1.3269 -1.8795
31776SOL     OW98220   5.886   8.177   4.395 -0.4702  0.1864  0.1488
31776SOL    HW198221   5.967   8.133   4.422 -0.5213 -0.8470 -1.2558
31776SOL    HW298222   5.836   8.189   4.475  0.0206 -1.3826  0.7101
31777SOL     OW98223   2.011   2.750   2.306  0.6639  0.4686  0.0738
31777SOL    HW198224   2.027   2.662   2.341 -0.5684 -0.0158 -0.5107
31777SOL    HW298225   1.933   2.780   2.353  0.2617  0.6808 -0.7106
31778SOL     OW98226   9.801   3.069   0.323  0.4297 -0.9091 -0.3043
31778SOL    HW198227   9.777   3.089   0.233 -1.9858 -0.4394  0.3535
31778SOL    HW298228   9.758   3.138   0.375  1.1146 -1.5967  1.2430
31779SOL     OW98229   7.261   6.443   6.848  0.0589  0.2855  0.5307
31779SOL    HW198230   7.247   6.404   6.762  0.4937  0.9355  0.1575
31779SOL    HW298231   7.179   6.427   6.895 -0.2769  0.1550 -0.0885
31780SOL     OW98232   0.741   6.347   4.886  0.2176 -0.0037  0.0682
31780SOL    HW198233   0.662   6.372   4.837 -0.8165  2.1330  2.5708
31780SOL    HW298234   0.711   6.277   4.945  1.0431 -1.4178 -1.1370
31781SOL     OW98235   9.079   6.294  10.156  0.0145 -0.3192 -0.6217
31781SOL    HW198236   9.029   6.286  10.075  0.1953  1.5764 -0.9709
31781SOL    HW298237   9.171   6.295  10.128  0.1254 -0.8465 -0.2790
31782SOL     OW98238   4.956  10.525   5.853 -0.0033  0.3463 -0.2822
31782SOL    HW198239   4.948  10.445   5.802  0.5209  1.1948 -1.7647
31782SOL    HW298240   4.878  10.576   5.830 -0.2636  0.3332  0.5379
31783SOL     OW98241   2.562   0.115   0.212 -0.2857  0.6509  0.1090
31783SOL    HW198242   2.633   0.116   0.148 -1.0723  0.7564 -0.7896
31783SOL    HW298243   2.496   0.057   0.173 -0.5080  0.1972  1.1342
31784SOL     OW98244   5.853   3.296   1.860 -0.3167 -0.4329  0.6076
31784SOL    HW198245   5.902   3.227   1.814 -1.4178  0.6254 -2.4075
31784SOL    HW298246   5.762   3.264   1.861 -1.0207  1.2145 -1.6733
31785SOL     OW98247   3.370   4.846   3.658 -0.3638 -0.2109 -0.4338
31785SOL    HW198248   3.291   4.889   3.625  0.5772  0.6027 -1.6994
31785SOL    HW298249   3.377   4.766   3.606  1.5373  1.4383 -2.9275
31786SOL     OW98250   8.797   5.229   9.843 -0.1254  0.2319 -0.0599
31786SOL    HW198251   8.704   5.244   9.856  0.0901  0.7414  1.0120
31786SOL    HW298252   8.806   5.211   9.749 -1.4530 -0.9995  0.0080
31787SOL     OW98253   9.584   1.230   8.926 -0.3404  0.0936  0.9958
31787SOL    HW198254   9.509   1.238   8.985 -0.4103  1.8429  0.7195
31787SOL    HW298255   9.625   1.147   8.951 -2.7227 -1.2784  0.6882
31788SOL     OW98256   9.444   0.739   7.646  0.4201  0.2379  0.2702
31788SOL    HW198257   9.427   0.647   7.628  0.4982  0.2338  0.2169
31788SOL    HW298258   9.380   0.786   7.592 -0.2182  0.1939  0.9789
31789SOL     OW98259   6.040   3.165   5.561 -0.4334 -0.3381 -0.3637
31789SOL    HW198260   6.010   3.226   5.628  0.4092 -0.6775  0.3428
31789SOL    HW298261   6.128   3.196   5.539 -0.6626 -0.2942 -1.2369
31790SOL     OW98262   5.930   7.177   3.565  0.6704  0.0412 -0.1140
31790SOL    HW198263   5.876   7.256   3.557  0.8094  0.1563  0.0755
31790SOL    HW298264   5.891   7.128   3.638  1.9936  1.0758  1.3598
31791SOL     OW98265   3.823   1.987   8.517  0.1485  0.1820  0.3150
31791SOL    HW198266   3.740   2.034   8.518 -0.2460 -0.4561  2.3662
31791SOL    HW298267   3.848   1.984   8.424 -2.3456 -0.0110 -0.4186
31792SOL     OW98268   4.617   5.292   0.303  0.6642 -0.3314  0.1084
31792SOL    HW198269   4.705   5.279   0.267  0.5417  0.0314 -0.3206
31792SOL    HW298270   4.610   5.386   0.318 -0.5290  0.0025 -2.1696
31793SOL     OW98271   7.799   2.984   6.009 -0.4617 -0.4635  0.1282
31793SOL    HW198272   7.887   2.962   6.040  0.7204 -0.2618 -2.6866
31793SOL    HW298273   7.804   3.077   5.986 -1.4082 -0.4449 -0.0555
31794SOL     OW98274   2.019   6.912  10.648 -0.1400  0.5841  0.2126
31794SOL    HW198275   2.001   6.972  10.721 -0.5546  1.2077 -0.3845
31794SOL    HW298276   2.080   6.848  10.684  0.1394  1.2392  0.9357
31795SOL     OW98277   5.444   9.748   6.557 -0.2055  0.0343  0.0359
31795SOL    HW198278   5.380   9.756   6.628  0.1508 -1.6093  0.5919
31795SOL    HW298279   5.408   9.679   6.500  0.1400  0.4381 -0.6889
31796SOL     OW98280   9.371   8.907   5.913  0.3678  0.1900  0.7574
31796SOL    HW198281   9.359   8.874   5.823  3.0058  1.0267  0.0170
31796SOL    HW298282   9.443   8.855   5.948 -0.1146  0.4173  2.1548
31797SOL     OW98283   1.419   0.158   1.101 -0.0314 -0.1728 -0.0311
31797SOL    HW198284   1.413   0.253   1.107  0.3265 -0.1797  0.5273
31797SOL    HW298285   1.329   0.129   1.087 -0.0851  0.2729 -0.6703
31798SOL     OW98286   2.756   5.037   8.285  0.3458  0.8052 -0.7626
31798SOL    HW198287   2.725   5.068   8.370 -2.8247 -1.6419 -0.8255
31798SOL    HW298288   2.677   5.006   8.241  2.3164 -1.0625 -3.2766
31799SOL     OW98289   2.783   8.302  10.358 -0.3088 -0.1151  0.0328
31799SOL    HW198290   2.720   8.268  10.421 -1.3684 -0.3747 -1.1246
31799SOL    HW298291   2.765   8.254  10.277 -0.1301  1.3775 -0.9352
31800SOL     OW98292   4.080   0.670   4.368 -0.2009  0.0640 -0.4299
31800SOL    HW198293   4.053   0.758   4.393  0.8174 -0.2831  2.1203
31800SOL    HW298294   4.173   0.666   4.388 -0.3757 -1.8263  0.2242
31801SOL     OW98295   8.982   3.402   4.123 -0.3613  0.0265  0.2012
31801SOL    HW198296   9.076   3.410   4.112 -0.1644  0.1353  1.7152
31801SOL    HW298297   8.959   3.470   4.186 -1.6393  0.7051 -0.9316
31802SOL     OW98298   4.911   1.204   2.074 -0.4208 -0.5187 -0.3538
31802SOL    HW198299   4.931   1.237   1.986 -0.2554  0.2684 -0.0285
31802SOL    HW298300   4.883   1.113   2.060 -3.6996  0.5184 -1.6565
31803SOL     OW98301  10.515  10.230   8.825 -0.5420  0.1434  0.2417
31803SOL    HW198302  10.448  10.235   8.893 -0.3612 -0.2905  0.4541
31803SOL    HW298303  10.597  10.213   8.873 -0.8352 -3.1998 -0.2464
31804SOL     OW98304   5.602   6.651   9.900  0.2735 -0.3098  0.1583
31804SOL    HW198305   5.665   6.672   9.969 -0.6642 -1.3350  1.3965
31804SOL    HW298306   5.596   6.730   9.847  0.4230  0.8298  1.7684
31805SOL     OW98307   5.408   1.004   1.809  0.8931  0.0733  0.0022
31805SOL    HW198308   5.484   0.990   1.751  1.3565 -0.1113  0.6413
31805SOL    HW298309   5.444   1.055   1.882  0.6896 -1.0659  0.9242
31806SOL     OW98310   0.336   3.587   4.244  0.8156 -0.0448 -0.1652
31806SOL    HW198311   0.408   3.576   4.306  1.2536 -2.4616 -0.9706
31806SOL    HW298312   0.375   3.567   4.159 -0.6288 -0.7022 -0.7117
31807SOL     OW98313   8.824   4.053  10.268 -0.3827 -0.3593  0.1908
31807SOL    HW198314   8.833   4.121  10.202 -1.9042  0.6616  0.9868
31807SOL    HW298315   8.909   4.052  10.313  0.3673 -0.4767 -1.1748
31808SOL     OW98316   5.982   7.511   1.289  0.3621  0.5128 -0.5675
31808SOL    HW198317   5.943   7.511   1.377  2.0566 -2.0454  0.2950
31808SOL    HW298318   5.950   7.431   1.248  0.2113  1.2867 -2.0371
31809SOL     OW98319   0.855   5.788   2.794  0.0458  0.1415 -0.2561
31809SOL    HW198320   0.786   5.795   2.728 -0.9070  0.4906  0.7551
31809SOL    HW298321   0.835   5.708   2.842 -1.2758  1.5783  1.7689
31810SOL     OW98322   8.813   4.532   9.791  0.0523 -0.7237  0.2853
31810SOL    HW198323   8.878   4.524   9.861  0.3863  1.1055  0.2371
31810SOL    HW298324   8.846   4.475   9.722  1.3927 -0.1909  0.4426
31811SOL     OW98325   5.726   3.933   1.596 -0.3617  0.5812 -0.5617
31811SOL    HW198326   5.687   3.973   1.518 -0.0836  0.0407 -0.9819
31811SOL    HW298327   5.718   3.839   1.582  0.4476  0.4733 -0.3265
31812SOL     OW98328   0.991   6.873   0.989  0.3979 -0.1271 -0.0159
31812SOL    HW198329   0.965   6.917   0.908  1.6987  1.7845  0.5279
31812SOL    HW298330   1.025   6.788   0.961  1.4618  0.7619 -1.5622
31813SOL     OW98331   7.606   1.565   8.641 -0.1692  0.1594 -0.4200
31813SOL    HW198332   7.546   1.639   8.650  0.7954  0.8562  0.5000
31813SOL    HW298333   7.599   1.540   8.549  0.3635  2.1754 -1.0515
31814SOL     OW98334   4.544   0.849   5.371  0.9516 -0.0250 -0.5130
31814SOL    HW198335   4.473   0.802   5.325 -0.2685 -0.0457  1.3024
31814SOL    HW298336   4.621   0.793   5.358  0.3931 -0.6110 -1.5367
31815SOL     OW98337   3.503   8.987   8.913 -0.1272  0.0876 -0.2108
31815SOL    HW198338   3.575   8.945   8.960 -0.1211  1.5183  1.1551
31815SOL    HW298339   3.425   8.940   8.942 -0.0213  0.3714  0.5756
31816SOL     OW98340   9.114  10.342   0.670  0.4193  0.6037  0.1254
31816SOL    HW198341   9.131  10.402   0.597 -3.9592  1.8257 -0.1853
31816SOL    HW298342   9.078  10.263   0.628 -0.2906  0.5428  0.8168
31817SOL     OW98343   4.969   7.882   6.480  0.0688 -0.0792 -0.1677
31817SOL    HW198344   4.883   7.866   6.519 -1.0576 -1.3482 -2.8954
31817SOL    HW298345   5.030   7.876   6.554 -2.1438  1.2115  1.9334
31818SOL     OW98346   7.645   8.166   9.111  0.1474 -0.1331  0.5511
31818SOL    HW198347   7.717   8.167   9.174  2.1585 -1.5565 -1.5516
31818SOL    HW298348   7.566   8.157   9.165  1.7280 -1.1283  2.8544
31819SOL     OW98349   3.997  10.189   4.249  0.7957 -0.2768  0.1771
31819SOL    HW198350   4.001  10.261   4.187 -1.2883 -1.8122 -1.8747
31819SOL    HW298351   3.914  10.201   4.295  0.3755 -1.3907 -0.2662
31820SOL     OW98352   6.824   2.552   7.004  0.1410 -0.2679 -0.3495
31820SOL    HW198353   6.889   2.615   7.036 -0.1202  0.4556 -1.2040
31820SOL    HW298354   6.740   2.599   7.011 -0.4916 -1.5772  1.8071
31821SOL     OW98355   6.397   1.241   9.986 -0.2061 -0.1187 -0.3323
31821SOL    HW198356   6.471   1.186  10.011 -1.8089 -1.8845  0.8500
31821SOL    HW298357   6.405   1.319  10.041 -0.1519 -1.0802  1.0810
31822SOL     OW98358   0.108   4.985   4.655 -0.5536 -0.1002  0.1419
31822SOL    HW198359   0.180   4.977   4.717 -1.4119  0.4400  1.2589
31822SOL    HW298360   0.149   4.979   4.569  0.5883 -1.6280  0.7390
31823SOL     OW98361   7.773   1.686   0.055  0.6473  0.0577 -0.0414
31823SOL    HW198362   7.774   1.634  -0.026 -0.1730  0.2633 -0.1860
31823SOL    HW298363   7.793   1.622   0.124 -2.2347 -0.9262  0.0294
31824SOL     OW98364   3.974   3.705   3.107 -0.6056  0.3024  0.1125
31824SOL    HW198365   3.943   3.668   3.024 -0.6434 -0.2421  0.3626
31824SOL    HW298366   3.904   3.685   3.169 -1.2797  2.0548 -0.0400
31825SOL     OW98367   0.864   0.982   2.943 -0.2210 -0.2349  0.0240
31825SOL    HW198368   0.944   0.930   2.952 -0.0397  0.1175  0.5356
31825SOL    HW298369   0.896   1.071   2.925 -0.5141 -0.1996 -0.3350
31826SOL     OW98370   5.588   8.773   9.060  0.2444  0.2542  0.0068
31826SOL    HW198371   5.627   8.771   9.148  0.4615  2.6695  0.0121
31826SOL    HW298372   5.590   8.865   9.035 -0.8300 -0.2512 -2.1056
31827SOL     OW98373   8.348   0.383   6.281  0.0525 -0.2132  0.1262
31827SOL    HW198374   8.373   0.394   6.373  0.1593 -0.0895  0.0813
31827SOL    HW298375   8.370   0.292   6.261 -0.7019 -0.4824  0.4545
31828SOL     OW98376   9.890   2.311   1.740  0.7209 -0.5220 -0.5402
31828SOL    HW198377   9.823   2.365   1.699 -0.4289 -2.1227 -0.8344
31828SOL    HW298378   9.900   2.236   1.682  1.1113 -1.4405  0.6757
31829SOL     OW98379   6.946   8.656   6.207  0.0686  0.3535 -0.1176
31829SOL    HW198380   7.026   8.700   6.237 -0.0936  1.6620 -1.4737
31829SOL    HW298381   6.962   8.636   6.115 -1.3313  1.1281 -0.5648
31830SOL     OW98382   1.475   2.186   1.467 -0.3582 -0.3131 -0.0079
31830SOL    HW198383   1.550   2.228   1.424 -1.2574  1.4953  0.0813
31830SOL    HW298384   1.507   2.164   1.554 -0.6853  3.3169  1.1890
31831SOL     OW98385   9.978   2.364   9.666 -0.4461 -0.1744  0.2600
31831SOL    HW198386  10.001   2.457   9.660 -2.3109  0.2991 -0.4156
31831SOL    HW298387  10.009   2.326   9.584 -2.2198  0.5097 -0.7708
31832SOL     OW98388   0.813  10.069   1.594  0.7330  0.3742 -1.0073
31832SOL    HW198389   0.771  10.128   1.658  1.4038  0.0882 -0.2851
31832SOL    HW298390   0.745  10.052   1.529 -1.4496 -2.6611  1.7681
31833SOL     OW98391   7.933  10.220   0.045  0.3728  0.6064 -0.5022
31833SOL    HW198392   7.946  10.247  -0.046  2.1162 -0.7154 -0.7038
31833SOL    HW298393   7.923  10.125   0.040 -0.6492  0.6352  0.6056
31834SOL     OW98394   5.837   9.234   5.805 -0.2563  1.0127 -0.4500
31834SOL    HW198395   5.798   9.272   5.726 -1.1250  1.0864  0.0042
31834SOL    HW298396   5.763   9.199   5.854  0.3884 -0.0352 -0.1887
31835SOL     OW98397   4.441   7.036   8.915 -0.0380  0.2993  0.1465
31835SOL    HW198398   4.465   6.994   8.833 -0.0763  0.0964  0.2395
31835SOL    HW298399   4.374   6.980   8.953 -0.7590  0.9313 -0.1721
31836SOL     OW98400   1.034   7.151  10.593  0.4579 -0.1666 -0.0709
31836SOL    HW198401   0.979   7.149  10.515 -0.7598 -0.9580  0.7683
31836SOL    HW298402   1.121   7.129  10.562  0.3176  1.0244 -1.4215
31837SOL     OW98403   7.263   5.462   0.204  0.1583 -0.7319  0.4144
31837SOL    HW198404   7.344   5.459   0.154 -0.2942  2.0766 -0.6185
31837SOL    HW298405   7.194   5.465   0.139 -0.6741 -1.0015  1.2600
31838SOL     OW98406   4.039   3.802   1.826 -0.1897  0.6200 -0.1572
31838SOL    HW198407   4.068   3.864   1.760  2.7318 -0.5374 -0.1053
31838SOL    HW298408   3.955   3.769   1.794 -0.0725  1.9747 -1.9575
31839SOL     OW98409   5.875   5.020   0.144  0.8188  0.0755 -0.8919
31839SOL    HW198410   5.942   5.056   0.202 -0.9021  1.7933  0.1794
31839SOL    HW298411   5.857   5.090   0.081 -0.6890  0.0806 -0.4919
31840SOL     OW98412   5.078   5.790   0.192 -0.9859  0.4493 -0.2090
31840SOL    HW198413   5.065   5.856   0.260  1.3637  0.9064 -0.1332
31840SOL    HW298414   5.026   5.715   0.221 -0.3388  0.7633  1.9036
31841SOL     OW98415   7.514   2.258   7.367  0.8924 -0.1901  0.2839
31841SOL    HW198416   7.496   2.317   7.294  2.5790 -0.9778 -0.8196
31841SOL    HW298417   7.427   2.236   7.401  0.1198  1.0579 -0.7608
31842SOL     OW98418   1.771   9.425   2.731  0.1910  0.3690 -0.1761
31842SOL    HW198419   1.761   9.466   2.817 -0.4711 -1.4721  0.6770
31842SOL    HW298420   1.721   9.481   2.672 -0.1607  1.1369  0.8184
31843SOL     OW98421   0.242   7.090   9.919  0.0431 -0.7118  0.4677
31843SOL    HW198422   0.281   7.123  10.000 -1.1103  0.0130  0.7608
31843SOL    HW298423   0.281   7.144   9.850  1.0614 -1.3584  0.5185
31844SOL     OW98424   2.137   3.798   7.398 -0.5963  0.4654  0.0442
31844SOL    HW198425   2.200   3.786   7.326 -0.3824 -0.0058  0.3063
31844SOL    HW298426   2.124   3.710   7.433 -0.0195  0.8051  1.1610
31845SOL     OW98427   1.166   1.010   3.193 -0.7515 -0.1175  0.2995
31845SOL    HW198428   1.139   0.958   3.117 -2.8523 -0.3211  1.1218
31845SOL    HW298429   1.236   1.066   3.160 -0.6224 -1.2189 -1.4140
31846SOL     OW98430  10.273   8.442  10.040 -0.9068 -0.2156  0.3502
31846SOL    HW198431  10.225   8.512   9.997 -2.9293 -1.6390  0.1602
31846SOL    HW298432  10.277   8.468  10.132  0.3453  1.1663 -0.0606
31847SOL     OW98433   7.720   6.586   3.336  0.1313 -0.3502 -0.8531
31847SOL    HW198434   7.681   6.520   3.393  0.4808  0.5807  0.5171
31847SOL    HW298435   7.660   6.593   3.262 -2.9623  1.7397  1.5977
31848SOL     OW98436   5.941   8.128   0.844 -0.2860  0.1866  0.0217
31848SOL    HW198437   5.924   8.070   0.918  0.1955 -0.3798 -0.2980
31848SOL    HW298438   5.934   8.072   0.767 -2.0729  1.0414 -0.4854
31849SOL     OW98439   5.100   2.276   3.132 -1.1979 -0.2227  0.4342
31849SOL    HW198440   5.068   2.277   3.042  0.3842 -0.3568 -0.1567
31849SOL    HW298441   5.040   2.216   3.178 -2.5314  0.4997 -0.3013
31850SOL     OW98442   8.408   2.808   5.786  0.3739 -0.4965 -0.1970
31850SOL    HW198443   8.413   2.900   5.812 -3.1100 -0.3526  0.4587
31850SOL    HW298444   8.377   2.810   5.695 -1.0262 -0.9219  0.2288
31851SOL     OW98445   2.017   7.993   0.514 -0.0875  0.2978 -0.6422
31851SOL    HW198446   1.987   7.967   0.427 -2.2096  1.2914 -0.2816
31851SOL    HW298447   2.030   7.911   0.560  0.8897 -0.2409 -1.8179
31852SOL     OW98448   9.112   2.778   3.506 -0.3775 -0.1751 -0.3086
31852SOL    HW198449   9.142   2.696   3.468  0.5140  0.3193 -0.6913
31852SOL    HW298450   9.065   2.822   3.436 -0.6540 -0.2570 -0.1748
31853SOL     OW98451   0.497   0.347   3.285 -0.7086  0.5482 -0.0996
31853SOL    HW198452   0.524   0.290   3.356 -0.6346  0.6500 -0.0453
31853SOL    HW298453   0.481   0.288   3.211  0.4445  0.5492 -0.3799
31854SOL     OW98454   8.520   3.010   1.506 -0.0816  0.6486  0.1649
31854SOL    HW198455   8.563   2.927   1.481 -0.3656  0.7986 -0.8810
31854SOL    HW298456   8.462   2.986   1.578 -0.1108 -0.0583 -0.0813
31855SOL     OW98457   4.700  10.161   4.879  0.2792 -0.3793  0.6936
31855SOL    HW198458   4.697  10.077   4.834  0.6633  0.5835 -1.2014
31855SOL    HW298459   4.619  10.206   4.853  0.1962 -0.0384  1.4892
31856SOL     OW98460   9.112   5.353   3.359  0.2621 -0.5776  0.0649
31856SOL    HW198461   9.184   5.317   3.411  0.5142  0.7376  0.6764
31856SOL    HW298462   9.153   5.419   3.304 -0.1408 -1.3968 -1.2660
31857SOL     OW98463   2.359   6.571   9.181 -0.8777  0.4019 -0.5557
31857SOL    HW198464   2.433   6.561   9.121 -0.5972  2.0060 -0.5243
31857SOL    HW298465   2.394   6.549   9.267 -0.9550 -0.6724 -0.7790
31858SOL     OW98466   3.158   3.190  10.687 -0.2740  0.1282  0.7338
31858SOL    HW198467   3.177   3.100  10.661 -1.1735  0.3733 -0.9287
31858SOL    HW298468   3.108   3.181  10.769  0.8519 -0.7870  1.3523
31859SOL     OW98469   4.064   1.225   0.121 -0.2021  0.3536  0.9721
31859SOL    HW198470   4.142   1.279   0.109 -0.9536  1.3059  0.2049
31859SOL    HW298471   4.081   1.176   0.202  2.3121 -1.5019 -0.5636
31860SOL     OW98472  10.724   0.902   4.462  0.5719  0.2617 -0.4072
31860SOL    HW198473  10.809   0.942   4.477  0.0471  1.3295 -0.1776
31860SOL    HW298474  10.711   0.909   4.367  1.0633 -0.6082 -0.5497
31861SOL     OW98475   0.789   6.738   6.767 -0.3880 -0.1390 -0.7454
31861SOL    HW198476   0.858   6.714   6.705 -0.6398  0.5644 -1.3028
31861SOL    HW298477   0.835   6.746   6.851  0.0605 -0.4911 -0.9510
31862SOL     OW98478   9.949   6.210   8.066 -0.8011  0.2748  0.3571
31862SOL    HW198479   9.929   6.117   8.071 -1.3418  0.4111  0.9644
31862SOL    HW298480   9.895   6.250   8.135  0.9955  0.7770  1.5557
31863SOL     OW98481   2.873   2.556   8.017 -0.4230 -0.1238 -0.9177
31863SOL    HW198482   2.949   2.507   7.985 -0.3980 -0.6087 -0.1499
31863SOL    HW298483   2.907   2.643   8.035  0.4037 -0.8091  1.0895
31864SOL     OW98484   3.475   8.527   9.206  0.7693 -0.4387 -0.2222
31864SOL    HW198485   3.399   8.490   9.161  0.5547  0.6399 -0.7748
31864SOL    HW298486   3.523   8.574   9.138 -0.2041  2.2654  0.8198
31865SOL     OW98487   5.753   1.924   1.678  0.1781  0.0395  0.4646
31865SOL    HW198488   5.689   1.860   1.708 -0.3923  0.3903  0.0129
31865SOL    HW298489   5.701   1.995   1.641  0.8295  0.3073  0.0426
31866SOL     OW98490  10.721   3.823   3.942  0.3824 -0.3093 -0.2325
31866SOL    HW198491  10.756   3.734   3.946 -1.7512 -1.2738 -1.5657
31866SOL    HW298492  10.793   3.875   3.907  1.7545 -1.4122  0.7854
31867SOL     OW98493   9.096   8.815   1.027  0.0900  0.3152 -0.1547
31867SOL    HW198494   9.052   8.832   1.110  0.1124  0.1284 -0.1027
31867SOL    HW298495   9.170   8.876   1.026  0.6768 -0.3610  0.4262
31868SOL     OW98496   4.963   8.128   4.938  0.5231  0.4554  0.1665
31868SOL    HW198497   4.900   8.069   4.896  1.4185 -0.7278  0.4091
31868SOL    HW298498   4.980   8.195   4.873  1.4383 -1.0183 -1.1982
31869SOL     OW98499   6.949   9.521   4.708  0.6664 -0.2600 -0.3644
31869SOL    HW198500   6.879   9.584   4.724  0.6510 -0.3796  0.0452
31869SOL    HW298501   6.979   9.540   4.619  0.2332 -0.0926 -0.4748
31870SOL     OW98502   4.101   3.055   8.033 -0.2866  0.5928 -0.3646
31870SOL    HW198503   4.148   2.989   8.084 -0.5266  1.0499  0.4798
31870SOL    HW298504   4.164   3.086   7.969  0.4398  0.8929  0.4747
31871SOL     OW98505   3.177   4.512   2.839  0.0571 -1.2285 -0.4416
31871SOL    HW198506   3.249   4.525   2.901 -0.2558  1.5501 -0.5175
31871SOL    HW298507   3.098   4.536   2.888 -0.4736 -1.4531 -1.1717
31872SOL     OW98508   6.767   3.577   5.717 -0.1703 -0.8094  0.1376
31872SOL    HW198509   6.730   3.637   5.652 -0.9734 -2.2473 -0.7713
31872SOL    HW298510   6.746   3.618   5.801  0.4019  0.8003 -0.4483
31873SOL     OW98511   0.603   0.505   6.710  0.1158  0.6211 -0.2447
31873SOL    HW198512   0.692   0.477   6.691 -0.8085 -2.5453 -0.4623
31873SOL    HW298513   0.586   0.475   6.799 -1.1629 -0.1051 -0.7026
31874SOL     OW98514   8.967   6.731  10.181 -0.0468  0.0377 -0.2428
31874SOL    HW198515   8.964   6.642  10.216 -0.6781  0.4084  0.6645
31874SOL    HW298516   9.029   6.777  10.237 -1.1523  0.6670  0.5066
31875SOL     OW98517   4.728   1.498   5.185 -0.1701 -0.5309 -0.0265
31875SOL    HW198518   4.774   1.531   5.261  1.1931 -0.2861 -0.9333
31875SOL    HW298519   4.684   1.575   5.148 -1.4679 -0.7879  0.9090
31876SOL     OW98520   6.932  10.532   0.874 -0.3356 -0.4881 -0.6300
31876SOL    HW198521   6.964  10.447   0.845 -0.2180 -0.5421 -0.3466
31876SOL    HW298522   6.989  10.596   0.830  0.5845 -0.5971  0.3539
31877SOL     OW98523   9.168   6.562   2.006  0.2745  0.2499  0.2595
31877SOL    HW198524   9.130   6.612   2.079  0.5378 -0.2423  0.7452
31877SOL    HW298525   9.100   6.562   1.939 -0.0922  0.4609  0.6282
31878SOL     OW98526  10.672   8.895   2.868 -0.4037 -0.8908  0.3108
31878SOL    HW198527  10.643   8.814   2.825  0.7238 -1.3302  0.3246
31878SOL    HW298528  10.638   8.888   2.957 -2.1500 -0.3114 -0.2755
31879SOL     OW98529   1.665   9.781   1.422  0.2166  0.9048  0.7403
31879SOL    HW198530   1.735   9.740   1.473  1.0286  0.4494 -0.6964
31879SOL    HW298531   1.598   9.804   1.487  1.7445  1.4787  2.1614
31880SOL     OW98532   1.568   2.145   8.879  0.0957 -0.1339 -0.1899
31880SOL    HW198533   1.620   2.123   8.802  2.1204  2.0322  0.4148
31880SOL    HW298534   1.602   2.088   8.948 -2.1816 -2.5589 -0.9237
31881SOL     OW98535   5.812   0.028   0.883  0.0135  0.4613  0.1467
31881SOL    HW198536   5.865  -0.050   0.903 -1.0494  0.1109  1.7751
31881SOL    HW298537   5.867   0.102   0.910  0.4396  0.2113 -0.0157
31882SOL     OW98538   1.550   8.886   3.575  0.1631  0.5388  0.3201
31882SOL    HW198539   1.631   8.861   3.621  1.2369  2.5242 -0.3526
31882SOL    HW298540   1.485   8.895   3.644  1.2336  1.5144  1.2508
31883SOL     OW98541   7.999   6.909   7.053  0.0337 -0.0816 -0.3403
31883SOL    HW198542   8.061   6.837   7.043 -0.4679 -0.5637 -0.0009
31883SOL    HW298543   7.943   6.904   6.975 -0.0853 -0.1456 -0.2516
31884SOL     OW98544   8.985   5.609   7.264  0.4512 -0.0900 -0.1282
31884SOL    HW198545   9.031   5.693   7.268  0.3777 -0.0680  0.3456
31884SOL    HW298546   8.950   5.605   7.175 -0.8422  1.0884  0.2924
31885SOL     OW98547   6.771   6.946   3.768 -0.1092  0.1921 -0.1839
31885SOL    HW198548   6.682   6.950   3.804  0.2896 -0.9405  0.9611
31885SOL    HW298549   6.767   6.874   3.705  0.1344 -0.2266  0.2764
31886SOL     OW98550   5.260   8.588   7.319  0.5895 -0.3221  0.8470
31886SOL    HW198551   5.301   8.502   7.307 -0.1839 -0.6465  0.4675
31886SOL    HW298552   5.178   8.569   7.365  1.2534  0.4069  2.3845
31887SOL     OW98553   8.120   1.701   0.088 -0.7270  0.7773  0.2719
31887SOL    HW198554   8.096   1.790   0.062  0.0271  0.7714 -0.4688
31887SOL    HW298555   8.131   1.706   0.183  1.5407  2.0462  0.0165
31888SOL     OW98556   1.741   9.800   4.712  0.7723  0.3668  0.0923
31888SOL    HW198557   1.819   9.756   4.747  0.6095  0.4026  0.5096
31888SOL    HW298558   1.683   9.730   4.685  1.8425  0.3082 -2.3296
31889SOL     OW98559   5.603   7.497   6.363  0.0960  0.4168  0.1549
31889SOL    HW198560   5.559   7.574   6.327  0.7750 -0.8019 -3.7455
31889SOL    HW298561   5.533   7.435   6.380 -0.3879  1.5319  2.6903
31890SOL     OW98562   7.617   6.337   4.324 -0.2074  0.0710  0.3179
31890SOL    HW198563   7.544   6.381   4.367  0.7642  0.3648  1.7483
31890SOL    HW298564   7.662   6.290   4.395  1.0186 -0.0605 -0.5112
31891SOL     OW98565   2.115   5.154   1.935  0.1253 -0.0824 -0.2312
31891SOL    HW198566   2.194   5.141   1.987  1.2652  0.6894 -1.6722
31891SOL    HW298567   2.079   5.237   1.966 -0.3289 -0.6054  0.6634
31892SOL     OW98568   1.743   6.811   8.060  0.2056 -0.9349 -0.1101
31892SOL    HW198569   1.690   6.733   8.078  0.0534 -0.7544  0.2418
31892SOL    HW298570   1.803   6.784   7.991  0.7836 -1.6606  0.6446
31893SOL     OW98571   7.424   7.803   5.738  0.6296 -0.4777  0.4117
31893SOL    HW198572   7.388   7.842   5.818 -0.7075  0.8804 -0.8096
31893SOL    HW298573   7.484   7.869   5.703  0.1438 -0.4827 -0.4450
31894SOL     OW98574   9.539   7.088   9.613 -0.1272 -0.2317  0.4122
31894SOL    HW198575   9.510   7.010   9.567 -0.1676 -0.1162  0.2427
31894SOL    HW298576   9.482   7.093   9.690  0.0332 -0.5042  0.5531
31895SOL     OW98577   1.868   1.880   6.959  0.2408 -0.0750 -0.1773
31895SOL    HW198578   1.817   1.883   6.878  0.5564 -2.1590 -0.5213
31895SOL    HW298579   1.928   1.954   6.952  0.2916 -0.2204 -1.8901
31896SOL     OW98580   1.940   2.010   9.030  0.0676  0.4666  0.5717
31896SOL    HW198581   1.991   1.929   9.037 -0.9599 -0.1309  1.5818
31896SOL    HW298582   1.932   2.041   9.120 -1.5860  0.3802  0.4757
31897SOL     OW98583   5.495   3.034   7.103 -0.3886 -0.1912 -0.0532
31897SOL    HW198584   5.578   3.012   7.060 -0.3538  2.0952 -1.3554
31897SOL    HW298585   5.519   3.049   7.194  0.6399  0.3214 -0.3879
31898SOL     OW98586   1.405   7.253   9.358 -0.0146 -0.2609  0.1096
31898SOL    HW198587   1.341   7.213   9.418 -1.0803  2.1297  0.6597
31898SOL    HW298588   1.382   7.216   9.272 -0.8194 -0.9814  0.6110
31899SOL     OW98589   1.851   6.579   5.529 -0.1959  0.3294 -0.1078
31899SOL    HW198590   1.840   6.589   5.435 -0.4104  0.9175 -0.0220
31899SOL    HW298591   1.946   6.567   5.541 -0.4206 -3.8872 -0.7575
31900SOL     OW98592   0.553   4.706  10.575 -0.1567 -0.2657  0.2835
31900SOL    HW198593   0.574   4.781  10.520 -1.2743 -0.3250 -0.2473
31900SOL    HW298594   0.609   4.636  10.542  1.0481  0.3669  0.9215
31901SOL     OW98595   0.049   9.986   8.935 -0.2491  0.9105 -0.2769
31901SOL    HW198596  -0.040   9.958   8.958 -0.4223  0.1895 -1.6890
31901SOL    HW298597   0.050  10.080   8.951 -1.6558  1.1376 -1.3386
31902SOL     OW98598   2.948   6.894  10.287 -0.1191  0.5295 -0.1150
31902SOL    HW198599   3.042   6.904  10.269 -0.3893  1.0816 -1.2748
31902SOL    HW298600   2.921   6.980  10.320 -0.5911  0.9630 -1.5769
31903SOL     OW98601   2.295   4.567   5.825 -0.1927 -0.2835 -0.2325
31903SOL    HW198602   2.230   4.630   5.857 -2.2220 -0.6308 -3.2909
31903SOL    HW298603   2.344   4.615   5.759  2.1348 -0.3487  1.3294
31904SOL     OW98604   7.221   4.744   6.496  1.0715 -0.3262  0.2015
31904SOL    HW198605   7.283   4.714   6.429  1.3760  1.9516 -0.6062
31904SOL    HW298606   7.251   4.831   6.520 -1.1693  0.4104  0.5777
31905SOL     OW98607   4.003   0.075   1.558  0.2103 -0.3899 -0.4462
31905SOL    HW198608   3.917   0.117   1.556  0.6588  0.5333 -0.5259
31905SOL    HW298609   4.050   0.119   1.629  0.2554 -1.6337  0.3219
31906SOL     OW98610   8.691   9.431   9.323  0.5521  0.2375  0.1152
31906SOL    HW198611   8.744   9.406   9.248  0.1606  0.5199 -0.2617
31906SOL    HW298612   8.641   9.507   9.293 -0.5475 -0.4137  0.2407
31907SOL     OW98613   3.874   9.042   5.025  0.1971  0.0118 -0.4342
31907SOL    HW198614   3.790   8.996   5.022  0.5515 -0.8350  1.3661
31907SOL    HW298615   3.911   9.029   4.938 -0.2318 -2.1724 -0.3431
31908SOL     OW98616   3.952   9.999   6.748  0.6466  0.2572 -0.3224
31908SOL    HW198617   3.879  10.057   6.769  0.7196  0.6617 -1.1637
31908SOL    HW298618   3.922   9.912   6.775 -0.0011  0.4777 -0.3145
31909SOL     OW98619  10.159   0.036   6.326 -0.6720 -0.5525  0.4575
31909SOL    HW198620  10.243   0.005   6.293 -1.0806 -0.9104 -0.2843
31909SOL    HW298621  10.129  -0.034   6.385 -0.2975 -0.2712  0.9826
31910SOL     OW98622   1.745   2.524   3.972  0.4017 -0.4115  0.4825
31910SOL    HW198623   1.722   2.500   3.883 -0.8615 -0.5820  0.8311
31910SOL    HW298624   1.823   2.578   3.964  0.6687 -0.9583 -0.6679
31911SOL     OW98625   3.723   3.568   3.236 -0.2504 -0.3633 -0.5713
31911SOL    HW198626   3.714   3.485   3.283  2.1939 -0.7973 -0.7482
31911SOL    HW298627   3.703   3.635   3.302 -0.1584 -1.0506  0.1716
31912SOL     OW98628   4.837   7.988   9.934 -0.6303 -0.9538 -0.3058
31912SOL    HW198629   4.849   7.938  10.014 -1.8741  0.6686  0.9658
31912SOL    HW298630   4.894   7.946   9.870  1.7888 -1.2289  1.8838
31913SOL     OW98631   5.589   5.515   2.608  0.4972  0.3623 -0.0147
31913SOL    HW198632   5.528   5.550   2.542  1.1297  0.0461 -0.7789
31913SOL    HW298633   5.675   5.519   2.566  0.6727 -1.5951  0.0712
31914SOL     OW98634   4.828   8.904   4.166  0.1809 -0.4146  0.0021
31914SOL    HW198635   4.749   8.869   4.207  1.1820 -0.9686  1.5553
31914SOL    HW298636   4.885   8.926   4.239  1.8447 -0.9328 -1.0871
31915SOL     OW98637   6.814   3.435   1.246 -0.7410 -0.4458  0.4358
31915SOL    HW198638   6.738   3.429   1.304 -1.1339  0.3792  0.0169
31915SOL    HW298639   6.889   3.425   1.304 -1.1554 -1.2832  0.8560
31916SOL     OW98640   1.366   6.341   7.027  0.3266  0.1748 -0.2133
31916SOL    HW198641   1.442   6.286   7.004  0.9626  0.2359  1.5793
31916SOL    HW298642   1.298   6.313   6.966  1.2559 -1.1336 -0.7264
31917SOL     OW98643   8.074   7.935   5.049 -0.2634  0.4483 -0.0941
31917SOL    HW198644   7.998   7.878   5.036  0.7989 -1.5059  1.7854
31917SOL    HW298645   8.150   7.880   5.029  0.8102  1.1056  1.9327
31918SOL     OW98646   3.704   6.045   1.785  0.0563 -0.2342 -0.6345
31918SOL    HW198647   3.688   6.102   1.711  1.0576  2.5575  1.1576
31918SOL    HW298648   3.634   6.066   1.847  0.4354 -0.9798  0.0720
31919SOL     OW98649   7.824   4.321   5.088 -0.6088  0.2610  0.2208
31919SOL    HW198650   7.733   4.304   5.112 -0.5750  0.4692  0.5010
31919SOL    HW298651   7.819   4.375   5.009 -0.7413  1.2017  0.8645
31920SOL     OW98652   7.310   8.362   7.038  0.2080 -0.5514 -0.3349
31920SOL    HW198653   7.314   8.446   6.992  3.5760 -0.8220 -0.8053
31920SOL    HW298654   7.299   8.385   7.130  0.8926  0.4190 -0.4844
31921SOL     OW98655   0.033   7.515   0.556 -0.4268 -0.9951 -0.4745
31921SOL    HW198656   0.068   7.450   0.496  1.9958 -0.6286  0.4101
31921SOL    HW298657   0.023   7.594   0.502  1.4461 -0.7460 -0.5133
31922SOL     OW98658   9.709   0.566  10.781 -0.1311 -0.4474  0.5118
31922SOL    HW198659   9.731   0.550  10.689  1.3671 -0.9786  0.9228
31922SOL    HW298660   9.651   0.495  10.805 -1.3183  0.2345 -0.2664
31923SOL     OW98661  10.774   6.021   2.447  0.0375 -0.2464  0.5682
31923SOL    HW198662  10.767   5.928   2.470  0.6592 -0.4972 -0.2131
31923SOL    HW298663  10.699   6.036   2.389  0.3346 -0.4414  0.1292
31924SOL     OW98664   8.870   9.312  10.392  0.1536 -0.0326  0.2256
31924SOL    HW198665   8.906   9.228  10.419 -0.0973  0.1908  1.3127
31924SOL    HW298666   8.839   9.298  10.303  2.0246 -0.5032 -0.4016
31925SOL     OW98667   0.510   8.131   9.888  0.0903 -0.4211 -0.3134
31925SOL    HW198668   0.551   8.088   9.963  0.9512  0.1358 -0.4417
31925SOL    HW298669   0.575   8.196   9.860 -1.7108  2.0293  0.8148
31926SOL     OW98670   7.220   5.148   1.073  0.5677 -0.5801 -0.5550
31926SOL    HW198671   7.133   5.136   1.111  0.8943 -0.4173  0.2507
31926SOL    HW298672   7.206   5.137   0.979 -0.1450 -1.5391 -0.3490
31927SOL     OW98673  10.008  10.680   2.092 -0.3515  0.1097  0.2267
31927SOL    HW198674   9.960  10.600   2.112 -1.1885  0.2401 -1.1597
31927SOL    HW298675  10.012  10.683   1.996  1.3137  0.7682  0.2725
31928SOL     OW98676   7.138   1.005   2.255 -0.7212 -0.2173 -0.0332
31928SOL    HW198677   7.084   1.071   2.299  2.1301  2.3075  0.0655
31928SOL    HW298678   7.162   0.943   2.324 -1.7474 -0.1727  0.3788
31929SOL     OW98679   8.506   3.104   0.807  0.0146 -0.3712  0.0406
31929SOL    HW198680   8.512   3.190   0.850  0.3073 -0.5542  0.3635
31929SOL    HW298681   8.423   3.067   0.839 -0.1552 -0.1766 -0.1656
31930SOL     OW98682   7.015  10.446  10.642  0.6435 -0.0699  0.0448
31930SOL    HW198683   6.936  10.456  10.589  0.5523 -1.6333 -0.1497
31930SOL    HW298684   6.983  10.428  10.730  0.8037  1.3404  0.4195
31931SOL     OW98685   2.784   4.763   6.687  0.2034  0.2092  0.3967
31931SOL    HW198686   2.693   4.763   6.715 -0.6817  0.9793 -2.1906
31931SOL    HW298687   2.806   4.856   6.678  0.5898  0.0219 -0.8257
31932SOL     OW98688   3.411  10.512   4.805 -0.2546 -0.7546  0.0466
31932SOL    HW198689   3.388  10.492   4.896 -1.0778  1.1653  0.2987
31932SOL    HW298690   3.345  10.467   4.753 -0.6481 -0.6510  0.4546
31933SOL     OW98691   6.855   7.053   6.695 -0.3247 -0.6768 -1.0008
31933SOL    HW198692   6.861   7.132   6.749 -1.8298 -0.7930 -0.5988
31933SOL    HW298693   6.929   7.059   6.635  1.7245 -0.7779  1.3461
31934SOL     OW98694   5.315   3.196   6.453  0.6219 -0.4875 -0.0904
31934SOL    HW198695   5.409   3.210   6.450  0.4493  0.7284 -0.5525
31934SOL    HW298696   5.283   3.255   6.521  0.0064  0.4390 -1.1472
31935SOL     OW98697   3.803   0.656   3.410 -0.0974  0.9937  0.6673
31935SOL    HW198698   3.816   0.600   3.486  0.5275 -0.1165 -0.2322
31935SOL    HW298699   3.882   0.710   3.406  0.7640 -0.3003 -0.2905
31936SOL     OW98700   3.577   2.822   1.398  0.0226  0.1328 -0.6552
31936SOL    HW198701   3.602   2.912   1.377  2.2310 -0.1411  0.4471
31936SOL    HW298702   3.548   2.826   1.489 -0.8874 -0.1140 -0.9269
31937SOL     OW98703   4.150   8.371   2.787  0.4634 -0.5551 -0.6461
31937SOL    HW198704   4.064   8.392   2.751 -1.5048 -0.7429  3.4183
31937SOL    HW298705   4.139   8.286   2.828  1.8392  0.3898  1.8943
31938SOL     OW98706   0.470   4.539   6.534 -0.1557  0.1698  0.0273
31938SOL    HW198707   0.387   4.561   6.575  0.8900  2.0012  1.3062
31938SOL    HW298708   0.531   4.607   6.563  1.7725 -1.0063 -0.9845
31939SOL     OW98709   1.951   8.571   8.056 -0.1708  0.1647 -0.0183
31939SOL    HW198710   1.976   8.479   8.063 -0.4850  0.1187  0.5085
31939SOL    HW298711   2.029   8.619   8.084 -0.9763  0.0102  2.7957
31940SOL     OW98712   1.289   8.578   8.209 -0.1649  0.0499  0.1200
31940SOL    HW198713   1.354   8.580   8.138  0.1882  0.2296  0.4448
31940SOL    HW298714   1.216   8.529   8.172  0.2583 -0.3803 -0.1648
31941SOL     OW98715   4.741   5.059   8.968 -0.1376  0.4754  0.3613
31941SOL    HW198716   4.693   5.131   9.010  0.7563  0.3288  1.6823
31941SOL    HW298717   4.829   5.065   9.005  1.0031  0.9312 -2.2315
31942SOL     OW98718   6.347   0.855  10.658  0.0648 -0.3836  0.6386
31942SOL    HW198719   6.258   0.857  10.693 -1.2270 -2.0464 -2.1941
31942SOL    HW298720   6.390   0.786  10.708 -0.3513  0.1351  1.7508
31943SOL     OW98721  10.320   1.037   5.738 -0.1296  0.1013  0.6032
31943SOL    HW198722  10.347   1.060   5.650  0.1599  3.1382  1.3713
31943SOL    HW298723  10.285   0.948   5.730  0.0889  0.1833 -2.4858
31944SOL     OW98724   4.870  10.005   0.289  0.4780  0.6806  0.0305
31944SOL    HW198725   4.924   9.934   0.323 -0.2885 -0.0074 -0.1495
31944SOL    HW298726   4.836  10.048   0.367  0.7141  0.6598  0.1436
31945SOL     OW98727   6.938   2.146   8.795 -0.3252 -0.0864 -0.2550
31945SOL    HW198728   6.903   2.127   8.709 -0.7894  0.2628 -0.1526
31945SOL    HW298729   6.871   2.202   8.836 -0.6863 -1.2216  0.7795
31946SOL     OW98730   1.360  10.088  10.404 -0.3412 -0.3525 -0.7599
31946SOL    HW198731   1.290  10.152  10.392 -0.4084 -0.1650  0.5250
31946SOL    HW298732   1.364  10.041  10.321 -3.5143 -1.9051 -0.1785
31947SOL     OW98733   8.025   6.793   2.717  0.4639 -0.1198  0.6482
31947SOL    HW198734   8.041   6.878   2.756  0.2822 -0.0802  0.6357
31947SOL    HW298735   8.017   6.811   2.623  1.8547 -0.3383  0.4672
31948SOL     OW98736   8.178   0.708   5.056 -0.2749  0.2082  0.4835
31948SOL    HW198737   8.259   0.696   5.006 -0.9574  3.2254 -1.6927
31948SOL    HW298738   8.131   0.626   5.047  1.7684 -1.0178  0.3607
31949SOL     OW98739   5.827   2.377   4.386 -0.3614 -0.2161  0.0973
31949SOL    HW198740   5.768   2.370   4.310 -2.6816 -0.0919  1.7581
31949SOL    HW298741   5.852   2.286   4.405  2.2389 -0.1003 -2.1457
31950SOL     OW98742   0.823   3.296   5.921  0.0595  0.2919 -0.0870
31950SOL    HW198743   0.734   3.328   5.904 -0.2201 -0.1160  0.6019
31950SOL    HW298744   0.815   3.201   5.920 -0.2680  0.1514  3.5944
31951SOL     OW98745   9.783   7.213  10.607 -0.6408  0.2459  0.4100
31951SOL    HW198746   9.694   7.237  10.579 -0.7835 -1.4186 -0.7675
31951SOL    HW298747   9.773   7.127  10.647  0.3341  0.4066  1.0265
31952SOL     OW98748   0.406   0.000   9.726 -0.1118  0.0827 -0.3066
31952SOL    HW198749   0.350   0.057   9.780  0.2658  0.2343 -0.0696
31952SOL    HW298750   0.420   0.049   9.646 -2.8671 -1.2272 -1.7274
31953SOL     OW98751  10.530   7.751   1.575 -0.8299  0.3053  0.4112
31953SOL    HW198752  10.556   7.803   1.651 -1.7040 -0.6067  1.3598
31953SOL    HW298753  10.484   7.676   1.611 -0.4525 -0.6423 -0.9840
31954SOL     OW98754   4.343   1.426   7.430  0.2686  0.1843 -0.3621
31954SOL    HW198755   4.401   1.444   7.503  0.3933  0.6134 -0.5615
31954SOL    HW298756   4.256   1.450   7.462 -0.0968 -2.0149  0.5175
31955SOL     OW98757   6.434   7.895   4.264 -0.0490 -0.3699 -0.1525
31955SOL    HW198758   6.522   7.921   4.238 -0.4395  0.1366 -0.9989
31955SOL    HW298759   6.380   7.972   4.249 -0.7834 -0.9083 -0.3848
31956SOL     OW98760   6.837   9.885   6.301  0.2190 -0.7693  0.0442
31956SOL    HW198761   6.797   9.934   6.373  2.0135  0.0618  0.5339
31956SOL    HW298762   6.777   9.812   6.285 -0.5724 -0.5676  1.8974
31957SOL     OW98763   9.811   0.519   8.735  0.2535 -0.5688 -0.4319
31957SOL    HW198764   9.858   0.583   8.681  0.4274 -1.5617 -1.5079
31957SOL    HW298765   9.801   0.561   8.820 -0.0515  1.0736 -1.2444
31958SOL     OW98766   7.583   6.248   5.964 -0.4612  0.3770 -0.0382
31958SOL    HW198767   7.541   6.166   5.988  1.9059 -0.8222  0.2747
31958SOL    HW298768   7.677   6.229   5.968  0.1350  2.6736 -1.4750
31959SOL     OW98769   7.205   9.013   5.728  0.3339  0.2565 -0.1883
31959SOL    HW198770   7.198   8.972   5.642 -2.8121 -0.1148  0.1257
31959SOL    HW298771   7.299   9.019   5.744  1.2018  2.2388 -4.4720
31960SOL     OW98772   6.812   3.244   4.704  0.1390  0.2471  0.0826
31960SOL    HW198773   6.868   3.308   4.748  0.4982  1.3065 -1.8401
31960SOL    HW298774   6.728   3.290   4.691  0.4403  0.4222 -1.4189
31961SOL     OW98775   9.820   2.243   3.518 -0.6480  0.3723  0.1911
31961SOL    HW198776   9.809   2.183   3.591  1.7412 -0.6275 -0.1689
31961SOL    HW298777   9.817   2.187   3.440 -0.4739  1.0261 -0.2931
31962SOL     OW98778   1.457   0.607   7.273  0.4280 -0.6375 -0.7340
31962SOL    HW198779   1.526   0.567   7.326 -1.0428 -1.1140  0.9126
31962SOL    HW298780   1.421   0.675   7.329  0.4711  0.5702 -2.1225
31963SOL     OW98781  10.675   1.712   0.784 -0.0241 -0.1133 -0.1650
31963SOL    HW198782  10.734   1.771   0.831  2.2741 -0.1829 -2.7337
31963SOL    HW298783  10.669   1.635   0.840  2.3222 -0.0546  0.2719
31964SOL     OW98784   1.716   8.400   6.003 -0.3250  0.8065 -0.1168
31964SOL    HW198785   1.724   8.495   5.989  0.6293  0.5919 -1.2233
31964SOL    HW298786   1.805   8.367   5.991 -0.5457 -0.1815  0.8125
31965SOL     OW98787   2.379   2.827   9.210  0.1752  0.3195  0.4086
31965SOL    HW198788   2.382   2.732   9.197  1.2567  0.1653  1.6102
31965SOL    HW298789   2.402   2.864   9.124 -0.4550 -0.4842 -0.1193
31966SOL     OW98790   8.100   8.278   8.799 -1.0119 -0.1107  0.1231
31966SOL    HW198791   8.029   8.330   8.761 -0.6218  0.1374 -0.2809
31966SOL    HW298792   8.140   8.336   8.863  0.9246  1.0196 -1.9592
31967SOL     OW98793   8.488  10.554   4.834  0.2319 -0.1043 -0.6506
31967SOL    HW198794   8.402  10.521   4.860  0.0434 -0.2801 -1.4686
31967SOL    HW298795   8.540  10.550   4.914 -0.1913 -1.0770 -0.4073
31968SOL     OW98796   9.423   0.668   8.706 -0.1022  0.3157 -0.0064
31968SOL    HW198797   9.347   0.675   8.649 -1.3714 -0.3919  1.5078
31968SOL    HW298798   9.435   0.757   8.742 -0.6082  0.2924  0.2230
31969SOL     OW98799   9.856   4.681  10.411 -0.1821 -0.3198  0.1010
31969SOL    HW198800   9.944   4.708  10.385 -1.1148  2.4007 -0.5505
31969SOL    HW298801   9.852   4.699  10.505 -0.2276  0.1335  0.0135
31970SOL     OW98802   8.495   9.463   8.086  0.3692  0.4159 -0.3306
31970SOL    HW198803   8.469   9.548   8.050  1.5411  0.8637 -0.1656
31970SOL    HW298804   8.505   9.479   8.180 -1.3438 -0.4149  0.0268
31971SOL     OW98805   4.099   7.862   4.371 -0.3834  0.0763 -0.6950
31971SOL    HW198806   4.045   7.883   4.447  1.0098  1.9087 -0.1523
31971SOL    HW298807   4.047   7.798   4.322 -1.6576 -0.5499  1.3630
31972SOL     OW98808   8.567  10.130   9.667 -0.0162 -1.0298  0.2619
31972SOL    HW198809   8.600  10.219   9.670  0.6349 -1.2539  0.1156
31972SOL    HW298810   8.644  10.075   9.684 -0.3711 -1.5678  0.1824
31973SOL     OW98811   8.735   5.078   4.467  0.1846 -0.3371  0.0144
31973SOL    HW198812   8.666   5.103   4.529  0.0514  0.3418 -0.4007
31973SOL    HW298813   8.698   5.006   4.416  0.4004 -1.1012  0.9044
31974SOL     OW98814  10.570  10.025   9.285 -0.0136 -0.3506 -0.1717
31974SOL    HW198815  10.571  10.087   9.358  0.8903  1.9195 -1.9526
31974SOL    HW298816  10.660   9.992   9.280 -0.8311 -3.1013  1.6893
31975SOL     OW98817   1.130   9.683   8.246  0.3461  0.2916  0.6766
31975SOL    HW198818   1.069   9.730   8.188  0.4987  0.1465  0.4010
31975SOL    HW298819   1.216   9.694   8.205  0.1828 -1.5337 -0.2314
31976SOL     OW98820   0.693   1.604   9.721 -0.1030 -0.0788  0.3034
31976SOL    HW198821   0.622   1.552   9.682 -0.2353  0.0030  0.4354
31976SOL    HW298822   0.706   1.566   9.807 -1.7604  1.5264  1.3315
31977SOL     OW98823   3.584   6.184   8.872 -0.0933 -0.2340 -0.4911
31977SOL    HW198824   3.611   6.092   8.868  4.0396  0.7007  0.9649
31977SOL    HW298825   3.605   6.220   8.786 -2.6418 -0.7447 -1.4054
31978SOL     OW98826   2.267   7.575  10.008  0.1598 -0.0311 -0.0563
31978SOL    HW198827   2.277   7.646   9.945  0.3225  0.1076  0.1260
31978SOL    HW298828   2.189   7.528   9.979  1.0514 -0.8352 -1.2055
31979SOL     OW98829   4.554   5.868   5.952  0.0728  0.3067  0.1210
31979SOL    HW198830   4.497   5.866   6.029 -1.6201 -0.5627 -1.1040
31979SOL    HW298831   4.496   5.891   5.879  1.8022  2.0621 -0.7987
31980SOL     OW98832   3.202   6.553   5.837  0.0829  0.0895  0.5387
31980SOL    HW198833   3.121   6.516   5.803  2.3592 -2.5090 -2.7441
31980SOL    HW298834   3.227   6.494   5.908  0.1046 -0.3915  0.1371
31981SOL     OW98835   9.422   8.187   3.380 -0.7000 -0.4832  0.6004
31981SOL    HW198836   9.451   8.241   3.307 -1.7625 -1.0160 -0.2343
31981SOL    HW298837   9.483   8.113   3.380 -0.4016 -0.2409  0.5639
31982SOL     OW98838   1.494   0.818   9.494 -0.1906  0.1763  0.1683
31982SOL    HW198839   1.443   0.869   9.556 -0.4558 -0.1780  0.2431
31982SOL    HW298840   1.571   0.789   9.544  0.1635  0.8343  0.0133
31983SOL     OW98841   3.069   7.445   6.546 -0.2941 -0.2932 -0.1888
31983SOL    HW198842   3.112   7.465   6.463 -0.8609 -0.7147 -0.5964
31983SOL    HW298843   3.003   7.513   6.557 -0.7632 -0.6924 -0.4939
31984SOL     OW98844   4.801   4.509   5.054  0.3012 -0.1714 -0.1525
31984SOL    HW198845   4.773   4.572   5.120  1.1598 -0.2282  0.2888
31984SOL    HW298846   4.830   4.433   5.105  0.9805 -0.2126 -0.5816
31985SOL     OW98847   9.450   9.381   1.123 -0.7890 -0.4446  0.6958
31985SOL    HW198848   9.468   9.432   1.202  0.8743 -1.4770  1.0304
31985SOL    HW298849   9.468   9.441   1.051  0.4791 -0.3361  1.0887
31986SOL     OW98850   6.533   1.004   6.210  0.6444  0.0785 -0.2155
31986SOL    HW198851   6.479   1.016   6.288 -0.8693  1.7937 -1.4327
31986SOL    HW298852   6.621   1.032   6.236  0.1860  0.5091  0.9008
31987SOL     OW98853   7.232   4.450   1.659 -0.0463  0.2992  0.2676
31987SOL    HW198854   7.171   4.519   1.635 -0.6473 -0.2210  0.2834
31987SOL    HW298855   7.299   4.452   1.590  0.3636  1.3896  0.6725
31988SOL     OW98856   8.564   1.963   5.317  0.0693 -0.2857  0.0163
31988SOL    HW198857   8.477   1.959   5.356  0.2470  1.5715  0.6991
31988SOL    HW298858   8.617   1.904   5.370 -0.5442 -0.6856  0.1965
31989SOL     OW98859   4.281   2.797   9.411  0.2326  0.5621  0.0435
31989SOL    HW198860   4.332   2.856   9.355 -0.8512  0.9691 -0.5520
31989SOL    HW298861   4.190   2.815   9.387 -0.1869 -0.2296  0.9930
31990SOL     OW98862   7.969   6.172   7.994 -0.0185 -0.3489 -0.0970
31990SOL    HW198863   7.877   6.196   8.010  0.1309  0.7250 -0.7125
31990SOL    HW298864   7.999   6.238   7.930  1.3261 -0.3681  0.5029
31991SOL     OW98865   8.062   6.976   9.521  0.4017 -0.0360 -0.7770
31991SOL    HW198866   8.097   6.889   9.503  1.9073  0.2835  0.3913
31991SOL    HW298867   8.012   6.966   9.603  3.0465  0.6925  1.0655
31992SOL     OW98868   4.612   2.379   6.396  0.4154  0.3324 -0.2371
31992SOL    HW198869   4.635   2.348   6.484  0.3796  1.0792  0.0423
31992SOL    HW298870   4.696   2.406   6.358  0.7892 -1.9913 -1.2790
31993SOL     OW98871   7.887   6.878   1.645  0.2586  0.2035 -0.3344
31993SOL    HW198872   7.859   6.898   1.556  0.9666 -0.2932 -0.6817
31993SOL    HW298873   7.902   6.784   1.645 -0.4584  0.0768  0.5293
31994SOL     OW98874   0.118   0.175   4.652 -0.1892  0.4654  0.9458
31994SOL    HW198875   0.126   0.248   4.714 -0.3858  0.8780  0.4887
31994SOL    HW298876   0.035   0.191   4.607 -0.0479  0.1656  0.5744
31995SOL     OW98877   9.965   1.824   6.152 -0.3476 -0.1021  0.5414
31995SOL    HW198878   9.873   1.836   6.177 -0.0214 -1.3141  2.4771
31995SOL    HW298879  10.010   1.800   6.233  1.7416  0.6356 -0.3245
31996SOL     OW98880   4.778   0.455   5.413 -0.0005 -0.3485  0.3499
31996SOL    HW198881   4.788   0.360   5.424 -0.0132 -0.1271  2.8420
31996SOL    HW298882   4.782   0.490   5.502  0.8765  2.1024 -0.5732
31997SOL     OW98883   6.018   0.177   2.238 -0.1378 -0.1870  0.1775
31997SOL    HW198884   5.962   0.105   2.267  1.9367 -1.9500  0.0717
31997SOL    HW298885   5.994   0.251   2.294 -1.6259 -1.2412  0.9953
31998SOL     OW98886   9.936   8.060  10.141 -0.0001  0.5142 -0.0128
31998SOL    HW198887  10.023   8.062  10.101  0.5838  1.1247  1.2207
31998SOL    HW298888   9.928   7.971  10.175 -0.8813 -0.3079 -2.1994
31999SOL     OW98889   0.515   7.846   4.112  0.5017 -0.4545 -0.5520
31999SOL    HW198890   0.435   7.865   4.062 -0.6590 -0.6535  1.1244
31999SOL    HW298891   0.582   7.901   4.072 -0.9324  1.2138 -0.7972
32000SOL     OW98892   6.803   0.781   8.968  0.2354 -0.2840  0.3487
32000SOL    HW198893   6.853   0.862   8.979  0.2642 -0.4356  1.4059
32000SOL    HW298894   6.826   0.751   8.880  0.5510  0.6277  0.0995
32001SOL     OW98895   1.057   0.071   7.168  0.3149  0.1015 -0.4911
32001SOL    HW198896   1.031   0.143   7.226 -0.3178 -1.0577  0.7314
32001SOL    HW298897   1.016   0.091   7.084  0.1567  1.1646 -0.1717
32002SOL     OW98898   7.791   6.285   6.684  0.0510 -0.1298 -0.4201
32002SOL    HW198899   7.821   6.285   6.592 -0.9709  2.2728 -0.8358
32002SOL    HW298900   7.714   6.229   6.684  0.1591 -0.2911 -0.9862
32003SOL     OW98901   3.901   1.811   5.847 -0.2690  0.3723  0.0506
32003SOL    HW198902   3.925   1.846   5.762 -1.7008 -0.0221 -0.5425
32003SOL    HW298903   3.971   1.841   5.906  0.4636  1.0871 -1.1403
32004SOL     OW98904   2.333   8.940   2.867 -0.0460 -0.1511 -0.1517
32004SOL    HW198905   2.238   8.939   2.853  0.0199 -1.3837 -0.6387
32004SOL    HW298906   2.370   8.905   2.786  0.9149  1.3194 -0.4029
32005SOL     OW98907   9.605   7.882   3.106 -0.7387 -0.3456 -0.0572
32005SOL    HW198908   9.606   7.900   3.200 -1.1930 -1.2330  0.1265
32005SOL    HW298909   9.692   7.910   3.075 -1.1479  1.4265  0.3254
32006SOL     OW98910   6.078   1.072   3.717  0.2185 -0.2081 -0.7570
32006SOL    HW198911   6.115   1.071   3.629 -1.2079 -2.0080 -1.3859
32006SOL    HW298912   6.125   1.004   3.765  0.1828 -0.0440 -0.4818
32007SOL     OW98913   6.077   4.570   4.206  0.4235  0.2860  0.4023
32007SOL    HW198914   5.990   4.543   4.176 -0.4644  1.9143  1.3570
32007SOL    HW298915   6.104   4.637   4.143  1.8364 -1.4550 -0.9443
32008SOL     OW98916   3.064   6.301  10.664 -0.4641  0.0325 -0.1413
32008SOL    HW198917   2.973   6.289  10.640 -0.5468 -1.0678  0.6421
32008SOL    HW298918   3.096   6.370  10.606 -1.7299  0.2865 -0.5567
32009SOL     OW98919   9.990   8.933   6.306  0.3286 -0.0376 -0.3486
32009SOL    HW198920   9.914   8.984   6.278  0.4582 -0.4988 -1.5847
32009SOL    HW298921   9.959   8.842   6.303  0.9534 -0.2340 -0.9633
32010SOL     OW98922   1.678   7.995   2.504  0.3933  0.4173  0.0659
32010SOL    HW198923   1.622   7.919   2.518 -0.5490  0.5923 -2.3914
32010SOL    HW298924   1.734   7.971   2.430 -0.3233  2.2790 -1.1526
32011SOL     OW98925   9.385   6.622   8.832  0.0758 -0.2301 -0.0736
32011SOL    HW198926   9.371   6.562   8.759  1.0758  0.0035 -0.4656
32011SOL    HW298927   9.358   6.572   8.909  0.1961 -0.9226 -0.4726
32012SOL     OW98928   9.393   0.508   4.608 -0.1136  0.2806  0.1542
32012SOL    HW198929   9.365   0.511   4.700  0.9983  2.6725  0.4947
32012SOL    HW298930   9.456   0.579   4.600  0.8321 -0.7157 -2.1782
32013SOL     OW98931   7.168   1.824   5.177 -0.1943 -0.2504 -0.2882
32013SOL    HW198932   7.156   1.915   5.151  2.0474 -0.0577 -0.8179
32013SOL    HW298933   7.082   1.796   5.207 -1.3883  1.4350 -1.9581
32014SOL     OW98934  10.391   2.220   3.723 -0.0498  0.3876 -0.3168
32014SOL    HW198935  10.485   2.202   3.722 -0.0514  0.3027 -1.6979
32014SOL    HW298936  10.354   2.152   3.778  0.7451  0.7817  0.7482
32015SOL     OW98937   1.518   1.531   6.315 -0.5764  0.0593 -0.0646
32015SOL    HW198938   1.439   1.492   6.353 -0.7379  0.1206 -0.3355
32015SOL    HW298939   1.569   1.457   6.284 -1.4631  0.0893 -1.7325
32016SOL     OW98940   4.451   3.114   3.246 -0.3362  0.7117  0.3755
32016SOL    HW198941   4.424   3.070   3.326 -0.1946  0.7889  0.4653
32016SOL    HW298942   4.421   3.204   3.256 -2.9577  0.0740 -0.9083
32017SOL     OW98943   9.067   7.617   5.377 -0.3643  0.0435  0.4743
32017SOL    HW198944   9.035   7.706   5.395 -1.0893 -0.1965  0.4027
32017SOL    HW298945   9.043   7.566   5.454 -0.4103 -0.2085  0.2933
32018SOL     OW98946   0.405   4.689   3.850  0.4072 -0.0808  0.1820
32018SOL    HW198947   0.357   4.765   3.815 -0.1496 -0.9858 -1.1026
32018SOL    HW298948   0.497   4.708   3.829  0.3868  0.6509  0.6976
32019SOL     OW98949   7.032   8.984   5.281  0.1595 -0.9011  0.4256
32019SOL    HW198950   7.037   9.013   5.190  0.6891 -1.9850  0.0971
32019SOL    HW298951   6.945   9.013   5.310  0.4322  0.4883 -0.0461
32020SOL     OW98952   6.382   7.948   1.234 -0.1963 -0.5714 -0.6422
32020SOL    HW198953   6.447   7.995   1.286 -1.7022  1.9208 -0.8518
32020SOL    HW298954   6.381   7.995   1.150 -1.9279 -0.8063 -0.7846
32021SOL     OW98955   1.635   5.658   2.669 -0.3819 -0.4182 -0.1464
32021SOL    HW198956   1.625   5.616   2.754 -4.0374 -2.1888 -1.2414
32021SOL    HW298957   1.712   5.616   2.630 -0.1775 -1.4337  1.2814
32022SOL     OW98958   3.572   8.668   4.005 -0.0058 -0.5104  0.1630
32022SOL    HW198959   3.532   8.737   3.952  0.6390 -0.7291 -0.6405
32022SOL    HW298960   3.605   8.713   4.083  0.4427  0.1094 -0.3724
32023SOL     OW98961   4.299   4.354   6.367  0.1119  0.6043  0.6946
32023SOL    HW198962   4.274   4.280   6.423 -0.5582  0.3411  0.0773
32023SOL    HW298963   4.220   4.372   6.315  0.6974  0.8614 -0.1325
32024SOL     OW98964   5.885   1.071   4.525  0.6730  0.1987  0.4210
32024SOL    HW198965   5.943   1.145   4.507  1.5797 -0.2253  1.4795
32024SOL    HW298966   5.880   1.024   4.442  2.3983 -0.1140  0.4526
32025SOL     OW98967   2.184   6.092   4.666  0.0611  0.0224  0.3022
32025SOL    HW198968   2.210   6.171   4.713 -1.7884  2.0815 -1.8654
32025SOL    HW298969   2.116   6.121   4.606  0.2080 -2.9931 -1.5421
32026SOL     OW98970   6.432   1.702  10.282  1.0266  0.0050  0.4494
32026SOL    HW198971   6.426   1.705  10.377 -1.2815  1.9613  0.3416
32026SOL    HW298972   6.509   1.755  10.261  0.6812  0.8250  1.1948
32027SOL     OW98973   5.562   8.484   5.171  0.9315  0.0387  0.1268
32027SOL    HW198974   5.658   8.489   5.162  1.1980  1.4368  2.6013
32027SOL    HW298975   5.547   8.397   5.208  1.1608 -0.3923 -0.7569
32028SOL     OW98976   6.191   8.342   3.465  0.4849 -0.6210  0.0084
32028SOL    HW198977   6.179   8.383   3.551 -0.0133 -1.1872  0.2210
32028SOL    HW298978   6.267   8.285   3.476  0.3611 -0.7695  0.1109
32029SOL     OW98979   3.675   3.025   0.794 -0.5162  0.2577  0.0613
32029SOL    HW198980   3.757   2.992   0.830 -0.3590  1.6411  1.0706
32029SOL    HW298981   3.639   2.952   0.743 -0.1485 -1.4238  2.0677
32030SOL     OW98982   0.877   6.972   9.731 -0.5448  0.0801  0.2414
32030SOL    HW198983   0.892   6.929   9.815 -0.2417  2.5548  1.5382
32030SOL    HW298984   0.871   6.900   9.668  1.0557 -1.7854  2.0722
32031SOL     OW98985   6.638   7.254   0.553 -0.3354 -0.1455  0.1661
32031SOL    HW198986   6.637   7.231   0.646  0.6588  1.1446  0.5230
32031SOL    HW298987   6.652   7.348   0.551 -3.9128  0.5513 -1.2320
32032SOL     OW98988  10.433   8.193   4.587  0.9535  0.0871  0.1625
32032SOL    HW198989  10.379   8.189   4.509 -0.0369 -0.7748  0.8671
32032SOL    HW298990  10.422   8.282   4.620  3.1542  1.2143 -1.8530
32033SOL     OW98991   3.090   4.405  10.429  0.3243  0.4969 -0.2017
32033SOL    HW198992   3.024   4.470  10.408  0.9207  1.4803  0.8426
32033SOL    HW298993   3.080   4.389  10.523  0.2862 -0.8163 -0.4113
32034SOL     OW98994   8.710   8.522   5.775  0.2279 -0.3402  0.0267
32034SOL    HW198995   8.742   8.596   5.725  0.0820 -0.0399  0.3694
32034SOL    HW298996   8.770   8.515   5.849 -1.4034  1.3030  1.6285
32035SOL     OW98997   3.030   1.416   6.734 -0.3760  0.2120  0.2419
32035SOL    HW198998   2.983   1.461   6.804  0.5619  0.8112  0.5126
32035SOL    HW298999   3.099   1.477   6.709  0.9496 -1.0571  0.6272
32036SOL     OW99000  10.407   2.429   2.101 -0.1547  0.1979 -0.4622
32036SOL    HW199001  10.497   2.399   2.113  0.3734  1.8052 -0.1115
32036SOL    HW299002  10.380   2.458   2.189 -0.6610  0.6327 -0.7556
32037SOL     OW99003   4.064   6.966   8.323 -0.2474  0.3485  0.0875
32037SOL    HW199004   4.142   6.935   8.369 -1.4014  0.1440  2.0274
32037SOL    HW299005   4.069   6.926   8.237  2.1421  0.9306 -0.1016
32038SOL     OW99006   4.167   8.312   6.088 -0.5382  0.4400  0.1319
32038SOL    HW199007   4.251   8.269   6.070 -1.5364 -1.2019 -0.9319
32038SOL    HW299008   4.160   8.379   6.021  0.7563  1.9480  1.4208
32039SOL     OW99009   8.938   9.781   6.365 -0.1628 -0.0960 -0.2977
32039SOL    HW199010   8.998   9.716   6.401 -0.6125 -0.7664 -0.7288
32039SOL    HW299011   8.985   9.864   6.372  0.4450 -0.4758  0.2056
32040SOL     OW99012  10.365   5.204   2.700 -0.0970  0.0345  0.1326
32040SOL    HW199013  10.353   5.111   2.684 -0.5088  0.1017  0.0395
32040SOL    HW299014  10.448   5.226   2.658 -0.5994 -0.0294 -0.9260
32041SOL     OW99015   7.026   2.743   7.014  0.2121  0.1095 -0.1128
32041SOL    HW199016   7.064   2.830   7.019 -0.9265  0.5581  1.7241
32041SOL    HW299017   7.024   2.723   6.920  2.0583  1.3143 -0.4524
32042SOL     OW99018   7.774   0.827   2.020 -0.4463  0.0683 -0.6735
32042SOL    HW199019   7.853   0.878   2.035 -0.2592 -0.3888 -0.0565
32042SOL    HW299020   7.805   0.738   2.002 -0.8239 -0.3057  0.3843
32043SOL     OW99021   7.836  10.108   5.057 -0.6223 -0.4132 -0.5662
32043SOL    HW199022   7.838  10.203   5.053 -0.8289 -0.2151  2.2580
32043SOL    HW299023   7.744  10.085   5.057 -0.6198 -0.4698  0.3392
32044SOL     OW99024   0.928   5.434   1.814  0.4013 -0.7019 -0.1277
32044SOL    HW199025   0.901   5.454   1.904 -1.4214  0.8086 -0.9580
32044SOL    HW299026   0.863   5.370   1.784 -1.2166  1.4530 -1.4794
32045SOL     OW99027   4.561   9.533   4.043 -0.1187  0.2012  0.1004
32045SOL    HW199028   4.629   9.541   4.111 -0.4365  0.5746  0.3810
32045SOL    HW299029   4.602   9.481   3.974  0.8962  1.4814 -0.3067
32046SOL     OW99030   7.217   9.193   9.499  0.0880  0.0048 -0.1839
32046SOL    HW199031   7.283   9.244   9.545 -1.5939  1.4863  0.6902
32046SOL    HW299032   7.186   9.250   9.429 -1.1033 -0.1825  0.1612
32047SOL     OW99033   3.600   4.308   6.159  0.1974  0.1377  0.1046
32047SOL    HW199034   3.573   4.247   6.227  1.3651 -0.1647  0.3209
32047SOL    HW299035   3.686   4.277   6.132 -0.5744 -0.2348 -2.0998
32048SOL     OW99036   3.413   1.544   5.467 -1.0211  0.4839 -0.4502
32048SOL    HW199037   3.380   1.633   5.454 -0.1828  0.9928  0.7733
32048SOL    HW299038   3.493   1.554   5.518 -1.5143 -1.0368  0.7240
32049SOL     OW99039   8.929   7.257   3.981  0.5707  0.0592  0.3868
32049SOL    HW199040   9.010   7.207   3.971  0.7571  0.6431 -1.3244
32049SOL    HW299041   8.868   7.216   3.920  0.7125  1.8445 -1.0115
32050SOL     OW99042   9.676  10.568   7.935  0.0240 -0.4933  0.1210
32050SOL    HW199043   9.653  10.660   7.918  1.1642 -0.6709 -3.1825
32050SOL    HW299044   9.725  10.570   8.017  0.6006  1.9701 -0.1934
32051SOL     OW99045   1.754   1.444   4.647  0.0378  0.2354 -0.0047
32051SOL    HW199046   1.810   1.463   4.722 -2.1747 -1.3538  2.2213
32051SOL    HW299047   1.809   1.391   4.589  1.6859  1.1351  0.6755
32052SOL     OW99048   8.948   9.083   8.477 -0.4815 -0.5886 -0.2450
32052SOL    HW199049   8.857   9.053   8.470 -0.9031  0.7073 -0.7260
32052SOL    HW299050   8.949   9.167   8.430  0.8000 -0.2309  0.3719
32053SOL     OW99051   8.651   0.502  10.511 -0.2978  0.4706 -0.1040
32053SOL    HW199052   8.662   0.479  10.603 -0.0598  1.4087  0.1192
32053SOL    HW299053   8.713   0.446  10.464  0.1537  0.5473  0.3902
32054SOL     OW99054   1.886   3.572   1.078 -0.0080  0.1468 -0.3996
32054SOL    HW199055   1.914   3.578   1.169  0.1654  0.7081 -0.4855
32054SOL    HW299056   1.934   3.641   1.033 -0.7158  0.4183 -0.7608
32055SOL     OW99057   8.151   1.480   0.435  0.5281 -0.6831  0.6479
32055SOL    HW199058   8.185   1.449   0.351 -2.0565 -0.3803 -0.5958
32055SOL    HW299059   8.125   1.401   0.481 -2.7434 -0.7722 -1.0483
32056SOL     OW99060   4.636   3.700   3.268  0.8988 -0.1555 -0.1598
32056SOL    HW199061   4.673   3.733   3.187  1.2989  0.0515  0.1063
32056SOL    HW299062   4.670   3.758   3.336  0.7926 -0.4966  0.1896
32057SOL     OW99063   9.837   2.668  10.055 -0.2566 -0.3233  0.2004
32057SOL    HW199064   9.874   2.753  10.033  0.6180 -1.0149 -1.1804
32057SOL    HW299065   9.914   2.613  10.074 -0.5374 -1.6360 -2.1352
32058SOL     OW99066   2.896   1.896   3.916 -0.0281  0.1564 -0.4121
32058SOL    HW199067   2.861   1.937   3.995 -0.3931  1.4775 -1.2223
32058SOL    HW299068   2.961   1.958   3.884 -1.6443  0.9169 -2.4800
32059SOL     OW99069   8.269   7.091   7.313  0.0919 -0.3656  0.2165
32059SOL    HW199070   8.246   7.139   7.234 -0.9275 -1.5099 -0.2161
32059SOL    HW299071   8.217   7.133   7.382  1.3682  0.9606  0.4005
32060SOL     OW99072   4.688   1.278   9.964 -0.0728  0.6681 -0.0768
32060SOL    HW199073   4.744   1.241  10.032  1.2050  2.3414 -0.1540
32060SOL    HW299074   4.721   1.242   9.882 -0.4354  0.0854  0.0245
32061SOL     OW99075   1.632   3.487   0.308  0.3474 -0.2050 -0.1962
32061SOL    HW199076   1.581   3.499   0.388  0.4210  1.0855 -0.3239
32061SOL    HW299077   1.716   3.529   0.327  0.4601 -0.1269 -0.8601
32062SOL     OW99078   8.253   5.653   3.687 -0.0005  0.3949  0.5629
32062SOL    HW199079   8.338   5.635   3.646  0.0509  0.5648  0.5907
32062SOL    HW299080   8.203   5.699   3.620  0.0517  0.5938  0.6579
32063SOL     OW99081   5.737   9.720   5.991 -0.2515 -0.7946 -0.0351
32063SOL    HW199082   5.696   9.634   5.987 -0.9117 -0.4949  0.1953
32063SOL    HW299083   5.796   9.722   5.915 -0.8489 -1.1408 -0.5197
32064SOL     OW99084  10.340   3.689   4.657  0.2677 -0.4522 -0.0232
32064SOL    HW199085  10.412   3.752   4.667  0.5367 -0.7400 -0.1121
32064SOL    HW299086  10.284   3.728   4.590 -1.2202  1.1765  2.0394
32065SOL     OW99087   8.278   0.651   5.968  0.1572  0.4194  0.4209
32065SOL    HW199088   8.315   0.708   6.036 -0.0133  1.1057 -0.0477
32065SOL    HW299089   8.246   0.574   6.015 -0.5558  1.1820  1.2033
32066SOL     OW99090   6.663   7.126   2.083 -0.3875  0.2272 -0.6527
32066SOL    HW199091   6.736   7.161   2.033  0.1651 -1.3872 -1.0094
32066SOL    HW299092   6.609   7.081   2.019 -0.2336 -0.9414  0.0099
32067SOL     OW99093   5.327   5.290   9.494 -0.4899  0.6762 -0.0774
32067SOL    HW199094   5.313   5.362   9.556 -3.0852  0.5227 -0.3856
32067SOL    HW299095   5.274   5.314   9.418 -0.8855 -1.2400 -0.4479
32068SOL     OW99096   0.087   7.638   4.778 -0.3781 -0.0187  0.2711
32068SOL    HW199097   0.059   7.678   4.695 -2.9272 -2.0260  0.0083
32068SOL    HW299098   0.027   7.674   4.843 -1.4098 -1.7645  0.3646
32069SOL     OW99099  10.508   7.097   2.628 -0.1688  0.2599 -0.3859
32069SOL    HW199100  10.540   7.084   2.539  1.9650  0.0863  0.3413
32069SOL    HW299101  10.523   7.190   2.646 -1.4685  0.5112 -0.4991
32070SOL     OW99102   9.903   2.891   2.048 -0.1208  0.3705 -0.0758
32070SOL    HW199103   9.906   2.961   1.983  0.2737 -0.1653 -0.6445
32070SOL    HW299104   9.910   2.936   2.132 -2.2111  1.2140 -0.2984
32071SOL     OW99105   9.104   5.277   4.824  0.2204 -0.4488  0.9357
32071SOL    HW199106   9.167   5.317   4.885  0.3270  0.9928 -0.0644
32071SOL    HW299107   9.152   5.205   4.784  1.0364  0.2173  0.6824
32072SOL     OW99108   7.095   0.485   2.930 -0.3862 -0.0655 -0.7318
32072SOL    HW199109   7.063   0.485   2.840 -1.2387 -0.9906 -0.4533
32072SOL    HW299110   7.103   0.578   2.952  0.5637  0.1729 -1.9900
32073SOL     OW99111   0.774   9.009   8.354 -0.0692  0.3095  0.2510
32073SOL    HW199112   0.840   9.068   8.316  0.3254  0.9851  1.8639
32073SOL    HW299113   0.823   8.930   8.376  0.2540  0.8101  1.4458
32074SOL     OW99114   1.075   8.171   1.162 -0.4451 -0.1971 -0.1538
32074SOL    HW199115   1.016   8.220   1.219  0.5759  1.2196 -0.2753
32074SOL    HW299116   1.099   8.094   1.214 -1.4587 -0.2053  0.3397
32075SOL     OW99117   7.569   4.755   9.563 -0.0075 -0.2226 -0.3529
32075SOL    HW199118   7.565   4.670   9.520  0.9621 -0.7003  0.4691
32075SOL    HW299119   7.482   4.793   9.548 -1.1761 -2.1990  0.9907
32076SOL     OW99120   1.178   5.159   1.508 -0.1735  0.6488 -0.0318
32076SOL    HW199121   1.180   5.097   1.581 -2.5169 -0.8744 -1.1686
32076SOL    HW299122   1.176   5.245   1.550 -0.8075 -0.1697  1.6966
32077SOL     OW99123   8.835   8.338   4.704 -0.1436  0.2458 -0.0913
32077SOL    HW199124   8.868   8.411   4.757  1.1630  0.3985 -1.0467
32077SOL    HW299125   8.899   8.329   4.633 -1.9698  0.2512 -1.8368
32078SOL     OW99126   5.127   4.157   7.967  0.3460  0.8381  0.4829
32078SOL    HW199127   5.070   4.164   7.890  1.4604 -0.5668 -0.5244
32078SOL    HW299128   5.166   4.244   7.976  0.1964  1.0219 -0.5481
32079SOL     OW99129  10.047   4.733   0.420  0.4445 -0.4405 -0.5567
32079SOL    HW199130  10.008   4.698   0.500 -1.7850 -1.0770 -1.8479
32079SOL    HW299131  10.121   4.674   0.402 -0.5426 -1.8095 -0.2798
32080SOL     OW99132  10.076  10.424   0.185 -0.1975  0.3245  0.0777
32080SOL    HW199133  10.138  10.422   0.113  0.9179  0.8753  1.0023
32080SOL    HW299134  10.090  10.508   0.228 -1.7508  0.5669  0.1674
32081SOL     OW99135   7.022   3.315   5.954 -0.2276  0.6337 -0.4795
32081SOL    HW199136   7.112   3.299   5.927 -0.4579 -3.0913  0.3514
32081SOL    HW299137   6.973   3.325   5.873  0.5804  0.1789 -1.0293
32082SOL     OW99138   2.250   7.233   7.242  0.5307  0.0005  0.1634
32082SOL    HW199139   2.192   7.302   7.209  0.9044 -0.0624 -0.6565
32082SOL    HW299140   2.194   7.156   7.248  0.1503  0.3306  0.9275
32083SOL     OW99141   1.204   1.082   9.095 -0.4052  0.5133 -0.4396
32083SOL    HW199142   1.198   0.994   9.131  2.6315 -0.0897 -1.0772
32083SOL    HW299143   1.172   1.139   9.165  0.6334 -0.9302  1.3186
32084SOL     OW99144   0.943   5.672   1.655 -0.2504  0.0097  0.3873
32084SOL    HW199145   0.965   5.587   1.692 -1.5791 -0.7939 -0.5590
32084SOL    HW299146   0.853   5.688   1.684 -1.9653 -1.3566 -3.4327
32085SOL     OW99147   4.643   9.728   7.187 -0.4555  0.1608  0.1465
32085SOL    HW199148   4.630   9.738   7.281 -1.7238  0.1380 -0.0151
32085SOL    HW299149   4.695   9.804   7.162 -0.0488  0.1306  0.8684
32086SOL     OW99150   9.821   5.226   7.854 -0.4026  0.0678 -0.3971
32086SOL    HW199151   9.845   5.318   7.855 -0.3904  0.0784 -1.1927
32086SOL    HW299152   9.887   5.183   7.909 -1.0852  0.6794  0.9557
32087SOL     OW99153   9.315   0.720   4.943 -0.4529 -0.2372 -0.6637
32087SOL    HW199154   9.295   0.704   5.035 -1.0930 -0.1216 -0.7755
32087SOL    HW299155   9.400   0.678   4.929  1.2632  2.4085  0.7584
32088SOL     OW99156   6.928   5.907   8.334 -0.0551 -0.3370  0.5629
32088SOL    HW199157   6.891   5.982   8.287  1.3694  0.2641  0.3474
32088SOL    HW299158   6.990   5.869   8.272  0.2042 -0.8973  1.1667
32089SOL     OW99159   7.709   6.907   0.285  0.3196 -0.0509 -0.7077
32089SOL    HW199160   7.615   6.901   0.302  0.0028  2.4438 -1.1093
32089SOL    HW299161   7.723   6.854   0.206 -1.3014  1.5511 -2.1769
32090SOL     OW99162   1.314   5.335   0.171  0.1580  0.0185  0.6212
32090SOL    HW199163   1.254   5.408   0.188 -0.7423 -0.7774  1.0158
32090SOL    HW299164   1.370   5.332   0.249  0.0420  0.1549  0.7112
32091SOL     OW99165   2.758   9.601   3.132 -0.7397 -0.0323 -0.5572
32091SOL    HW199166   2.731   9.622   3.221  0.0678 -2.5665  0.3655
32091SOL    HW299167   2.847   9.567   3.141 -0.5147 -0.0110 -2.3811
32092SOL     OW99168   7.941   8.228   4.277 -0.5986  0.2359  0.1235
32092SOL    HW199169   7.860   8.191   4.241 -0.0168 -1.6547  0.6706
32092SOL    HW299170   7.964   8.170   4.349  2.1452 -0.3138 -1.0465
32093SOL     OW99171   1.677   4.627   3.139 -0.3738 -0.4260 -0.5382
32093SOL    HW199172   1.634   4.613   3.224  0.3322  0.2212 -0.0660
32093SOL    HW299173   1.720   4.543   3.120  0.7115 -0.1284  0.4728
32094SOL     OW99174   1.146   7.125   5.291  0.3191  0.0439  0.0282
32094SOL    HW199175   1.185   7.188   5.230  1.9170 -0.2764  0.6593
32094SOL    HW299176   1.052   7.133   5.277  0.6005  0.5951 -1.8477
32095SOL     OW99177   1.726   1.360   3.906 -0.0300 -1.1392 -0.3875
32095SOL    HW199178   1.641   1.345   3.949 -0.1255 -1.7787 -0.7823
32095SOL    HW299179   1.703   1.393   3.819  0.1542  4.0948  1.2266
32096SOL     OW99180   7.727   8.804  10.486 -0.5520 -0.1459 -0.1713
32096SOL    HW199181   7.807   8.837  10.446 -0.8112 -1.0403 -1.5386
32096SOL    HW299182   7.671   8.881  10.496 -0.1758  0.2266 -0.8518
32097SOL     OW99183   6.446   2.151   1.865 -0.1431  0.1361 -0.1189
32097SOL    HW199184   6.365   2.187   1.902  0.4799  0.4030  1.0278
32097SOL    HW299185   6.487   2.106   1.939  0.4941 -0.4688 -0.8325
32098SOL     OW99186   3.828   5.359   1.073 -0.5053  0.0210  0.1903
32098SOL    HW199187   3.758   5.425   1.080  0.7908  1.2936  2.0136
32098SOL    HW299188   3.892   5.399   1.014 -1.3181 -1.2497 -1.6779
32099SOL     OW99189   2.149  10.734   5.912 -0.2823 -0.0939 -0.1957
32099SOL    HW199190   2.236  10.752   5.875  1.1831  1.3711  3.5206
32099SOL    HW299191   2.132  10.643   5.887  2.2885 -0.4355 -1.1012
32100SOL     OW99192   7.854  10.066   8.886  0.2530 -0.0138  0.0487
32100SOL    HW199193   7.895  10.133   8.831 -1.9280  0.6675 -0.8566
32100SOL    HW299194   7.813  10.116   8.957  0.2985 -0.5954  0.4879
32101SOL     OW99195   2.829   1.524   7.663  0.0439  0.1521 -0.2770
32101SOL    HW199196   2.817   1.610   7.623  0.3161 -0.7195 -2.3141
32101SOL    HW299197   2.780   1.464   7.607  0.4275 -1.1361  0.7148
32102SOL     OW99198   3.031   3.088   8.376  0.8272 -0.3528 -0.2544
32102SOL    HW199199   3.092   3.034   8.326  0.7768 -1.1373  0.5033
32102SOL    HW299200   3.081   3.116   8.453  0.7346  0.3910 -0.4533
32103SOL     OW99201   0.686   4.542   8.667  0.4430  0.1632 -0.5004
32103SOL    HW199202   0.740   4.463   8.662  0.3826 -0.1074  1.7708
32103SOL    HW299203   0.727   4.595   8.736 -0.9336  0.9366 -0.2315
32104SOL     OW99204   6.963   6.275   5.255  0.4322 -0.0375 -0.4693
32104SOL    HW199205   6.875   6.311   5.267  1.3256  1.7110  1.6307
32104SOL    HW299206   7.021   6.351   5.260  2.1131 -1.2390 -0.9359
32105SOL     OW99207   4.807   8.054   0.140  0.3529  0.6072  0.1903
32105SOL    HW199208   4.732   8.064   0.082 -0.1832 -0.3837  0.6820
32105SOL    HW299209   4.859   7.984   0.101  1.4900  1.8626 -0.6079
32106SOL     OW99210   4.285   5.630  10.348  0.6198  0.3449 -0.3227
32106SOL    HW199211   4.319   5.619  10.437 -3.2368  1.0334  1.4495
32106SOL    HW299212   4.328   5.709  10.315  0.5257  1.3582  1.8300
32107SOL     OW99213   3.592  10.015   0.343  0.6591 -0.0109 -0.0601
32107SOL    HW199214   3.507  10.042   0.379  0.9389 -0.3771  0.9137
32107SOL    HW299215   3.576  10.004   0.250  0.5306  3.5893 -0.5996
32108SOL     OW99216   4.667  10.505   6.481 -0.4031 -0.6680 -0.5737
32108SOL    HW199217   4.749  10.538   6.519 -0.8028 -0.8187  0.4499
32108SOL    HW299218   4.675  10.524   6.387  0.5403 -0.1344 -0.4024
32109SOL     OW99219   3.614   8.656   4.303  0.4000  0.6129 -0.1923
32109SOL    HW199220   3.614   8.580   4.245 -0.3507 -0.0652  0.6684
32109SOL    HW299221   3.587   8.622   4.388  3.2071  1.2182  1.0620
32110SOL     OW99222   0.165   4.475   5.139  0.6442  0.2117  0.3846
32110SOL    HW199223   0.175   4.396   5.085 -0.8381  2.2936 -3.2721
32110SOL    HW299224   0.071   4.485   5.152  0.8368  1.1239  1.2533
32111SOL     OW99225   7.605   3.323   4.025 -0.4004 -0.3927 -0.5295
32111SOL    HW199226   7.698   3.321   4.005 -0.5461 -1.8352 -1.1863
32111SOL    HW299227   7.569   3.246   3.980 -1.8006 -0.2019  0.2105
32112SOL     OW99228   2.164   2.991   8.412 -0.6720  0.3781  0.5144
32112SOL    HW199229   2.244   3.031   8.447 -1.4464  1.1651  1.4421
32112SOL    HW299230   2.135   3.053   8.345 -1.7032  1.2614  1.7357
32113SOL     OW99231   2.054   4.983   8.454 -0.0672 -0.8150  0.0013
32113SOL    HW199232   2.009   5.067   8.459 -1.7362 -1.7264  1.2564
32113SOL    HW299233   2.045   4.945   8.541  1.3549 -1.9727 -0.3063
32114SOL     OW99234   7.813   7.590   0.818 -0.1695 -0.0739 -0.0457
32114SOL    HW199235   7.755   7.583   0.741  0.2216  0.1708 -0.3678
32114SOL    HW299236   7.754   7.613   0.890 -0.5635 -0.4504 -0.2412
32115SOL     OW99237   9.900   4.421   6.416 -0.0438  0.4340 -0.3106
32115SOL    HW199238   9.805   4.412   6.428  0.0272 -0.8503 -0.5653
32115SOL    HW299239   9.909   4.483   6.344 -0.8335 -2.1212 -2.7833
32116SOL     OW99240   9.798   9.289   8.879 -0.1858  0.1510  0.2639
32116SOL    HW199241   9.716   9.255   8.915 -0.0053  0.8980  1.4661
32116SOL    HW299242   9.860   9.217   8.886 -0.5547 -0.1857  0.0475
32117SOL     OW99243   0.565  10.044   1.794  0.2293  0.0025 -0.4723
32117SOL    HW199244   0.502   9.993   1.743  0.2532 -1.5433  0.9171
32117SOL    HW299245   0.513  10.113   1.834 -0.6808 -1.3005  0.7184
32118SOL     OW99246   3.001   9.549   0.744  0.3970  0.1173  0.0573
32118SOL    HW199247   3.002   9.580   0.653  1.0881  1.3788  0.4716
32118SOL    HW299248   3.040   9.620   0.794 -1.1496 -0.0085  1.5300
32119SOL     OW99249   5.836   5.454   3.744 -0.4782 -0.2084  0.3761
32119SOL    HW199250   5.772   5.507   3.696 -0.1092 -0.7836 -0.7837
32119SOL    HW299251   5.849   5.377   3.689  0.1219 -0.7913  1.3117
32120SOL     OW99252   0.562   1.410  10.306 -0.1685  0.0570 -0.1551
32120SOL    HW199253   0.600   1.494  10.278  0.2198 -0.2788 -0.6545
32120SOL    HW299254   0.638   1.357  10.331 -0.4929  0.3142  1.4825
32121SOL     OW99255   3.286   6.199   0.391 -0.0417  0.1706  0.3927
32121SOL    HW199256   3.278   6.115   0.437 -0.9741 -0.9327 -1.6382
32121SOL    HW299257   3.279   6.176   0.299  1.2674  2.3373 -0.3178
32122SOL     OW99258   2.287   0.363   6.736  0.5185 -0.9211 -0.2060
32122SOL    HW199259   2.272   0.366   6.642 -0.1793 -0.0409 -0.0805
32122SOL    HW299260   2.346   0.289   6.749 -1.4175 -2.6838 -1.0480
32123SOL     OW99261   9.269   3.835   5.648  0.1966 -0.4216  0.6160
32123SOL    HW199262   9.204   3.806   5.584 -0.1552 -0.5574  1.0251
32123SOL    HW299263   9.291   3.755   5.696 -2.3575  0.2724  3.1886
32124SOL     OW99264  10.369   9.913   4.086 -0.0224 -0.4979  0.0817
32124SOL    HW199265  10.276   9.936   4.079  0.2171  0.5741  0.1506
32124SOL    HW299266  10.392   9.878   4.000  0.0067  1.2603 -0.6693
32125SOL     OW99267   4.832   5.913   0.040 -0.0520  0.4311  0.7795
32125SOL    HW199268   4.909   5.862   0.065 -0.0001  1.1415  2.1411
32125SOL    HW299269   4.763   5.848   0.027  1.0749 -0.3636 -1.9100
32126SOL     OW99270   6.832   1.300   3.563 -0.3330  0.4792 -0.1240
32126SOL    HW199271   6.825   1.286   3.658 -0.3006  0.4827 -0.1211
32126SOL    HW299272   6.925   1.311   3.547 -0.4176  1.3778 -0.0348
32127SOL     OW99273  10.065   2.813   4.123  0.3926  0.0344  0.3841
32127SOL    HW199274  10.154   2.792   4.096 -0.0134 -0.3274 -0.7126
32127SOL    HW299275  10.009   2.760   4.066 -0.6033  2.0256 -0.6083
32128SOL     OW99276   0.390   2.651   1.677  0.2899 -0.3133  0.0005
32128SOL    HW199277   0.383   2.580   1.614  1.9439 -0.6736  0.1977
32128SOL    HW299278   0.400   2.730   1.624 -0.7732 -0.3014 -0.2026
32129SOL     OW99279   1.459   1.950   8.160  0.1556 -0.0053  0.2576
32129SOL    HW199280   1.380   1.924   8.112 -0.3342  2.9572 -0.7276
32129SOL    HW299281   1.442   2.040   8.187  3.2228  0.7811 -0.0798
32130SOL     OW99282   8.710   4.622   9.502 -0.1098  0.0415  0.5649
32130SOL    HW199283   8.771   4.589   9.568  1.3590  0.4816 -0.5401
32130SOL    HW299284   8.698   4.549   9.442  0.4746  0.4052 -0.0068
32131SOL     OW99285   8.159   9.674   8.632  0.3173 -0.1764  0.0180
32131SOL    HW199286   8.064   9.680   8.621  0.4772 -0.3613 -1.7948
32131SOL    HW299287   8.195   9.743   8.577  1.2568 -0.3874  0.3359
32132SOL     OW99288   2.697   0.138   8.614 -0.2641 -0.3622  0.1841
32132SOL    HW199289   2.630   0.158   8.680 -0.4125  1.2189 -0.3889
32132SOL    HW299290   2.712   0.044   8.622 -2.2783 -0.7000  0.5981
32133SOL     OW99291   1.639   9.531   1.763 -0.5223 -0.2436 -0.3726
32133SOL    HW199292   1.614   9.445   1.797 -0.2172 -0.1675  0.0418
32133SOL    HW299293   1.732   9.523   1.743 -0.2966  0.2466  0.4585
32134SOL     OW99294   4.640  10.795   5.622  0.6158  0.8540  0.3196
32134SOL    HW199295   4.623  10.751   5.539  1.9349  0.9669 -0.0403
32134SOL    HW299296   4.706  10.740   5.665  0.8578  1.4487  0.7255
32135SOL     OW99297   7.065   4.542   2.328  0.3866 -0.0830 -0.0692
32135SOL    HW199298   7.071   4.460   2.278 -0.5308 -0.9947  1.2348
32135SOL    HW299299   7.109   4.523   2.410  0.2549  0.7743  0.2058
32136SOL     OW99300   0.908   4.103   9.334  0.0130 -1.2624  0.3902
32136SOL    HW199301   0.885   4.032   9.274 -2.2197  0.1104 -0.5032
32136SOL    HW299302   0.890   4.183   9.284  0.5029 -0.0680  2.0526
32137SOL     OW99303   3.785   6.656   9.483  0.0921  0.2541 -0.0948
32137SOL    HW199304   3.803   6.577   9.432 -1.3718  0.3020 -0.7353
32137SOL    HW299305   3.701   6.638   9.525 -1.0498  2.0437 -1.4978
32138SOL     OW99306   1.169   0.212   5.270  0.2958  0.1576 -0.2960
32138SOL    HW199307   1.176   0.167   5.354 -0.6911  2.0829  0.8953
32138SOL    HW299308   1.249   0.263   5.262 -0.8416  2.2998  1.0016
32139SOL     OW99309   4.865   1.976   5.389  0.3310  0.1537 -0.3230
32139SOL    HW199310   4.821   2.052   5.351  0.8486  0.1812 -0.8821
32139SOL    HW299311   4.814   1.901   5.359 -0.3637  0.2926  0.4856
32140SOL     OW99312   2.437   9.275   2.078  0.1343 -0.0919 -0.0317
32140SOL    HW199313   2.507   9.304   2.020 -0.4965  2.0840  0.2301
32140SOL    HW299314   2.473   9.285   2.166  0.5921 -2.0528  0.0453
32141SOL     OW99315   2.358   5.132   0.416  0.4275  0.0566  0.0905
32141SOL    HW199316   2.295   5.204   0.416 -0.5411 -0.7684  0.3386
32141SOL    HW299317   2.372   5.113   0.509  0.8680  0.0789  0.0292
32142SOL     OW99318   6.989   2.734   8.985  0.4034  0.5272 -0.1097
32142SOL    HW199319   6.966   2.825   9.005  0.5938  0.4922  0.2863
32142SOL    HW299320   6.906   2.688   8.979  0.2029  1.0680 -2.0502
32143SOL     OW99321   9.112   7.443  10.485 -0.2154 -0.5549  0.0043
32143SOL    HW199322   9.133   7.535  10.501 -2.6522  0.2759 -1.0978
32143SOL    HW299323   9.029   7.429  10.531  0.6061 -2.5561  1.0276
32144SOL     OW99324   1.692   9.468   5.129 -0.0227 -0.4821  0.3843
32144SOL    HW199325   1.659   9.465   5.219  0.2549  2.9321  0.7481
32144SOL    HW299326   1.649   9.545   5.091  1.3364 -0.7069 -1.7837
32145SOL     OW99327   6.444   5.040   8.832  0.2795 -0.1161 -0.2660
32145SOL    HW199328   6.483   5.035   8.745 -0.3134 -0.8748 -0.5043
32145SOL    HW299329   6.468   4.957   8.874 -1.5416 -0.8913 -0.6451
32146SOL     OW99330   2.535   1.420   8.664 -0.6292  0.5924 -0.2285
32146SOL    HW199331   2.568   1.385   8.581 -2.3411  0.3506 -0.8327
32146SOL    HW299332   2.568   1.510   8.666  1.6289 -0.1621  0.1163
32147SOL     OW99333   1.306   6.813   8.606  0.0189  0.0180 -0.1377
32147SOL    HW199334   1.328   6.864   8.684  1.7529 -2.3325  1.0708
32147SOL    HW299335   1.225   6.768   8.629 -0.2771  0.4768 -0.2853
32148SOL     OW99336   0.059   3.292   8.312  0.3384  0.4519 -0.8045
32148SOL    HW199337   0.032   3.324   8.398 -0.7002  1.8845 -1.6308
32148SOL    HW299338   0.012   3.209   8.301 -0.1353  0.6522 -0.3202
32149SOL     OW99339   3.863   6.604   0.684  0.1124  1.1060 -0.1931
32149SOL    HW199340   3.902   6.538   0.627 -0.0472  0.4237  0.4581
32149SOL    HW299341   3.777   6.621   0.645  0.3633  1.3196 -0.6578
32150SOL     OW99342   1.006   6.346   1.786  0.1449  0.1063 -0.1155
32150SOL    HW199343   0.935   6.383   1.733  1.3334  0.2218 -1.7287
32150SOL    HW299344   1.041   6.421   1.834 -0.6436  0.1007  0.4746
32151SOL     OW99345   0.715   1.651   4.566  0.3549 -0.4722 -0.3950
32151SOL    HW199346   0.695   1.558   4.571  2.0474 -0.8799 -0.4714
32151SOL    HW299347   0.714   1.682   4.656  2.5597 -1.2565 -0.0290
32152SOL     OW99348   3.541   0.095   6.187  0.1645 -0.3677 -0.1221
32152SOL    HW199349   3.613   0.101   6.250  1.2177  0.2250 -1.3474
32152SOL    HW299350   3.486   0.024   6.220  0.7282 -0.1259  1.4157
32153SOL     OW99351   6.542   6.621   1.982 -0.0330 -0.5574  0.0882
32153SOL    HW199352   6.531   6.575   2.065  0.6933  0.1630  0.5979
32153SOL    HW299353   6.636   6.619   1.966  0.0346  0.8955  0.2196
32154SOL     OW99354   3.239   2.765   2.192 -0.6822  0.6471  0.3372
32154SOL    HW199355   3.329   2.794   2.181 -0.7092  0.4036 -0.5660
32154SOL    HW299356   3.220   2.782   2.285  0.2919  0.6758  0.5438
32155SOL     OW99357   7.788   2.341   8.461 -0.2462  0.2350  0.7710
32155SOL    HW199358   7.881   2.362   8.449  0.0301 -0.4779  1.5141
32155SOL    HW299359   7.744   2.380   8.385  0.6853  0.4082  0.3056
32156SOL     OW99360   3.228   5.264   6.144 -0.1502 -0.0135  0.5337
32156SOL    HW199361   3.286   5.266   6.220  1.7020 -1.9353 -0.7001
32156SOL    HW299362   3.285   5.284   6.070 -0.7484 -2.8377 -0.8393
32157SOL     OW99363   4.240   2.236   0.861 -0.2057 -0.0723  0.1122
32157SOL    HW199364   4.333   2.256   0.847 -0.0680 -0.5146  0.3762
32157SOL    HW299365   4.194   2.305   0.813  0.2504  0.7366  0.8098
32158SOL     OW99366   2.861  10.281   3.078 -0.1364  0.0766 -0.0217
32158SOL    HW199367   2.789  10.237   3.033  0.9128 -1.6166 -0.1166
32158SOL    HW299368   2.817  10.342   3.138 -1.7860 -2.7488  1.8658
32159SOL     OW99369   2.707   1.735   5.939  0.2849  0.1457  0.3271
32159SOL    HW199370   2.649   1.759   5.867 -0.6461  2.2504  1.6620
32159SOL    HW299371   2.742   1.650   5.915 -0.1426  0.6794 -2.4814
32160SOL     OW99372   8.387   0.801  10.128  0.3204  0.0410  0.1148
32160SOL    HW199373   8.483   0.807  10.124  0.3877  0.3479  1.7109
32160SOL    HW299374   8.360   0.806  10.036  1.7694  1.0459 -0.3049
32161SOL     OW99375   6.988   2.096   2.727 -0.1980  0.0871  0.5434
32161SOL    HW199376   7.010   2.184   2.697 -0.3575 -0.2513 -0.5919
32161SOL    HW299377   7.044   2.083   2.804 -1.1655  1.6959  1.5860
32162SOL     OW99378   9.901   8.956   6.795 -0.4652 -0.2442 -0.5558
32162SOL    HW199379   9.967   8.954   6.725 -0.3038 -2.2093 -0.3783
32162SOL    HW299380   9.822   8.920   6.755 -0.3998 -1.2960  0.2175
32163SOL     OW99381   3.970   6.623   8.194 -0.3537 -0.1980  0.3539
32163SOL    HW199382   4.027   6.694   8.163 -2.7590  2.1260  0.8694
32163SOL    HW299383   3.972   6.631   8.289 -1.3963 -0.1405  0.3808
32164SOL     OW99384   7.899   7.321   3.471 -0.2165  0.6594  0.0818
32164SOL    HW199385   7.907   7.238   3.518 -1.2675 -0.8583 -2.2457
32164SOL    HW299386   7.989   7.351   3.459  0.1394  0.2576  1.5803
32165SOL     OW99387   0.409   0.291   1.198  0.1049 -0.5321 -0.3958
32165SOL    HW199388   0.323   0.334   1.197  0.8630  1.3106  2.4839
32165SOL    HW299389   0.455   0.330   1.124 -0.6745  0.4974 -0.3799
32166SOL     OW99390   6.043   3.387   8.323  0.0676  0.2795  0.0652
32166SOL    HW199391   6.052   3.401   8.228  0.0705  0.0993  0.0393
32166SOL    HW299392   6.099   3.312   8.341  2.0133  1.7884  0.6054
32167SOL     OW99393   4.786   2.687   3.262  0.3901  0.0683 -0.8934
32167SOL    HW199394   4.865   2.635   3.275  0.5379  0.5917  0.5325
32167SOL    HW299395   4.720   2.644   3.316  0.8063  1.8975  1.2581
32168SOL     OW99396   5.274  10.744   9.631  0.3272  0.3372 -0.2545
32168SOL    HW199397   5.348  10.687   9.611 -1.2868 -1.6640 -0.8760
32168SOL    HW299398   5.285  10.765   9.724  1.8555  0.4149 -0.4270
32169SOL     OW99399   3.532   0.605   3.475  0.3011 -0.1015  0.3802
32169SOL    HW199400   3.607   0.662   3.493 -0.2601  0.6923  0.2632
32169SOL    HW299401   3.527   0.601   3.379 -0.0976  0.2569  0.3813
32170SOL     OW99402   2.795   5.386   9.863  0.1847 -0.4394  0.5484
32170SOL    HW199403   2.748   5.404   9.781  1.6610 -2.2034 -0.7751
32170SOL    HW299404   2.738   5.324   9.909 -0.7671  0.7469  1.0033
32171SOL     OW99405   7.197  10.325   9.647 -0.5569  0.9224 -0.4064
32171SOL    HW199406   7.266  10.259   9.637  0.0754  1.2423  1.3674
32171SOL    HW299407   7.147  10.296   9.723 -1.7414  1.2667 -1.0352
32172SOL     OW99408   9.892   3.823   5.400  0.1792  0.7922 -0.7437
32172SOL    HW199409   9.838   3.895   5.432  0.4350  0.5180  0.3573
32172SOL    HW299410   9.830   3.751   5.385  0.1407  0.7141 -0.2120
32173SOL     OW99411  10.209   2.724   4.979  0.2839 -0.2403 -0.3259
32173SOL    HW199412  10.285   2.666   4.984 -0.4802 -1.2951 -0.4975
32173SOL    HW299413  10.188   2.729   4.886  0.8289  1.0032 -0.4038
32174SOL     OW99414   9.683   6.427  10.386  0.0372 -0.4883 -0.2960
32174SOL    HW199415   9.739   6.359  10.350 -0.2522 -1.2019  0.5440
32174SOL    HW299416   9.663   6.396  10.475  1.5379  1.6553  0.8860
32175SOL     OW99417   2.133   1.887   8.480  0.4909  0.3402  0.4902
32175SOL    HW199418   2.198   1.951   8.448 -0.1333  1.0585  0.6340
32175SOL    HW299419   2.069   1.881   8.409  0.1434  0.4497  0.7962
32176SOL     OW99420   7.140   1.180   9.620  0.1862  0.1705 -0.0208
32176SOL    HW199421   7.077   1.252   9.626 -0.6406 -0.1182 -3.2691
32176SOL    HW299422   7.120   1.124   9.695 -0.8651  1.9708  1.1265
32177SOL     OW99423   3.066   4.805   8.963 -0.1311  0.0717  0.0919
32177SOL    HW199424   3.135   4.848   9.012 -0.3112  2.1842 -1.3739
32177SOL    HW299425   3.098   4.803   8.873 -1.2589 -0.4771 -0.3195
32178SOL     OW99426  10.545   6.749   8.119 -0.2461  0.6079  0.1934
32178SOL    HW199427  10.522   6.821   8.061 -2.1437  1.4169  1.8865
32178SOL    HW299428  10.589   6.686   8.061  0.7717  2.7254 -1.4686
32179SOL     OW99429   7.359   1.734   5.873 -0.3153  0.9803  0.3806
32179SOL    HW199430   7.296   1.797   5.908 -0.1122  0.7216  1.2243
32179SOL    HW299431   7.399   1.695   5.950 -0.9063 -0.6747 -0.1207
32180SOL     OW99432   8.542   2.291  10.703  0.4584  0.0008  0.5117
32180SOL    HW199433   8.487   2.271  10.627  0.8322 -0.9716  0.4880
32180SOL    HW299434   8.602   2.217  10.710  2.5074  1.4743 -0.1135
32181SOL     OW99435   9.736   8.636   7.542 -0.8108  0.3700 -0.4387
32181SOL    HW199436   9.665   8.659   7.482 -1.1805  3.9471  1.1192
32181SOL    HW299437   9.812   8.683   7.508 -0.1727 -0.2404  0.1053
32182SOL     OW99438   3.671   6.922   0.805 -0.2434  0.0495 -1.0237
32182SOL    HW199439   3.723   6.939   0.726  1.9055 -0.1498  0.2805
32182SOL    HW299440   3.685   6.998   0.860  1.4142 -1.4400  0.7307
32183SOL     OW99441  10.443   1.465   3.921  0.0070 -0.1540 -0.4219
32183SOL    HW199442  10.380   1.513   3.866  0.0098  1.1251  0.6483
32183SOL    HW299443  10.527   1.505   3.901  0.0676  0.0289  0.1908
32184SOL     OW99444   2.531   7.573   5.908 -0.3321  0.1857 -0.4362
32184SOL    HW199445   2.451   7.520   5.906  0.9172 -1.7473 -1.2503
32184SOL    HW299446   2.597   7.520   5.863  1.0105  2.4405 -1.2805
32185SOL     OW99447   7.686   6.510   9.225 -0.0343 -0.0866 -0.1893
32185SOL    HW199448   7.670   6.552   9.310  2.3347 -0.4595  0.5034
32185SOL    HW299449   7.658   6.419   9.238  0.8110 -0.2739  0.3830
32186SOL     OW99450   7.721   3.842   8.808  0.0824  0.2326 -0.9755
32186SOL    HW199451   7.777   3.912   8.841 -0.8099  0.8618 -0.7651
32186SOL    HW299452   7.761   3.816   8.725  2.1931 -1.1676  0.4017
32187SOL     OW99453   3.914   3.158   4.403  0.0083  0.2562 -0.2505
32187SOL    HW199454   4.007   3.157   4.425 -0.2361 -0.0642  0.8535
32187SOL    HW299455   3.869   3.166   4.487 -0.9688  0.4401 -0.7668
32188SOL     OW99456   8.621   7.583   3.437  0.0831 -0.1340  0.4559
32188SOL    HW199457   8.587   7.588   3.348 -0.2263  1.6134  0.6411
32188SOL    HW299458   8.679   7.659   3.445 -1.1903  0.7393  2.2365
32189SOL     OW99459   2.821   9.172   3.778 -0.1110 -0.2613 -0.1777
32189SOL    HW199460   2.871   9.226   3.839  1.2289 -1.0097 -0.5612
32189SOL    HW299461   2.761   9.122   3.834 -0.6483  0.8575  0.2645
32190SOL     OW99462   6.302   2.089   3.787  0.2921 -0.4171 -0.5251
32190SOL    HW199463   6.237   2.156   3.768 -0.7877 -1.1143  0.5635
32190SOL    HW299464   6.259   2.007   3.766  0.4903 -0.9397  1.0004
32191SOL     OW99465   6.185   5.876   8.792 -0.2939 -0.4409  0.1954
32191SOL    HW199466   6.261   5.933   8.784 -0.1383 -0.4874  1.1448
32191SOL    HW299467   6.220   5.788   8.783 -0.7988 -0.4201 -3.2285
32192SOL     OW99468   9.966   2.357   5.888 -0.2897 -0.0788  0.7340
32192SOL    HW199469  10.016   2.373   5.968  2.1702  0.4606 -0.8325
32192SOL    HW299470  10.017   2.293   5.840 -0.8767  0.7917 -1.1389
32193SOL     OW99471   2.379   8.633   1.790  0.5746 -0.6336  0.2417
32193SOL    HW199472   2.337   8.615   1.874  0.0839  0.0685  0.1559
32193SOL    HW299473   2.392   8.547   1.750 -0.3827 -0.8843  0.4577
32194SOL     OW99474   1.147   6.010   5.132  0.0067 -0.4657 -0.1320
32194SOL    HW199475   1.227   6.021   5.182 -0.3355 -1.1212  0.5820
32194SOL    HW299476   1.167   5.939   5.071  0.6548  0.8025 -1.4475
32195SOL     OW99477   0.737   2.755   1.936 -0.6143 -0.2157 -0.2684
32195SOL    HW199478   0.649   2.783   1.964 -0.5742  0.1142 -0.4725
32195SOL    HW299479   0.732   2.659   1.936 -0.1387 -0.3082  2.4415
32196SOL     OW99480   0.064   3.126   7.114 -0.3663  0.4833  0.4653
32196SOL    HW199481   0.052   3.105   7.206 -0.9953 -0.1640  0.2446
32196SOL    HW299482   0.158   3.119   7.100 -0.0991  1.8717  1.3466
32197SOL     OW99483   8.075   0.145   3.310  0.4253 -0.7639 -0.1452
32197SOL    HW199484   7.991   0.145   3.357  1.1172 -0.0419  1.1385
32197SOL    HW299485   8.052   0.120   3.221 -1.1757 -0.5001  0.1614
32198SOL     OW99486   1.937   0.625   6.941 -0.1623 -0.1415 -0.2300
32198SOL    HW199487   1.953   0.580   6.859 -0.1582 -1.6046  0.5429
32198SOL    HW299488   1.982   0.709   6.931  0.5420 -0.6258 -1.4025
32199SOL     OW99489   7.551  10.537   5.823  0.3581 -0.2218 -0.3157
32199SOL    HW199490   7.483  10.586   5.870 -0.8432 -1.4393 -0.7472
32199SOL    HW299491   7.507  10.503   5.745  1.1843 -1.8414 -0.1196
32200SOL     OW99492   8.758   8.359   0.752  0.2091 -0.4960  0.2216
32200SOL    HW199493   8.746   8.435   0.695 -1.7121  0.1501  1.4008
32200SOL    HW299494   8.679   8.356   0.805  0.8246 -2.5703  1.1231
32201SOL     OW99495   6.717   0.082   2.366 -0.3260  0.4259  0.0842
32201SOL    HW199496   6.765   0.005   2.394  1.3599  1.3315 -0.2059
32201SOL    HW299497   6.689   0.062   2.276 -4.0207 -1.6733  1.4631
32202SOL     OW99498   7.377   0.088   2.966 -0.5330 -1.0222  0.2025
32202SOL    HW199499   7.421   0.003   2.964 -0.1908 -1.1641  4.6100
32202SOL    HW299500   7.288   0.068   2.996 -0.0038  0.1811  2.8131
32203SOL     OW99501   1.630   2.764   5.997  0.2085 -0.3681  0.3114
32203SOL    HW199502   1.570   2.833   6.025  1.3542  0.2774  1.3016
32203SOL    HW299503   1.686   2.750   6.073  0.6458 -1.6825 -0.2359
32204SOL     OW99504   7.306   1.209   7.711 -0.1812 -0.4242 -0.7494
32204SOL    HW199505   7.211   1.196   7.715 -0.4204  1.0994 -0.8052
32204SOL    HW299506   7.324   1.225   7.618  0.3185 -1.7624 -0.9145
32205SOL     OW99507   3.334   9.285   8.395 -0.2663 -0.3372  0.3429
32205SOL    HW199508   3.273   9.238   8.452 -0.1875 -0.0971  0.6212
32205SOL    HW299509   3.304   9.263   8.306 -0.9398  0.0161  0.4786
32206SOL     OW99510  10.131   5.446   0.736  0.0708 -0.6196  0.1734
32206SOL    HW199511  10.120   5.459   0.642  0.3219 -1.0065  0.0894
32206SOL    HW299512  10.053   5.486   0.775  0.0715 -0.2658 -0.1842
32207SOL     OW99513   6.865   0.922  10.249 -0.0823 -0.2281  0.0102
32207SOL    HW199514   6.809   0.847  10.269 -1.6104  1.0088  0.5748
32207SOL    HW299515   6.820   0.997  10.286  1.3696  1.0103 -0.5853
32208SOL     OW99516  10.387   6.817   3.965  0.2789  0.4290  0.5492
32208SOL    HW199517  10.420   6.845   4.050  1.1414  1.1206  0.0046
32208SOL    HW299518  10.292   6.819   3.974  0.3181 -1.5803  2.1501
32209SOL     OW99519   7.440  10.657   7.351  0.0579 -0.2727 -0.6831
32209SOL    HW199520   7.415  10.748   7.341  0.3459 -0.2466 -1.2371
32209SOL    HW299521   7.535  10.656   7.339 -0.0768 -0.7913 -1.9119
32210SOL     OW99522   5.538   8.863   9.519 -0.2749 -0.2893 -0.1302
32210SOL    HW199523   5.615   8.874   9.574  0.1528  0.6119 -0.8914
32210SOL    HW299524   5.467   8.905   9.569  0.0688  0.3515 -0.1695
32211SOL     OW99525   2.291   6.257   4.861 -0.0618 -0.3329  0.6764
32211SOL    HW199526   2.262   6.227   4.948 -0.0678  0.1580  0.8454
32211SOL    HW299527   2.243   6.339   4.847 -0.4201 -0.6490  0.0019
32212SOL     OW99528   7.175   0.594   0.210  0.5502  0.2179  0.1508
32212SOL    HW199529   7.131   0.676   0.188  0.2841  0.2959  0.9151
32212SOL    HW299530   7.229   0.574   0.134 -1.5835 -0.4242 -1.2669
32213SOL     OW99531  10.737   8.380   4.645  0.6373  0.3264  0.3255
32213SOL    HW199532  10.769   8.443   4.581 -0.5204  0.2118 -0.3852
32213SOL    HW299533  10.807   8.315   4.652  0.7358  0.2956 -0.8859
32214SOL     OW99534   8.071  10.035   0.485  0.1080  0.3732 -0.0530
32214SOL    HW199535   8.135  10.020   0.555  2.1237  1.7799 -1.4877
32214SOL    HW299536   8.122  10.076   0.415 -2.2243  0.7556 -1.6122
32215SOL     OW99537   7.381   4.765   2.357 -0.1705 -0.6235  0.6594
32215SOL    HW199538   7.298   4.799   2.324  0.7925  0.1338 -1.1194
32215SOL    HW299539   7.426   4.731   2.280  2.3498  1.4862  1.0501
32216SOL     OW99540   5.335   4.644   1.529  0.2889 -0.3207  0.0999
32216SOL    HW199541   5.302   4.639   1.439 -0.4036  1.5415  0.2218
32216SOL    HW299542   5.276   4.704   1.574  1.3477 -0.2591  1.4838
32217SOL     OW99543   4.956   3.000   6.384  0.4704  0.0374 -0.2495
32217SOL    HW199544   4.920   3.075   6.431  0.3602  0.7254 -1.3966
32217SOL    HW299545   4.951   3.025   6.292 -1.0908 -2.0215 -0.8034
32218SOL     OW99546   9.594   4.147   9.498  0.1899 -0.7492  0.4305
32218SOL    HW199547   9.649   4.206   9.551  1.3640 -2.0928  0.7694
32218SOL    HW299548   9.549   4.093   9.563 -1.6466  0.3837  0.1544
32219SOL     OW99549   4.311   1.110   7.149  0.0482 -0.1592  0.6933
32219SOL    HW199550   4.375   1.161   7.101 -0.9589 -0.8985 -1.5725
32219SOL    HW299551   4.358   1.030   7.174  0.4502  0.0119  0.4908
32220SOL     OW99552   8.970   9.131   9.712  0.1659  0.0408  0.4522
32220SOL    HW199553   8.913   9.097   9.642  1.4543 -1.0297 -0.1177
32220SOL    HW299554   9.057   9.097   9.691  0.6684  0.0295  2.3550
32221SOL     OW99555   9.932   9.117   3.861 -0.3197 -0.3726 -0.4463
32221SOL    HW199556   9.970   9.070   3.934  0.2351 -1.3210 -1.3158
32221SOL    HW299557   9.841   9.086   3.856 -0.1030 -0.9779 -0.6963
32222SOL     OW99558   2.661   7.106   8.403 -0.4286 -0.4310 -0.2885
32222SOL    HW199559   2.600   7.048   8.447  1.1146  0.0695  2.7759
32222SOL    HW299560   2.608   7.180   8.374 -1.6029 -1.0715  0.2049
32223SOL     OW99561   0.098   0.213   0.151  0.2785 -0.0545 -0.2358
32223SOL    HW199562   0.102   0.264   0.070  0.7329 -1.4432 -1.1118
32223SOL    HW299563   0.105   0.279   0.220  0.1554  1.1346 -1.3111
32224SOL     OW99564   1.068   5.712  10.484 -0.2527 -0.1301  0.3252
32224SOL    HW199565   1.161   5.709  10.460 -0.8816 -1.8432 -2.3352
32224SOL    HW299566   1.036   5.794  10.445 -0.1859 -0.3225 -0.1350
32225SOL     OW99567   9.933   5.022   6.246  0.2265 -0.0049 -0.3142
32225SOL    HW199568  10.012   5.053   6.290  1.2801 -3.9627  1.0261
32225SOL    HW299569   9.867   5.017   6.315 -0.0314 -0.2823 -0.5782
32226SOL     OW99570   2.803   5.067   9.144 -0.3703 -0.4236 -0.6376
32226SOL    HW199571   2.802   5.002   9.214  0.9268  1.1952  0.9625
32226SOL    HW299572   2.896   5.081   9.125 -0.6721 -1.1308 -3.0580
32227SOL     OW99573   0.348   2.728   3.928 -0.1215 -0.0252 -0.2919
32227SOL    HW199574   0.380   2.640   3.950  0.5313  0.2535 -0.0843
32227SOL    HW299575   0.355   2.777   4.010 -3.1994 -0.5066  0.3812
32228SOL     OW99576   9.495   1.715   3.759  0.1189 -0.2298  0.5166
32228SOL    HW199577   9.539   1.704   3.843 -1.5380  0.6233  1.5342
32228SOL    HW299578   9.402   1.706   3.779 -0.2767 -0.8931 -1.3897
32229SOL     OW99579   5.589   7.628   6.804 -0.2158 -0.4576  0.4057
32229SOL    HW199580   5.627   7.560   6.748 -1.6382 -0.8546 -0.1182
32229SOL    HW299581   5.557   7.580   6.881 -1.4166 -0.4382 -0.0623
32230SOL     OW99582   2.415   7.967   1.279  0.2327  0.2236 -0.1033
32230SOL    HW199583   2.345   7.998   1.337  0.0493  1.6915 -1.0518
32230SOL    HW299584   2.421   7.873   1.297 -0.2830  0.4985  1.7672
32231SOL     OW99585   1.071   5.246   7.483 -0.3433  0.5697 -0.2576
32231SOL    HW199586   1.125   5.284   7.414 -2.6745  2.0408 -1.4037
32231SOL    HW299587   1.059   5.317   7.546  0.9038 -0.4505  1.2075
32232SOL     OW99588   5.169   3.985   0.313  0.4302 -0.0635  0.8740
32232SOL    HW199589   5.126   3.911   0.356 -0.0121 -0.9959 -1.0727
32232SOL    HW299590   5.097   4.037   0.278  0.7732  0.8708  1.5080
32233SOL     OW99591   5.419   4.089   0.231 -0.4616 -0.1722 -0.0264
32233SOL    HW199592   5.433   4.184   0.231  1.5431 -0.3479  2.4410
32233SOL    HW299593   5.323   4.079   0.234 -0.7566  1.6965 -1.4365
32234SOL     OW99594   8.057   9.410   1.632 -0.6792 -0.2283 -0.0425
32234SOL    HW199595   8.019   9.386   1.717  1.1427 -4.0025 -0.0961
32234SOL    HW299596   8.022   9.345   1.571  0.2273  0.7072 -1.6192
32235SOL     OW99597   2.499   3.903   5.106  0.1235  0.5656 -1.0108
32235SOL    HW199598   2.411   3.937   5.124  0.6221  1.1664  0.3646
32235SOL    HW299599   2.551   3.981   5.088  1.0773  0.5112  1.2930
32236SOL     OW99600   7.801   9.885   6.883 -0.6154 -0.0707  0.4132
32236SOL    HW199601   7.887   9.872   6.923 -0.5959 -0.6701  0.1925
32236SOL    HW299602   7.789   9.980   6.880 -0.0178  0.0100  0.5598
32237SOL     OW99603   8.105   9.664  10.458 -0.0889  0.5401  0.1940
32237SOL    HW199604   8.073   9.639  10.545 -0.5467  2.5829  0.6497
32237SOL    HW299605   8.040   9.726  10.425  1.0902  1.2922 -0.7906
32238SOL     OW99606  10.287   2.264   7.848 -0.3523  0.1279  0.5410
32238SOL    HW199607  10.343   2.213   7.790  0.1587  3.0125 -1.6953
32238SOL    HW299608  10.339   2.275   7.928  1.1773  0.4897 -0.4734
32239SOL     OW99609   7.397   6.260   0.953  0.1436 -0.0965  0.0075
32239SOL    HW199610   7.412   6.240   0.861 -0.9929  1.2873 -0.5112
32239SOL    HW299611   7.454   6.335   0.971  3.1131 -2.4841  1.4807
32240SOL     OW99612   9.362  10.159   7.511  0.0486 -0.0395 -0.7117
32240SOL    HW199613   9.444  10.130   7.470 -0.5622 -1.7425 -0.8011
32240SOL    HW299614   9.374  10.142   7.604 -0.1862 -0.2348 -0.7173
32241SOL     OW99615  10.592   1.141   7.661 -0.3197 -0.0857 -0.1409
32241SOL    HW199616  10.638   1.081   7.602  0.4329 -0.0718  0.4229
32241SOL    HW299617  10.530   1.188   7.604  0.6766  0.2240 -0.9956
32242SOL     OW99618   8.327   5.805   0.223  0.2432 -0.1557 -0.2611
32242SOL    HW199619   8.379   5.769   0.151 -0.1554  1.4354 -1.3916
32242SOL    HW299620   8.337   5.900   0.215 -0.4050  0.0807  1.3493
32243SOL     OW99621   2.498  10.608   9.597  0.5463 -0.6604 -0.0552
32243SOL    HW199622   2.482  10.514   9.589  0.2940 -0.7958  1.6403
32243SOL    HW299623   2.480  10.627   9.689 -0.3397  1.2430 -0.5799
32244SOL     OW99624   7.706   1.518   4.250 -0.0652 -0.1402  0.2558
32244SOL    HW199625   7.687   1.481   4.336 -0.6405 -0.4397  0.0084
32244SOL    HW299626   7.662   1.459   4.189  0.1069  0.2256 -0.2267
32245SOL     OW99627   2.794   4.514   1.551  0.4497  0.6228  0.0841
32245SOL    HW199628   2.716   4.497   1.498  1.0770  0.9762 -0.9778
32245SOL    HW299629   2.773   4.477   1.637 -1.3098  1.6694  0.1481
32246SOL     OW99630   2.391   3.316   0.364 -0.2366 -0.0436 -0.4045
32246SOL    HW199631   2.441   3.320   0.446 -1.7191 -0.5388  0.5583
32246SOL    HW299632   2.306   3.280   0.389 -0.3504 -1.2797 -2.3611
32247SOL     OW99633   4.059   6.726  10.156  0.1439 -0.4174 -0.4612
32247SOL    HW199634   4.053   6.772  10.072  0.7098 -0.6114 -0.6099
32247SOL    HW299635   4.082   6.637  10.133  0.0329 -0.5390 -0.1097
32248SOL     OW99636   9.009   1.796   8.815  0.0548  0.1556 -0.1327
32248SOL    HW199637   9.045   1.748   8.740  0.9989  0.0617  0.3603
32248SOL    HW299638   9.054   1.881   8.811  1.3415 -0.4130  1.2268
32249SOL     OW99639   7.427   2.754  10.362  0.0178 -0.1232 -0.0838
32249SOL    HW199640   7.454   2.845  10.375  2.6321 -0.5494 -1.6981
32249SOL    HW299641   7.346   2.745  10.412 -0.6351  3.2108 -0.3432
32250SOL     OW99642  10.340  10.633   1.814  0.0816  0.1758 -0.1270
32250SOL    HW199643  10.409  10.678   1.861  0.5069 -0.6876  0.1001
32250SOL    HW299644  10.259  10.675   1.843  0.4994  1.1286 -0.3246
32251SOL     OW99645   3.703  10.171   6.786  0.2359 -0.2276 -0.5479
32251SOL    HW199646   3.628  10.111   6.779  1.9480 -2.5370 -0.3559
32251SOL    HW299647   3.736  10.177   6.697 -1.3492  2.5498 -1.0549
32252SOL     OW99648  10.413   1.093   5.470 -0.2634  0.6163  0.3779
32252SOL    HW199649  10.341   1.042   5.434 -0.0093 -1.2935  2.3650
32252SOL    HW299650  10.476   1.028   5.499  2.3262  2.2097 -1.2348
32253SOL     OW99651   1.362   6.016   4.458 -0.4088  0.0280 -0.1592
32253SOL    HW199652   1.274   6.053   4.462 -0.3443  0.1276  0.3593
32253SOL    HW299653   1.404   6.064   4.386 -1.0443 -0.6265 -0.9917
32254SOL     OW99654   9.227  10.380   7.356  0.3744  0.1539  0.1873
32254SOL    HW199655   9.253  10.287   7.360  0.3413  0.1204 -0.3218
32254SOL    HW299656   9.247  10.414   7.443 -1.6770 -0.8637  1.1254
32255SOL     OW99657   9.287   8.691  10.299 -0.0107  0.6690 -0.6932
32255SOL    HW199658   9.379   8.668  10.311 -0.6950 -1.1484  2.2997
32255SOL    HW299659   9.288   8.780  10.265  2.8423  0.9981  0.0120
32256SOL     OW99660   4.050   8.194  10.287 -0.1311  0.8160 -0.4073
32256SOL    HW199661   4.046   8.099  10.272 -0.8032  0.9118 -0.8765
32256SOL    HW299662   4.067   8.202  10.381 -2.0499  0.2166  0.0435
32257SOL     OW99663   0.137   3.917   5.259 -0.0526 -0.0475  0.2598
32257SOL    HW199664   0.133   3.869   5.176 -0.8727 -0.6313  0.6088
32257SOL    HW299665   0.045   3.936   5.279  0.2013  0.7872  0.6359
32258SOL     OW99666   6.302   8.555   8.802 -0.6122 -0.4742  0.2408
32258SOL    HW199667   6.266   8.628   8.751  1.1700  0.8185  0.7161
32258SOL    HW299668   6.387   8.537   8.762 -0.6367 -1.7138  0.6985
32259SOL     OW99669   5.216   6.522   0.638 -0.2242  0.6426 -0.6596
32259SOL    HW199670   5.290   6.582   0.623  0.2885 -0.1882 -1.6532
32259SOL    HW299671   5.185   6.501   0.550  0.3226 -1.3959 -0.4264
32260SOL     OW99672   2.051   3.033   8.737 -0.1312 -0.0358  0.0781
32260SOL    HW199673   2.077   3.071   8.821 -0.8699  1.8338 -0.4794
32260SOL    HW299674   2.112   3.071   8.674 -0.3932 -0.3972 -0.4000
32261SOL     OW99675   2.952   5.593   9.257 -0.4433 -0.1467 -0.0117
32261SOL    HW199676   2.907   5.594   9.341 -3.8992  0.3401 -1.7045
32261SOL    HW299677   3.007   5.672   9.259 -0.3524 -0.2041  1.7839
32262SOL     OW99678   1.133   0.753   4.130 -0.0040 -0.2754 -0.0673
32262SOL    HW199679   1.227   0.770   4.134  0.0444 -0.4439 -0.4027
32262SOL    HW299680   1.093   0.838   4.112  0.0947 -0.2242 -0.0410
32263SOL     OW99681   5.154   6.294   9.290 -0.5612 -0.5930 -0.2513
32263SOL    HW199682   5.165   6.201   9.269  1.6267 -0.6979  1.0356
32263SOL    HW299683   5.243   6.325   9.305 -1.3991  1.2493  1.2338
32264SOL     OW99684   6.924   8.236   9.311 -0.8376 -0.3250  0.3486
32264SOL    HW199685   6.872   8.305   9.270 -1.2482 -0.5750  0.4497
32264SOL    HW299686   7.013   8.271   9.311 -0.6598 -0.6942 -1.5833
32265SOL     OW99687   3.787   4.314   3.227  0.2613 -0.0452 -0.5322
32265SOL    HW199688   3.842   4.271   3.292  0.6466 -0.9058 -1.3894
32265SOL    HW299689   3.704   4.268   3.231 -0.1897  0.8136  0.2956
32266SOL     OW99690   7.946   7.571   0.541 -0.6897  0.5071  0.0682
32266SOL    HW199691   8.009   7.511   0.579 -0.7949  0.7951  0.7125
32266SOL    HW299692   7.989   7.604   0.462 -1.0155 -1.1188 -0.8316
32267SOL     OW99693   4.765  10.244   8.486  0.1558 -0.4481  0.3039
32267SOL    HW199694   4.755  10.179   8.416  2.5046  0.8057 -1.3328
32267SOL    HW299695   4.726  10.324   8.452 -0.3078 -0.2753  1.2041
32268SOL     OW99696   4.575   5.222   0.818  0.0711  0.0335 -0.3277
32268SOL    HW199697   4.656   5.255   0.857 -0.7573  1.1742  0.4852
32268SOL    HW299698   4.604   5.153   0.759  1.6218  0.2791  0.0918
32269SOL     OW99699   5.035   5.403   1.123  1.3449 -0.4253  0.4142
32269SOL    HW199700   5.129   5.405   1.106  0.8711 -1.6914 -3.2471
32269SOL    HW299701   5.018   5.314   1.154  1.1097 -1.1954 -1.7187
32270SOL     OW99702   1.806   6.762   2.568 -0.0924 -0.7335 -0.0221
32270SOL    HW199703   1.753   6.812   2.631  0.3989 -0.8322  0.4791
32270SOL    HW299704   1.774   6.790   2.482 -0.6472 -0.4573  0.2704
32271SOL     OW99705   3.682   0.994   3.902  0.5631 -0.4713  0.4041
32271SOL    HW199706   3.768   0.972   3.866  0.7926  0.7047  0.1836
32271SOL    HW299707   3.620   0.945   3.847  0.9715  0.4084 -0.9050
32272SOL     OW99708   5.468   7.703   4.867  0.0306  0.3589 -0.3123
32272SOL    HW199709   5.378   7.672   4.859 -0.1056  0.7156 -0.1760
32272SOL    HW299710   5.463   7.775   4.930  0.5535 -0.2187  0.4126
32273SOL     OW99711   7.718   7.861   7.440 -0.6998 -0.8065  0.6619
32273SOL    HW199712   7.717   7.773   7.401 -0.5157 -0.7279  0.4835
32273SOL    HW299713   7.804   7.897   7.418 -0.6799 -0.6755  0.9480
32274SOL     OW99714   2.595   5.239   4.300  0.0472 -0.2138 -0.0117
32274SOL    HW199715   2.559   5.220   4.214  0.5968 -0.6298 -0.1568
32274SOL    HW299716   2.546   5.182   4.360 -0.0683 -0.2111 -0.1038
32275SOL     OW99717   6.612   4.375   8.124 -0.0755  0.4198  0.1148
32275SOL    HW199718   6.707   4.377   8.129 -0.0588  0.6084 -0.2998
32275SOL    HW299719   6.585   4.345   8.211  0.4544 -2.1618 -0.5350
32276SOL     OW99720   2.104   1.297   5.152  0.6504  0.3238 -0.0079
32276SOL    HW199721   2.102   1.214   5.199  1.7812  0.4931  0.3757
32276SOL    HW299722   2.090   1.274   5.060 -1.4529 -0.0271  0.3481
32277SOL     OW99723   4.415   9.129   3.652 -0.4790 -0.2681  0.5804
32277SOL    HW199724   4.360   9.207   3.662 -0.8044 -0.4310  0.0783
32277SOL    HW299725   4.470   9.128   3.731 -1.6831 -0.5009  1.4469
32278SOL     OW99726   2.856   9.722  10.713  0.0095  0.3383 -0.4414
32278SOL    HW199727   2.813   9.807  10.714 -0.0402  0.3752  2.7009
32278SOL    HW299728   2.941   9.738  10.671 -0.7516  1.4571 -1.6260
32279SOL     OW99729   0.693   8.607   8.440  0.1670  0.1575  0.3279
32279SOL    HW199730   0.762   8.674   8.435  0.3325 -0.0572 -0.4081
32279SOL    HW299731   0.738   8.525   8.421  0.0246 -0.2248  1.5630
32280SOL     OW99732   1.733  10.127   7.356  0.0443 -0.1494  0.3724
32280SOL    HW199733   1.784  10.067   7.302  1.6330 -0.7071  2.3496
32280SOL    HW299734   1.642  10.110   7.332  0.6404 -0.9004 -1.5120
32281SOL     OW99735   1.162  10.304   5.200 -0.1029 -0.1424 -0.0756
32281SOL    HW199736   1.086  10.338   5.153  0.1417 -0.7534 -0.9326
32281SOL    HW299737   1.132  10.223   5.240 -0.2662  0.2959  0.7354
32282SOL     OW99738   0.138   6.384   5.977 -0.0880 -0.1913  0.5242
32282SOL    HW199739   0.102   6.419   5.895  2.4614  0.5568 -0.3569
32282SOL    HW299740   0.157   6.462   6.030  2.2994 -0.3583  0.0082
32283SOL     OW99741   8.034   5.621   7.461  0.6655  0.3054  0.3027
32283SOL    HW199742   7.990   5.666   7.389  0.3241 -0.3971  0.0626
32283SOL    HW299743   7.966   5.565   7.500  1.2896 -0.6795  0.0202
32284SOL     OW99744  10.507   8.784   2.481 -0.9356 -0.0934  0.3100
32284SOL    HW199745  10.517   8.689   2.481  0.2606  0.0085  0.1502
32284SOL    HW299746  10.430   8.801   2.535 -1.5273 -1.1792 -0.1772
32285SOL     OW99747   6.533   7.919   4.699 -0.5233  0.0375 -0.4939
32285SOL    HW199748   6.523   8.014   4.705 -0.7028 -0.0542  1.1134
32285SOL    HW299749   6.576   7.895   4.781 -2.2035 -1.4934 -0.0249
32286SOL     OW99750   8.704   8.167   5.622  0.1748  0.1195 -0.2443
32286SOL    HW199751   8.661   8.222   5.687 -0.4168 -0.6670  0.0428
32286SOL    HW299752   8.795   8.161   5.652  0.0335  0.2139  0.2068
32287SOL     OW99753   1.056   6.499   9.001 -0.4382  0.1218 -0.0172
32287SOL    HW199754   1.124   6.440   8.969 -0.8652 -0.9086  0.8871
32287SOL    HW299755   1.042   6.561   8.930  1.3848  0.3207 -0.2386
32288SOL     OW99756   4.854   4.462   3.917 -0.5902 -0.0033  0.0817
32288SOL    HW199757   4.935   4.513   3.916  0.1203 -1.0942  0.3130
32288SOL    HW299758   4.866   4.396   3.849 -0.0946 -1.9180  1.9416
32289SOL     OW99759  10.685   7.375   4.463  0.2367  0.1486 -0.0193
32289SOL    HW199760  10.770   7.330   4.463  0.5969  0.7844 -1.0388
32289SOL    HW299761  10.676   7.409   4.552  0.4874 -0.9379  0.4404
32290SOL     OW99762  10.279   0.786   0.373  0.3869 -0.6848  0.0686
32290SOL    HW199763  10.259   0.771   0.280  0.7741 -1.2435  0.0715
32290SOL    HW299764  10.360   0.737   0.388  2.0838  1.8989 -0.0593
32291SOL     OW99765   7.218   7.069   3.264 -0.2377  0.2359 -0.0331
32291SOL    HW199766   7.223   7.130   3.190 -2.7210  2.5376  1.5136
32291SOL    HW299767   7.218   6.982   3.224 -0.0349  1.3398 -2.6074
32292SOL     OW99768   9.171   3.938   1.335  0.2215  0.5664 -0.1732
32292SOL    HW199769   9.228   3.866   1.308 -0.5236  0.9825 -3.1442
32292SOL    HW299770   9.172   3.999   1.261 -1.2508  2.3434  1.1803
32293SOL     OW99771   8.147   4.431   6.952  0.1964 -0.0820 -0.0045
32293SOL    HW199772   8.057   4.455   6.927 -0.0661 -0.2753  0.7391
32293SOL    HW299773   8.171   4.495   7.019  1.0129  0.6199 -0.9339
32294SOL     OW99774   1.271   1.011  10.672 -0.4948 -0.0534  0.2546
32294SOL    HW199775   1.276   0.933  10.616  0.0256 -0.2182  0.5228
32294SOL    HW299776   1.271   1.085  10.611 -0.7506 -0.2578  0.0072
32295SOL     OW99777  10.314   4.016   5.310 -0.0667  0.7519  0.0708
32295SOL    HW199778  10.226   3.993   5.279 -0.6197  0.6735  1.5950
32295SOL    HW299779  10.332   4.100   5.267 -0.0919 -0.0963 -1.6834
32296SOL     OW99780   5.512  10.463   4.038  0.3119  0.0046  0.2778
32296SOL    HW199781   5.559  10.532   4.085  0.3682 -0.5143  0.9997
32296SOL    HW299782   5.421  10.492   4.036  0.1203 -0.4755  1.6657
32297SOL     OW99783   9.242   4.264   9.381 -0.0692  0.2651  0.7279
32297SOL    HW199784   9.323   4.275   9.331 -0.4580  1.5534  0.3382
32297SOL    HW299785   9.219   4.172   9.370  0.5473  0.2344 -0.4067
32298SOL     OW99786   6.791   6.217   6.996 -0.1863  0.4718 -0.0094
32298SOL    HW199787   6.714   6.275   6.995  0.6557  1.7027  1.6449
32298SOL    HW299788   6.866   6.277   6.997  0.7537 -0.6823  0.1948
32299SOL     OW99789   1.189   4.988   9.902 -0.3110 -0.2565 -0.0745
32299SOL    HW199790   1.145   4.969   9.985 -0.3821  0.4136  0.0457
32299SOL    HW299791   1.218   4.902   9.871 -1.7333 -0.7261 -0.1853
32300SOL     OW99792   7.433   3.988   6.345  0.1160 -0.2240  0.4263
32300SOL    HW199793   7.349   4.002   6.303  1.5130  1.1488 -2.1557
32300SOL    HW299794   7.427   3.901   6.384 -2.4492 -0.1422  0.3456
32301SOL     OW99795   8.830   1.871   6.815  0.6765  0.3336  0.3402
32301SOL    HW199796   8.862   1.916   6.893 -0.0380  1.3140  0.0830
32301SOL    HW299797   8.906   1.866   6.757  1.0820  0.0423  0.8882
32302SOL     OW99798  10.532   3.329   0.660  0.0777  0.0911 -0.2781
32302SOL    HW199799  10.558   3.357   0.748 -1.2408  0.1509  0.1229
32302SOL    HW299800  10.552   3.236   0.657  1.0567  0.2881 -0.2893
32303SOL     OW99801  10.127   1.305   4.651 -0.0998 -0.8042 -0.4472
32303SOL    HW199802  10.069   1.341   4.718  0.9787  0.8512 -0.3407
32303SOL    HW299803  10.094   1.216   4.635 -1.2756 -0.6982  1.1920
32304SOL     OW99804   7.776   6.362   2.432 -0.2193 -0.2390  0.0816
32304SOL    HW199805   7.814   6.440   2.392 -0.6681  0.3932  0.8290
32304SOL    HW299806   7.682   6.383   2.439 -0.9689 -2.1873 -2.7316
32305SOL     OW99807   6.328   8.453   0.289  0.1892 -0.6500  0.4938
32305SOL    HW199808   6.279   8.494   0.360  3.3690  1.1020  1.8796
32305SOL    HW299809   6.319   8.515   0.216 -0.8375 -1.1021  0.2161
32306SOL     OW99810   7.089   6.404   1.656  0.1566 -0.7572  0.9193
32306SOL    HW199811   7.154   6.363   1.713  1.5112  1.5790  1.1996
32306SOL    HW299812   7.036   6.457   1.715  2.6498  3.0846  0.0994
32307SOL     OW99813   4.233   6.784   6.146 -0.3848  0.2366 -0.1293
32307SOL    HW199814   4.184   6.806   6.226  0.2457  0.3445  0.2367
32307SOL    HW299815   4.324   6.783   6.174 -0.0459  1.4402 -1.1001
32308SOL     OW99816   9.106   4.205   6.392  0.2681  0.0283  0.0576
32308SOL    HW199817   9.177   4.219   6.330 -1.1288  1.3115 -1.3133
32308SOL    HW299818   9.032   4.253   6.356 -1.2545 -1.0639  1.5654
32309SOL     OW99819   8.951   5.343   1.213  0.4994  0.2099 -0.0577
32309SOL    HW199820   9.015   5.285   1.173 -1.3462 -1.0586 -1.3391
32309SOL    HW299821   8.921   5.297   1.291 -0.5322 -0.3176 -0.7481
32310SOL     OW99822   1.553   5.842   4.587 -0.2202 -0.0433  0.4783
32310SOL    HW199823   1.490   5.903   4.550 -0.0558  0.7120  1.4011
32310SOL    HW299824   1.608   5.896   4.644  0.3833 -0.9268  0.7530
32311SOL     OW99825   2.499   8.774  10.159  0.1949 -0.4548 -0.5079
32311SOL    HW199826   2.413   8.732  10.158 -1.8519  3.2079  1.1106
32311SOL    HW299827   2.504   8.819  10.075  0.6954 -0.9357 -0.7357
32312SOL     OW99828   4.167   0.561   1.700 -0.3024 -0.0272 -0.0926
32312SOL    HW199829   4.086   0.520   1.729 -1.1433  0.7321 -1.2978
32312SOL    HW299830   4.169   0.645   1.745  0.3004 -0.4104  0.6358
32313SOL     OW99831   5.492   8.351   3.773 -0.3585  0.5717  0.0475
32313SOL    HW199832   5.485   8.312   3.686  3.3606 -0.0139 -0.1661
32313SOL    HW299833   5.508   8.277   3.831  0.9640  1.2286  0.5643
32314SOL     OW99834   2.652   0.446   3.430  0.0761 -0.1223 -0.1591
32314SOL    HW199835   2.644   0.386   3.355 -2.1288  0.1570 -0.1987
32314SOL    HW299836   2.614   0.398   3.503  1.0820  0.0909  0.5201
32315SOL     OW99837   0.172   4.564   7.703  0.3961  0.1431 -0.0565
32315SOL    HW199838   0.150   4.567   7.610  0.5503  1.4313 -0.0668
32315SOL    HW299839   0.087   4.557   7.747  0.2776  0.2604 -0.2632
32316SOL     OW99840   2.615   2.458   6.497 -0.1046 -0.1617  0.0332
32316SOL    HW199841   2.521   2.473   6.489 -0.2203 -1.4456 -1.5270
32316SOL    HW299842   2.627   2.426   6.587 -1.1733 -0.2186  0.1648
32317SOL     OW99843   5.776   1.463   7.595  0.3066 -0.2860  0.5698
32317SOL    HW199844   5.852   1.465   7.538  2.8835  0.4240  3.7569
32317SOL    HW299845   5.774   1.549   7.636 -0.4751 -1.2414  2.6625
32318SOL     OW99846   5.676   4.899   6.091 -0.5454  0.0734  0.0290
32318SOL    HW199847   5.679   4.808   6.122  1.3941 -0.2282 -0.8433
32318SOL    HW299848   5.638   4.893   6.004  0.3823 -0.0678 -0.3873
32319SOL     OW99849   2.959   7.252   8.375  0.4833 -0.0275  0.2176
32319SOL    HW199850   2.933   7.169   8.415  1.4165  0.0718  1.0854
32319SOL    HW299851   2.977   7.309   8.450  1.4469  0.4421 -0.3583
32320SOL     OW99852   9.662   8.599   3.021 -0.4945 -0.0713  0.1085
32320SOL    HW199853   9.596   8.554   2.968 -0.6472 -0.4564  0.6072
32320SOL    HW299854   9.742   8.549   3.007 -0.1225  0.8322 -1.0689
32321SOL     OW99855   8.947   5.097  10.055  0.7827 -0.0582 -0.3994
32321SOL    HW199856   8.941   5.007  10.024 -1.2693 -0.6867  1.5369
32321SOL    HW299857   8.890   5.147   9.996  1.5719 -0.0826 -1.2001
32322SOL     OW99858  10.000   5.631   0.143 -0.2940 -0.0251 -0.3074
32322SOL    HW199859  10.092   5.656   0.149 -0.2673 -0.0168 -0.7787
32322SOL    HW299860   9.970   5.668   0.060 -1.2316  1.6670  0.7360
32323SOL     OW99861   1.787   1.391   9.696  0.2512  0.7808 -0.7327
32323SOL    HW199862   1.838   1.438   9.630  1.3276  1.1467  0.3363
32323SOL    HW299863   1.746   1.459   9.749  0.2562  0.5044 -0.3668
32324SOL     OW99864   6.585   8.654   0.463 -0.4872  0.3931 -0.1323
32324SOL    HW199865   6.573   8.571   0.508 -2.2866  0.3048 -0.6894
32324SOL    HW299866   6.522   8.652   0.391 -1.1230  2.5232  0.2821
32325SOL     OW99867  10.303   4.131   3.400  0.1970 -0.3862  0.4501
32325SOL    HW199868  10.328   4.044   3.369  0.8825 -0.6849  1.7361
32325SOL    HW299869  10.350   4.140   3.484 -0.4931  0.8988  0.7181
32326SOL     OW99870   1.161   9.647  10.638  0.0795  0.9215 -0.6087
32326SOL    HW199871   1.160   9.743  10.634 -1.1465  0.9019 -1.5684
32326SOL    HW299872   1.199   9.626  10.723  2.1257  2.2229 -1.1301
32327SOL     OW99873   6.494   8.571   0.975 -0.1749  0.0779 -0.0124
32327SOL    HW199874   6.525   8.605   1.058  1.3318 -0.1086 -0.4799
32327SOL    HW299875   6.496   8.645   0.915  0.5000 -0.1894 -0.3346
32328SOL     OW99876  10.243   8.353   8.860 -0.5524 -0.5295  0.5007
32328SOL    HW199877  10.164   8.322   8.905 -1.0359 -2.0957 -1.3045
32328SOL    HW299878  10.210   8.401   8.784  0.2455 -0.1236  0.3990
32329SOL     OW99879   3.090   3.527  10.796 -0.3342 -0.4732  0.0592
32329SOL    HW199880   3.038   3.608  10.790 -0.2046 -0.4419 -0.6557
32329SOL    HW299881   3.115   3.522  10.888 -0.3868  0.2752  0.1187
32330SOL     OW99882   0.291   5.266  10.390 -0.0702  0.0779 -0.1420
32330SOL    HW199883   0.328   5.239  10.474 -0.8747 -1.7982 -0.3475
32330SOL    HW299884   0.365   5.268  10.330  0.0715 -1.5398 -0.0558
32331SOL     OW99885  10.551   3.504   7.046 -0.0353  0.0352  0.3082
32331SOL    HW199886  10.567   3.414   7.016 -0.7816  0.4518 -1.5382
32331SOL    HW299887  10.506   3.494   7.129 -2.8502 -1.4649 -1.2435
32332SOL     OW99888   8.818   2.922  10.075  0.5659 -0.6983  0.6966
32332SOL    HW199889   8.851   2.959   9.994  1.6557 -0.3640  1.2788
32332SOL    HW299890   8.742   2.871  10.048 -0.0534  0.6944 -0.3145
32333SOL     OW99891  10.639  10.736  10.097  0.0706 -0.1330  0.1468
32333SOL    HW199892  10.593  10.789  10.163 -0.3300 -0.1931 -0.0789
32333SOL    HW299893  10.692  10.799  10.048 -0.0202 -0.0141  0.2005
32334SOL     OW99894   1.809   3.041   1.140 -0.0323  0.3496 -0.2544
32334SOL    HW199895   1.824   3.086   1.223  1.8392  1.8847 -1.3440
32334SOL    HW299896   1.883   3.065   1.086  0.3723 -3.0176 -1.4298
32335SOL     OW99897  10.715   5.834   0.786  0.1551 -0.1905  0.7019
32335SOL    HW199898  10.705   5.789   0.702 -1.1695 -1.8557  1.6886
32335SOL    HW299899  10.727   5.763   0.849  0.0788  0.9722  2.0650
32336SOL     OW99900   6.111   4.675   6.156  0.2328 -0.4452  0.0873
32336SOL    HW199901   6.169   4.604   6.183  0.8089  0.0594  0.1960
32336SOL    HW299902   6.025   4.650   6.191  0.6198 -0.6313  0.9391
32337SOL     OW99903   1.190   8.547   1.002 -0.2382  0.1642 -0.3372
32337SOL    HW199904   1.211   8.457   0.977  1.9909  0.1021  1.4747
32337SOL    HW299905   1.094   8.549   1.002 -0.3944 -2.5658  0.6901
32338SOL     OW99906   7.892   7.844   0.688 -0.5495 -0.2101  0.1762
32338SOL    HW199907   7.875   7.751   0.676 -1.7630 -0.0410  0.4355
32338SOL    HW299908   7.981   7.857   0.653 -0.3501 -1.4550  0.1753
32339SOL     OW99909   9.912   9.529   1.886  0.0958  0.9213 -0.0259
32339SOL    HW199910   9.852   9.461   1.915  0.0523  1.1337  0.3858
32339SOL    HW299911   9.891   9.542   1.793 -1.2356  1.7477  0.3593
32340SOL     OW99912   0.152   6.645   2.311  0.1154 -0.1366  0.3900
32340SOL    HW199913   0.198   6.563   2.329  0.4617  0.1053  0.6266
32340SOL    HW299914   0.183   6.705   2.379 -1.7698 -0.4269  1.5994
32341SOL     OW99915   4.306   1.491   1.773  0.0494 -0.2127  0.4377
32341SOL    HW199916   4.384   1.547   1.773 -0.1550  0.0856 -0.2687
32341SOL    HW299917   4.295   1.465   1.681 -0.0530 -1.1486  0.6998
32342SOL     OW99918   6.529   2.746   4.991 -0.0685 -0.0208 -0.0836
32342SOL    HW199919   6.584   2.746   4.912  0.7615 -0.5752  0.4740
32342SOL    HW299920   6.523   2.653   5.015 -0.5010  0.1255  0.3812
32343SOL     OW99921   3.890   4.728   8.141 -0.2482  0.5820  0.4555
32343SOL    HW199922   3.977   4.691   8.138 -0.3786  0.2677  0.5573
32343SOL    HW299923   3.902   4.814   8.183  0.0226  0.5833  0.3765
32344SOL     OW99924   0.875   5.667   6.371 -0.5783  0.0064  0.2357
32344SOL    HW199925   0.924   5.655   6.452 -0.6199 -0.4122  0.1965
32344SOL    HW299926   0.917   5.609   6.308 -0.8918 -0.0742  0.1008
32345SOL     OW99927   1.468   7.986   4.640  0.3251  0.0569 -0.1087
32345SOL    HW199928   1.536   7.920   4.625  0.3420 -0.1664  0.9003
32345SOL    HW299929   1.516   8.062   4.674  0.1506  0.1601 -0.0950
32346SOL     OW99930   3.292   1.882   2.344  0.3768  0.6216  0.3522
32346SOL    HW199931   3.283   1.828   2.422 -0.4336  1.0083  0.5390
32346SOL    HW299932   3.383   1.913   2.346  0.3932  0.5468  1.0880
32347SOL     OW99933   8.807  10.497   1.208 -0.0540 -0.2608 -0.5510
32347SOL    HW199934   8.824  10.504   1.301 -1.1664  0.0743 -0.3570
32347SOL    HW299935   8.894  10.497   1.167  0.4225  2.8540  0.2605
32348SOL     OW99936   2.183   7.662  10.604  0.1472 -0.5502 -0.0441
32348SOL    HW199937   2.094   7.627  10.604 -0.1812  0.1916  1.5888
32348SOL    HW299938   2.188   7.713  10.523 -1.2773  0.2333  0.3142
32349SOL     OW99939   4.248   9.905   3.408  0.5214  0.0245  0.1813
32349SOL    HW199940   4.236   9.821   3.362 -1.2587 -0.2299  1.0678
32349SOL    HW299941   4.328   9.941   3.368 -0.1825 -0.7942 -2.1871
32350SOL     OW99942   5.785   5.031   6.812  0.1076 -0.0182 -0.6562
32350SOL    HW199943   5.693   5.023   6.787 -0.2096  1.9075 -0.2735
32350SOL    HW299944   5.815   4.941   6.823 -1.6202 -0.6962 -1.1689
32351SOL     OW99945   2.280  10.005   2.553 -0.1831 -0.2660 -0.6055
32351SOL    HW199946   2.364  10.040   2.580 -0.6758 -0.5356  1.4405
32351SOL    HW299947   2.276   9.918   2.593 -0.2767 -1.4584 -3.0267
32352SOL     OW99948   4.729   3.746  10.693 -0.5973  0.1444  0.3850
32352SOL    HW199949   4.805   3.697  10.662 -0.8332  1.2338 -2.2043
32352SOL    HW299950   4.656   3.684  10.687 -0.3972 -0.0610  0.0481
32353SOL     OW99951   0.727   8.046   1.765  0.3607 -0.7436 -0.1072
32353SOL    HW199952   0.821   8.056   1.783  0.3587 -2.4016  1.0275
32353SOL    HW299953   0.685   8.074   1.846 -0.2096  0.9072 -0.9397
32354SOL     OW99954   7.793   2.694   3.130 -0.2898  0.5323 -0.0204
32354SOL    HW199955   7.882   2.680   3.163 -0.3148  0.7570  0.1419
32354SOL    HW299956   7.802   2.687   3.035 -0.6323 -2.5647  0.0833
32355SOL     OW99957   9.988   2.415   4.882 -0.2399  0.2951 -0.0838
32355SOL    HW199958  10.002   2.458   4.966  2.0483 -0.0004 -0.2392
32355SOL    HW299959   9.980   2.322   4.905 -2.5698  0.4537  0.0117
32356SOL     OW99960   9.252   5.055   2.639 -0.1706 -0.5163 -0.8566
32356SOL    HW199961   9.301   5.024   2.715  0.3200  0.6556 -0.6699
32356SOL    HW299962   9.191   4.984   2.619  0.3655 -1.2479  0.0230
32357SOL     OW99963   4.654   1.476   7.030 -0.1387  0.0998 -0.0874
32357SOL    HW199964   4.566   1.478   7.068  0.1185  0.5502  0.5097
32357SOL    HW299965   4.709   1.515   7.098  0.5804 -0.5381 -0.3041
32358SOL     OW99966   1.209   7.704   0.673  0.5060 -0.3561 -0.1567
32358SOL    HW199967   1.123   7.746   0.668  0.9573  0.4454 -2.3202
32358SOL    HW299968   1.260   7.763   0.729  0.3054  0.4620 -0.8126
32359SOL     OW99969   8.933   6.650   6.011  0.2268  0.3239  0.4983
32359SOL    HW199970   8.974   6.724   6.055 -0.3137  0.8843  0.0714
32359SOL    HW299971   8.930   6.675   5.919 -0.1743 -0.1321  0.3819
32360SOL     OW99972   2.511   4.664   6.677 -0.0585  0.2143 -0.2171
32360SOL    HW199973   2.476   4.597   6.735 -1.9494  0.8114 -0.6043
32360SOL    HW299974   2.449   4.736   6.683  1.8110  1.8779  0.0216
32361SOL     OW99975   8.802   2.271   1.545 -0.0887 -0.4815 -0.1808
32361SOL    HW199976   8.711   2.300   1.550  0.5585  1.5859  1.1280
32361SOL    HW299977   8.851   2.341   1.589  2.4525 -0.0741 -3.3157
32362SOL     OW99978   7.247   4.723   3.823  0.4869  0.1913 -0.2776
32362SOL    HW199979   7.167   4.697   3.777  1.3530 -2.3547 -0.5230
32362SOL    HW299980   7.240   4.683   3.909  1.6312 -0.4447 -0.4481
32363SOL     OW99981   8.839   0.742   3.669 -0.4563  0.0722 -0.0437
32363SOL    HW199982   8.749   0.743   3.636 -1.3052 -1.5325  1.9860
32363SOL    HW299983   8.830   0.744   3.764  1.7545  1.4032  0.2225
32364SOL     OW99984   3.090   8.229   5.476  0.3378  0.6205 -0.8121
32364SOL    HW199985   3.028   8.291   5.514 -0.0943 -0.8789  1.0384
32364SOL    HW299986   3.173   8.250   5.517  0.0670 -0.3648  0.3003
32365SOL     OW99987   1.491   1.274   1.850  0.3300 -0.1842  0.7145
32365SOL    HW199988   1.565   1.255   1.908 -0.9259 -2.2040  1.7355
32365SOL    HW299989   1.470   1.366   1.869  1.1808 -0.2228  2.0037
32366SOL     OW99990   9.352   7.330   5.530 -0.8443 -0.1897  0.6478
32366SOL    HW199991   9.258   7.316   5.531 -1.0924  1.1725 -0.2805
32366SOL    HW299992   9.387   7.256   5.481 -1.7725  0.7766 -1.6050
32367SOL     OW99993   7.974   8.900   6.972  0.3710 -0.1350 -0.2478
32367SOL    HW199994   8.042   8.878   6.908  0.7245  0.0900  0.0497
32367SOL    HW299995   7.930   8.817   6.990  1.2011 -0.4694  0.2930
32368SOL     OW99996   0.174   7.565   5.236 -0.1396 -0.8435  0.0703
32368SOL    HW199997   0.235   7.580   5.163  0.2609 -2.0722  0.1202
32368SOL    HW299998   0.223   7.589   5.314  0.5326 -2.3973  0.1602
32369SOL     OW99999   1.997   8.648   2.798 -0.4473 -0.6536 -0.3065
32369SOL    HW1    0   1.990   8.708   2.724 -0.8083 -1.9094 -1.3382
32369SOL    HW2    1   2.086   8.614   2.793 -0.3101 -0.3755  0.1517
32370SOL     OW    2   5.857   0.811   9.258  0.1253  0.3435  0.5659
32370SOL    HW1    3   5.822   0.900   9.262  0.0203  0.3849 -0.8753
32370SOL    HW2    4   5.793   0.758   9.304 -0.7496  0.7547 -0.1440
32371SOL     OW    5   9.865   9.630  10.104  0.6158 -0.2457 -0.2363
32371SOL    HW1    6   9.948   9.630  10.151 -0.2612  0.9427  1.4133
32371SOL    HW2    7   9.864   9.714  10.057  0.6924 -0.6244 -0.9293
32372SOL     OW    8   3.631   8.622   1.415 -0.4750 -0.1007  0.3630
32372SOL    HW1    9   3.630   8.674   1.496  2.0719  0.0015  0.3919
32372SOL    HW2   10   3.615   8.532   1.444 -2.2989  0.2510  0.6046
32373SOL     OW   11   6.910   4.917   7.070  0.0280  0.9887  0.0828
32373SOL    HW1   12   6.869   4.889   7.152 -0.3120  1.0901 -0.0472
32373SOL    HW2   13   6.854   4.880   7.002  0.7953  0.1773 -0.1211
32374SOL     OW   14   2.825   3.642   6.691 -0.1270  0.0418  0.2470
32374SOL    HW1   15   2.830   3.558   6.645  1.0874  0.2659 -0.0712
32374SOL    HW2   16   2.894   3.637   6.758  1.0646  1.3728 -0.8121
32375SOL     OW   17   0.224   2.305   1.309  0.6221  0.3929 -0.5596
32375SOL    HW1   18   0.162   2.287   1.239  0.8190  0.4889 -0.7589
32375SOL    HW2   19   0.281   2.229   1.312  0.1035  0.0208  0.0474
32376SOL     OW   20   2.578   9.708   2.839 -0.6419  0.3548  0.6695
32376SOL    HW1   21   2.598   9.621   2.806 -0.2538  0.1074  1.5325
32376SOL    HW2   22   2.651   9.763   2.809 -1.2860  0.5819 -0.5668
32377SOL     OW   23   3.117   0.265   5.512  0.8221 -0.5291  0.3336
32377SOL    HW1   24   3.075   0.190   5.554  0.0784 -0.8622 -0.9421
32377SOL    HW2   25   3.198   0.229   5.474  0.2463 -0.8131 -0.6624
32378SOL     OW   26   3.385   6.387   9.917  0.7213 -0.2468 -0.0167
32378SOL    HW1   27   3.294   6.415   9.917  0.9634  0.7299  2.2936
32378SOL    HW2   28   3.396   6.341   9.833 -1.5848  0.4906 -0.7888
32379SOL     OW   29   2.625   5.253  10.021 -0.0950 -0.0289 -0.1742
32379SOL    HW1   30   2.672   5.291  10.096 -0.0089 -0.6260  0.0815
32379SOL    HW2   31   2.539   5.294  10.024  1.2604  3.5096 -2.4793
32380SOL     OW   32   6.916   7.830   5.292 -0.1063 -0.5587 -0.2288
32380SOL    HW1   33   6.988   7.829   5.355 -0.2057  0.1654 -0.0984
32380SOL    HW2   34   6.842   7.793   5.341  0.0538 -0.8796 -0.2228
32381SOL     OW   35   4.816   9.284   8.926 -0.8058  0.8123 -0.2755
32381SOL    HW1   36   4.792   9.246   9.010 -0.5269 -0.9551 -0.9379
32381SOL    HW2   37   4.793   9.216   8.862 -0.0107  1.6608 -1.5154
32382SOL     OW   38   8.647   5.305   6.097  0.1847 -0.1449 -0.0406
32382SOL    HW1   39   8.578   5.359   6.060 -0.5159 -0.5519  0.6354
32382SOL    HW2   40   8.723   5.321   6.041 -0.2192  0.9397 -0.3026
32383SOL     OW   41   7.236   9.807   2.213  0.1875  0.2824  0.4785
32383SOL    HW1   42   7.320   9.852   2.220  1.2336 -1.6542  1.3594
32383SOL    HW2   43   7.249   9.741   2.145 -0.2015 -0.7896  1.3942
32384SOL     OW   44   6.601  10.275  10.158 -0.5258 -0.2339 -0.1367
32384SOL    HW1   45   6.527  10.330  10.185 -0.3782  0.4138 -1.0065
32384SOL    HW2   46   6.563  10.188  10.145 -0.5247 -0.7133  2.5437
32385SOL     OW   47  10.197   8.429   0.042 -0.3999  0.1104  0.2650
32385SOL    HW1   48  10.151   8.391  -0.032 -0.1250  0.5733 -0.1525
32385SOL    HW2   49  10.272   8.371   0.056  0.1127  0.5741 -0.4774
32386SOL     OW   50   2.671   8.110   8.026 -0.9152  0.2874  0.3134
32386SOL    HW1   51   2.702   8.020   8.032  3.0287  1.5070  1.2346
32386SOL    HW2   52   2.671   8.130   7.932  1.9124  0.3489  0.2571
32387SOL     OW   53   1.451   3.047   9.259  0.5811 -0.2325  0.4841
32387SOL    HW1   54   1.394   3.111   9.216  1.4610 -0.3702 -0.9789
32387SOL    HW2   55   1.421   2.962   9.226  0.1821 -0.4990  1.4958
32388SOL     OW   56   6.961   4.357   5.254 -0.5982  0.6842  0.3980
32388SOL    HW1   57   6.966   4.451   5.270 -0.2984  0.9242 -0.9212
32388SOL    HW2   58   7.000   4.346   5.167  1.2589 -0.9252  1.3750
32389SOL     OW   59   2.391   1.970   4.449 -0.0414  0.3108 -0.4773
32389SOL    HW1   60   2.454   1.934   4.386  0.3178 -1.3065  0.7315
32389SOL    HW2   61   2.340   2.033   4.398  0.8440 -0.2490 -2.1465
32390SOL     OW   62   7.785   8.417   4.880 -0.3409  0.3680 -0.1890
32390SOL    HW1   63   7.735   8.336   4.873  2.5065 -1.7306  1.7438
32390SOL    HW2   64   7.746   8.463   4.954 -0.3979 -0.4921  0.3245
32391SOL     OW   65  10.324  10.539   5.959  0.6814 -0.3185 -0.3240
32391SOL    HW1   66  10.290  10.622   5.992  0.1514 -0.7964  0.3667
32391SOL    HW2   67  10.304  10.540   5.865  1.2424  0.5973 -0.4406
32392SOL     OW   68   2.972   1.394   5.660 -0.4682 -0.1319 -0.2262
32392SOL    HW1   69   2.909   1.325   5.643  1.2768 -1.9336  0.2866
32392SOL    HW2   70   3.012   1.411   5.575 -0.7741  0.1373 -0.3185
32393SOL     OW   71   5.281   2.988   8.078 -0.3827 -0.6246 -0.6078
32393SOL    HW1   72   5.228   3.057   8.039 -0.4007  0.1784  0.7530
32393SOL    HW2   73   5.218   2.918   8.099 -0.8013  0.0085  0.3075
32394SOL     OW   74   7.013   8.564   9.946 -1.2939 -0.5989 -0.2497
32394SOL    HW1   75   7.055   8.481   9.971 -0.7663 -0.0279  0.8547
32394SOL    HW2   76   6.936   8.538   9.897 -1.4347 -1.7813  0.5491
32395SOL     OW   77   1.241   0.262   4.480 -0.6343 -0.0896  0.0167
32395SOL    HW1   78   1.325   0.254   4.434 -1.6606 -1.0380 -1.7975
32395SOL    HW2   79   1.265   0.261   4.573  1.3848  0.1426 -0.4367
32396SOL     OW   80   1.970   5.918   4.754 -0.0354  0.0378 -0.4826
32396SOL    HW1   81   1.992   5.978   4.683  0.8036 -0.4906 -0.6786
32396SOL    HW2   82   1.958   5.974   4.830 -0.2773  0.5444 -0.8899
32397SOL     OW   83   4.753  10.424   2.936  0.1656 -0.2364  0.4629
32397SOL    HW1   84   4.786  10.494   2.880  1.8149 -1.7899 -0.5651
32397SOL    HW2   85   4.744  10.466   3.022 -1.6076  1.9614 -0.6714
32398SOL     OW   86   1.385   8.125   1.360 -0.1779  0.3069 -0.1452
32398SOL    HW1   87   1.294   8.131   1.390 -0.2446  0.2361 -0.3336
32398SOL    HW2   88   1.410   8.216   1.342 -1.2321  0.1233 -3.1163
32399SOL     OW   89   5.242   1.962   3.153 -0.4242 -0.5375  0.6058
32399SOL    HW1   90   5.258   1.894   3.219 -1.6811 -1.7203 -0.2455
32399SOL    HW2   91   5.165   1.931   3.105 -1.1824  1.6142  0.3098
32400SOL     OW   92   0.982   7.775   3.626  0.0020 -0.0669 -0.0794
32400SOL    HW1   93   0.997   7.740   3.538  1.0614  0.1904 -0.0118
32400SOL    HW2   94   1.018   7.863   3.624  0.8956 -0.3765  0.8575
32401SOL     OW   95   0.573   6.310   5.516  0.0365 -0.1864  0.3751
32401SOL    HW1   96   0.659   6.341   5.485 -0.6987  0.6490 -0.9181
32401SOL    HW2   97   0.517   6.388   5.512 -0.4916 -0.4040  2.4691
32402SOL     OW   98   4.620  10.374  10.392 -0.0327 -0.7106  0.3443
32402SOL    HW1   99   4.666  10.341  10.468 -3.1470 -0.4941  2.5323
32402SOL    HW2  100   4.540  10.321  10.387 -1.6002  1.5462 -0.5502
32403SOL     OW  101   0.248   1.978   5.581 -0.2232 -0.0939 -0.4777
32403SOL    HW1  102   0.289   1.898   5.547 -0.3213  0.3886 -1.7857
32403SOL    HW2  103   0.169   1.990   5.529 -1.2744 -0.1836  1.0155
32404SOL     OW  104   4.924   3.856   6.456 -0.6183 -0.2967  0.1599
32404SOL    HW1  105   4.981   3.779   6.446 -0.6609 -0.2454 -0.5431
32404SOL    HW2  106   4.836   3.819   6.465 -0.4125 -0.4076  2.0098
32405SOL     OW  107   1.456   2.698   4.292 -0.4855  0.1050 -0.1309
32405SOL    HW1  108   1.364   2.720   4.277 -0.7165  0.1592  1.2047
32405SOL    HW2  109   1.465   2.696   4.387  0.3618 -2.1003 -0.1882
32406SOL     OW  110   4.921  10.348   4.828 -0.0068 -0.7509 -0.2500
32406SOL    HW1  111   4.879  10.333   4.743 -1.0890 -0.9194  0.3018
32406SOL    HW2  112   4.866  10.302   4.891  0.0487  0.4380  0.7104
32407SOL     OW  113   9.447   2.811  10.793 -0.2041  0.5999 -0.5467
32407SOL    HW1  114   9.481   2.751  10.726  0.7577 -1.3154  1.4971
32407SOL    HW2  115   9.493   2.785  10.873 -0.3112  3.6533  0.6300
32408SOL     OW  116   6.651   3.690   5.963 -0.5936 -0.0996  0.0478
32408SOL    HW1  117   6.565   3.724   5.988 -1.3139 -0.6204 -1.5782
32408SOL    HW2  118   6.676   3.632   6.035 -1.4017  0.3992  0.7464
32409SOL     OW  119   9.343   7.417   8.435 -0.3145 -0.5652 -0.3158
32409SOL    HW1  120   9.282   7.479   8.395  0.3190 -1.0043 -2.0204
32409SOL    HW2  121   9.423   7.468   8.449  0.6118 -1.2379 -2.8240
32410SOL     OW  122  10.259   3.583   9.330 -0.1084 -0.7286  0.2087
32410SOL    HW1  123  10.353   3.585   9.314 -0.4965  1.0826 -2.4855
32410SOL    HW2  124  10.224   3.527   9.261 -1.0734 -1.0914  0.9667
32411SOL     OW  125   9.254   2.469  10.651 -0.1659  0.0024 -0.5287
32411SOL    HW1  126   9.259   2.374  10.648  1.1229  0.0337 -0.0649
32411SOL    HW2  127   9.174   2.488  10.700 -0.7030 -0.8244 -1.0714
32412SOL     OW  128   0.682   3.344   8.670  0.3306 -0.1904 -0.0335
32412SOL    HW1  129   0.641   3.426   8.698  0.0975 -0.0571 -0.7614
32412SOL    HW2  130   0.688   3.292   8.751  0.2536  0.4395  0.3872
32413SOL     OW  131   3.487   3.872   7.422 -0.1435 -0.1307 -0.1828
32413SOL    HW1  132   3.548   3.943   7.440 -1.5582  1.1926 -0.4608
32413SOL    HW2  133   3.520   3.832   7.341  1.4175 -0.7126  0.6761
32414SOL     OW  134   1.046   7.019   5.746  0.5583 -0.6787 -0.6179
32414SOL    HW1  135   1.065   6.989   5.835  1.4751 -1.7652 -1.1647
32414SOL    HW2  136   1.076   7.110   5.745 -0.0664 -0.4418  0.3586
32415SOL     OW  137   5.272   4.415   9.046 -0.6016 -0.2238 -0.1277
32415SOL    HW1  138   5.266   4.334   8.995  0.1972  0.2248 -0.9776
32415SOL    HW2  139   5.197   4.467   9.018 -0.3249 -0.0978 -0.6481
32416SOL     OW  140   9.866   7.628   7.196  0.2957  0.7502  0.1477
32416SOL    HW1  141   9.909   7.672   7.269  1.2948  0.6532 -0.3614
32416SOL    HW2  142   9.929   7.635   7.124 -0.5169  0.5252 -0.5944
32417SOL     OW  143   8.113   4.079   1.891 -0.0183 -0.1913  0.3925
32417SOL    HW1  144   8.086   4.047   1.805  0.2775  0.7825 -0.0773
32417SOL    HW2  145   8.176   4.014   1.923 -0.6253 -0.8979  0.1756
32418SOL     OW  146   5.175   4.726   1.023 -0.6266  0.3035 -0.1012
32418SOL    HW1  147   5.108   4.774   1.072 -2.5621 -0.9179 -1.3811
32418SOL    HW2  148   5.213   4.790   0.964 -2.0061  0.6743 -0.6330
32419SOL     OW  149   0.528   0.251   2.068  0.0152  0.4320  0.0308
32419SOL    HW1  150   0.616   0.259   2.030 -0.3296  0.3368 -0.8064
32419SOL    HW2  151   0.538   0.282   2.158  0.4225  2.6150 -0.7054
32420SOL     OW  152   1.383   0.901   5.357 -0.2725 -0.3184 -0.0749
32420SOL    HW1  153   1.471   0.890   5.393 -0.1710 -2.6926 -0.8362
32420SOL    HW2  154   1.325   0.886   5.431 -0.1112  1.7238  0.5413
32421SOL     OW  155  10.582   9.511   3.642 -0.0933  0.4591 -0.0371
32421SOL    HW1  156  10.519   9.500   3.714  0.9999 -0.2431  0.8435
32421SOL    HW2  157  10.629   9.592   3.665  1.1160 -0.4325  0.7486
32422SOL     OW  158   4.373   1.308   5.981  0.2278 -0.0863  0.1413
32422SOL    HW1  159   4.414   1.280   6.063 -2.2127 -0.4894  1.3383
32422SOL    HW2  160   4.373   1.230   5.926 -1.1086 -0.8013  1.1048
32423SOL     OW  161   5.143   8.174   3.760  0.4915 -0.1819  0.3492
32423SOL    HW1  162   5.160   8.088   3.799 -0.0488 -0.8851 -0.8928
32423SOL    HW2  163   5.131   8.156   3.667 -0.3700  1.1535  0.1709
32424SOL     OW  164  10.231   9.994   3.725  0.1447  0.2905 -0.0427
32424SOL    HW1  165  10.315   9.979   3.769 -0.4604  2.8062  2.2986
32424SOL    HW2  166  10.166   9.953   3.783 -0.4299  0.7948 -0.3137
32425SOL     OW  167   5.430   0.934   8.399 -0.1709 -0.3591  0.3049
32425SOL    HW1  168   5.406   0.903   8.312  0.7180 -1.3935  0.4085
32425SOL    HW2  169   5.347   0.953   8.442 -0.6485 -0.6661 -0.4662
32426SOL     OW  170   0.914   3.846   2.687 -0.5287 -0.7880  0.0043
32426SOL    HW1  171   0.903   3.805   2.602  0.7828  0.8968 -1.0521
32426SOL    HW2  172   0.910   3.774   2.750 -2.0225 -2.0090 -1.4033
32427SOL     OW  173   6.576   6.467   5.120 -0.4889  0.0636  0.5040
32427SOL    HW1  174   6.589   6.557   5.090  1.0512 -0.2539  0.1193
32427SOL    HW2  175   6.645   6.454   5.185 -0.1391 -1.1114 -0.0883
32428SOL     OW  176   0.530   4.197   8.013 -0.0264 -0.1087  0.2073
32428SOL    HW1  177   0.486   4.206   8.098  1.9652 -1.7844  1.5626
32428SOL    HW2  178   0.617   4.161   8.036  1.2706  1.1045 -2.4212
32429SOL     OW  179   3.806  10.509   9.351 -0.1940 -0.0419 -0.7499
32429SOL    HW1  180   3.831  10.464   9.270  0.6705 -2.1353  0.6099
32429SOL    HW2  181   3.714  10.485   9.364 -0.2229 -0.0144 -0.8952
32430SOL     OW  182   3.970   6.044  10.769 -0.3237  0.4681 -0.1739
32430SOL    HW1  183   3.950   5.963  10.722 -0.8611  0.4421  0.1015
32430SOL    HW2  184   4.053   6.073  10.731 -1.0280  0.7627 -1.5812
32431SOL     OW  185   1.133   3.807   5.387 -0.2981 -0.0747 -1.2107
32431SOL    HW1  186   1.165   3.890   5.352  0.9293  1.2594  2.6417
32431SOL    HW2  187   1.209   3.749   5.386 -0.3836 -0.1882 -1.1562
32432SOL     OW  188   8.054   9.562   9.429 -0.2351  0.3479 -0.4214
32432SOL    HW1  189   8.008   9.483   9.401 -0.3373  0.7240 -1.3490
32432SOL    HW2  190   7.997   9.601   9.495  0.6627 -1.2946  1.4150
32433SOL     OW  191   3.088   0.765   4.716  0.0587 -0.2946 -0.4094
32433SOL    HW1  192   3.042   0.800   4.639  0.1471  2.2794  0.6162
32433SOL    HW2  193   3.127   0.683   4.685 -2.2590 -0.8031 -2.2956
32434SOL     OW  194   1.194   1.942   5.998  0.3061  0.3733 -0.1315
32434SOL    HW1  195   1.108   1.935   5.956  0.7274  0.3446 -1.0138
32434SOL    HW2  196   1.246   1.996   5.938  0.7678  0.7873  0.6218
32435SOL     OW  197   6.129   1.075  10.414  0.0788 -0.4282 -0.3413
32435SOL    HW1  198   6.166   1.163  10.406 -0.1164 -0.2460  0.6332
32435SOL    HW2  199   6.109   1.049  10.324  1.3212  0.0023 -0.7629
32436SOL     OW  200   8.761   0.152   9.352  0.4284 -0.1459 -0.2736
32436SOL    HW1  201   8.686   0.153   9.293 -0.5826  0.7341  0.9797
32436SOL    HW2  202   8.800   0.238   9.343  0.5133 -0.1508  0.0326
32437SOL     OW  203   4.378   5.061   6.003  0.0718  0.3130 -0.0110
32437SOL    HW1  204   4.356   5.059   6.096  0.5600  0.6158  0.1143
32437SOL    HW2  205   4.329   5.135   5.968 -1.0667 -0.5237 -0.2527
32438SOL     OW  206   8.751   6.162   4.505 -0.0539 -0.3841  0.2281
32438SOL    HW1  207   8.733   6.130   4.416  0.0547 -0.7976  0.3538
32438SOL    HW2  208   8.738   6.257   4.499 -0.9566 -0.5102 -0.0155
32439SOL     OW  209   5.505   2.622   0.348  0.2564  0.3213 -0.3566
32439SOL    HW1  210   5.513   2.679   0.272  1.2126  2.4143  1.2170
32439SOL    HW2  211   5.594   2.616   0.383 -0.3353  0.3402  1.2392
32440SOL     OW  212   7.339   8.288   0.882  0.0272 -0.2170  0.6712
32440SOL    HW1  213   7.364   8.295   0.790 -0.1896  0.3748  0.6575
32440SOL    HW2  214   7.416   8.250   0.924  0.6944  0.8947  0.4969
32441SOL     OW  215   6.197   1.174   0.165 -0.0960 -0.3490 -0.2011
32441SOL    HW1  216   6.264   1.132   0.112  0.4202 -0.2179  0.3394
32441SOL    HW2  217   6.214   1.268   0.156 -0.9397 -0.2503 -1.0036
32442SOL     OW  218  10.184   1.604   9.877 -0.5355  0.3496  0.7165
32442SOL    HW1  219  10.119   1.612   9.807 -1.3045 -0.2007  1.3476
32442SOL    HW2  220  10.187   1.511   9.897 -0.5877  0.5381  1.6591
32443SOL     OW  221   0.797   6.286   3.277 -0.1572  0.0732  0.7777
32443SOL    HW1  222   0.756   6.199   3.278 -1.1763  0.5333  0.8151
32443SOL    HW2  223   0.746   6.337   3.340 -1.1371  1.3566 -0.9431
32444SOL     OW  224   4.437   1.525   0.064 -0.0017 -0.1649 -0.6045
32444SOL    HW1  225   4.518   1.541   0.114  0.6964 -0.3508 -1.6417
32444SOL    HW2  226   4.422   1.606   0.017 -0.4951 -0.0911 -0.3230
32445SOL     OW  227   6.854   7.232   9.925  0.4415 -0.1128 -0.0812
32445SOL    HW1  228   6.791   7.203   9.992  0.2021 -1.6912 -0.9380
32445SOL    HW2  229   6.801   7.242   9.846  0.3515  3.5826  0.2667
32446SOL     OW  230   9.136   2.795   3.885  0.5074  0.3882 -0.0792
32446SOL    HW1  231   9.071   2.740   3.841 -0.8038  0.4194  1.6670
32446SOL    HW2  232   9.083   2.859   3.933  1.7149 -0.3893  2.4709
32447SOL     OW  233   3.660   3.691   7.264 -0.4397  0.0659  0.2380
32447SOL    HW1  234   3.705   3.678   7.180  0.9970 -1.4150  1.1769
32447SOL    HW2  235   3.590   3.626   7.263  0.1188 -0.5528  0.5215
32448SOL     OW  236   1.882   9.807   9.085 -0.4155  0.0216  0.1188
32448SOL    HW1  237   1.977   9.804   9.075  0.0527  2.8168  2.3714
32448SOL    HW2  238   1.850   9.732   9.035  2.8235 -0.0937 -2.0990
32449SOL     OW  239   9.114   1.677   3.506  0.1408  0.0879  0.4994
32449SOL    HW1  240   9.180   1.723   3.455  0.9294 -0.8046  0.7034
32449SOL    HW2  241   9.102   1.731   3.584 -2.0092  2.1692 -1.1170
32450SOL     OW  242   1.176   1.584   2.425  0.2972  0.1091 -0.5183
32450SOL    HW1  243   1.141   1.498   2.446 -0.7615  0.5570 -0.3376
32450SOL    HW2  244   1.117   1.645   2.470  0.7982  0.9374 -0.9520
32451SOL     OW  245   7.039   1.405   0.179  0.2770  0.1297 -0.3241
32451SOL    HW1  246   6.974   1.370   0.118  1.8245 -1.3444 -1.2032
32451SOL    HW2  247   7.123   1.381   0.140  1.3259  0.5111  1.6213
32452SOL     OW  248   0.096   4.215   9.803  0.0847  0.4466 -0.4200
32452SOL    HW1  249   0.062   4.297   9.767 -1.7563 -0.0674 -0.0008
32452SOL    HW2  250   0.143   4.174   9.731 -1.3111  0.6308 -1.4752
32453SOL     OW  251   7.583   9.985   5.058  0.3320  0.1561 -0.6426
32453SOL    HW1  252   7.617   9.942   5.136  0.4399 -1.8003 -1.7001
32453SOL    HW2  253   7.491   9.999   5.076  0.3521 -0.2887 -0.1679
32454SOL     OW  254   0.367   3.754   0.721 -0.6287  0.2378 -0.0689
32454SOL    HW1  255   0.313   3.726   0.795 -0.9336 -1.3809 -0.8579
32454SOL    HW2  256   0.452   3.713   0.736 -0.6229  0.0880 -0.4878
32455SOL     OW  257   5.228  10.554   2.200 -0.5001 -0.2502 -0.3125
32455SOL    HW1  258   5.184  10.548   2.285  1.8305  0.9471  1.0758
32455SOL    HW2  259   5.309  10.505   2.212  0.2695  0.6609 -1.5676
32456SOL     OW  260   8.910   2.986   2.284  0.0439 -0.0507 -0.3580
32456SOL    HW1  261   8.840   2.950   2.229  0.8392  0.8791 -2.0552
32456SOL    HW2  262   8.964   3.037   2.223  1.1744  0.7313  1.2425
32457SOL     OW  263   7.664  10.226   0.213 -0.4296  0.0528 -0.0552
32457SOL    HW1  264   7.754  10.233   0.180 -0.1581 -0.7752  0.4856
32457SOL    HW2  265   7.663  10.282   0.291 -0.0308 -0.9026  0.6461
32458SOL     OW  266   7.653   9.136   1.616  0.3478 -0.7002 -0.5781
32458SOL    HW1  267   7.630   9.045   1.598 -0.4198 -0.9611  1.4642
32458SOL    HW2  268   7.594   9.162   1.687  0.7905  1.2911 -0.8760
32459SOL     OW  269   6.529   2.947  10.757  0.4404  0.3844  0.3410
32459SOL    HW1  270   6.511   2.878  10.821  0.1139 -0.0866 -0.2369
32459SOL    HW2  271   6.495   2.911  10.674 -2.8681  2.5426  0.5836
32460SOL     OW  272   3.650   1.690   5.946  0.5694  0.3368  0.5139
32460SOL    HW1  273   3.638   1.596   5.932  1.3419 -0.1343  2.6447
32460SOL    HW2  274   3.734   1.710   5.904  0.2980  0.1287 -0.1345
32461SOL     OW  275   5.232   9.168  10.394 -0.1786  0.1834  0.0414
32461SOL    HW1  276   5.242   9.123  10.310  1.1094  0.3790  0.0590
32461SOL    HW2  277   5.239   9.098  10.459 -1.9364 -0.0760 -0.0035
32462SOL     OW  278  10.129   6.430   1.263 -0.3395  0.0678  0.6689
32462SOL    HW1  279  10.148   6.462   1.351  0.3863 -0.5470  0.7516
32462SOL    HW2  280  10.197   6.365   1.247 -1.2139 -0.7414  0.1463
32463SOL     OW  281  10.307   5.598   1.363  0.1063 -0.1548  0.0733
32463SOL    HW1  282  10.374   5.539   1.327 -0.1177  0.3747 -1.2752
32463SOL    HW2  283  10.316   5.678   1.312 -1.2592  0.0744  0.1600
32464SOL     OW  284   7.642   2.780   2.578  0.1440 -0.2667  0.5109
32464SOL    HW1  285   7.658   2.829   2.659 -1.5366  1.4167 -0.1249
32464SOL    HW2  286   7.562   2.731   2.595 -0.3501  0.2813 -0.2136
32465SOL     OW  287   2.026   5.272   2.515  0.8792  0.4258  0.1182
32465SOL    HW1  288   2.092   5.202   2.514  1.9468  1.3991  0.9543
32465SOL    HW2  289   1.951   5.233   2.559  0.3689 -1.1139 -1.9558
32466SOL     OW  290   9.037   0.346   2.026  0.0659  0.5549 -0.0744
32466SOL    HW1  291   9.085   0.416   1.983  0.7210 -1.2780 -2.5676
32466SOL    HW2  292   8.954   0.341   1.978  0.3260 -0.7865 -0.4293
32467SOL     OW  293   1.192   9.581   6.810  0.0383 -0.2419  0.7087
32467SOL    HW1  294   1.118   9.643   6.806  0.2136 -0.1029 -0.9012
32467SOL    HW2  295   1.161   9.504   6.762  0.8953 -0.2197  0.1079
32468SOL     OW  296   7.835   2.659   2.830  0.0462  0.1278 -0.2561
32468SOL    HW1  297   7.930   2.662   2.824  0.1952  1.2862  1.8223
32468SOL    HW2  298   7.805   2.738   2.787 -0.0223 -0.3844 -1.1758
32469SOL     OW  299  10.703   2.992   5.616  0.5515  0.4465 -0.0413
32469SOL    HW1  300  10.719   3.036   5.532 -0.5907 -0.8589 -0.9811
32469SOL    HW2  301  10.660   3.059   5.669  0.5656  1.0647 -0.7797
32470SOL     OW  302   8.187   4.047   3.443  0.4068  0.0077 -0.5678
32470SOL    HW1  303   8.182   4.138   3.416 -2.2752  0.0516 -0.1672
32470SOL    HW2  304   8.214   4.051   3.535  1.0844  0.3265 -0.7728
32471SOL     OW  305   8.656   3.806  10.457 -0.7372  0.2061 -0.5234
32471SOL    HW1  306   8.746   3.804  10.491 -1.3360 -3.8158  1.4375
32471SOL    HW2  307   8.604   3.842  10.529 -1.0794 -0.9825 -0.1525
32472SOL     OW  308   2.702   7.287   5.777 -0.2724 -0.1441  0.0537
32472SOL    HW1  309   2.687   7.257   5.867  1.0089 -0.9061  0.0517
32472SOL    HW2  310   2.777   7.234   5.747 -0.7288  0.0293 -1.4901
32473SOL     OW  311   7.522   5.346   3.246  0.1507  0.4305  0.0177
32473SOL    HW1  312   7.578   5.356   3.169  1.2007 -0.2424  0.6726
32473SOL    HW2  313   7.512   5.252   3.256 -0.5825  0.5351  0.2901
32474SOL     OW  314   5.341   2.203   3.077  0.1815 -0.1959  0.6365
32474SOL    HW1  315   5.319   2.111   3.093 -0.2389 -0.7814 -2.5588
32474SOL    HW2  316   5.270   2.252   3.118  0.7681 -1.1916  2.9857
32475SOL     OW  317   3.920   8.706   6.349 -0.2129  0.1775  0.1279
32475SOL    HW1  318   3.835   8.743   6.324  0.1640  1.9325  1.2408
32475SOL    HW2  319   3.973   8.782   6.372  1.7761 -0.8567 -0.7929
32476SOL     OW  320   2.394   1.326   2.681 -0.2590  0.3725 -0.1606
32476SOL    HW1  321   2.402   1.385   2.606  0.8371 -0.5538 -0.8043
32476SOL    HW2  322   2.360   1.245   2.644  0.3328 -0.1080  0.3286
32477SOL     OW  323   9.159   0.007   5.562 -0.3895  0.0007 -0.1475
32477SOL    HW1  324   9.128  -0.057   5.626  0.5431 -0.6891 -0.3607
32477SOL    HW2  325   9.131   0.091   5.597 -1.2459 -0.4860  0.3707
32478SOL     OW  326   2.166   8.761   8.091  0.5335 -0.9770 -0.1894
32478SOL    HW1  327   2.238   8.787   8.147 -0.4143  1.9808 -0.1885
32478SOL    HW2  328   2.193   8.787   8.003 -0.2627 -0.3867 -0.2730
32479SOL     OW  329   2.497   1.343   8.922 -0.1667 -0.4402  0.6179
32479SOL    HW1  330   2.535   1.378   8.841 -2.5517 -0.9701 -0.8548
32479SOL    HW2  331   2.439   1.272   8.892  0.1685 -1.8247  2.9851
32480SOL     OW  332   1.696   2.056   9.551 -0.0115 -0.5122  0.6033
32480SOL    HW1  333   1.668   2.117   9.482 -2.3539 -0.5982  1.3739
32480SOL    HW2  334   1.678   1.969   9.514  0.8555 -0.6497  0.4903
32481SOL     OW  335   2.934   5.074   7.307  0.0990  0.2852  0.2558
32481SOL    HW1  336   2.931   4.989   7.350 -0.9916  0.6908  1.0487
32481SOL    HW2  337   2.842   5.093   7.286  0.5154  0.4323 -1.6421
32482SOL     OW  338   7.036   6.511   3.209  0.0464 -0.3836 -0.7778
32482SOL    HW1  339   7.044   6.435   3.150 -1.8374 -0.3203 -1.1570
32482SOL    HW2  340   7.023   6.472   3.296  0.8156 -0.4714 -0.6917
32483SOL     OW  341   3.015   8.190   5.911  0.2120 -0.0926  0.1453
32483SOL    HW1  342   2.952   8.125   5.944 -0.2947 -0.4374 -1.3953
32483SOL    HW2  343   3.043   8.154   5.827  0.2217  1.5096 -0.5554
32484SOL     OW  344   3.461   5.952   6.501  0.1266 -0.1733  0.1279
32484SOL    HW1  345   3.508   5.963   6.584 -0.1100 -1.0698  0.3915
32484SOL    HW2  346   3.522   5.982   6.435  0.0388  1.2870  0.6787
32485SOL     OW  347   2.983   7.910   7.517  0.4342  0.0184  0.9882
32485SOL    HW1  348   3.071   7.878   7.497  0.5791  1.4061 -0.7503
32485SOL    HW2  349   2.925   7.851   7.469  0.5738  0.7051 -0.0565
32486SOL     OW  350   9.614   4.716   4.978  0.1435 -0.0285 -0.0062
32486SOL    HW1  351   9.549   4.656   5.014  2.0326 -2.3358 -0.2206
32486SOL    HW2  352   9.688   4.711   5.039  1.3202  0.0766 -1.3597
32487SOL     OW  353   1.257   2.477   8.203 -0.0451 -0.0535  0.5761
32487SOL    HW1  354   1.240   2.386   8.229  0.3504 -0.2131  0.2768
32487SOL    HW2  355   1.196   2.493   8.131  0.5840 -0.4116 -0.0478
32488SOL     OW  356   1.493   9.968   7.400 -0.0190 -0.6032 -0.6563
32488SOL    HW1  357   1.404   9.939   7.382 -0.3135  0.1293 -0.3871
32488SOL    HW2  358   1.549   9.902   7.357 -0.6797 -0.1525 -2.2791
32489SOL     OW  359   5.984   5.033   1.767 -0.7418  0.8647  0.1992
32489SOL    HW1  360   5.955   5.032   1.676 -1.7180 -0.6570  0.4999
32489SOL    HW2  361   5.918   4.983   1.815 -0.7336  2.3594  1.9120
32490SOL     OW  362  10.632   9.383   8.970  0.7022 -0.0156 -0.0235
32490SOL    HW1  363  10.580   9.322   9.022 -0.1684 -0.5887 -1.4917
32490SOL    HW2  364  10.590   9.468   8.984  2.1566  0.3991  2.3425
32491SOL     OW  365   5.996   2.638   8.950 -0.1383  0.3897  0.2795
32491SOL    HW1  366   6.079   2.671   8.914  0.0200 -0.5827 -0.2604
32491SOL    HW2  367   5.942   2.619   8.874 -1.3094  2.0714  0.6362
32492SOL     OW  368   9.995   6.997   2.549 -0.5459 -0.0098 -0.0786
32492SOL    HW1  369  10.029   6.907   2.553  1.7883  0.8125 -0.0896
32492SOL    HW2  370  10.050   7.046   2.609 -1.0024  1.6631 -0.9659
32493SOL     OW  371   8.575   3.206   8.255  0.2832 -0.5589  0.0656
32493SOL    HW1  372   8.589   3.287   8.206  0.2505 -1.6581 -1.8597
32493SOL    HW2  373   8.482   3.187   8.243 -0.1028 -0.0276  1.9514
32494SOL     OW  374   0.768   3.420   8.413 -0.1613 -0.2839 -0.1482
32494SOL    HW1  375   0.727   3.372   8.484 -0.3675 -1.2520 -0.8999
32494SOL    HW2  376   0.857   3.386   8.410  1.4306  3.0516  2.6369
32495SOL     OW  377   7.360   2.694   9.477 -0.4639  0.6252  0.3872
32495SOL    HW1  378   7.330   2.714   9.566 -0.2671  0.1258  0.5748
32495SOL    HW2  379   7.387   2.602   9.482  0.7945  0.9644  0.1515
32496SOL     OW  380   1.124   1.011   7.356 -0.9652 -0.3583  0.5529
32496SOL    HW1  381   1.064   1.035   7.426 -0.1338  2.6676  0.3839
32496SOL    HW2  382   1.209   1.002   7.399 -0.5349  1.0661  0.0417
32497SOL     OW  383   3.912   6.260  10.276 -0.4416  0.5345 -0.4186
32497SOL    HW1  384   3.909   6.221  10.364 -0.2181  1.9051  0.2368
32497SOL    HW2  385   3.991   6.314  10.278  0.9919 -1.3423 -2.3442
32498SOL     OW  386   4.449   3.560   0.663 -0.2834 -0.3861 -0.3742
32498SOL    HW1  387   4.446   3.470   0.629  1.0321 -0.1850 -1.1097
32498SOL    HW2  388   4.364   3.597   0.641 -1.0480 -1.5958  0.3933
32499SOL     OW  389   5.706   2.771   4.841 -0.4629 -0.9054 -0.3945
32499SOL    HW1  390   5.768   2.844   4.841 -1.9823  0.4391 -1.0586
32499SOL    HW2  391   5.700   2.746   4.934  1.4417 -1.4457 -0.3718
32500SOL     OW  392   6.763   0.223   3.598  0.0846 -0.4149  0.5766
32500SOL    HW1  393   6.784   0.308   3.558 -0.9789 -0.4598 -0.1256
32500SOL    HW2  394   6.667   0.222   3.602  0.0548 -1.8071  0.0781
32501SOL     OW  395   2.606   4.363   3.396  0.2045 -0.3571  0.4499
32501SOL    HW1  396   2.551   4.322   3.463 -1.5498  0.4580 -0.4180
32501SOL    HW2  397   2.572   4.329   3.313  0.2518  1.0266 -0.1636
32502SOL     OW  398   6.582   2.245  10.623  0.2604 -0.5217  0.2760
32502SOL    HW1  399   6.540   2.280  10.545  0.2007 -0.8644  0.1538
32502SOL    HW2  400   6.656   2.304  10.639  0.3133 -0.4896 -0.0786
32503SOL     OW  401   8.556   7.294   8.290 -0.0292 -0.0779 -0.3256
32503SOL    HW1  402   8.472   7.309   8.334  0.0066  0.2853 -0.3703
32503SOL    HW2  403   8.583   7.207   8.318 -0.7736 -0.5011 -0.8780
32504SOL     OW  404   2.861   3.567   1.443  0.2666 -0.3659  0.2256
32504SOL    HW1  405   2.944   3.567   1.396  0.2160  0.3723  0.1351
32504SOL    HW2  406   2.802   3.619   1.388  0.0924  0.1571  0.9032
32505SOL     OW  407   8.480   2.296   2.883 -0.6075  0.3672  0.1104
32505SOL    HW1  408   8.411   2.229   2.876  0.1618 -0.3714 -0.7639
32505SOL    HW2  409   8.444   2.372   2.839 -0.3125 -0.5185 -1.7708
32506SOL     OW  410   7.106   0.251   9.234  0.2809 -0.1334  0.0534
32506SOL    HW1  411   7.045   0.272   9.305 -0.4566  0.8372 -0.8536
32506SOL    HW2  412   7.192   0.252   9.277 -0.1220  0.7025  0.8865
32507SOL     OW  413   0.752   0.948   4.323 -0.5595  0.4493  0.2743
32507SOL    HW1  414   0.702   1.029   4.338 -0.1741  0.8070 -0.3243
32507SOL    HW2  415   0.814   0.944   4.396  1.3924  2.2408 -1.1713
32508SOL     OW  416  10.081   7.185   9.779  0.0776 -0.1226  0.2586
32508SOL    HW1  417  10.128   7.153   9.703  0.3090  1.4137 -0.2828
32508SOL    HW2  418  10.115   7.133   9.852 -0.1410 -1.6024 -0.6586
32509SOL     OW  419   7.256  10.774   0.543 -0.4370  0.0694  0.1128
32509SOL    HW1  420   7.344  10.741   0.527 -0.7002 -0.0091 -1.3376
32509SOL    HW2  421   7.217  10.781   0.456 -1.1393  2.1529  0.5218
32510SOL     OW  422   5.003   5.431   8.378  0.2572  0.0789 -0.3739
32510SOL    HW1  423   4.916   5.427   8.339  0.7397  0.5537 -1.5587
32510SOL    HW2  424   4.995   5.384   8.461 -0.7173 -1.3566 -1.2412
32511SOL     OW  425   3.862   9.298   7.395  0.4461  0.1737  0.1506
32511SOL    HW1  426   3.828   9.369   7.341 -0.4699  0.3979  0.9966
32511SOL    HW2  427   3.791   9.277   7.456 -0.6120 -3.6132 -2.0451
32512SOL     OW  428   8.742   9.872   6.575 -0.4659  0.0568 -0.0808
32512SOL    HW1  429   8.783   9.826   6.648 -0.2970 -1.4583 -1.0569
32512SOL    HW2  430   8.807   9.937   6.548 -0.5222  0.6127  1.0819
32513SOL     OW  431   8.894   6.163   4.892  0.2513  0.8524  0.1606
32513SOL    HW1  432   8.861   6.252   4.906  0.1177  0.6205  1.4020
32513SOL    HW2  433   8.947   6.144   4.969 -1.8560 -1.1035  1.2612
32514SOL     OW  434   3.609   5.811   2.014 -0.2098 -0.1404 -0.2083
32514SOL    HW1  435   3.538   5.748   2.004 -0.3420  0.1125 -0.9455
32514SOL    HW2  436   3.638   5.829   1.924 -0.6636  1.4103 -0.0732
32515SOL     OW  437   0.829   2.490   2.969 -0.4215 -0.3190 -0.1146
32515SOL    HW1  438   0.903   2.430   2.958  0.1623  0.6862 -2.2284
32515SOL    HW2  439   0.794   2.501   2.881 -2.4691  0.0514  0.6938
32516SOL     OW  440   8.652   9.002   7.803  0.1007 -0.5822 -0.5942
32516SOL    HW1  441   8.649   9.097   7.816  1.3271 -0.3310 -1.8482
32516SOL    HW2  442   8.594   8.966   7.870 -0.1403  1.0324  0.1026
32517SOL     OW  443   0.940   0.248   5.121 -0.1541 -0.4432  0.2049
32517SOL    HW1  444   0.893   0.166   5.136 -0.6867  0.1612  2.0361
32517SOL    HW2  445   1.021   0.239   5.171  0.9895 -0.8184 -1.6214
32518SOL     OW  446   2.911   8.973   1.779 -0.0113  0.3049  0.0226
32518SOL    HW1  447   2.857   8.907   1.735  1.0075 -1.2396  0.9933
32518SOL    HW2  448   2.852   9.046   1.793 -1.4769 -0.7867 -0.1916
32519SOL     OW  449   1.695   5.287   2.357  0.8308 -0.3485 -0.5307
32519SOL    HW1  450   1.739   5.263   2.275  0.8605 -0.4848 -0.4750
32519SOL    HW2  451   1.603   5.266   2.341  1.0481 -1.7957 -0.0023
32520SOL     OW  452   1.353   1.449   2.623  0.4244 -0.4283 -0.1976
32520SOL    HW1  453   1.395   1.365   2.606 -2.4383 -2.0742  0.1084
32520SOL    HW2  454   1.310   1.471   2.540 -2.4220 -1.6217  0.8061
32521SOL     OW  455  10.107   0.796   3.368 -0.5099 -0.2225  0.0508
32521SOL    HW1  456  10.053   0.768   3.295 -1.8135  1.8523  0.1496
32521SOL    HW2  457  10.156   0.871   3.335  0.3070 -0.4183  0.7640
32522SOL     OW  458  10.430   0.401   8.728  0.5504 -0.3099  0.0911
32522SOL    HW1  459  10.507   0.422   8.781 -0.0064 -1.1874  1.2898
32522SOL    HW2  460  10.444   0.447   8.646  2.6427 -0.9202  0.0578
32523SOL     OW  461   8.083   8.303   8.213 -0.2635 -0.3086  0.4816
32523SOL    HW1  462   8.157   8.249   8.241 -0.3247 -0.2395  0.7831
32523SOL    HW2  463   8.043   8.332   8.295  0.4352  1.1099  0.3647
32524SOL     OW  464   4.265   9.418   6.112 -0.0924 -0.0454  0.3665
32524SOL    HW1  465   4.307   9.482   6.054  2.1535  0.0809  2.0406
32524SOL    HW2  466   4.297   9.333   6.082  0.2357 -0.0618  0.7620
32525SOL     OW  467   0.265   5.381   9.998 -0.0163  0.3056 -0.6972
32525SOL    HW1  468   0.287   5.354   9.908 -1.3598  0.4557 -1.1008
32525SOL    HW2  469   0.310   5.317  10.053 -1.7312 -1.8211 -1.5930
32526SOL     OW  470   2.404   1.057   5.800  1.3581  0.2167  0.2809
32526SOL    HW1  471   2.436   1.099   5.880  0.1154  1.0933  0.3474
32526SOL    HW2  472   2.343   1.121   5.763 -1.4977 -1.9436  0.9524
32527SOL     OW  473   6.416  10.349   7.856 -0.3449  0.0540  0.2126
32527SOL    HW1  474   6.410  10.350   7.952 -0.1729 -0.1027  0.2240
32527SOL    HW2  475   6.481  10.416   7.836 -0.9630  0.6641  0.1623
32528SOL     OW  476   6.953   7.364   7.147 -0.0601 -0.0657  0.0254
32528SOL    HW1  477   7.010   7.397   7.217 -0.8121 -1.1052  1.1790
32528SOL    HW2  478   6.868   7.403   7.166 -0.2916 -0.4326 -0.2602
32529SOL     OW  479   7.151   7.918   7.269 -0.0066 -0.0462 -0.5499
32529SOL    HW1  480   7.134   7.936   7.176  0.6915 -0.8150 -0.8397
32529SOL    HW2  481   7.211   7.844   7.268  0.9979  0.7257  0.4989
32530SOL     OW  482   6.291   9.976   9.552 -0.0728 -0.0154  0.9412
32530SOL    HW1  483   6.291  10.062   9.510 -1.1477 -0.5609 -0.2260
32530SOL    HW2  484   6.378   9.942   9.534 -0.6378 -0.4133 -1.3056
32531SOL     OW  485   6.731   2.360   8.368 -0.0715 -0.1395 -1.0195
32531SOL    HW1  486   6.773   2.445   8.380  0.8098 -0.5111 -1.3899
32531SOL    HW2  487   6.803   2.298   8.358 -0.6495 -0.5686 -3.3047
32532SOL     OW  488   2.248   8.049   9.836  0.0646 -0.3904 -0.4083
32532SOL    HW1  489   2.253   8.102   9.916 -1.7574 -2.2773  1.0604
32532SOL    HW2  490   2.304   8.095   9.774 -1.5700  3.4279  0.6410
32533SOL     OW  491   4.350   9.312   5.706  0.3776 -0.3483  0.3180
32533SOL    HW1  492   4.277   9.325   5.646 -0.4562 -2.3610  0.8087
32533SOL    HW2  493   4.407   9.250   5.662  1.8752  1.2268 -0.0705
32534SOL     OW  494   6.931   3.783   4.944 -0.0815 -0.5951  0.2701
32534SOL    HW1  495   6.850   3.804   4.896  0.3254  0.6236  0.0621
32534SOL    HW2  496   6.997   3.771   4.875  0.0593 -0.9198  0.4610
32535SOL     OW  497   0.020   1.973   3.205  0.2123  0.1046  0.2295
32535SOL    HW1  498   0.029   1.880   3.181 -1.8330 -0.1412  0.1924
32535SOL    HW2  499   0.007   2.018   3.122 -0.7391  0.1284  0.3810
32536SOL     OW  500   7.819   9.676   4.613  0.2434  0.1297 -0.9405
32536SOL    HW1  501   7.881   9.614   4.651  0.1337  1.0593  0.8559
32536SOL    HW2  502   7.734   9.649   4.648  0.2480  1.4979  0.2360
32537SOL     OW  503   5.841   8.476   6.526 -0.1210 -0.1483 -0.2545
32537SOL    HW1  504   5.823   8.559   6.569  2.6099  0.2843  0.2562
32537SOL    HW2  505   5.882   8.422   6.594 -0.7899 -1.5226 -0.8863
32538SOL     OW  506   6.144   6.512   0.912 -1.0074  0.0248  0.2663
32538SOL    HW1  507   6.110   6.553   0.991 -0.2849  0.8767  0.1528
32538SOL    HW2  508   6.236   6.494   0.932 -0.9853 -0.3380 -0.1509
32539SOL     OW  509   0.526   2.552   1.179 -0.3416 -0.2653 -0.1844
32539SOL    HW1  510   0.545   2.468   1.220  0.2893  0.5171  1.2402
32539SOL    HW2  511   0.436   2.572   1.206  0.2686  0.5173  1.4071
32540SOL     OW  512   1.718   2.270   5.723 -0.0989  0.2442 -0.1814
32540SOL    HW1  513   1.647   2.334   5.732  0.7182  0.9970  1.2958
32540SOL    HW2  514   1.678   2.187   5.749 -0.6903  0.4769 -0.3194
32541SOL     OW  515   8.068   5.711   0.216 -0.0072  0.5320  0.9217
32541SOL    HW1  516   8.154   5.751   0.212 -0.2048  0.9885  1.1955
32541SOL    HW2  517   8.009   5.781   0.243 -0.8009  0.7280 -1.1288
32542SOL     OW  518   5.099   2.969  10.596  0.1149 -0.0293  0.2629
32542SOL    HW1  519   5.068   2.878  10.597 -0.9996  0.3363  0.3221
32542SOL    HW2  520   5.101   2.993  10.503  0.3199 -0.0800  0.2530
32543SOL     OW  521   8.689   8.076   5.361 -0.0531  0.1183  0.1894
32543SOL    HW1  522   8.684   8.104   5.453 -1.8874  1.9776 -0.3807
32543SOL    HW2  523   8.620   8.127   5.318  1.7535  0.4436 -2.5062
32544SOL     OW  524   7.279  10.050   1.289  0.4071  0.2298 -0.2552
32544SOL    HW1  525   7.362  10.082   1.325  0.6183 -1.1047  0.5065
32544SOL    HW2  526   7.228  10.023   1.365 -0.1638 -0.2798 -0.8008
32545SOL     OW  527   7.981   3.856   1.226 -0.1616 -0.1958 -0.2942
32545SOL    HW1  528   7.964   3.890   1.138 -0.9321 -0.8897 -0.4366
32545SOL    HW2  529   8.053   3.794   1.214 -1.2504 -1.4208 -0.7375
32546SOL     OW  530   2.916   4.484   6.410 -0.4133 -0.6336 -0.0720
32546SOL    HW1  531   2.830   4.494   6.453  0.2335 -0.2490  1.1868
32546SOL    HW2  532   2.905   4.525   6.324 -1.3995 -0.2906  0.2019
32547SOL     OW  533   0.785   0.224   1.968 -0.7036 -0.1246 -0.4110
32547SOL    HW1  534   0.851   0.154   1.975 -2.0822 -1.3742  0.8176
32547SOL    HW2  535   0.836   0.305   1.966  0.8878 -1.0560  0.3294
32548SOL     OW  536   2.622   5.972   7.437  0.1287 -0.3223  0.5106
32548SOL    HW1  537   2.538   5.933   7.464 -1.5449  2.0686 -0.9024
32548SOL    HW2  538   2.648   6.025   7.512  0.0126 -0.5103  0.6859
32549SOL     OW  539   3.098   1.855   6.555 -0.3612  0.0837 -0.2022
32549SOL    HW1  540   3.011   1.869   6.517  0.2711  0.3438 -1.5961
32549SOL    HW2  541   3.136   1.943   6.561 -0.2116 -0.0200  0.4853
32550SOL     OW  542  10.762   4.051   8.464 -0.1065 -0.2141  0.0146
32550SOL    HW1  543  10.718   3.966   8.459  0.3743 -0.4082 -1.6715
32550SOL    HW2  544  10.847   4.031   8.503 -0.2400 -0.4009  0.2121
32551SOL     OW  545   8.491   9.644   7.892  0.3034 -0.0673 -0.1121
32551SOL    HW1  546   8.488   9.717   7.830  0.9695 -0.3233 -0.4527
32551SOL    HW2  547   8.469   9.567   7.839 -1.7459  0.0260  0.5098
32552SOL     OW  548   7.659   4.735   0.064  0.3396  0.4287 -0.2011
32552SOL    HW1  549   7.700   4.649   0.058  0.1685  0.2915  0.5218
32552SOL    HW2  550   7.731   4.796   0.070  0.4521  0.2687  0.0875
32553SOL     OW  551   6.420  10.773   8.866 -0.8321  0.4467  0.4214
32553SOL    HW1  552   6.503  10.803   8.903 -0.9534 -0.7952  1.7846
32553SOL    HW2  553   6.445  10.720   8.790 -0.2277 -1.2933  1.7677
32554SOL     OW  554  10.093  10.210   3.594  0.3242  0.3986 -0.0063
32554SOL    HW1  555  10.002  10.209   3.623  0.4684 -1.1099  0.4657
32554SOL    HW2  556  10.143  10.175   3.667  1.3937  1.7909 -0.0226
32555SOL     OW  557   9.987   9.877   9.016 -0.1777  0.2723  0.1600
32555SOL    HW1  558   9.956   9.846   9.102  0.6801 -2.6750 -0.4832
32555SOL    HW2  559   9.970   9.971   9.018 -0.9618  0.2025  3.2307
32556SOL     OW  560  10.501   3.279  10.025 -0.3922  0.1276  0.0051
32556SOL    HW1  561  10.411   3.293  10.053  0.2399  2.3874  1.2004
32556SOL    HW2  562  10.521   3.190  10.052 -1.3169  0.6377  2.7609
32557SOL     OW  563   7.686   5.931   2.607  0.3709 -0.1090  0.0088
32557SOL    HW1  564   7.668   5.873   2.682  2.8459 -1.8200 -0.6097
32557SOL    HW2  565   7.767   5.976   2.630  0.0448  0.9289 -0.7997
32558SOL     OW  566   2.411   0.630   6.764 -0.1760 -0.8185  0.2677
32558SOL    HW1  567   2.352   0.565   6.804  0.3456 -1.2349  0.3743
32558SOL    HW2  568   2.360   0.667   6.692  0.2048 -2.8443 -1.1505
32559SOL     OW  569   5.058   4.683   5.904  0.0472 -0.5781 -0.4077
32559SOL    HW1  570   5.024   4.595   5.915 -1.6896 -0.0811 -1.4832
32559SOL    HW2  571   5.130   4.674   5.842  2.4307 -1.7183  2.2803
32560SOL     OW  572   4.073   2.948   7.389  0.6271 -0.0950  0.7330
32560SOL    HW1  573   4.066   3.035   7.430  0.0319  0.7988 -1.1585
32560SOL    HW2  574   3.987   2.935   7.349  1.3756 -0.6490 -0.7354
32561SOL     OW  575  10.288   8.266   5.598  0.0738  0.0934 -0.0880
32561SOL    HW1  576  10.332   8.339   5.642  1.2212  0.1947 -1.3487
32561SOL    HW2  577  10.245   8.306   5.523 -0.4323 -0.3259 -0.0219
32562SOL     OW  578   2.448   6.836   8.028  0.5338  0.5603 -0.3627
32562SOL    HW1  579   2.386   6.795   8.089  1.7640  0.4050  0.8367
32562SOL    HW2  580   2.401   6.912   7.994  0.2037  1.3121  1.6589
32563SOL     OW  581   6.548   7.630   9.956 -0.0922 -0.3299 -0.2073
32563SOL    HW1  582   6.528   7.723   9.968 -1.1694 -0.4583 -0.8523
32563SOL    HW2  583   6.536   7.592  10.043 -1.1619 -0.1156 -0.2523
32564SOL     OW  584   8.042  10.247   9.737  0.3080  0.1664 -0.2374
32564SOL    HW1  585   8.041  10.340   9.756  0.6850 -0.0063  0.6546
32564SOL    HW2  586   8.096  10.239   9.658 -1.7836  0.9468 -1.8154
32565SOL     OW  587   8.914   0.691   6.774  0.2732  0.7870  0.1514
32565SOL    HW1  588   8.856   0.755   6.816  0.3100  0.1509  1.2216
32565SOL    HW2  589   8.998   0.704   6.818  0.8534  1.4332 -1.1141
32566SOL     OW  590   6.855  10.140   2.161 -0.2971 -0.3285 -0.0435
32566SOL    HW1  591   6.822  10.083   2.231 -0.6807  0.9403  0.8323
32566SOL    HW2  592   6.807  10.112   2.083 -1.3897 -0.4057  0.6300
32567SOL     OW  593   5.887   4.525   7.764 -0.4032  0.2110 -0.6427
32567SOL    HW1  594   5.831   4.576   7.822 -0.5357 -1.0477  0.3855
32567SOL    HW2  595   5.895   4.579   7.685 -3.1158  0.4058 -0.8751
32568SOL     OW  596   6.767   8.771   2.681 -0.5585 -0.3923 -0.4190
32568SOL    HW1  597   6.832   8.791   2.614 -1.0108 -2.6998 -1.6501
32568SOL    HW2  598   6.693   8.828   2.661  0.5691  1.3807  0.2529
32569SOL     OW  599   7.451   9.548   6.691  0.5501 -0.3118 -0.3219
32569SOL    HW1  600   7.423   9.485   6.758  0.2705  0.6852  0.5177
32569SOL    HW2  601   7.482   9.624   6.741  0.9347  0.2046 -1.3201
32570SOL     OW  602   5.973   9.274   8.800  0.2831 -0.4151  0.0693
32570SOL    HW1  603   6.025   9.206   8.842  0.7524  0.2028  0.5259
32570SOL    HW2  604   5.886   9.267   8.840  0.7725  0.2721  1.3061
32571SOL     OW  605   8.776   5.674   2.135 -0.7242  0.2711 -0.4488
32571SOL    HW1  606   8.742   5.675   2.225  2.0980  0.1245  0.7338
32571SOL    HW2  607   8.858   5.723   2.141  1.3542 -2.7029 -2.1110
32572SOL     OW  608   9.746   6.321   5.425  1.1135  0.1646  0.7853
32572SOL    HW1  609   9.713   6.297   5.338  0.6923  0.4434  0.8641
32572SOL    HW2  610   9.739   6.240   5.476  0.2361  0.2951  0.8885
32573SOL     OW  611   7.924   8.489   4.153  0.1423  0.0615 -0.1004
32573SOL    HW1  612   7.886   8.514   4.238  0.3127  2.0036 -0.5690
32573SOL    HW2  613   7.945   8.396   4.164 -1.4223 -0.1761  1.3974
32574SOL     OW  614   7.326   2.204   8.178  0.2275  0.0370  0.8154
32574SOL    HW1  615   7.264   2.246   8.237 -1.4771  0.6936 -1.2808
32574SOL    HW2  616   7.353   2.125   8.223 -0.6844  0.6929  2.6012
32575SOL     OW  617   4.519   1.284   3.202 -0.5264  0.4780  0.0697
32575SOL    HW1  618   4.453   1.320   3.143 -1.3644 -0.0299  0.6945
32575SOL    HW2  619   4.491   1.195   3.220 -0.3718  0.6682  1.3645
32576SOL     OW  620   5.733   1.298   1.069  0.1314 -0.3714  0.1921
32576SOL    HW1  621   5.762   1.371   1.013 -1.1176 -0.7314 -0.9853
32576SOL    HW2  622   5.645   1.324   1.098  0.6024 -0.3782  1.6940
32577SOL     OW  623  10.562   4.718   7.091  0.5411 -0.0811  0.0773
32577SOL    HW1  624  10.502   4.738   7.162  1.2098  0.3314  0.5370
32577SOL    HW2  625  10.617   4.797   7.083  0.7562 -0.2914 -0.6026
32578SOL     OW  626   6.156   1.462  10.201  0.0216  0.3080  0.0145
32578SOL    HW1  627   6.245   1.450  10.168 -0.8087 -1.8291 -1.6141
32578SOL    HW2  628   6.159   1.430  10.291  0.6606 -0.8358 -0.4006
32579SOL     OW  629   7.524   8.226   7.196 -0.1592  0.2311  0.2046
32579SOL    HW1  630   7.540   8.133   7.178  2.5801  0.8156 -0.7998
32579SOL    HW2  631   7.433   8.240   7.169 -0.2044 -1.8554 -0.9318
32580SOL     OW  632   6.434   7.922   5.171  0.3830 -0.4874  0.5113
32580SOL    HW1  633   6.456   8.007   5.133  0.8474 -1.1245 -0.7127
32580SOL    HW2  634   6.463   7.927   5.261  0.0974  0.7668  0.5486
32581SOL     OW  635   3.690  10.401   2.659  0.0250  0.3629 -0.2919
32581SOL    HW1  636   3.740  10.331   2.617 -0.9873 -0.8754  0.4892
32581SOL    HW2  637   3.689  10.472   2.594 -0.8338 -1.1739 -2.0512
32582SOL     OW  638   9.025   8.242   0.019  0.6617  0.2094 -0.2100
32582SOL    HW1  639   9.049   8.215   0.108  0.2463  1.3613  0.2802
32582SOL    HW2  640   8.941   8.199   0.003  1.2554 -0.8853 -0.4944
32583SOL     OW  641   3.408   9.970   1.344 -0.1804 -0.0537  0.4022
32583SOL    HW1  642   3.433   9.990   1.254 -1.2418  0.5148  0.2275
32583SOL    HW2  643   3.320   9.933   1.338  0.3989 -1.6572  1.0555
32584SOL     OW  644   9.621   5.610   2.415 -0.3892  0.1374 -0.0800
32584SOL    HW1  645   9.662   5.535   2.459 -0.4153 -0.2474 -0.6909
32584SOL    HW2  646   9.634   5.683   2.475 -1.0721 -0.5234  0.8913
32585SOL     OW  647   0.749   4.580   0.553 -0.6711  0.3787 -0.1802
32585SOL    HW1  648   0.755   4.629   0.472 -0.0103 -0.5601 -0.7261
32585SOL    HW2  649   0.666   4.607   0.593  0.0287  2.4938 -0.0523
32586SOL     OW  650   1.116   0.581  10.353  0.1482 -0.4985 -0.1288
32586SOL    HW1  651   1.152   0.618  10.433  0.7282 -0.7402 -0.2771
32586SOL    HW2  652   1.085   0.656  10.303 -1.3631 -0.4103  0.8567
32587SOL     OW  653   7.092   3.249   2.398 -0.0999 -0.1251  0.6421
32587SOL    HW1  654   7.179   3.233   2.361  0.9605  1.9589  2.0741
32587SOL    HW2  655   7.096   3.211   2.486 -0.2503  0.9544  1.1259
32588SOL     OW  656   5.355   1.093   4.436  0.0424  0.1866 -0.2202
32588SOL    HW1  657   5.449   1.111   4.445  0.6429 -2.2331 -0.8226
32588SOL    HW2  658   5.320   1.171   4.393  1.6967  1.2966  0.3305
32589SOL     OW  659   0.024   7.483   2.337  0.3120 -0.1598 -0.4102
32589SOL    HW1  660   0.077   7.516   2.410  1.0243  0.2228 -1.0946
32589SOL    HW2  661   0.011   7.559   2.280 -1.5681 -0.0732  0.0774
32590SOL     OW  662   6.920   7.036   3.970  0.4883 -0.3413 -0.4760
32590SOL    HW1  663   6.837   7.027   3.923 -0.3875 -0.4076  1.0310
32590SOL    HW2  664   6.936   6.948   4.005  1.7213 -0.5803 -1.5507
32591SOL     OW  665   2.742  10.185   4.396  0.2197 -0.0746 -0.5060
32591SOL    HW1  666   2.732  10.091   4.383 -1.1761 -0.0188  0.0402
32591SOL    HW2  667   2.775  10.193   4.486 -1.4372  0.0102  0.1209
32592SOL     OW  668  10.257   9.119   6.878  0.4844 -0.6027  0.1507
32592SOL    HW1  669  10.181   9.064   6.897  1.0382 -1.4513 -0.0343
32592SOL    HW2  670  10.282   9.155   6.963 -0.0272 -0.4437  0.2357
32593SOL     OW  671   9.266   3.472   6.655 -0.8217 -0.1351 -0.7067
32593SOL    HW1  672   9.358   3.476   6.627 -0.8722  0.0266 -0.8500
32593SOL    HW2  673   9.233   3.560   6.640 -0.7218  0.0898  0.3383
32594SOL     OW  674   8.504   3.848  10.731 -0.1534 -0.3444  0.4483
32594SOL    HW1  675   8.435   3.897  10.776  0.2863  1.1862 -0.4634
32594SOL    HW2  676   8.581   3.860  10.787 -0.1215 -0.2428  0.3845
32595SOL     OW  677   6.584  10.755   1.202  0.0014 -0.4246 -0.0049
32595SOL    HW1  678   6.634  10.739   1.121 -0.5158  2.7053 -1.0605
32595SOL    HW2  679   6.626  10.831   1.241 -1.7261  0.0405  1.0003
32596SOL     OW  680   3.793   9.964   2.680 -0.2810 -0.2420 -0.5851
32596SOL    HW1  681   3.721   9.905   2.659  0.4408 -1.4757  0.2748
32596SOL    HW2  682   3.870   9.907   2.685  0.4157  0.7541  0.4040
32597SOL     OW  683   5.008   0.514   8.899 -0.5795 -0.0870 -1.0432
32597SOL    HW1  684   5.043   0.442   8.951  0.2907 -0.5011 -2.1647
32597SOL    HW2  685   5.042   0.593   8.941 -0.4086 -0.3910 -0.6065
32598SOL     OW  686   8.673   4.190   3.653  0.1345  0.1827 -0.1590
32598SOL    HW1  687   8.712   4.243   3.583  0.2943 -1.5311 -1.4291
32598SOL    HW2  688   8.596   4.239   3.681  0.6991  1.4439 -0.7511
32599SOL     OW  689   4.039   2.322   6.503 -0.2510 -0.2473  0.3060
32599SOL    HW1  690   4.085   2.239   6.494  0.0028 -0.1576  0.7248
32599SOL    HW2  691   4.098   2.375   6.558 -0.8993 -0.1631  0.9294
32600SOL     OW  692   3.967   7.950   7.824  0.2391 -0.3124 -0.0304
32600SOL    HW1  693   3.943   7.867   7.783  0.5939 -1.8713  2.6349
32600SOL    HW2  694   4.056   7.968   7.794  0.5151 -1.4237  0.0849
32601SOL     OW  695   1.094   5.683   6.646 -0.3218 -0.4336  0.5972
32601SOL    HW1  696   1.057   5.600   6.616 -3.6859  1.1921 -0.2582
32601SOL    HW2  697   1.095   5.675   6.742  1.4126 -2.1220  0.5112
32602SOL     OW  698   2.143   3.499   5.609  0.0565 -0.1320 -0.3370
32602SOL    HW1  699   2.111   3.537   5.527  0.5614 -0.1782 -0.5560
32602SOL    HW2  700   2.237   3.516   5.609  0.4403 -2.0774 -0.8106
32603SOL     OW  701   8.047   8.079  10.657 -0.5586 -0.0332 -0.4998
32603SOL    HW1  702   8.008   8.166  10.668  0.1420  0.0771  1.3708
32603SOL    HW2  703   7.997   8.040  10.585  0.1362  2.4592 -2.4534
32604SOL     OW  704   2.519   6.261   9.505  0.0305  0.1592  0.0602
32604SOL    HW1  705   2.543   6.278   9.596 -0.1959  0.5496  0.0491
32604SOL    HW2  706   2.479   6.174   9.506 -2.3530  1.1818  0.7867
32605SOL     OW  707   0.814  10.378   5.442  0.0153  0.0745 -0.7433
32605SOL    HW1  708   0.779  10.448   5.386 -1.9195 -0.7774 -0.6734
32605SOL    HW2  709   0.743  10.358   5.503  2.1161  1.1577  2.3240
32606SOL     OW  710   6.404   0.820   5.883  0.1434 -0.2948  0.3193
32606SOL    HW1  711   6.399   0.892   5.944  0.4247  1.3300 -1.4707
32606SOL    HW2  712   6.498   0.809   5.867  0.0351  1.4916 -2.1529
32607SOL     OW  713   1.954   2.517   0.035 -0.3205 -0.0363  0.2431
32607SOL    HW1  714   1.883   2.581   0.029 -0.3270 -0.1850 -2.9048
32607SOL    HW2  715   2.009   2.548   0.107 -2.3005  1.3675  1.2390
32608SOL     OW  716   4.953   5.176   0.761 -0.0592  0.0175 -0.0879
32608SOL    HW1  717   5.029   5.164   0.705  0.8497 -0.8353  1.2658
32608SOL    HW2  718   4.890   5.225   0.707  1.0913 -0.0334 -1.5242
32609SOL     OW  719   9.341   5.260   3.469 -0.6665  0.0106 -0.1171
32609SOL    HW1  720   9.386   5.324   3.525  0.9837  0.2859 -1.6303
32609SOL    HW2  721   9.338   5.180   3.521  0.6197  0.3123  0.4702
32610SOL     OW  722   3.277   1.810   4.959 -0.6322 -0.1497 -0.3161
32610SOL    HW1  723   3.200   1.780   4.910 -2.3325  1.9544  0.9223
32610SOL    HW2  724   3.309   1.885   4.910 -2.3436  1.9744  1.6054
32611SOL     OW  725   6.428   4.167   4.003  0.1461 -0.0609  0.3415
32611SOL    HW1  726   6.379   4.152   3.923 -2.0594  1.0120  1.4022
32611SOL    HW2  727   6.486   4.091   4.011  0.4946 -0.1384 -2.2597
32612SOL     OW  728   0.430  10.420   5.991 -0.0528  0.4207 -0.1995
32612SOL    HW1  729   0.498  10.379   6.044 -0.6717  0.7882  0.8986
32612SOL    HW2  730   0.401  10.350   5.932  1.1251  0.2114 -0.5589
32613SOL     OW  731   4.831   4.398   2.124 -0.5626  0.0411  0.3147
32613SOL    HW1  732   4.782   4.431   2.049  1.4982 -0.6086 -1.4210
32613SOL    HW2  733   4.826   4.303   2.116  1.0619 -0.0492 -0.0305
32614SOL     OW  734   5.924   6.113   9.496  0.3715  0.4922  0.3179
32614SOL    HW1  735   5.941   6.021   9.512 -1.5993  0.3665  2.2040
32614SOL    HW2  736   5.942   6.126   9.403  2.4405 -1.3232  0.3903
32615SOL     OW  737   9.564   6.692   7.662  0.0076  0.5443  0.4551
32615SOL    HW1  738   9.613   6.730   7.735  0.0645 -1.4289  1.5216
32615SOL    HW2  739   9.496   6.640   7.704 -0.3421 -0.1505 -0.9289
32616SOL     OW  740   9.121   6.317   4.983  0.0935  0.1218  0.0565
32616SOL    HW1  741   9.048   6.373   4.957  0.6464  0.4039 -0.9520
32616SOL    HW2  742   9.188   6.378   5.015  0.5308  0.0118 -0.6286
32617SOL     OW  743   2.071  10.615  10.064 -0.4325  0.0557 -0.5240
32617SOL    HW1  744   2.093  10.654  10.148 -2.7116  0.0628  0.1242
32617SOL    HW2  745   2.062  10.521  10.082  1.3190 -0.3010 -1.2864
32618SOL     OW  746   8.707  10.409   1.807  0.4245 -0.6056 -0.1880
32618SOL    HW1  747   8.670  10.445   1.888 -0.6977 -0.6650 -0.6539
32618SOL    HW2  748   8.724  10.486   1.752  0.1032 -0.6383 -0.3344
32619SOL     OW  749   1.240   8.756   4.136 -0.5102 -0.8654 -0.4243
32619SOL    HW1  750   1.273   8.840   4.168 -1.0273 -0.4077 -1.0999
32619SOL    HW2  751   1.179   8.778   4.067 -3.6172 -1.5773  1.8650
32620SOL     OW  752  10.225   9.728   5.714  0.0350  0.4463 -0.0112
32620SOL    HW1  753  10.136   9.721   5.748 -0.4501  1.2593 -1.0629
32620SOL    HW2  754  10.223   9.803   5.655  0.8531 -0.7905 -1.7417
32621SOL     OW  755  10.613  10.650   0.542  0.4372  0.3241 -0.5088
32621SOL    HW1  756  10.704  10.659   0.513  1.5615  0.2157  2.6248
32621SOL    HW2  757  10.596  10.731   0.591 -1.4213  0.6220 -1.5531
32622SOL     OW  758   7.227   1.563   5.708 -0.2264 -0.2024  0.1682
32622SOL    HW1  759   7.155   1.589   5.651 -2.8174 -0.3470  3.1372
32622SOL    HW2  760   7.249   1.642   5.757  1.7104 -0.1735 -0.6571
32623SOL     OW  761   0.456   1.780   6.671 -0.0019  0.1381  0.1146
32623SOL    HW1  762   0.427   1.865   6.703 -0.0696 -0.1578  0.8641
32623SOL    HW2  763   0.539   1.764   6.716 -0.3737 -0.5346  0.5854
32624SOL     OW  764   3.710   3.936   9.965 -0.4093 -0.3115 -0.1732
32624SOL    HW1  765   3.644   3.976  10.021 -0.1314 -0.5492  0.3302
32624SOL    HW2  766   3.751   4.010   9.919  0.7239  0.0879  1.4170
32625SOL     OW  767   1.561   9.394   8.637  0.4653  0.1783  0.6144
32625SOL    HW1  768   1.566   9.435   8.550 -2.8650  0.5294  0.4892
32625SOL    HW2  769   1.642   9.342   8.642  1.4845  1.2670 -2.0675
32626SOL     OW  770   5.220   2.569  10.564  0.2333  0.8113  0.0265
32626SOL    HW1  771   5.146   2.623  10.593  0.3832  0.2915  1.4885
32626SOL    HW2  772   5.238   2.598  10.475 -2.2448  0.4171 -0.6789
32627SOL     OW  773   4.344   9.996   0.629  0.5095  0.2493  0.7196
32627SOL    HW1  774   4.387   9.991   0.543  1.6294 -1.2726  1.3272
32627SOL    HW2  775   4.397  10.060   0.678  1.5213 -0.8786  1.1350
32628SOL     OW  776   8.737   9.170   8.132 -0.0374 -0.1507 -0.2120
32628SOL    HW1  777   8.803   9.240   8.139 -1.6626  1.5077 -0.6666
32628SOL    HW2  778   8.788   9.090   8.121  1.8955  1.0769 -0.6767
32629SOL     OW  779   8.618   3.178   4.790 -0.2165 -0.0706 -0.2898
32629SOL    HW1  780   8.668   3.259   4.797  0.1756 -0.2751 -0.6529
32629SOL    HW2  781   8.536   3.204   4.747 -0.3423  0.2319  0.1331
32630SOL     OW  782   9.573   7.913   9.701 -0.6818 -0.3097 -0.1748
32630SOL    HW1  783   9.538   7.959   9.625  1.1954  2.5058  0.5245
32630SOL    HW2  784   9.654   7.873   9.670 -0.1712  0.4207  0.1963
32631SOL     OW  785   0.125   4.222  10.259 -0.5134 -0.0819 -0.6664
32631SOL    HW1  786   0.192   4.271  10.307 -1.5594  1.4270 -0.6620
32631SOL    HW2  787   0.155   4.222  10.168  0.2340 -0.7568 -0.4283
32632SOL     OW  788   3.521   3.766   7.665 -0.0993 -0.1051  0.2021
32632SOL    HW1  789   3.525   3.671   7.651 -2.5938 -0.3850  0.7755
32632SOL    HW2  790   3.512   3.803   7.578 -0.5901 -0.5530  0.0542
32633SOL     OW  791   2.483   9.657   8.201  0.0308  0.4064  0.7148
32633SOL    HW1  792   2.417   9.622   8.261  0.1379  0.7179  1.0108
32633SOL    HW2  793   2.471   9.752   8.205  0.3492  0.4516  0.5974
32634SOL     OW  794   6.962   8.052   8.324 -0.1909 -0.2364 -0.4420
32634SOL    HW1  795   6.980   8.108   8.249  1.6103 -1.3456 -0.8986
32634SOL    HW2  796   7.032   8.072   8.387 -0.5823 -0.6583  0.1400
32635SOL     OW  797   6.169   4.565   5.124 -0.1475  0.2583 -0.2268
32635SOL    HW1  798   6.149   4.480   5.084  0.6244  0.4157 -0.9836
32635SOL    HW2  799   6.145   4.629   5.058  1.1122  0.5268 -0.4450
32636SOL     OW  800   4.087   0.449   6.348 -0.3791  0.3701  0.5175
32636SOL    HW1  801   4.025   0.383   6.377 -0.1138 -0.8707 -1.5306
32636SOL    HW2  802   4.054   0.477   6.263  1.7952 -0.2875 -0.6179
32637SOL     OW  803   4.615   4.504   0.130  0.0445  0.0456 -0.6039
32637SOL    HW1  804   4.664   4.434   0.174  1.3017  1.0456 -0.3559
32637SOL    HW2  805   4.542   4.523   0.189  0.0173 -0.6604 -0.3995
32638SOL     OW  806   0.837  10.310   7.485 -0.5965 -0.1463  0.5405
32638SOL    HW1  807   0.876  10.223   7.471 -0.8597 -0.2042  0.1430
32638SOL    HW2  808   0.907  10.371   7.463 -0.6804 -0.2503 -0.0375
32639SOL     OW  809   3.350   4.658   9.316  0.2536  0.3158 -0.1078
32639SOL    HW1  810   3.432   4.612   9.300 -0.4401 -0.8402 -0.5042
32639SOL    HW2  811   3.290   4.590   9.347 -0.9035  0.8917 -0.9969
32640SOL     OW  812   5.239  10.343   9.134  0.1295  0.0347 -0.0768
32640SOL    HW1  813   5.292  10.373   9.208  0.4966  0.7721 -0.6244
32640SOL    HW2  814   5.161  10.399   9.136  1.2810  1.8068 -1.7069
32641SOL     OW  815   1.078   3.875   2.093 -0.3082 -0.0492 -0.0745
32641SOL    HW1  816   1.057   3.931   2.167 -1.3342  0.0354 -0.4142
32641SOL    HW2  817   1.111   3.934   2.025 -1.9238  0.2477 -0.6356
32642SOL     OW  818   6.380   0.761   1.905  0.2309  0.3273 -0.3780
32642SOL    HW1  819   6.364   0.849   1.871  0.0753  0.4109 -0.0941
32642SOL    HW2  820   6.399   0.775   1.998  2.0875  0.2476 -0.6942
32643SOL     OW  821   8.966   9.091   3.615  0.3373 -0.0316  0.2678
32643SOL    HW1  822   8.955   9.026   3.684  1.4337  0.4900  0.9588
32643SOL    HW2  823   8.938   9.174   3.655  1.0656  0.2887  0.1300
32644SOL     OW  824   3.342  10.143   1.581 -0.1348 -0.2133 -0.2186
32644SOL    HW1  825   3.284  10.207   1.539  1.7337  0.4030 -2.0428
32644SOL    HW2  826   3.372  10.087   1.509  0.3651 -1.4485  0.9204
32645SOL     OW  827  10.584   0.274   4.866 -0.0801  0.5670  0.4573
32645SOL    HW1  828  10.672   0.265   4.827 -0.3194  1.6289 -0.3661
32645SOL    HW2  829  10.547   0.351   4.823 -1.5551 -0.0790  0.5355
32646SOL     OW  830  10.789   2.080   5.420  0.1295 -0.7070 -0.2213
32646SOL    HW1  831  10.730   2.143   5.379  0.6240 -0.7480 -1.0205
32646SOL    HW2  832  10.835   2.129   5.488  0.0562 -0.3632 -0.4211
32647SOL     OW  833   1.173   5.433   7.294 -0.7195  0.4331 -0.2149
32647SOL    HW1  834   1.220   5.509   7.261 -2.0796  0.7794 -1.4563
32647SOL    HW2  835   1.209   5.359   7.244 -0.1514  0.3947  0.2345
32648SOL     OW  836   9.197   1.093   0.515  0.0553  0.4159  0.5869
32648SOL    HW1  837   9.168   1.060   0.600 -0.1356  0.8526  0.6938
32648SOL    HW2  838   9.292   1.081   0.516 -0.1536 -1.6486 -0.0356
32649SOL     OW  839   5.215   2.306   9.257 -0.4244 -0.3524  0.5389
32649SOL    HW1  840   5.258   2.223   9.235 -0.6511 -0.2209 -0.4514
32649SOL    HW2  841   5.274   2.373   9.222 -0.1728 -0.0842  1.4616
32650SOL     OW  842   8.991   3.377   0.949 -0.5349 -0.2996  0.0253
32650SOL    HW1  843   8.948   3.305   0.904 -0.8009  0.6268 -1.2390
32650SOL    HW2  844   8.986   3.354   1.042 -2.3155 -0.9880 -0.2142
32651SOL     OW  845   7.712   0.231  10.465 -0.0134 -0.2045  0.3259
32651SOL    HW1  846   7.799   0.257  10.494 -0.2132  0.3762  0.4336
32651SOL    HW2  847   7.680   0.306  10.415 -0.9571  0.1281  1.3882
32652SOL     OW  848   7.131   5.202   8.322  0.0646  0.2911  0.0370
32652SOL    HW1  849   7.169   5.188   8.235  0.6898 -0.4620  0.4157
32652SOL    HW2  850   7.204   5.231   8.377 -0.3694  0.9651  0.2685
32653SOL     OW  851   7.436   2.254   1.414  0.3865  0.1022 -0.4976
32653SOL    HW1  852   7.508   2.237   1.474 -0.1561 -2.0209 -0.3713
32653SOL    HW2  853   7.467   2.326   1.358  1.7532  0.6242  0.8663
32654SOL     OW  854   6.566   3.374   9.890 -0.8377 -0.8813 -0.2856
32654SOL    HW1  855   6.541   3.338   9.805  0.9436 -1.2774 -0.6905
32654SOL    HW2  856   6.519   3.457   9.896  0.2957 -0.0077 -2.4531
32655SOL     OW  857   1.312   1.990   1.470 -0.1909 -0.3725 -0.5852
32655SOL    HW1  858   1.329   2.083   1.451 -1.1593 -0.2514 -0.8935
32655SOL    HW2  859   1.333   1.981   1.562 -0.1418  0.1699 -0.5364
32656SOL     OW  860   5.927   5.402   9.665 -0.1528  0.1655  0.8400
32656SOL    HW1  861   5.890   5.347   9.596 -0.3640  1.2309  0.0746
32656SOL    HW2  862   6.019   5.411   9.641 -0.3549  1.0400  0.3179
32657SOL     OW  863   7.405   3.722   9.775 -0.0800 -0.2762  0.3904
32657SOL    HW1  864   7.338   3.777   9.736  0.7064 -0.3314 -1.1170
32657SOL    HW2  865   7.441   3.775   9.847 -1.3482 -0.0449  0.8715
32658SOL     OW  866   5.506   0.396   6.009  0.2746  0.5093  0.0489
32658SOL    HW1  867   5.566   0.390   5.935  0.9930  2.4366  0.4079
32658SOL    HW2  868   5.424   0.429   5.972  0.7243  1.7622  0.0962
32659SOL     OW  869   4.741   0.982   1.073 -0.2862 -0.1916  0.2667
32659SOL    HW1  870   4.760   0.999   1.166  0.6662 -0.8436  0.2101
32659SOL    HW2  871   4.818   0.934   1.042 -0.7340 -0.2453 -0.7889
32660SOL     OW  872   2.197   1.782   3.269  0.0558 -0.2096 -0.6468
32660SOL    HW1  873   2.199   1.877   3.284 -1.8253 -0.3307  0.7224
32660SOL    HW2  874   2.186   1.773   3.174  1.0615  0.9071 -0.8892
32661SOL     OW  875  10.148   4.895   0.667  0.4923  0.1042  0.1327
32661SOL    HW1  876  10.154   4.986   0.695 -0.5283 -0.3309  2.0000
32661SOL    HW2  877  10.055   4.883   0.645  0.1645 -0.9218  1.8295
32662SOL     OW  878  10.756   9.304   4.242  0.1985  0.5952 -0.2996
32662SOL    HW1  879  10.828   9.276   4.186  0.0507  1.9519 -1.2123
32662SOL    HW2  880  10.798   9.355   4.312  0.2693 -0.0689  0.1508
32663SOL     OW  881  10.011   1.937   0.736  0.5533  0.0510  0.2420
32663SOL    HW1  882   9.917   1.949   0.745  0.5468  0.5735 -0.4680
32663SOL    HW2  883  10.045   1.944   0.826  0.2575  3.0224  0.2352
32664SOL     OW  884  10.326   7.856   6.133  0.0686 -0.3094  0.7602
32664SOL    HW1  885  10.318   7.876   6.039 -0.3409 -2.0792  0.3913
32664SOL    HW2  886  10.278   7.926   6.176  0.0319  0.3877 -0.3545
32665SOL     OW  887   9.887   2.449   2.566 -0.6367 -0.0362 -0.0881
32665SOL    HW1  888   9.829   2.452   2.490  0.8360 -1.3821 -1.3597
32665SOL    HW2  889   9.834   2.409   2.635 -1.2356 -1.2969 -1.2276
32666SOL     OW  890   6.339   8.526  10.548  0.0557  0.1881  0.1238
32666SOL    HW1  891   6.269   8.467  10.575 -1.8472  1.6259 -1.3409
32666SOL    HW2  892   6.346   8.514  10.453  1.5503  0.3539  0.1900
32667SOL     OW  893   6.573   5.988   9.810  0.0150 -0.1259  0.1182
32667SOL    HW1  894   6.665   5.999   9.785 -0.0781 -0.5211 -0.4120
32667SOL    HW2  895   6.576   5.969   9.904  0.3185  2.1059  0.6092
32668SOL     OW  896   6.333  10.500   4.006  0.6343 -0.2577 -0.2003
32668SOL    HW1  897   6.364  10.437   3.942  1.6162 -1.6917  1.5798
32668SOL    HW2  898   6.244  10.470   4.027  0.5531 -0.1813 -0.4431
32669SOL     OW  899   5.807  10.406   4.491 -0.5007  0.4190  0.2358
32669SOL    HW1  900   5.723  10.452   4.496 -0.1753  0.8801  2.7968
32669SOL    HW2  901   5.787  10.316   4.514 -0.2853  0.5957  1.1648
32670SOL     OW  902   6.615   5.313   9.598  0.6919 -0.1295 -0.4441
32670SOL    HW1  903   6.534   5.288   9.642  2.1475 -1.5972  1.5839
32670SOL    HW2  904   6.666   5.359   9.665  2.2703 -0.8626 -1.0850
32671SOL     OW  905   9.348   5.829   6.945 -0.4226  0.0828  0.3859
32671SOL    HW1  906   9.336   5.847   6.852  0.5936 -1.1219 -0.0163
32671SOL    HW2  907   9.260   5.834   6.983 -0.6682  1.9812 -0.3415
32672SOL     OW  908   1.039   2.314   7.291  0.5232 -0.1337  0.2762
32672SOL    HW1  909   1.001   2.379   7.230 -1.9130 -0.7874  0.9894
32672SOL    HW2  910   1.063   2.241   7.235 -1.5192 -0.6499 -0.0045
32673SOL     OW  911   0.537   7.808  10.172  0.0196 -0.5383 -0.2223
32673SOL    HW1  912   0.524   7.773  10.084 -2.2777  0.8693 -0.5115
32673SOL    HW2  913   0.477   7.758  10.227 -0.0096 -0.0640  0.1787
32674SOL     OW  914   1.473   5.255   1.062 -0.0337  0.1667 -0.0654
32674SOL    HW1  915   1.407   5.282   1.125  1.2017  1.3175  0.7733
32674SOL    HW2  916   1.457   5.311   0.986 -0.0184  0.4421  0.1336
32675SOL     OW  917   0.114   1.530  10.024  0.0167 -0.2782 -0.0034
32675SOL    HW1  918   0.147   1.519  10.113 -0.5239  0.4607  0.3046
32675SOL    HW2  919   0.030   1.575  10.035  1.1552  2.2746 -1.0152
32676SOL     OW  920   1.195   0.708   0.442  0.3365 -0.2374  0.4235
32676SOL    HW1  921   1.152   0.759   0.511  0.7356 -0.2064  0.6561
32676SOL    HW2  922   1.248   0.644   0.490  0.1099 -0.6433  0.1362
32677SOL     OW  923   7.304   0.009   9.119 -0.0389  0.1941 -0.1719
32677SOL    HW1  924   7.228  -0.032   9.077  1.2601 -0.6537 -1.7897
32677SOL    HW2  925   7.353   0.049   9.047  2.1325 -1.0508  0.5237
32678SOL     OW  926   1.009  10.091   3.082 -0.2916 -0.3984  0.0611
32678SOL    HW1  927   1.047  10.088   2.994  0.2767 -1.6433  0.3326
32678SOL    HW2  928   0.923  10.050   3.072 -0.2863 -0.4092  0.0605
32679SOL     OW  929   4.923  10.288   8.835  0.1796  0.5497  0.1403
32679SOL    HW1  930   5.001  10.293   8.890 -1.1138  1.4332  2.0213
32679SOL    HW2  931   4.891  10.199   8.847 -0.0245  0.6985  0.7888
32680SOL     OW  932   5.414   4.285   0.040  0.3617 -0.3107  0.7665
32680SOL    HW1  933   5.335   4.312   0.088 -0.0179 -1.5371  0.8584
32680SOL    HW2  934   5.486   4.328   0.087 -0.2495  1.1426  0.4547
32681SOL     OW  935   7.857   1.791   1.470 -0.0912  0.6376 -0.2592
32681SOL    HW1  936   7.885   1.875   1.507 -0.0827  0.6325 -0.2540
32681SOL    HW2  937   7.923   1.770   1.405  0.3293  0.2537  0.2882
32682SOL     OW  938   4.004   1.365   1.312  0.0452 -0.3704  0.3930
32682SOL    HW1  939   3.971   1.444   1.268 -2.7031 -1.0270  1.0894
32682SOL    HW2  940   4.060   1.324   1.247  0.7927  1.6368 -0.3332
32683SOL     OW  941   2.824   8.656   0.799 -0.0775 -0.0017 -0.0324
32683SOL    HW1  942   2.858   8.630   0.713  0.6919 -2.5720  0.9767
32683SOL    HW2  943   2.881   8.613   0.862 -1.2323  1.0115  1.7791
32684SOL     OW  944   7.249  10.670   2.480 -0.2674  0.0761  0.3181
32684SOL    HW1  945   7.296  10.750   2.501 -1.0240  0.5209  0.3340
32684SOL    HW2  946   7.165  10.678   2.526 -1.0158  0.0167 -0.9884
32685SOL     OW  947   4.840   5.760   5.106  0.1000 -0.1952  0.0920
32685SOL    HW1  948   4.895   5.686   5.133  1.5083  0.2642 -1.3629
32685SOL    HW2  949   4.881   5.792   5.025 -1.6559  0.9095 -0.4141
32686SOL     OW  950   7.007   0.770   6.083  0.5659 -0.5131  0.2339
32686SOL    HW1  951   6.969   0.856   6.101 -1.1191 -0.9556 -0.9608
32686SOL    HW2  952   6.948   0.708   6.126 -0.6434 -1.2715 -2.3333
32687SOL     OW  953   2.951   5.010   4.917  0.3946 -0.1819  0.0587
32687SOL    HW1  954   2.925   5.047   4.833  0.9662  1.6610  0.6479
32687SOL    HW2  955   2.884   4.943   4.935 -0.5948  0.4387 -1.1401
32688SOL     OW  956   9.919   1.102   6.475 -1.1077  0.7966 -0.1464
32688SOL    HW1  957   9.885   1.108   6.564  0.1887  0.3919  0.3991
32688SOL    HW2  958   9.993   1.162   6.473  1.0537 -1.6967  0.1358
32689SOL     OW  959   3.145   7.507   5.582 -0.6797 -0.6365  0.4347
32689SOL    HW1  960   3.094   7.587   5.595 -3.1064 -1.9868 -0.2123
32689SOL    HW2  961   3.236   7.538   5.576 -1.5467  2.1082 -0.2357
32690SOL     OW  962   0.276   0.305   6.529 -0.1018  0.3455 -0.3469
32690SOL    HW1  963   0.273   0.398   6.508 -0.3721 -0.0857 -2.5112
32690SOL    HW2  964   0.192   0.270   6.497  0.3460 -0.7772 -0.3597
32691SOL     OW  965   9.451   4.893   2.487  0.2907  0.3100  0.1784
32691SOL    HW1  966   9.430   4.912   2.396 -3.8758 -0.7348  0.7305
32691SOL    HW2  967   9.381   4.935   2.537  2.5457  1.0308  3.0208
32692SOL     OW  968   7.928  10.457   4.315  0.0845  0.0928  0.3832
32692SOL    HW1  969   7.862  10.525   4.331 -0.9000 -0.4437 -1.2157
32692SOL    HW2  970   7.893  10.379   4.357 -0.1981 -0.1303 -0.2557
32693SOL     OW  971   2.978   3.435   9.111 -0.1104  0.1430 -0.4033
32693SOL    HW1  972   3.067   3.442   9.145  0.1853  0.0122 -1.1191
32693SOL    HW2  973   2.968   3.342   9.090  0.1047  0.3760 -1.6363
32694SOL     OW  974   6.693   7.910   0.877  0.2197  0.2398 -0.1671
32694SOL    HW1  975   6.652   7.996   0.864  0.5589  0.2380 -1.4071
32694SOL    HW2  976   6.741   7.919   0.959 -1.4495  0.5425  0.8193
32695SOL     OW  977   1.958  10.017   1.300  0.0004  0.2574 -0.1817
32695SOL    HW1  978   1.937   9.947   1.238 -2.0480  0.2052  0.4983
32695SOL    HW2  979   1.971   9.972   1.384 -0.9587  0.6282  0.1807
32696SOL     OW  980   1.524   8.448   5.119  0.2221 -0.3105  0.2507
32696SOL    HW1  981   1.592   8.493   5.068 -0.0173  1.4457  1.4012
32696SOL    HW2  982   1.443   8.469   5.073  0.1704 -0.0450  0.4617
32697SOL     OW  983   5.188   1.777   0.770  0.1072  0.5775  0.3054
32697SOL    HW1  984   5.227   1.695   0.740 -0.4519  0.2444  0.4774
32697SOL    HW2  985   5.198   1.837   0.696  0.3767  0.3091  0.1249
32698SOL     OW  986   5.400   9.215   1.726 -0.0468  0.1218 -0.7610
32698SOL    HW1  987   5.494   9.229   1.731  0.1188 -0.8335 -0.9866
32698SOL    HW2  988   5.378   9.169   1.807 -0.9112  3.2648  0.9483
32699SOL     OW  989   4.203   6.552   6.847  0.6499 -0.0035  0.2992
32699SOL    HW1  990   4.207   6.616   6.918 -2.4659  0.8934 -0.1625
32699SOL    HW2  991   4.173   6.602   6.771  0.7027 -1.5416 -0.7895
32700SOL     OW  992   0.866  10.520   5.816  0.4175 -0.2213 -0.5221
32700SOL    HW1  993   0.932  10.520   5.747  0.6192  0.9448 -0.3407
32700SOL    HW2  994   0.900  10.579   5.883 -0.7752  0.3612 -0.4014
32701SOL     OW  995   1.452   2.857   2.679  0.1077 -0.3896  0.6052
32701SOL    HW1  996   1.400   2.785   2.645  0.8033 -0.1948 -0.9778
32701SOL    HW2  997   1.515   2.816   2.739 -0.2553 -0.9403  0.6101
32702SOL     OW  998   9.473   6.631  10.515  0.2520 -0.0259  0.6358
32702SOL    HW1  999   9.555   6.592  10.483  0.9851  0.5056  1.8056
32702SOL    HW2 1000   9.495   6.666  10.601 -0.6515  1.9646  0.1195
32703SOL     OW 1001   0.383   2.005   9.849  0.2920  0.9300  0.5165
32703SOL    HW1 1002   0.320   1.933   9.841  1.3249 -0.0789  1.1432
32703SOL    HW2 1003   0.435   1.983   9.927  2.8098  0.5883 -1.1365
32704SOL     OW 1004  10.311   3.882   6.068 -0.6533 -0.4444  0.1521
32704SOL    HW1 1005  10.395   3.883   6.022  0.2699 -0.5976  1.7479
32704SOL    HW2 1006  10.334   3.900   6.159 -2.4169 -0.0335  0.5452
32705SOL     OW 1007   5.878   2.445   1.257  0.4794 -0.5232 -0.2550
32705SOL    HW1 1008   5.917   2.402   1.334  1.5376  1.7534  0.5702
32705SOL    HW2 1009   5.950   2.450   1.194 -0.0278 -1.2163 -0.8940
32706SOL     OW 1010   5.080   5.611   7.763  0.0938 -0.0281  0.0799
32706SOL    HW1 1011   5.000   5.618   7.816  0.3797 -1.2078  0.6849
32706SOL    HW2 1012   5.100   5.702   7.739 -2.5248  0.1815 -1.7677
32707SOL     OW 1013   1.820   1.322   1.184 -0.0026  0.4337 -0.2856
32707SOL    HW1 1014   1.814   1.249   1.122 -1.1276  0.7847 -0.6169
32707SOL    HW2 1015   1.914   1.336   1.195  0.2324 -0.7674 -0.5625
32708SOL     OW 1016   2.931   8.840   8.806  0.1240 -0.6765  0.0494
32708SOL    HW1 1017   2.990   8.776   8.844  2.6175  0.5051 -1.5035
32708SOL    HW2 1018   2.895   8.797   8.728 -1.5226 -1.5453  1.2202
32709SOL     OW 1019   0.913   8.002   5.361  0.3215 -0.3431 -0.4884
32709SOL    HW1 1020   0.927   7.989   5.455 -2.3188  1.1369  0.2187
32709SOL    HW2 1021   0.932   7.917   5.322  1.6878 -0.9373  1.3292
32710SOL     OW 1022   2.146   6.254   3.449 -0.4027 -0.1535 -0.5243
32710SOL    HW1 1023   2.129   6.183   3.511 -2.1735 -0.9592 -1.8637
32710SOL    HW2 1024   2.220   6.222   3.397 -0.2368 -0.3751 -0.1560
32711SOL     OW 1025  10.736   3.832   0.365  0.5689 -0.4013  0.1903
32711SOL    HW1 1026  10.730   3.927   0.378 -1.5720 -0.2791 -1.0470
32711SOL    HW2 1027  10.805   3.821   0.301  0.5977  0.3641  0.0751
32712SOL     OW 1028   6.652   9.691   8.462  0.1724 -0.1199 -0.4040
32712SOL    HW1 1029   6.606   9.682   8.379  0.6235 -1.5522 -0.5250
32712SOL    HW2 1030   6.610   9.628   8.520  0.6666 -0.0130  0.0868
32713SOL     OW 1031   6.830   1.127   5.589 -0.1316 -0.2220  0.1393
32713SOL    HW1 1032   6.745   1.169   5.577 -0.3384 -0.4948  0.6068
32713SOL    HW2 1033   6.894   1.198   5.577 -0.5068  0.4757  1.8767
32714SOL     OW 1034   1.057   9.513   9.399  0.5678 -0.4017 -0.4435
32714SOL    HW1 1035   1.042   9.464   9.318 -1.8305 -0.1534 -0.2317
32714SOL    HW2 1036   0.983   9.574   9.404  1.2968  0.4217  1.3421
32715SOL     OW 1037   8.060   6.895   0.429  0.2383  0.0442 -0.1178
32715SOL    HW1 1038   7.989   6.834   0.450  0.8099 -1.0278 -1.1557
32715SOL    HW2 1039   8.126   6.879   0.496 -0.0943  0.3539  0.2869
32716SOL     OW 1040   2.375   9.007   0.404  0.1015  0.5576 -0.1006
32716SOL    HW1 1041   2.410   8.929   0.361 -0.9201  0.2571 -0.4058
32716SOL    HW2 1042   2.436   9.077   0.379  2.2396 -0.4720  1.8422
32717SOL     OW 1043   3.728   5.034   7.282 -0.0238  0.4375  0.0949
32717SOL    HW1 1044   3.676   5.114   7.268 -0.1126  0.1243 -1.5406
32717SOL    HW2 1045   3.805   5.046   7.228  0.1092 -0.4659  0.0716
32718SOL     OW 1046   3.029   9.405   0.385  0.6967  0.5888 -0.3904
32718SOL    HW1 1047   3.026   9.501   0.387 -3.5192  0.6305  1.2698
32718SOL    HW2 1048   3.006   9.382   0.295  2.5095  1.0439 -1.0093
32719SOL     OW 1049   8.095   2.287   6.382 -0.5715  0.2338  0.2805
32719SOL    HW1 1050   8.188   2.299   6.367 -1.0585  3.6343 -0.8170
32719SOL    HW2 1051   8.085   2.294   6.477  0.3911 -1.8854  0.5939
32720SOL     OW 1052   2.558   0.832   7.930  0.3391  0.0015  0.3743
32720SOL    HW1 1053   2.599   0.826   7.843  0.5205 -3.3691  0.5599
32720SOL    HW2 1054   2.631   0.830   7.991  0.1069 -0.2502  0.6435
32721SOL     OW 1055   7.553   4.290   7.801 -0.0088  0.4809  0.1747
32721SOL    HW1 1056   7.495   4.214   7.806  0.8159 -0.2601 -1.0203
32721SOL    HW2 1057   7.543   4.322   7.711  1.1438  0.5406  0.0491
32722SOL     OW 1058   5.670   6.008   3.290  0.1625 -0.4219  0.4584
32722SOL    HW1 1059   5.762   6.012   3.316 -0.2645  0.4706  1.9444
32722SOL    HW2 1060   5.666   5.937   3.225  1.9322 -0.2630  0.1466
32723SOL     OW 1061   8.443   0.210   9.994  0.1067  0.0368  0.3216
32723SOL    HW1 1062   8.490   0.255   9.924  0.1887 -0.5718 -0.0187
32723SOL    HW2 1063   8.504   0.211  10.068  1.5888 -2.6041 -0.7336
32724SOL     OW 1064   8.186   5.781   7.992  0.1513 -0.4363 -0.8025
32724SOL    HW1 1065   8.168   5.766   8.085  0.0498  0.5891 -0.6471
32724SOL    HW2 1066   8.264   5.836   7.991 -1.3689  1.8778 -1.1909
32725SOL     OW 1067   0.336   0.533   2.138 -0.0743  0.4617  0.2225
32725SOL    HW1 1068   0.290   0.469   2.194 -0.0095  0.8510  0.7252
32725SOL    HW2 1069   0.268   0.564   2.078 -0.0041 -0.4135 -0.3422
32726SOL     OW 1070   0.709   0.556   1.184 -0.3851  0.1883  0.3599
32726SOL    HW1 1071   0.615   0.577   1.187 -0.4196 -0.0181  0.8139
32726SOL    HW2 1072   0.725   0.507   1.264  0.0713  0.0349  0.1779
32727SOL     OW 1073   3.866   1.041   5.531 -0.0738  0.4124  0.2402
32727SOL    HW1 1074   3.858   0.980   5.604 -2.4095  0.9710  0.5420
32727SOL    HW2 1075   3.855   0.987   5.453  0.6066  0.0823  0.3623
32728SOL     OW 1076   2.904  10.149   8.036  0.1033  0.4123  0.2143
32728SOL    HW1 1077   2.853  10.197   8.101 -2.3985 -0.1736 -1.1853
32728SOL    HW2 1078   2.954  10.217   7.990  0.4180  1.0440  1.4465
32729SOL     OW 1079   7.432   8.583   1.164  0.4753  0.4509 -0.3883
32729SOL    HW1 1080   7.468   8.563   1.250 -1.1101  2.2290  0.7787
32729SOL    HW2 1081   7.477   8.662   1.136 -0.1211  0.7886 -0.4263
32730SOL     OW 1082   2.180   5.814   1.812 -0.2212 -0.5547  0.1262
32730SOL    HW1 1083   2.248   5.841   1.750  0.4557 -1.4681  0.4458
32730SOL    HW2 1084   2.142   5.896   1.842  2.0607  0.1314  1.3992
32731SOL     OW 1085   7.584   4.910   3.423 -0.4052  0.3422  0.0958
32731SOL    HW1 1086   7.639   4.975   3.379 -1.6289  0.7187 -0.9447
32731SOL    HW2 1087   7.625   4.898   3.509  2.4866 -0.9158 -1.2933
32732SOL     OW 1088   5.514   9.091   0.320 -0.4092 -0.3542 -0.4578
32732SOL    HW1 1089   5.420   9.099   0.311 -0.6337 -2.0291  0.0395
32732SOL    HW2 1090   5.526   9.024   0.388  1.1310 -0.1559 -0.4960
32733SOL     OW 1091   5.301   8.947  10.175  0.2222  0.1326  0.1717
32733SOL    HW1 1092   5.351   8.909  10.248  0.5368  0.2831  0.0394
32733SOL    HW2 1093   5.299   8.877  10.109  1.4103  0.5647 -0.3568
32734SOL     OW 1094   9.321   3.405   3.476 -0.0587  0.2265 -0.2000
32734SOL    HW1 1095   9.394   3.392   3.536  0.3917 -0.7591 -0.9489
32734SOL    HW2 1096   9.283   3.489   3.503  2.1179  1.3955 -0.6057
32735SOL     OW 1097   0.731   6.147   0.525 -0.1243 -0.9797  0.0375
32735SOL    HW1 1098   0.806   6.200   0.551 -0.0675  0.4523 -2.6015
32735SOL    HW2 1099   0.668   6.157   0.596  1.5319 -0.8494  1.5343
32736SOL     OW 1100   9.245   3.343   0.827  0.1514  0.2801 -0.7609
32736SOL    HW1 1101   9.280   3.254   0.828  0.8915  0.5226  1.5783
32736SOL    HW2 1102   9.166   3.338   0.881  1.8300  1.5112  2.0793
32737SOL     OW 1103   4.808   0.856   0.100 -0.0351 -0.4607  0.4127
32737SOL    HW1 1104   4.866   0.780   0.091  1.3305  0.6527 -0.6225
32737SOL    HW2 1105   4.835   0.915   0.030 -2.2555  0.2394  0.0948
32738SOL     OW 1106   3.637   4.472  10.218 -0.5532  0.1761 -0.0876
32738SOL    HW1 1107   3.557   4.493  10.171 -1.7947  1.0694  2.2727
32738SOL    HW2 1108   3.703   4.532  10.181 -1.3013  0.4000 -1.0973
32739SOL     OW 1109   2.887   3.544   7.136  0.1391 -0.3153  0.3631
32739SOL    HW1 1110   2.911   3.454   7.115  1.5653 -0.7278  3.2129
32739SOL    HW2 1111   2.926   3.597   7.067  0.8679 -1.7567 -0.3632
32740SOL     OW 1112   8.539   9.696   4.886 -0.4962 -0.2346 -0.4279
32740SOL    HW1 1113   8.449   9.726   4.897 -1.1663 -1.6889 -1.5499
32740SOL    HW2 1114   8.536   9.602   4.908  0.9485 -0.1252  0.4058
32741SOL     OW 1115   2.084   6.752   7.839  0.8645  0.0702  0.4022
32741SOL    HW1 1116   2.120   6.826   7.887  0.8657  0.8933 -0.8292
32741SOL    HW2 1117   2.052   6.789   7.757 -0.7769 -1.0039  0.5067
32742SOL     OW 1118   8.846   3.734   7.727 -0.3654  0.4878  0.6152
32742SOL    HW1 1119   8.887   3.688   7.653  2.6042 -1.6997  3.3789
32742SOL    HW2 1120   8.890   3.819   7.730 -0.0912  0.3612  0.2659
32743SOL     OW 1121   6.234   3.394   4.470 -0.5286  0.1203  0.0390
32743SOL    HW1 1122   6.260   3.311   4.509  0.0577  0.3072  0.0567
32743SOL    HW2 1123   6.144   3.408   4.500 -0.8407 -0.7940 -0.4509
32744SOL     OW 1124   8.603   3.055   8.010  0.5139  0.4810 -0.3432
32744SOL    HW1 1125   8.518   3.088   7.980  0.1330 -0.0246  0.1549
32744SOL    HW2 1126   8.611   3.089   8.099  0.5095 -0.0509 -0.1369
32745SOL     OW 1127  10.343   7.963   8.817  0.4407  0.2935 -0.0450
32745SOL    HW1 1128  10.377   7.912   8.891  0.3041  0.0914 -0.1182
32745SOL    HW2 1129  10.248   7.967   8.833  0.3583 -0.0910 -0.4144
32746SOL     OW 1130   0.776   8.256   2.711  0.7329  0.3292  0.5596
32746SOL    HW1 1131   0.780   8.292   2.800  1.5899 -1.9504  1.5265
32746SOL    HW2 1132   0.689   8.216   2.705 -0.3258  2.6389 -0.6089
32747SOL     OW 1133   9.277   8.897   2.599 -0.4320  0.2370  0.0967
32747SOL    HW1 1134   9.308   8.834   2.534  0.2845 -1.8143  2.2900
32747SOL    HW2 1135   9.182   8.888   2.597 -0.5778  1.6664 -1.9895
32748SOL     OW 1136   4.382   2.110   3.237  0.1342  0.2117  0.2053
32748SOL    HW1 1137   4.385   2.189   3.183  1.2717  0.6058  0.8220
32748SOL    HW2 1138   4.363   2.142   3.325  1.0910 -0.1344  0.5493
32749SOL     OW 1139  10.446   9.435   0.254 -0.6257  0.6163 -0.3398
32749SOL    HW1 1140  10.509   9.369   0.225 -1.7328  0.1535 -1.8794
32749SOL    HW2 1141  10.485   9.519   0.230  0.0266  0.4184  0.0297
32750SOL     OW 1142   7.636   2.487   8.268  0.0544  0.4868 -0.6685
32750SOL    HW1 1143   7.541   2.483   8.280  0.2121  0.2676  0.6755
32750SOL    HW2 1144   7.654   2.428   8.195 -0.8467  0.5502 -0.9518
32751SOL     OW 1145   9.822   2.008   1.925  0.4363 -0.3480  0.1353
32751SOL    HW1 1146   9.885   2.074   1.895 -0.4266  0.6113  0.4042
32751SOL    HW2 1147   9.785   1.973   1.844 -1.7557  2.1067 -0.0607
32752SOL     OW 1148   8.813   6.795   7.168  0.0699  0.4118  0.5622
32752SOL    HW1 1149   8.845   6.794   7.258 -1.0995  1.5050  1.0201
32752SOL    HW2 1150   8.768   6.711   7.158 -0.9498  0.8297  1.4629
32753SOL     OW 1151   9.300   0.770   3.341  0.0501  0.3470  0.6076
32753SOL    HW1 1152   9.214   0.774   3.298  0.2733  0.6619  0.1749
32753SOL    HW2 1153   9.362   0.770   3.268  0.5369  3.0474  0.9011
32754SOL     OW 1154   3.199   8.764   5.791  0.0023  0.1349 -0.1254
32754SOL    HW1 1155   3.140   8.802   5.726 -0.2908 -0.3971 -0.1722
32754SOL    HW2 1156   3.218   8.837   5.851  0.8709  0.8363 -1.2117
32755SOL     OW 1157   5.311   9.888   6.777 -0.0673  0.2450 -0.0073
32755SOL    HW1 1158   5.325   9.982   6.791 -0.4612  0.1669  0.9189
32755SOL    HW2 1159   5.321   9.849   6.863  1.4750 -0.7605 -0.5903
32756SOL     OW 1160   7.287   7.816   0.213 -0.0101 -0.9699  0.3711
32756SOL    HW1 1161   7.254   7.876   0.146  2.2236  0.5158  0.4959
32756SOL    HW2 1162   7.323   7.742   0.164  0.6810 -0.3673 -0.0609
32757SOL     OW 1163   8.956   0.799   0.053  0.3039 -0.0072 -0.0532
32757SOL    HW1 1164   8.918   0.868  -0.001 -3.5686 -2.1352 -0.3831
32757SOL    HW2 1165   8.974   0.728  -0.008  0.7973 -0.6053  0.7665
32758SOL     OW 1166   9.227   7.674   2.411  0.0869  0.4935 -0.1205
32758SOL    HW1 1167   9.155   7.641   2.357  1.2600 -1.0617 -0.8321
32758SOL    HW2 1168   9.205   7.649   2.500 -0.2239 -0.0571 -0.3481
32759SOL     OW 1169   3.549   3.748   9.400  0.1578  0.0439 -0.1544
32759SOL    HW1 1170   3.493   3.824   9.417  1.4223  1.5188 -2.1077
32759SOL    HW2 1171   3.489   3.678   9.379 -1.0460  0.5340  1.4336
32760SOL     OW 1172   2.686   8.309   0.380  0.1463  0.0189 -0.3646
32760SOL    HW1 1173   2.676   8.304   0.285 -0.5571 -0.8137 -0.2577
32760SOL    HW2 1174   2.608   8.267   0.415  0.3934  0.3201  0.5884
32761SOL     OW 1175   1.898   1.267   4.481 -0.0911 -1.0894  0.2067
32761SOL    HW1 1176   1.988   1.285   4.508  0.3338 -0.2238 -1.6019
32761SOL    HW2 1177   1.892   1.172   4.476  0.8817 -1.1389 -0.1108
32762SOL     OW 1178   1.493   4.754   0.366 -0.0456 -0.7265 -0.8892
32762SOL    HW1 1179   1.460   4.706   0.442 -0.1531 -0.8639 -1.0227
32762SOL    HW2 1180   1.503   4.687   0.298  1.3411 -0.8652 -0.5989
32763SOL     OW 1181   2.122   7.660   1.368 -0.4249  0.0100 -0.9500
32763SOL    HW1 1182   2.045   7.713   1.348  1.0109  2.0761 -1.3759
32763SOL    HW2 1183   2.152   7.628   1.283 -1.1369 -1.3429 -0.7195
32764SOL     OW 1184   3.608   5.403   5.705  0.2590  0.4036 -0.7213
32764SOL    HW1 1185   3.615   5.477   5.645 -0.8968  1.0271 -0.1162
32764SOL    HW2 1186   3.545   5.431   5.771  0.8273 -0.6054  0.2968
32765SOL     OW 1187   8.563  10.290   7.557 -0.3868  0.1767  0.3383
32765SOL    HW1 1188   8.602  10.229   7.495  0.2476 -1.2868  2.0944
32765SOL    HW2 1189   8.546  10.369   7.506 -1.3745 -1.4808 -2.0479
32766SOL     OW 1190   6.235   0.730   9.785 -0.7935  0.2759 -0.0887
32766SOL    HW1 1191   6.273   0.668   9.847  0.0222  0.4053 -0.4520
32766SOL    HW2 1192   6.173   0.781   9.838 -0.1367  0.3640  0.6096
32767SOL     OW 1193   3.049   2.276   2.971  0.1127 -0.2721  0.4372
32767SOL    HW1 1194   3.009   2.241   2.891  0.8654  1.4683 -0.7788
32767SOL    HW2 1195   3.135   2.233   2.976 -0.5978 -1.6761  1.3246
32768SOL     OW 1196   5.778   8.992   4.131 -0.6816 -0.2246 -0.3959
32768SOL    HW1 1197   5.858   9.042   4.139 -1.2329  0.6267 -0.0470
32768SOL    HW2 1198   5.807   8.901   4.122  0.3132  0.0823 -0.3893
32769SOL     OW 1199   3.435   3.716   4.754 -0.1281  0.1407 -0.4764
32769SOL    HW1 1200   3.405   3.710   4.663 -1.4037 -0.0773 -0.0666
32769SOL    HW2 1201   3.472   3.629   4.772 -1.4316 -0.3981 -0.2840
32770SOL     OW 1202   0.441   6.970   5.178  0.5355  0.1203 -0.2368
32770SOL    HW1 1203   0.523   6.965   5.128 -0.0810  0.3995 -1.3148
32770SOL    HW2 1204   0.392   7.041   5.136 -0.1618  0.1153  0.5495
32771SOL     OW 1205   4.843   8.448   5.570  0.5697  0.5708 -0.8230
32771SOL    HW1 1206   4.907   8.493   5.625  2.2829 -2.0510 -0.4921
32771SOL    HW2 1207   4.786   8.518   5.537  2.6251  2.8358  0.1264
32772SOL     OW 1208   2.337   7.301  10.735 -0.0715  0.0357  0.3228
32772SOL    HW1 1209   2.377   7.388  10.733  1.2849 -0.5272  1.4136
32772SOL    HW2 1210   2.248   7.314  10.703  0.5178  1.6011 -0.7355
32773SOL     OW 1211   0.488   2.194   2.010 -0.9549  0.2524  0.2896
32773SOL    HW1 1212   0.470   2.263   2.073  0.8648  0.3945  0.6997
32773SOL    HW2 1213   0.568   2.152   2.041 -0.3770 -0.1298 -1.5467
32774SOL     OW 1214   0.528   0.289   6.383 -0.2543 -0.0549  0.2938
32774SOL    HW1 1215   0.439   0.283   6.418 -0.3667 -1.1304 -0.1287
32774SOL    HW2 1216   0.523   0.360   6.319 -1.2340 -1.0622 -0.8262
32775SOL     OW 1217   9.942   9.051   8.882  0.0273 -0.4069  0.2461
32775SOL    HW1 1218   9.965   9.018   8.969 -1.4185 -2.2890 -0.0354
32775SOL    HW2 1219   9.887   8.983   8.844  0.2012  0.6055 -1.9701
32776SOL     OW 1220   4.047   5.680   5.175  0.2069 -0.6962 -0.6411
32776SOL    HW1 1221   3.999   5.651   5.097 -1.3120  1.8653 -0.7820
32776SOL    HW2 1222   4.125   5.722   5.142  0.3119 -0.9214 -0.6817
32777SOL     OW 1223   3.004   1.345  10.425  0.1833 -0.2226  0.1079
32777SOL    HW1 1224   3.060   1.398  10.481 -0.7963 -1.3055  2.2066
32777SOL    HW2 1225   2.921   1.393  10.423  0.4785  0.2817 -1.2395
32778SOL     OW 1226   7.223   9.147   6.060  0.5986 -0.2661 -0.1701
32778SOL    HW1 1227   7.264   9.154   5.973 -0.7142 -1.6129 -0.9473
32778SOL    HW2 1228   7.265   9.070   6.099  0.1567 -0.5406 -0.2248
32779SOL     OW 1229   0.884   5.784  10.675  0.1975 -0.4766 -0.1930
32779SOL    HW1 1230   0.952   5.741  10.624  0.3054 -0.9958  0.3778
32779SOL    HW2 1231   0.838   5.840  10.612  0.0234 -1.4656 -0.9698
32780SOL     OW 1232   0.287   5.109   5.281  0.2232  0.1018  0.5828
32780SOL    HW1 1233   0.267   5.128   5.372 -1.0814  0.1103  0.3294
32780SOL    HW2 1234   0.211   5.143   5.233  0.8871  0.0978 -0.4979
32781SOL     OW 1235   4.640   9.016   4.449 -0.3755  0.1726  0.1457
32781SOL    HW1 1236   4.672   9.106   4.438  0.8585 -0.4609 -2.1495
32781SOL    HW2 1237   4.707   8.973   4.502 -0.2066  0.2276 -0.0239
32782SOL     OW 1238   8.148   6.318   0.247 -0.3744  0.0332  0.2248
32782SOL    HW1 1239   8.144   6.259   0.322  2.3165  1.5653  1.7229
32782SOL    HW2 1240   8.101   6.397   0.276 -0.2672  0.2251 -0.1110
32783SOL     OW 1241   4.127   8.724   4.923  0.3372 -0.1415 -0.3761
32783SOL    HW1 1242   4.035   8.711   4.901  0.0102  0.2712  0.6973
32783SOL    HW2 1243   4.148   8.810   4.885  0.0852  0.0707 -0.0413
32784SOL     OW 1244   7.659   7.515  10.488 -0.0584  0.3646  0.2521
32784SOL    HW1 1245   7.650   7.479  10.401 -0.5011  1.8704 -0.3613
32784SOL    HW2 1246   7.669   7.439  10.546  2.2625 -0.6307 -1.3028
32785SOL     OW 1247   3.142   8.296   7.418 -0.0076 -0.2443 -0.2710
32785SOL    HW1 1248   3.134   8.242   7.340 -0.2722  1.0130 -1.1374
32785SOL    HW2 1249   3.172   8.235   7.486  0.4072 -1.3221 -1.3822
32786SOL     OW 1250   3.822   8.333  10.303 -0.0029  0.0240  0.0396
32786SOL    HW1 1251   3.901   8.283  10.283  0.6794  0.5624  1.2495
32786SOL    HW2 1252   3.753   8.267  10.312  0.4410 -0.5109 -0.3990
32787SOL     OW 1253  10.695   9.316   5.130 -0.1474 -0.0943 -0.0291
32787SOL    HW1 1254  10.710   9.387   5.067  0.0395  0.1671  0.3110
32787SOL    HW2 1255  10.608   9.282   5.107 -0.3760  0.4553  0.0074
32788SOL     OW 1256   9.021   3.861   6.250 -0.4397  0.4760 -0.1680
32788SOL    HW1 1257   9.032   3.800   6.323  0.4412 -1.4141 -1.7831
32788SOL    HW2 1258   8.931   3.847   6.220 -1.4387  2.5659  1.5809
32789SOL     OW 1259   0.142   1.632   5.110 -0.3068  0.2532 -0.5838
32789SOL    HW1 1260   0.236   1.633   5.091 -0.1654 -0.4359  0.0472
32789SOL    HW2 1261   0.102   1.588   5.035 -0.1614  0.7897 -0.9815
32790SOL     OW 1262   3.039   8.686   6.119 -0.2436 -0.4290 -0.1140
32790SOL    HW1 1263   2.983   8.650   6.187  0.0442 -1.0083 -0.1770
32790SOL    HW2 1264   3.017   8.636   6.040  3.4312 -3.9481  0.7416
32791SOL     OW 1265   6.854   7.666  10.185 -0.1527  0.2638 -0.3097
32791SOL    HW1 1266   6.803   7.599  10.140 -2.0582  0.7559  0.9904
32791SOL    HW2 1267   6.885   7.623  10.265 -1.0664  0.7695  0.3430
32792SOL     OW 1268   9.397   9.924   6.260 -0.1863  0.2389 -0.0765
32792SOL    HW1 1269   9.488   9.895   6.253 -1.1403 -3.1861 -0.1850
32792SOL    HW2 1270   9.366   9.887   6.343 -1.1674  2.5673  0.6924
32793SOL     OW 1271   5.973   8.983   2.947  0.2464  0.1200  0.1657
32793SOL    HW1 1272   6.028   8.943   2.879  1.3529  1.0454  0.4803
32793SOL    HW2 1273   5.913   9.040   2.899  1.0157  0.7596 -0.0524
32794SOL     OW 1274   6.277   3.328   1.001  0.4787  0.1971 -0.1556
32794SOL    HW1 1275   6.368   3.313   0.979  0.6209  1.9928 -0.9411
32794SOL    HW2 1276   6.273   3.420   1.028 -1.1043  0.1791 -0.2131
32795SOL     OW 1277   8.626   6.087   8.222 -0.2376  0.4936  0.2224
32795SOL    HW1 1278   8.604   6.090   8.316  0.6003  0.8774  0.4215
32795SOL    HW2 1279   8.603   6.174   8.190  0.6174  0.7777  0.3549
32796SOL     OW 1280   1.961  10.424   2.146 -0.1304 -0.0248  0.0697
32796SOL    HW1 1281   2.036  10.370   2.122 -0.1240  0.5127 -1.2481
32796SOL    HW2 1282   1.992  10.514   2.135 -0.6831  0.2137  0.4277
32797SOL     OW 1283   2.805   4.963   6.192  0.2889 -0.1714  0.0154
32797SOL    HW1 1284   2.763   4.994   6.112 -0.3151  0.0574  0.4108
32797SOL    HW2 1285   2.898   4.963   6.171  0.3266  1.8501 -0.0576
32798SOL     OW 1286   7.996   7.233   2.039  0.2588 -0.1694 -0.0149
32798SOL    HW1 1287   8.020   7.214   2.130 -0.0206  1.1855  0.3571
32798SOL    HW2 1288   8.067   7.289   2.007 -0.8849  1.4362  0.1742
32799SOL     OW 1289   9.887   0.702   2.325  0.2950 -0.3499  0.3155
32799SOL    HW1 1290   9.975   0.722   2.356  0.8973 -1.3748 -0.6581
32799SOL    HW2 1291   9.892   0.611   2.295 -0.8759 -0.1626 -0.5237
32800SOL     OW 1292   9.303   6.004   2.241  0.0999  0.3767  0.5058
32800SOL    HW1 1293   9.300   5.955   2.159 -1.1993  1.0375  0.1270
32800SOL    HW2 1294   9.281   5.940   2.309  0.4871 -0.0170  0.2635
32801SOL     OW 1295   4.750  10.493   4.197  0.6221  0.4159  0.1837
32801SOL    HW1 1296   4.665  10.537   4.189 -0.0843 -0.8095  0.5841
32801SOL    HW2 1297   4.813  10.556   4.163 -0.3627  1.6357  0.5398
32802SOL     OW 1298   1.177   2.984   8.600  0.2621  0.0698  0.1931
32802SOL    HW1 1299   1.143   2.897   8.578  0.0616  0.0056  0.7239
32802SOL    HW2 1300   1.208   3.020   8.517  0.0418 -0.3763 -0.0873
32803SOL     OW 1301   1.119   6.668   9.532  0.4374  0.4908  0.2672
32803SOL    HW1 1302   1.120   6.573   9.535 -1.7371  0.4239  0.6436
32803SOL    HW2 1303   1.196   6.695   9.581  1.1737 -1.0683  0.0115
32804SOL     OW 1304  10.141   8.099   3.270 -0.1875  0.2587  0.3415
32804SOL    HW1 1305  10.052   8.106   3.235 -1.8831 -0.6383  3.9699
32804SOL    HW2 1306  10.162   8.006   3.265  1.8621  0.7015 -2.9134
32805SOL     OW 1307   4.513   2.684   3.351  0.3840 -0.0831 -0.5844
32805SOL    HW1 1308   4.480   2.694   3.440 -1.6673 -2.5387 -0.9812
32805SOL    HW2 1309   4.442   2.715   3.295  1.3781  0.7751 -1.4199
32806SOL     OW 1310   9.839  10.049   7.269  0.7382 -0.2516 -0.9136
32806SOL    HW1 1311   9.902  10.063   7.340  0.5564 -0.3435 -0.7321
32806SOL    HW2 1312   9.893  10.042   7.190  0.8974  0.5682 -0.8888
32807SOL     OW 1313   6.220   7.603   1.427 -0.6351  0.5568 -0.7417
32807SOL    HW1 1314   6.296   7.601   1.369  1.2194 -1.2240  1.5491
32807SOL    HW2 1315   6.151   7.559   1.377  1.4146 -2.6370 -1.0766
32808SOL     OW 1316   8.519   4.293   2.112 -0.0148 -0.4182 -0.0072
32808SOL    HW1 1317   8.467   4.349   2.054  1.4372  0.9595 -0.0585
32808SOL    HW2 1318   8.493   4.204   2.089 -2.2296  0.1842 -0.0958
32809SOL     OW 1319   2.414  10.085   9.686 -0.6508  0.1119 -0.3690
32809SOL    HW1 1320   2.453  10.068   9.600 -2.5749 -0.3472 -1.2134
32809SOL    HW2 1321   2.389   9.998   9.718  0.2710  0.2548  0.7951
32810SOL     OW 1322  10.724   9.116   1.992  0.0555 -0.0147 -0.2545
32810SOL    HW1 1323  10.802   9.155   1.952  2.1895 -0.4299  3.1382
32810SOL    HW2 1324  10.734   9.022   1.978 -0.2708 -0.0188 -0.4772
32811SOL     OW 1325   2.031   9.078   1.650  0.1174 -0.0261  0.0835
32811SOL    HW1 1326   2.085   9.007   1.685  0.5336  0.7574  1.1065
32811SOL    HW2 1327   1.941   9.055   1.676  0.4188  0.5633  1.8274
32812SOL     OW 1328   5.882   6.310   0.283 -0.2316 -0.5429  0.1988
32812SOL    HW1 1329   5.809   6.307   0.345 -0.7918  0.9986 -0.3239
32812SOL    HW2 1330   5.959   6.287   0.335 -0.7446  0.3090  1.3984
32813SOL     OW 1331   0.655   6.737   5.085 -0.0324  0.4197 -0.0679
32813SOL    HW1 1332   0.725   6.681   5.050 -1.1535  0.7636 -3.1615
32813SOL    HW2 1333   0.684   6.826   5.064 -0.5537  0.6720  0.2918
32814SOL     OW 1334   5.653   2.613   8.953  0.3306 -0.3552 -0.1396
32814SOL    HW1 1335   5.731   2.583   8.906  0.7341 -0.3798  0.5256
32814SOL    HW2 1336   5.685   2.682   9.012 -0.3089  0.2694 -0.4972
32815SOL     OW 1337   9.619   0.861   8.541 -0.4432  0.7042  0.1625
32815SOL    HW1 1338   9.576   0.850   8.626  1.3852  0.7201  1.1266
32815SOL    HW2 1339   9.639   0.955   8.536  0.3852  0.5389  0.2076
32816SOL     OW 1340   3.913   7.723   8.815  0.0506  0.2274  0.1491
32816SOL    HW1 1341   3.944   7.632   8.808 -0.2893  0.1189  0.0625
32816SOL    HW2 1342   3.827   7.722   8.775  0.5145  0.8295 -0.8869
32817SOL     OW 1343   1.725   4.965   2.869 -0.4388  0.0933 -0.3982
32817SOL    HW1 1344   1.671   4.918   2.805 -1.5300  0.6672  0.0780
32817SOL    HW2 1345   1.670   4.971   2.947  0.2079  0.9362  0.0065
32818SOL     OW 1346   3.441   1.215   9.926 -0.4717 -0.1100  0.5256
32818SOL    HW1 1347   3.381   1.287   9.904 -0.3696 -0.4140 -0.8826
32818SOL    HW2 1348   3.528   1.254   9.918 -0.4425 -0.0606  1.0625
32819SOL     OW 1349   1.575  10.706   0.983  0.3551 -0.2085 -0.3690
32819SOL    HW1 1350   1.562  10.695   0.888 -0.7580  1.0986 -0.4016
32819SOL    HW2 1351   1.530  10.788   1.003 -2.2801 -2.0482  1.8605
32820SOL     OW 1352   4.220   8.400   8.347 -0.2386 -0.0161 -0.2911
32820SOL    HW1 1353   4.209   8.493   8.329  0.3330 -0.0932 -1.0951
32820SOL    HW2 1354   4.163   8.383   8.422  0.2335  1.1442  0.3585
32821SOL     OW 1355   7.477   0.487   6.446 -0.2750 -0.2806 -0.0769
32821SOL    HW1 1356   7.558   0.437   6.452  0.0567  0.2054 -0.4159
32821SOL    HW2 1357   7.484   0.535   6.363  0.2190  1.7088  1.0497
32822SOL     OW 1358   7.658   8.817   3.835 -0.8759 -0.6163 -0.5812
32822SOL    HW1 1359   7.648   8.906   3.801  0.9456  0.8480  2.3367
32822SOL    HW2 1360   7.715   8.774   3.772  0.2038  1.0900 -0.8267
32823SOL     OW 1361   3.581   5.027   4.318  0.0411  0.9079  0.3529
32823SOL    HW1 1362   3.607   4.936   4.333  1.2469  0.6906 -2.4796
32823SOL    HW2 1363   3.559   5.060   4.405  2.3488 -1.2441  1.8878
32824SOL     OW 1364   7.154   0.575   6.880  0.3523  0.1419 -0.5640
32824SOL    HW1 1365   7.166   0.639   6.809 -0.4935 -0.6848 -1.4851
32824SOL    HW2 1366   7.124   0.496   6.836  4.2526 -1.9760  0.1453
32825SOL     OW 1367   6.124   7.250   9.040  0.4084  0.1944  0.3608
32825SOL    HW1 1368   6.075   7.294   8.970  0.7471 -0.5144 -0.3391
32825SOL    HW2 1369   6.216   7.266   9.018  0.5440  2.2039  2.1074
32826SOL     OW 1370   2.110   9.568   9.075  0.1100  0.5328 -0.1371
32826SOL    HW1 1371   2.176   9.635   9.098  0.2764  0.1347  0.5547
32826SOL    HW2 1372   2.149   9.521   9.001  0.0484  1.1129 -0.5454
32827SOL     OW 1373   0.706   5.077   0.626 -0.3420  0.0599  0.3130
32827SOL    HW1 1374   0.768   5.087   0.554 -0.0198 -1.6604  0.2875
32827SOL    HW2 1375   0.740   5.135   0.695  1.1346 -0.5649  0.1693
32828SOL     OW 1376   3.905   5.190   6.750  0.3474 -0.4860  0.7503
32828SOL    HW1 1377   3.827   5.197   6.805  0.7984  1.0290  1.2514
32828SOL    HW2 1378   3.910   5.275   6.705  0.6003 -1.2860 -0.8235
32829SOL     OW 1379   1.011   7.752  10.408  0.0286  0.2508  0.6310
32829SOL    HW1 1380   0.916   7.743  10.407  0.1361 -2.9459 -2.7326
32829SOL    HW2 1381   1.041   7.680  10.463  0.4747 -0.4563 -0.4956
32830SOL     OW 1382   1.304   3.246   0.036  0.5887  0.0343 -0.1507
32830SOL    HW1 1383   1.261   3.176  -0.013 -0.5086  0.9325 -0.5205
32830SOL    HW2 1384   1.374   3.276  -0.021  0.9499 -0.6436 -0.0651
32831SOL     OW 1385   8.903   0.898   3.437  0.8308 -0.0529 -0.0950
32831SOL    HW1 1386   8.878   0.858   3.520 -2.0807  0.1949 -0.7338
32831SOL    HW2 1387   8.995   0.922   3.449  1.0385 -1.6765  2.3548
32832SOL     OW 1388   2.535   1.683   7.385  0.2925  0.5259  0.0775
32832SOL    HW1 1389   2.506   1.600   7.422 -0.0396 -0.6249 -2.5008
32832SOL    HW2 1390   2.467   1.746   7.409  0.2686 -0.0398  1.5839
32833SOL     OW 1391   8.511   4.537   0.612 -0.3378 -0.3302  0.0433
32833SOL    HW1 1392   8.567   4.515   0.538  0.1573  0.0651  0.2919
32833SOL    HW2 1393   8.572   4.550   0.685 -0.7400  0.1922  0.2954
32834SOL     OW 1394   9.136   8.270   1.101  0.3691  0.0731 -0.4588
32834SOL    HW1 1395   9.069   8.337   1.113 -0.0835 -0.1499 -1.5696
32834SOL    HW2 1396   9.123   8.210   1.175  0.3328  0.8285  0.1600
32835SOL     OW 1397   7.134   1.998   3.578 -0.1828 -0.6903 -0.1976
32835SOL    HW1 1398   7.049   2.022   3.541  0.3759 -0.1268 -1.1476
32835SOL    HW2 1399   7.129   1.904   3.590 -0.0045 -1.0970 -2.7886
32836SOL     OW 1400   2.670   7.895   8.684  0.0440 -0.7398 -0.1726
32836SOL    HW1 1401   2.760   7.905   8.651  0.0082 -3.3282 -1.3006
32836SOL    HW2 1402   2.616   7.939   8.618  0.3982 -0.0970 -0.0468
32837SOL     OW 1403   8.779   3.786  10.213  0.4803 -0.2650  0.2054
32837SOL    HW1 1404   8.763   3.789  10.307  0.2584  0.5035  0.1505
32837SOL    HW2 1405   8.779   3.878  10.186  0.1594 -0.5004 -0.6110
32838SOL     OW 1406   9.719   9.744   9.742 -0.5816  0.1517 -0.0789
32838SOL    HW1 1407   9.634   9.730   9.784 -1.1385  0.6219 -1.0076
32838SOL    HW2 1408   9.776   9.677   9.779 -0.7324  1.1922  2.2221
32839SOL     OW 1409   0.631   6.945   3.267  0.2154 -0.0743 -0.1117
32839SOL    HW1 1410   0.645   6.953   3.361 -0.7594 -0.4217  0.0653
32839SOL    HW2 1411   0.536   6.941   3.256  0.3517 -2.0522 -0.9308
32840SOL     OW 1412   2.421   2.468   5.553 -0.0312 -0.4324 -0.2485
32840SOL    HW1 1413   2.422   2.552   5.506  0.7269  0.2766  0.9891
32840SOL    HW2 1414   2.328   2.449   5.565 -0.2167  0.3740 -0.3131
32841SOL     OW 1415   4.325   7.375   6.650  0.2021 -0.0150 -0.1672
32841SOL    HW1 1416   4.328   7.415   6.737  1.6720 -0.4564  0.0043
32841SOL    HW2 1417   4.270   7.434   6.599 -1.3135 -0.1354  1.2273
32842SOL     OW 1418   7.050   1.740   9.109  0.3381  0.0471 -0.1792
32842SOL    HW1 1419   7.069   1.652   9.078  1.2972  0.2991 -0.3564
32842SOL    HW2 1420   6.998   1.727   9.188  2.2749 -0.7686  1.0412
32843SOL     OW 1421   4.363   0.416   0.692  0.1885  0.2083  0.1087
32843SOL    HW1 1422   4.341   0.485   0.629 -3.2433 -0.3347  0.5303
32843SOL    HW2 1423   4.291   0.418   0.755  1.8167 -1.4731  2.1436
32844SOL     OW 1424   0.835  10.143   2.388 -0.6049 -0.4156 -0.0173
32844SOL    HW1 1425   0.844  10.221   2.334 -1.4886 -1.9091 -2.4732
32844SOL    HW2 1426   0.741  10.129   2.396 -0.5284 -2.5283 -1.7655
32845SOL     OW 1427   6.814   3.784   9.584  0.4315  0.5907  0.7743
32845SOL    HW1 1428   6.812   3.875   9.615  2.0682  1.1606 -0.5655
32845SOL    HW2 1429   6.891   3.781   9.526  0.0159 -1.4825  0.2503
32846SOL     OW 1430   6.854   2.063   6.940  0.0420 -0.1201  0.8236
32846SOL    HW1 1431   6.938   2.090   6.904  0.1717  1.7343  2.3385
32846SOL    HW2 1432   6.790   2.084   6.873  0.5740  0.4963  0.5036
32847SOL     OW 1433   9.100   6.825  10.414 -0.3562  0.2372  0.1575
32847SOL    HW1 1434   9.057   6.803  10.497  0.8256 -0.9163  0.5048
32847SOL    HW2 1435   9.182   6.866  10.440  0.7158 -1.4547 -0.3573
32848SOL     OW 1436   0.217  10.537   0.664  0.2695 -0.2970 -0.0780
32848SOL    HW1 1437   0.264  10.472   0.716  0.4200  1.2239  1.7839
32848SOL    HW2 1438   0.127  10.531   0.694  0.2823  0.3210  0.1018
32849SOL     OW 1439  10.511   3.071   3.952 -0.3578  0.2172 -0.5167
32849SOL    HW1 1440  10.572   2.998   3.946  0.3955  0.6153  1.4456
32849SOL    HW2 1441  10.565   3.148   3.936 -0.2386  0.5830  1.4188
32850SOL     OW 1442   3.641  10.577   3.432  0.1326 -0.1823  0.7657
32850SOL    HW1 1443   3.552  10.596   3.403 -0.0545 -0.9551  0.8163
32850SOL    HW2 1444   3.632  10.552   3.523  0.2563 -1.2879  0.4886
32851SOL     OW 1445   9.323   7.853   6.144  0.1937 -0.2949  0.6726
32851SOL    HW1 1446   9.340   7.898   6.226  1.4791  2.1932 -0.8454
32851SOL    HW2 1447   9.367   7.768   6.153 -0.7691 -0.6151  2.9518
32852SOL     OW 1448   0.198   5.185   1.936  0.4425  0.2670 -0.3327
32852SOL    HW1 1449   0.137   5.183   2.010 -0.3111  0.6970 -0.9209
32852SOL    HW2 1450   0.234   5.274   1.937 -0.0975  0.5044 -0.8776
32853SOL     OW 1451   6.949   9.554   0.178 -0.0935 -0.0422  0.3660
32853SOL    HW1 1452   6.960   9.460   0.194 -0.0730 -0.1485 -0.2430
32853SOL    HW2 1453   6.999   9.570   0.098 -2.6964 -0.1537 -1.3950
32854SOL     OW 1454   3.289   3.937   2.110  0.2035  0.1994  0.4296
32854SOL    HW1 1455   3.263   3.972   2.024 -0.0832 -0.3454  0.2930
32854SOL    HW2 1456   3.317   4.015   2.159 -0.7937  0.6954  0.2589
32855SOL     OW 1457   5.541   8.973   3.990  0.0943  0.1248 -0.2098
32855SOL    HW1 1458   5.619   8.974   4.046  0.0127 -1.7327 -0.0309
32855SOL    HW2 1459   5.510   8.883   3.993 -1.5569  0.6397 -1.0087
32856SOL     OW 1460   2.988   8.704   5.353 -0.0613  0.5758 -0.2360
32856SOL    HW1 1461   2.997   8.774   5.288 -0.7232 -1.6122 -2.8801
32856SOL    HW2 1462   2.896   8.708   5.380  0.0885  1.1743  0.1959
32857SOL     OW 1463   5.865   6.822   1.791 -0.2915  0.0030 -0.5235
32857SOL    HW1 1464   5.867   6.726   1.790 -1.8573 -0.0597  0.2839
32857SOL    HW2 1465   5.826   6.845   1.875 -0.0365  1.3515 -0.7547
32858SOL     OW 1466   5.867   7.664   3.809  0.2369 -0.3241 -0.0224
32858SOL    HW1 1467   5.798   7.633   3.750  1.7767 -1.5140 -1.2970
32858SOL    HW2 1468   5.847   7.622   3.892 -1.6742  0.9564  0.2521
32859SOL     OW 1469   0.345   6.908   8.099  0.3658 -0.2461  0.2762
32859SOL    HW1 1470   0.291   6.956   8.163 -0.2474 -3.3092  2.2707
32859SOL    HW2 1471   0.284   6.880   8.032  0.2597 -0.2856  0.3888
32860SOL     OW 1472  10.204   1.892   3.191 -0.0251  0.0684 -0.1449
32860SOL    HW1 1473  10.193   1.848   3.275 -1.3579  1.0075  0.2134
32860SOL    HW2 1474  10.255   1.970   3.211  1.0231 -0.4886 -0.5187
32861SOL     OW 1475   4.397   3.311   0.573  0.1212 -0.1136  0.0893
32861SOL    HW1 1476   4.443   3.353   0.501  1.2757  0.9553  1.3695
32861SOL    HW2 1477   4.391   3.219   0.548 -0.2854  0.3631 -1.7144
32862SOL     OW 1478   8.247   2.604   0.971 -0.1744  0.0563  0.0538
32862SOL    HW1 1479   8.332   2.610   1.014  1.1005 -0.8081 -2.2008
32862SOL    HW2 1480   8.204   2.686   0.993  0.7752  0.0996  2.0763
32863SOL     OW 1481   1.936   8.466   8.768 -0.4184  0.3754 -0.6682
32863SOL    HW1 1482   1.898   8.469   8.856 -0.1866  0.4919 -0.5720
32863SOL    HW2 1483   1.888   8.534   8.720  1.0917  2.0405  0.0313
32864SOL     OW 1484   7.065   8.459   3.269  0.0408 -0.7121  0.0391
32864SOL    HW1 1485   6.972   8.436   3.266  0.5010 -2.8098 -0.0277
32864SOL    HW2 1486   7.096   8.427   3.353  1.0320 -1.5843 -0.6174
32865SOL     OW 1487   9.606   3.162   1.316 -0.3104  0.2253  0.1249
32865SOL    HW1 1488   9.664   3.219   1.266  0.5445  1.1309  2.0356
32865SOL    HW2 1489   9.518   3.194   1.297 -0.0336  0.4201 -0.8930
32866SOL     OW 1490   8.721   6.810   9.721 -0.3326 -0.1583  0.1829
32866SOL    HW1 1491   8.733   6.800   9.626 -0.2074  0.9930  0.0512
32866SOL    HW2 1492   8.793   6.760   9.759  0.2390  0.2158 -0.3738
32867SOL     OW 1493   3.678  10.371   6.574 -0.1328 -0.5072  0.6846
32867SOL    HW1 1494   3.586  10.351   6.553 -0.5310  0.5642  1.3447
32867SOL    HW2 1495   3.686  10.347   6.667  1.2607 -4.0057 -0.1705
32868SOL     OW 1496   5.374   8.095   8.323 -0.1678  0.2312  0.2600
32868SOL    HW1 1497   5.301   8.141   8.365  0.0567  0.2603  0.6295
32868SOL    HW2 1498   5.422   8.056   8.396  0.1566  0.1711  0.0170
32869SOL     OW 1499   0.500   0.197   7.105 -0.0672  0.4526  0.2469
32869SOL    HW1 1500   0.442   0.126   7.133  1.7111 -1.9336 -1.5944
32869SOL    HW2 1501   0.587   0.170   7.135  0.7511  1.5076 -1.0694
32870SOL     OW 1502   4.469   3.553   9.450  0.4788  0.2578 -0.2363
32870SOL    HW1 1503   4.397   3.489   9.444  2.3671 -1.9663 -0.6908
32870SOL    HW2 1504   4.425   3.637   9.466 -2.3685 -0.6226 -2.3888
32871SOL     OW 1505   7.252   1.397   8.059  0.4953  0.3269 -0.2370
32871SOL    HW1 1506   7.291   1.397   7.972  0.3091 -0.5681 -0.3305
32871SOL    HW2 1507   7.208   1.312   8.066  1.2245  0.0206  1.0363
32872SOL     OW 1508   3.553   1.931   7.317  0.0153 -0.1345 -0.3578
32872SOL    HW1 1509   3.459   1.932   7.335  0.2733 -1.4073  1.3226
32872SOL    HW2 1510   3.585   2.011   7.359 -0.0368 -0.8419  1.1077
32873SOL     OW 1511  10.732   1.552   8.014  0.0393 -0.0726 -0.5754
32873SOL    HW1 1512  10.804   1.526   8.072 -0.5073  0.2137  0.2491
32873SOL    HW2 1513  10.704   1.471   7.972  2.0794  0.0824 -2.3813
32874SOL     OW 1514   2.539   0.142   6.973  0.0511  0.5357 -0.1379
32874SOL    HW1 1515   2.505   0.101   6.894  0.8314 -1.1139  0.3424
32874SOL    HW2 1516   2.629   0.111   6.980  0.2220  1.2278  1.0166
32875SOL     OW 1517   8.723   1.265   5.394  0.4364 -0.3037  0.4957
32875SOL    HW1 1518   8.704   1.190   5.450  0.4802 -0.0298  0.8815
32875SOL    HW2 1519   8.671   1.337   5.431  1.4464  0.2076  0.9653
32876SOL     OW 1520  10.738   1.883   0.975  0.1424 -0.1430  0.2165
32876SOL    HW1 1521  10.671   1.939   0.936 -1.8638 -0.6154  2.6822
32876SOL    HW2 1522  10.768   1.931   1.052  0.5266 -1.1620  0.7265
32877SOL     OW 1523   4.099   6.543   7.797  0.2381  0.5406 -1.0404
32877SOL    HW1 1524   4.082   6.548   7.891 -0.1113  1.8354 -1.1487
32877SOL    HW2 1525   4.171   6.481   7.789  0.5575  0.7379  0.1273
32878SOL     OW 1526   5.559   0.556   9.790  0.5368  0.3371 -0.1718
32878SOL    HW1 1527   5.476   0.582   9.750  0.0734 -1.6935 -0.6082
32878SOL    HW2 1528   5.534   0.526   9.878  0.4165 -2.2602 -1.0047
32879SOL     OW 1529   5.836   6.147   6.616  0.3240 -0.0377 -0.6492
32879SOL    HW1 1530   5.745   6.137   6.589  0.3179 -0.9179 -0.3207
32879SOL    HW2 1531   5.860   6.063   6.654  0.7158  0.7624  0.9484
32880SOL     OW 1532   2.257   9.128   0.703  0.2718  0.9024 -0.1295
32880SOL    HW1 1533   2.282   9.084   0.622 -1.0283  0.3975 -0.2938
32880SOL    HW2 1534   2.286   9.218   0.692  0.7109  0.6748 -0.8677
32881SOL     OW 1535  10.147  10.400   4.658  0.2966  0.4953  0.0634
32881SOL    HW1 1536  10.120  10.431   4.744  1.2619  0.5814  0.3438
32881SOL    HW2 1537  10.220  10.457   4.634 -1.4162  2.0586 -1.8737
32882SOL     OW 1538   2.360   9.803   6.330 -0.1897 -0.6372  0.0437
32882SOL    HW1 1539   2.381   9.896   6.337 -0.2122 -0.6296  0.0057
32882SOL    HW2 1540   2.292   9.799   6.263 -0.0172 -0.7084 -0.1275
32883SOL     OW 1541   7.752   0.903   8.396  0.4682  0.6392  0.1420
32883SOL    HW1 1542   7.699   0.840   8.347  0.6133 -0.2002  1.0349
32883SOL    HW2 1543   7.742   0.877   8.488  0.8276  1.6998  0.5029
32884SOL     OW 1544   4.866   1.372   8.687  0.7225 -0.4631  0.6286
32884SOL    HW1 1545   4.935   1.360   8.753  0.0421 -0.0042  1.4370
32884SOL    HW2 1546   4.819   1.288   8.687 -0.2440  0.0381  1.8833
32885SOL     OW 1547   7.591   1.000   1.363  0.7617 -0.1875 -0.7301
32885SOL    HW1 1548   7.673   1.035   1.327  0.8320  0.6031  0.1747
32885SOL    HW2 1549   7.572   0.923   1.308  0.3393  1.5074 -3.1403
32886SOL     OW 1550   7.442   2.872   4.516 -0.3311 -0.2898 -0.0467
32886SOL    HW1 1551   7.398   2.902   4.436 -0.5077 -0.4196  0.0005
32886SOL    HW2 1552   7.387   2.801   4.548 -2.3749  2.1523  2.2646
32887SOL     OW 1553   9.491   9.831  10.565 -0.2406 -0.1902  0.0364
32887SOL    HW1 1554   9.522   9.916  10.596  1.0280  0.1916 -2.0689
32887SOL    HW2 1555   9.567   9.791  10.523 -0.9276 -2.2027  0.5932
32888SOL     OW 1556   4.699   4.957   8.307  0.3410  0.2099  0.1166
32888SOL    HW1 1557   4.669   4.916   8.226  0.8794  0.7401 -0.3565
32888SOL    HW2 1558   4.794   4.953   8.302  0.4110 -1.9959  1.8787
32889SOL     OW 1559   3.279   5.230   3.580 -0.3086 -0.3001  0.9328
32889SOL    HW1 1560   3.357   5.183   3.609  0.3956  0.5625  0.5065
32889SOL    HW2 1561   3.228   5.245   3.660  0.2697 -0.3285  1.3082
32890SOL     OW 1562   3.199   8.652   1.639 -0.4770 -0.4499  0.4088
32890SOL    HW1 1563   3.288   8.649   1.676 -0.5281 -1.5188  0.4796
32890SOL    HW2 1564   3.205   8.717   1.569  1.2221 -2.6324 -1.6656
32891SOL     OW 1565   7.751   7.771   9.159  0.1553  0.4935 -1.0306
32891SOL    HW1 1566   7.771   7.679   9.143 -0.0319  0.6085 -1.9413
32891SOL    HW2 1567   7.734   7.808   9.073 -0.5182  1.2122 -0.6035
32892SOL     OW 1568   2.286   3.608   3.293  0.1389  0.6450 -0.4450
32892SOL    HW1 1569   2.328   3.614   3.378  2.3018  0.9739 -1.4653
32892SOL    HW2 1570   2.196   3.582   3.312  1.2840 -2.2972  1.7696
32893SOL     OW 1571   7.362   4.225   9.437  0.1429  0.2149 -0.1698
32893SOL    HW1 1572   7.419   4.257   9.507 -1.7935  0.4975  1.4051
32893SOL    HW2 1573   7.337   4.137   9.466  1.0788 -0.5748 -1.6814
32894SOL     OW 1574   0.328   3.892  10.257 -0.4875 -0.1014  0.0689
32894SOL    HW1 1575   0.377   3.863  10.334  0.4978  0.5368 -0.2985
32894SOL    HW2 1576   0.373   3.971  10.228  0.4281 -1.3869 -2.3390
32895SOL     OW 1577   7.405   4.636   7.816 -0.9151 -0.4800 -0.3002
32895SOL    HW1 1578   7.327   4.684   7.845 -2.0979 -1.8219 -1.1252
32895SOL    HW2 1579   7.466   4.704   7.788 -1.7273  0.6126  0.5139
32896SOL     OW 1580   6.729   1.403   0.603 -0.5634 -0.8633 -0.0164
32896SOL    HW1 1581   6.789   1.331   0.623  0.9318  0.5255  0.7642
32896SOL    HW2 1582   6.729   1.410   0.508  1.4554 -0.1692  0.0016
32897SOL     OW 1583   9.157  10.303   3.672 -0.4813 -0.2075 -0.4986
32897SOL    HW1 1584   9.193  10.270   3.590 -0.9291  1.4393 -1.3990
32897SOL    HW2 1585   9.232  10.344   3.716 -0.3233 -0.7557 -0.2429
32898SOL     OW 1586   9.940   9.564   1.580 -0.2579  0.4174  0.5668
32898SOL    HW1 1587  10.014   9.603   1.533 -1.4273  1.6226 -0.3806
32898SOL    HW2 1588   9.944   9.471   1.560  0.3817  0.6333 -0.3458
32899SOL     OW 1589   1.082   9.127   4.993 -0.1709 -0.4488  0.3722
32899SOL    HW1 1590   1.017   9.121   4.923  2.3404 -2.8493 -2.0254
32899SOL    HW2 1591   1.139   9.199   4.966  0.0187 -0.4788  0.7009
32900SOL     OW 1592   9.600   6.936  10.307  0.6170  0.3886  0.0589
32900SOL    HW1 1593   9.507   6.921  10.323  0.0942 -0.4134 -3.0727
32900SOL    HW2 1594   9.644   6.860  10.344 -0.3118 -0.6885 -0.9937
32901SOL     OW 1595   3.540   2.829   0.665 -0.0575  0.4765  0.2068
32901SOL    HW1 1596   3.455   2.818   0.623 -0.4012  1.3756  0.6327
32901SOL    HW2 1597   3.603   2.807   0.597 -0.6044 -1.9878  0.3976
32902SOL     OW 1598   5.918   2.184   9.790  0.7085 -0.1213  0.2740
32902SOL    HW1 1599   5.925   2.261   9.734  1.0035  1.1611  1.9600
32902SOL    HW2 1600   5.991   2.192   9.851  1.2413 -2.2169 -0.0085
32903SOL     OW 1601   4.674   3.350   5.331 -0.3086 -0.5797 -0.6277
32903SOL    HW1 1602   4.666   3.432   5.283  1.8342 -0.1189 -0.2845
32903SOL    HW2 1603   4.605   3.354   5.397  0.8057  1.7934  0.5229
32904SOL     OW 1604   3.162   0.559   4.929 -0.3330 -0.5961  0.1517
32904SOL    HW1 1605   3.200   0.639   4.893  1.4284  0.5462  4.0619
32904SOL    HW2 1606   3.237   0.499   4.938 -1.1218 -1.6584 -0.1521
32905SOL     OW 1607  10.449   3.975   8.205 -0.2795 -0.0210 -0.1994
32905SOL    HW1 1608  10.464   4.069   8.214 -1.4715  0.1357  0.2258
32905SOL    HW2 1609  10.434   3.944   8.295  1.4212 -0.8730 -0.1586
32906SOL     OW 1610   7.755   8.471   9.215  0.4054 -0.3036  0.4314
32906SOL    HW1 1611   7.670   8.446   9.251 -0.2715 -2.1769 -2.1351
32906SOL    HW2 1612   7.814   8.402   9.243  0.2684 -0.8228 -0.5083
32907SOL     OW 1613   5.241   7.969   4.336 -0.8739 -0.6293 -0.2193
32907SOL    HW1 1614   5.217   8.052   4.378 -1.3507 -0.7707 -0.2089
32907SOL    HW2 1615   5.278   7.916   4.406 -1.5187 -0.8050 -0.0079
32908SOL     OW 1616   3.185   6.208   0.113 -0.1218  0.1485  0.0472
32908SOL    HW1 1617   3.269   6.252   0.106  1.5350 -2.3673  2.1557
32908SOL    HW2 1618   3.146   6.217   0.026  3.6608 -0.9715 -1.9878
32909SOL     OW 1619  10.767   0.089   0.683  0.2581 -0.3258  0.1954
32909SOL    HW1 1620  10.751   0.117   0.773  1.5871 -2.5814  1.2195
32909SOL    HW2 1621  10.852   0.047   0.686 -0.4806 -2.1269 -1.7045
32910SOL     OW 1622   5.107   5.620   0.538 -0.5241  0.2186 -0.2569
32910SOL    HW1 1623   5.138   5.602   0.450  1.0405 -0.7350  0.4366
32910SOL    HW2 1624   5.082   5.534   0.572  0.9788  0.2042  0.9436
32911SOL     OW 1625   1.302  10.250   1.311  0.0535 -0.0752 -0.1457
32911SOL    HW1 1626   1.383  10.265   1.359 -0.6158  0.6173  0.8356
32911SOL    HW2 1627   1.300  10.320   1.245 -0.0981  0.3827  0.3355
32912SOL     OW 1628  10.629   0.404   8.321  0.5751  0.1528  0.0435
32912SOL    HW1 1629  10.570   0.337   8.286 -0.5858  1.2016 -0.0592
32912SOL    HW2 1630  10.674   0.439   8.244  1.4654 -0.7240  0.1336
32913SOL     OW 1631   3.930   8.676   7.733 -0.0206 -0.4457 -0.6746
32913SOL    HW1 1632   3.974   8.631   7.806  0.8467  0.3973 -0.6597
32913SOL    HW2 1633   3.963   8.766   7.738 -0.9451 -0.0665 -1.3278
32914SOL     OW 1634   3.388   7.244   7.907 -0.4410  0.1250  0.2923
32914SOL    HW1 1635   3.451   7.174   7.924 -1.5238 -0.6516  1.2104
32914SOL    HW2 1636   3.329   7.208   7.841  0.7618  1.3047 -1.5081
32915SOL     OW 1637   9.691   3.254   8.851 -0.1071  0.3031  0.2810
32915SOL    HW1 1638   9.728   3.297   8.774  0.2726  1.4825  1.0874
32915SOL    HW2 1639   9.761   3.199   8.886 -0.4936 -0.7685 -0.5720
32916SOL     OW 1640   4.743   9.719   9.364 -0.1754 -0.1691  0.0612
32916SOL    HW1 1641   4.821   9.766   9.332  0.8195 -0.7278  1.5773
32916SOL    HW2 1642   4.670   9.769   9.328  0.8472 -0.0319 -2.0133
32917SOL     OW 1643  10.553   6.745   0.531 -0.2308  0.0179 -0.0914
32917SOL    HW1 1644  10.465   6.743   0.569 -0.4968 -0.8024 -0.7051
32917SOL    HW2 1645  10.570   6.654   0.505  0.9545  0.0906  0.3475
32918SOL     OW 1646   2.578  10.460   7.830 -0.1600 -0.2613 -0.2315
32918SOL    HW1 1647   2.493  10.444   7.788 -0.7452 -1.4227  1.2820
32918SOL    HW2 1648   2.589  10.386   7.889  1.5155  0.3400  0.2515
32919SOL     OW 1649   0.653   8.215   2.388 -0.4256  0.3525 -0.2552
32919SOL    HW1 1650   0.708   8.293   2.391 -0.6474  0.5108 -0.2708
32919SOL    HW2 1651   0.642   8.191   2.480  1.1586 -0.7387 -0.3283
32920SOL     OW 1652   5.329   6.083   7.490 -1.0859  0.1198  0.0472
32920SOL    HW1 1653   5.335   6.094   7.585  0.9175  1.3831 -0.1615
32920SOL    HW2 1654   5.362   6.166   7.455 -1.9192 -0.2754 -1.7601
32921SOL     OW 1655   5.607   4.585   7.600 -0.1669  0.1846 -0.6816
32921SOL    HW1 1656   5.535   4.544   7.552  0.0202 -0.5189 -0.3759
32921SOL    HW2 1657   5.686   4.558   7.553 -0.0269  0.0134 -0.3528
32922SOL     OW 1658   1.118   7.358   6.085 -0.2257 -0.0388  0.2734
32922SOL    HW1 1659   1.198   7.322   6.123 -0.0180 -1.1775 -1.1536
32922SOL    HW2 1660   1.143   7.444   6.053  0.3065 -0.2024  0.2408
32923SOL     OW 1661   3.753   4.365   4.599 -0.2213  0.6520 -0.1433
32923SOL    HW1 1662   3.755   4.270   4.599 -0.3180  0.6345  1.0952
32923SOL    HW2 1663   3.680   4.388   4.656  0.6982  1.4680  0.7481
32924SOL     OW 1664   9.263   6.239   4.586 -0.0250 -0.0206 -0.0037
32924SOL    HW1 1665   9.231   6.217   4.498  1.9763 -1.1590 -0.5062
32924SOL    HW2 1666   9.255   6.334   4.592 -1.0909 -0.0271 -1.0421
32925SOL     OW 1667   4.981   1.112   4.490 -0.0852 -0.2353 -0.4163
32925SOL    HW1 1668   5.029   1.080   4.413  1.1315 -0.4996  0.4114
32925SOL    HW2 1669   5.034   1.185   4.521 -1.2948  0.7320 -0.5940
32926SOL     OW 1670   1.864  10.687   2.577  1.1720 -0.1870  0.1709
32926SOL    HW1 1671   1.795  10.727   2.524  0.0261 -0.9517  1.0361
32926SOL    HW2 1672   1.871  10.744   2.653  2.6634  0.7893 -0.6567
32927SOL     OW 1673   2.268   4.024  10.748 -0.0374  0.1853 -0.5809
32927SOL    HW1 1674   2.205   3.958  10.716  0.4467  0.3554 -1.9754
32927SOL    HW2 1675   2.229   4.107  10.722 -1.8418  0.7564  3.2269
32928SOL     OW 1676   2.209   3.134   0.011 -0.2679  0.4089 -0.2863
32928SOL    HW1 1677   2.148   3.060   0.004 -0.1876  0.2988  0.1291
32928SOL    HW2 1678   2.155   3.208   0.036 -0.3769  0.5363 -0.8843
32929SOL     OW 1679   6.199   0.353   4.283  0.2159 -0.0510  0.0753
32929SOL    HW1 1680   6.121   0.406   4.268  0.6904  0.9766  1.0384
32929SOL    HW2 1681   6.261   0.382   4.216  0.4498  0.6013  0.5561
32930SOL     OW 1682   7.045   3.776   6.590 -0.6467  0.2831  0.4317
32930SOL    HW1 1683   7.108   3.787   6.518 -0.4684 -0.4484  0.4582
32930SOL    HW2 1684   6.987   3.852   6.584  0.0221  0.7828  0.1836
32931SOL     OW 1685   8.130   8.735   5.191 -0.2246  0.7909 -0.3355
32931SOL    HW1 1686   8.131   8.665   5.127  2.0851 -0.4692  0.9040
32931SOL    HW2 1687   8.123   8.690   5.276  0.2176  2.1163  0.4410
32932SOL     OW 1688   4.845   5.483   6.465 -0.0350  0.0307  0.0748
32932SOL    HW1 1689   4.806   5.560   6.425  0.3521 -0.2527 -0.8797
32932SOL    HW2 1690   4.916   5.518   6.519  0.4463  0.3257 -0.7244
32933SOL     OW 1691   8.971   5.994   2.225 -0.6487 -0.1541 -0.1430
32933SOL    HW1 1692   9.005   5.906   2.209  1.0140  0.5825 -0.9386
32933SOL    HW2 1693   8.884   5.980   2.263  0.8024 -2.1948  2.8151
32934SOL     OW 1694   6.462   7.953   2.043  0.3323  0.5042 -0.1375
32934SOL    HW1 1695   6.527   7.973   2.109 -2.1341  2.2245  1.9675
32934SOL    HW2 1696   6.420   8.037   2.024 -0.4753 -0.3160 -2.3401
32935SOL     OW 1697   3.896   9.448  10.669 -0.1917 -0.2274 -0.5470
32935SOL    HW1 1698   3.987   9.418  10.664  0.0755  0.3242  0.7771
32935SOL    HW2 1699   3.897   9.533  10.625 -0.0589 -0.1992 -0.4894
32936SOL     OW 1700   5.790   9.561   5.731  0.3381 -0.4616 -0.1268
32936SOL    HW1 1701   5.877   9.523   5.720  1.1068  0.8531  1.0325
32936SOL    HW2 1702   5.790   9.639   5.675 -0.0839 -0.4508 -0.1123
32937SOL     OW 1703   3.415   5.486   8.123 -0.0182  0.5989  0.4315
32937SOL    HW1 1704   3.481   5.533   8.174 -1.9161  3.3020  0.6283
32937SOL    HW2 1705   3.356   5.449   8.189  0.2225 -0.1540  0.2313
32938SOL     OW 1706   7.097   6.108   8.470  0.1573 -0.4662 -0.5039
32938SOL    HW1 1707   7.091   6.145   8.382 -0.3403  1.7172  0.4009
32938SOL    HW2 1708   7.037   6.033   8.468 -1.6419  0.9186 -1.3772
32939SOL     OW 1709   3.861   3.021   2.560 -0.0960  0.3036 -0.2656
32939SOL    HW1 1710   3.866   2.970   2.641 -1.6027  0.4858 -0.0365
32939SOL    HW2 1711   3.852   3.112   2.590 -1.4704  0.2932 -0.6098
32940SOL     OW 1712   3.975   0.029   2.918  0.6568  0.1667 -0.2640
32940SOL    HW1 1713   3.932   0.114   2.912 -2.5567 -0.9780  2.9397
32940SOL    HW2 1714   4.038   0.040   2.990  0.4327 -0.0532 -0.0311
32941SOL     OW 1715  10.478   4.435   3.229  0.1628 -0.0902 -0.5628
32941SOL    HW1 1716  10.520   4.486   3.159  1.2493 -1.0454 -0.6435
32941SOL    HW2 1717  10.450   4.355   3.187  2.1969 -1.3627  0.3198
32942SOL     OW 1718   7.695   8.839  10.025  0.0648 -0.6222  0.1899
32942SOL    HW1 1719   7.719   8.821  10.116  2.3051 -0.4434 -0.3048
32942SOL    HW2 1720   7.707   8.934  10.015  2.2313 -0.9430 -0.8623
32943SOL     OW 1721  10.744   9.956   1.413 -0.0879  0.3548  0.5127
32943SOL    HW1 1722  10.695   9.892   1.465 -0.2228  0.2927  0.3131
32943SOL    HW2 1723  10.822   9.909   1.384 -0.8446 -0.1817 -0.7860
32944SOL     OW 1724   5.003   4.968   1.071 -0.3467  0.2586  0.2426
32944SOL    HW1 1725   4.943   5.028   1.116 -1.4967 -1.0358  0.5016
32944SOL    HW2 1726   5.086   4.978   1.117 -0.9710  0.4418  1.3643
32945SOL     OW 1727   4.326   5.298   0.584  0.1055  0.2059  0.1638
32945SOL    HW1 1728   4.325   5.240   0.660 -1.2384 -0.2670 -0.1871
32945SOL    HW2 1729   4.303   5.384   0.618 -0.8133 -0.0684  0.2664
32946SOL     OW 1730   0.036   9.479   0.645 -0.5201 -0.4187  0.1815
32946SOL    HW1 1731   0.030   9.570   0.675 -0.8308 -0.8478  1.4631
32946SOL    HW2 1732  -0.010   9.428   0.713  0.3613 -1.6210 -0.1013
32947SOL     OW 1733   7.581   7.815   6.215 -0.1486 -0.2020 -0.5298
32947SOL    HW1 1734   7.667   7.779   6.193 -1.0106 -1.2724 -2.4254
32947SOL    HW2 1735   7.520   7.770   6.156 -2.0995  0.1353  1.1026
32948SOL     OW 1736   1.997   5.004   8.089 -0.4108  0.3481 -0.1778
32948SOL    HW1 1737   1.958   5.062   8.155 -1.1568 -1.0129  0.6267
32948SOL    HW2 1738   2.006   5.060   8.011 -0.8736  1.6025  0.6285
32949SOL     OW 1739   0.899   8.806   0.946 -0.3924 -0.6717  0.7285
32949SOL    HW1 1740   0.917   8.873   1.012  1.5370 -1.1279  0.7151
32949SOL    HW2 1741   0.807   8.819   0.923 -0.8751  0.0774  2.8599
32950SOL     OW 1742   7.909   1.710   4.438  0.1222  0.7610 -0.0152
32950SOL    HW1 1743   7.839   1.677   4.382 -0.2373  0.1932  0.7408
32950SOL    HW2 1744   7.913   1.804   4.420 -1.2322  0.9098  0.3383
32951SOL     OW 1745   6.092   6.610   7.593 -0.3696 -0.3506  0.1192
32951SOL    HW1 1746   6.082   6.701   7.565  0.5932 -0.7604 -1.6584
32951SOL    HW2 1747   6.054   6.558   7.522  0.0274 -1.3632  0.6244
32952SOL     OW 1748   4.134   3.933   4.381  0.1385 -0.6383  0.3170
32952SOL    HW1 1749   4.056   3.949   4.328  0.4049  0.3301  0.1897
32952SOL    HW2 1750   4.195   4.002   4.354  1.2827 -1.7631 -0.0417
32953SOL     OW 1751   3.786   3.315   0.075 -0.0331  0.0244  0.0107
32953SOL    HW1 1752   3.855   3.249   0.080 -0.4854 -0.3708  1.8068
32953SOL    HW2 1753   3.710   3.267   0.044 -0.2217 -0.2093  0.8012
32954SOL     OW 1754   9.726  10.283   7.620  0.6070 -0.3696  0.0391
32954SOL    HW1 1755   9.770  10.204   7.652  0.0491 -0.6417  0.1412
32954SOL    HW2 1756   9.673  10.252   7.546  0.0298 -0.1778  0.3691
32955SOL     OW 1757   6.053   0.565   4.914 -0.1550  0.7645 -0.2702
32955SOL    HW1 1758   5.976   0.566   4.857  0.5573  2.6973 -1.2934
32955SOL    HW2 1759   6.062   0.473   4.941 -2.0222  0.2622 -1.1811
32956SOL     OW 1760   8.888   8.096  10.123 -0.0507  0.5662 -0.3767
32956SOL    HW1 1761   8.866   8.137  10.207 -1.3046 -0.1440 -0.3271
32956SOL    HW2 1762   8.884   8.002  10.141  1.1540  0.3990 -0.8867
32957SOL     OW 1763   6.563   4.786   1.486 -0.1489  0.3183  0.1476
32957SOL    HW1 1764   6.510   4.718   1.443 -1.7022  1.2759  0.4910
32957SOL    HW2 1765   6.520   4.868   1.463  0.5938  1.0553  1.2966
32958SOL     OW 1766   6.436   9.354   9.678 -0.0765 -0.4429 -0.1758
32958SOL    HW1 1767   6.388   9.418   9.730 -1.6487 -1.7764  0.0901
32958SOL    HW2 1768   6.475   9.406   9.607 -0.8629  0.8770  0.3148
32959SOL     OW 1769   8.543   5.674   2.501  0.3938 -0.8109  0.1235
32959SOL    HW1 1770   8.457   5.710   2.524  1.0321  0.4630  0.6200
32959SOL    HW2 1771   8.528   5.627   2.419 -0.4226  0.8923 -0.7485
32960SOL     OW 1772   4.603   8.168   5.056 -0.1558  0.6312 -0.1520
32960SOL    HW1 1773   4.687   8.176   5.011  0.3387  0.8109  0.7662
32960SOL    HW2 1774   4.544   8.130   4.991  0.9306 -0.5973 -0.4646
32961SOL     OW 1775   6.501   4.900   4.299 -0.2380 -0.2656 -0.4117
32961SOL    HW1 1776   6.424   4.903   4.354 -0.5817 -0.5207 -0.8745
32961SOL    HW2 1777   6.477   4.842   4.226  1.2418 -2.4455  0.7227
32962SOL     OW 1778   5.671  10.405   7.078  0.1626 -0.0992  0.3325
32962SOL    HW1 1779   5.633  10.407   6.991 -0.4868  0.8830  0.6186
32962SOL    HW2 1780   5.710  10.491   7.090 -0.4783  0.0791  1.3106
32963SOL     OW 1781   3.694   1.290   7.511  0.0828  0.1302  1.1187
32963SOL    HW1 1782   3.701   1.229   7.584 -1.7560  0.8276  1.9413
32963SOL    HW2 1783   3.633   1.248   7.451  2.7485 -1.1753 -0.8918
32964SOL     OW 1784   0.816   6.437   1.430  0.1023 -0.4295 -0.1585
32964SOL    HW1 1785   0.792   6.412   1.519 -0.6762  0.2635 -0.1579
32964SOL    HW2 1786   0.847   6.527   1.438  0.3458 -0.4774 -0.5441
32965SOL     OW 1787   2.621   9.852  10.504  0.0634 -0.1132  0.3301
32965SOL    HW1 1788   2.699   9.831  10.453  0.0408  1.7397 -0.5454
32965SOL    HW2 1789   2.584   9.929  10.461 -1.3914 -0.0280  1.6462
32966SOL     OW 1790   1.398   2.684   1.101  0.5180 -0.0861  0.1850
32966SOL    HW1 1791   1.462   2.752   1.119  0.3313  0.0729  0.2549
32966SOL    HW2 1792   1.352   2.714   1.023 -0.4873  0.5439  0.9948
32967SOL     OW 1793   9.871   9.688   6.165 -0.1091 -0.1011 -0.5678
32967SOL    HW1 1794   9.799   9.652   6.113 -1.1599 -0.1494  0.8569
32967SOL    HW2 1795   9.828   9.744   6.230  1.1297 -0.2561  0.4204
32968SOL     OW 1796   5.653   7.265   0.789  0.2339 -0.3906  0.1878
32968SOL    HW1 1797   5.683   7.218   0.711  0.0952 -1.5412  0.8216
32968SOL    HW2 1798   5.730   7.315   0.817  0.6590 -0.9520  0.0411
32969SOL     OW 1799  10.605   3.490   0.351 -0.4646  0.6713  0.1614
32969SOL    HW1 1800  10.559   3.427   0.296  0.6392  0.6599 -0.7930
32969SOL    HW2 1801  10.538   3.553   0.377 -1.0834  0.4931 -0.9312
32970SOL     OW 1802  10.170   5.162   7.113  0.7130  0.1750  0.3807
32970SOL    HW1 1803  10.169   5.236   7.174 -0.2048  0.7348 -0.2826
32970SOL    HW2 1804  10.226   5.097   7.155  1.2350  1.0972  1.1590
32971SOL     OW 1805   3.725   7.650   5.192  0.2714 -0.8296  0.1036
32971SOL    HW1 1806   3.729   7.744   5.172 -1.4148 -0.8226 -0.3415
32971SOL    HW2 1807   3.787   7.610   5.131  0.8021 -0.0503  0.1076
32972SOL     OW 1808  10.476   9.635   2.678 -0.2902  0.3284  0.2910
32972SOL    HW1 1809  10.543   9.587   2.630  0.6286  0.1308  1.7361
32972SOL    HW2 1810  10.468   9.718   2.631 -1.4746 -0.9228 -1.8869
32973SOL     OW 1811   8.764   6.569   0.622 -0.0157  0.0365 -0.0704
32973SOL    HW1 1812   8.771   6.529   0.709  1.9164 -1.5784 -0.9009
32973SOL    HW2 1813   8.833   6.635   0.620  0.2182 -0.2140 -0.4995
32974SOL     OW 1814   5.358   5.748   4.693 -0.6459  0.1599 -0.3936
32974SOL    HW1 1815   5.420   5.694   4.645 -0.8046 -0.6082  0.2402
32974SOL    HW2 1816   5.287   5.688   4.715 -1.4489  0.9359 -0.7940
32975SOL     OW 1817   3.535   8.715   0.330  0.3208  0.3351 -0.1281
32975SOL    HW1 1818   3.579   8.716   0.246  1.2287  1.9729  0.3181
32975SOL    HW2 1819   3.604   8.736   0.394 -0.7773  1.4504  0.7480
32976SOL     OW 1820  10.138   8.244   5.030  0.1823 -0.0034  0.2305
32976SOL    HW1 1821  10.144   8.334   5.061  0.5908 -0.2437  0.8732
32976SOL    HW2 1822  10.107   8.251   4.940  0.1429  0.7738  0.3031
32977SOL     OW 1823   4.769   8.499   1.656  0.6570 -0.2425  0.2844
32977SOL    HW1 1824   4.781   8.441   1.731 -0.1503 -0.4311  0.2775
32977SOL    HW2 1825   4.854   8.542   1.645  1.5478 -2.0725 -0.2680
32978SOL     OW 1826   5.227  10.061   2.717 -0.0999  0.4327 -0.5544
32978SOL    HW1 1827   5.135  10.042   2.733 -0.1073  1.7102  1.3049
32978SOL    HW2 1828   5.242  10.036   2.626 -1.7811 -1.5592 -0.3460
32979SOL     OW 1829  10.519   0.006   4.831 -0.1342  0.4268  0.0307
32979SOL    HW1 1830  10.543  -0.061   4.895  3.3500  0.2968 -1.2206
32979SOL    HW2 1831  10.551   0.088   4.868 -0.9366  0.8516 -0.1805
32980SOL     OW 1832  10.762   2.728   0.694  0.1818  0.3290 -0.4746
32980SOL    HW1 1833  10.704   2.803   0.704  0.8176  0.9450 -1.2436
32980SOL    HW2 1834  10.704   2.655   0.672 -0.6351  0.1721  1.9092
32981SOL     OW 1835   7.800   8.734   1.190 -0.1080  0.1551  0.1437
32981SOL    HW1 1836   7.711   8.767   1.182 -0.2040  0.0657  0.7956
32981SOL    HW2 1837   7.792   8.640   1.172 -0.0933  0.2027 -0.1144
32982SOL     OW 1838   5.390   7.601   4.550 -0.3086  0.4727  0.1519
32982SOL    HW1 1839   5.321   7.588   4.484  0.5878  0.4758 -0.8137
32982SOL    HW2 1840   5.372   7.536   4.617 -1.0560  0.2463 -0.2561
32983SOL     OW 1841   3.142  10.305   3.442  0.0824  0.5550 -0.1224
32983SOL    HW1 1842   3.092  10.365   3.497  0.1685  1.0360 -0.5663
32983SOL    HW2 1843   3.228  10.301   3.484 -0.4601 -0.7000  0.9564
32984SOL     OW 1844   9.719   1.607   2.859 -0.1514 -0.1859  0.0062
32984SOL    HW1 1845   9.806   1.568   2.853  1.0117  1.6083  2.8108
32984SOL    HW2 1846   9.658   1.533   2.855  1.6951 -1.8546  0.9688
32985SOL     OW 1847   4.666   2.020   8.622  0.1552  0.0894 -0.2642
32985SOL    HW1 1848   4.719   1.989   8.548 -0.4667 -1.8839  0.0521
32985SOL    HW2 1849   4.579   1.984   8.606  0.3286 -1.6655  2.1044
32986SOL     OW 1850   4.329   9.925   1.145 -0.2151  0.1749 -0.5383
32986SOL    HW1 1851   4.396   9.897   1.083 -0.7405 -1.4718 -0.4193
32986SOL    HW2 1852   4.246   9.905   1.102 -0.6030 -2.2805  1.1403
32987SOL     OW 1853   6.616   5.898   3.741  0.2148 -0.3966 -0.1189
32987SOL    HW1 1854   6.604   5.989   3.713 -2.4650 -0.3565  0.8290
32987SOL    HW2 1855   6.585   5.845   3.668 -1.4961 -0.4005  0.5450
32988SOL     OW 1856   6.938   6.475   5.565  0.0812  0.1182 -0.3039
32988SOL    HW1 1857   6.905   6.541   5.627  0.4958 -1.0667  1.2414
32988SOL    HW2 1858   6.948   6.396   5.618  0.9941 -0.7956 -1.7860
32989SOL     OW 1859   7.492   2.311   9.059  0.1684 -0.3088  0.1095
32989SOL    HW1 1860   7.512   2.356   8.977  1.1366 -0.2803  0.3487
32989SOL    HW2 1861   7.410   2.351   9.089  1.4879  2.0259  0.8189
32990SOL     OW 1862   9.322   5.807   4.023 -0.3862 -1.0207  0.0848
32990SOL    HW1 1863   9.326   5.901   4.011 -0.7924 -1.1402 -1.1469
32990SOL    HW2 1864   9.231   5.790   4.048 -2.0908 -1.5580 -5.2816
32991SOL     OW 1865   5.699   9.458   7.281 -0.4393 -0.7626 -0.1818
32991SOL    HW1 1866   5.633   9.525   7.261 -1.0982 -1.5746 -0.8506
32991SOL    HW2 1867   5.722   9.473   7.373 -0.8980  0.0941 -0.1954
32992SOL     OW 1868   9.068   1.597   0.361 -0.1754 -0.3500  0.1449
32992SOL    HW1 1869   9.036   1.584   0.271 -0.4729  2.6865 -0.2698
32992SOL    HW2 1870   9.018   1.533   0.413 -1.6804 -0.6016 -1.5108
32993SOL     OW 1871   7.420   2.367   6.078 -0.3370  0.4387  0.1336
32993SOL    HW1 1872   7.448   2.350   6.168  0.4980 -0.0070 -0.1969
32993SOL    HW2 1873   7.479   2.436   6.048 -0.9874  0.9937  0.1009
32994SOL     OW 1874   5.597  10.452  10.261  0.0466  1.1472  0.9156
32994SOL    HW1 1875   5.588  10.369  10.308  1.6677  0.6024  0.3411
32994SOL    HW2 1876   5.618  10.516  10.329 -0.5272  0.9582  1.2785
32995SOL     OW 1877   2.623   8.043   4.689  0.3964 -0.0113 -0.3605
32995SOL    HW1 1878   2.694   8.098   4.724  0.5056 -1.2849  1.5714
32995SOL    HW2 1879   2.661   8.000   4.613  0.3948  2.3025 -1.7627
32996SOL     OW 1880   1.292   9.923   8.054 -0.2241  0.0823  0.0766
32996SOL    HW1 1881   1.289   9.946   7.962 -1.9406 -2.0175 -0.4530
32996SOL    HW2 1882   1.204   9.941   8.087 -0.0872 -0.6848  0.9101
32997SOL     OW 1883   6.702   8.837   7.351 -0.1809 -0.0290 -0.0803
32997SOL    HW1 1884   6.668   8.838   7.441 -0.3637 -0.5504 -0.1365
32997SOL    HW2 1885   6.749   8.754   7.344  0.2330  0.2216 -0.3252
32998SOL     OW 1886   3.004   7.912   1.654 -0.1668 -0.8802  0.2803
32998SOL    HW1 1887   2.984   7.901   1.561  1.9833 -1.3323 -0.1791
32998SOL    HW2 1888   2.943   7.852   1.698 -1.9393  0.1094 -0.7010
32999SOL     OW 1889   5.770   3.093   6.987  0.5007  0.4188  0.0986
32999SOL    HW1 1890   5.853   3.125   6.951 -0.0154  2.0144  0.2598
32999SOL    HW2 1891   5.737   3.166   7.039 -0.2388 -0.7752  1.3404
33000SOL     OW 1892   3.319   2.223   7.714 -0.1840 -0.5303  0.4794
33000SOL    HW1 1893   3.278   2.267   7.640 -0.4121 -0.4943  0.6284
33000SOL    HW2 1894   3.408   2.258   7.716  0.2917 -1.5700 -0.6582
33001SOL     OW 1895   0.005   6.666   7.520  0.6905 -0.3122  0.1422
33001SOL    HW1 1896  -0.047   6.634   7.446 -0.6822  0.8480  0.5544
33001SOL    HW2 1897   0.041   6.587   7.560 -0.7600 -1.1796 -0.1768
33002SOL     OW 1898   8.019   2.538  10.634 -0.0401  0.1235 -0.2870
33002SOL    HW1 1899   8.023   2.444  10.615  0.2999  0.1020 -0.1202
33002SOL    HW2 1900   8.042   2.544  10.727 -0.9663  0.2871 -0.0615
33003SOL     OW 1901   0.609   8.782   9.635  0.1189  0.3888  0.6448
33003SOL    HW1 1902   0.533   8.773   9.578  0.9533  0.6678 -0.5382
33003SOL    HW2 1903   0.685   8.766   9.578  1.0082  1.4651  1.4753
33004SOL     OW 1904   9.871   7.011   4.903 -0.2484 -0.1813 -0.1320
33004SOL    HW1 1905   9.856   6.991   4.995 -0.0119  1.2174  0.2366
33004SOL    HW2 1906   9.873   7.107   4.899 -0.2094 -0.2131 -1.5844
33005SOL     OW 1907   3.027   4.623   8.268 -0.8364 -0.8490 -0.2471
33005SOL    HW1 1908   3.063   4.536   8.253 -1.4540 -1.0440 -0.6596
33005SOL    HW2 1909   2.937   4.607   8.296 -0.6497 -0.3749  0.6641
33006SOL     OW 1910   9.917   4.876   4.675  0.2943  0.6488 -0.4273
33006SOL    HW1 1911   9.909   4.783   4.695  1.6505  0.8269  1.2293
33006SOL    HW2 1912   9.834   4.900   4.635 -1.8818 -0.3436  3.0654
33007SOL     OW 1913   7.270   4.598   5.418  0.5372  0.1895  0.0381
33007SOL    HW1 1914   7.249   4.661   5.487 -0.9804  0.6730 -0.8157
33007SOL    HW2 1915   7.226   4.518   5.445 -3.0610  1.2700 -1.8751
33008SOL     OW 1916   6.488   9.686   3.646 -0.2722 -0.1004 -0.3091
33008SOL    HW1 1917   6.409   9.739   3.642 -0.1968 -0.0699 -2.4650
33008SOL    HW2 1918   6.557   9.747   3.673 -0.7341  0.1451  0.3474
33009SOL     OW 1919   2.929   4.504   3.043 -0.3206  0.0233 -0.0720
33009SOL    HW1 1920   2.962   4.416   3.060 -0.2451  0.0926  0.1527
33009SOL    HW2 1921   2.947   4.552   3.124  1.2787  0.7470 -0.8078
33010SOL     OW 1922  10.070   2.267   6.785 -0.2712  0.6182  0.5293
33010SOL    HW1 1923  10.156   2.259   6.828  0.5608  1.6057 -0.8435
33010SOL    HW2 1924  10.084   2.232   6.697 -1.2650  0.8614  0.2621
33011SOL     OW 1925   8.407   3.297   2.642  0.2397 -0.0861  0.1798
33011SOL    HW1 1926   8.341   3.366   2.640  0.0462 -0.2929 -0.8733
33011SOL    HW2 1927   8.404   3.264   2.732 -0.8373  0.1455  0.2418
33012SOL     OW 1928   6.486   7.205   0.982 -0.1494 -0.2334  0.3822
33012SOL    HW1 1929   6.537   7.174   1.057 -0.2824  1.2259  1.1141
33012SOL    HW2 1930   6.549   7.207   0.910  0.1780 -0.9037  0.6417
33013SOL     OW 1931   7.292   3.979   2.497 -0.5163 -0.1658 -0.7549
33013SOL    HW1 1932   7.326   4.057   2.541 -3.3347  0.7294  0.0646
33013SOL    HW2 1933   7.265   4.009   2.410  0.7600 -0.8617 -1.4124
33014SOL     OW 1934   8.988   0.278   0.080 -0.2497 -0.5068 -0.1093
33014SOL    HW1 1935   9.053   0.315   0.140  0.4627 -2.1343  0.1927
33014SOL    HW2 1936   9.037   0.261  -0.001 -0.7132 -0.1908 -0.4554
33015SOL     OW 1937   6.830   3.204   1.811  0.2104 -0.2940  0.5698
33015SOL    HW1 1938   6.816   3.160   1.895 -0.0636  0.4292  0.9111
33015SOL    HW2 1939   6.826   3.297   1.832 -0.9000 -0.1034 -0.4205
33016SOL     OW 1940   8.602  10.633   5.078 -0.0787 -0.5067 -0.0081
33016SOL    HW1 1941   8.536  10.700   5.061  0.9406  0.7708  0.9171
33016SOL    HW2 1942   8.579  10.598   5.164  0.0514 -0.5421  0.0129
33017SOL     OW 1943   3.603   6.990   9.828  0.2111 -0.3565 -0.0815
33017SOL    HW1 1944   3.618   6.951   9.915  1.4821  1.5729  0.6382
33017SOL    HW2 1945   3.651   7.073   9.831 -0.7103  0.3108 -2.2349
33018SOL     OW 1946   1.251   0.824   5.927  0.2243 -0.0486  0.5741
33018SOL    HW1 1947   1.298   0.845   6.007  0.2233  2.4271  0.0085
33018SOL    HW2 1948   1.159   0.837   5.949  0.2901  1.8576 -0.0782
33019SOL     OW 1949   8.241  10.115   1.937 -0.0718  0.2905 -0.1741
33019SOL    HW1 1950   8.216  10.025   1.920  0.8790 -0.0026 -0.0273
33019SOL    HW2 1951   8.333  10.120   1.914 -0.7828  2.0398 -3.3261
33020SOL     OW 1952   2.796   6.828   2.017  0.2564 -0.7987 -0.6589
33020SOL    HW1 1953   2.772   6.918   1.995 -0.7341 -0.9040 -0.0951
33020SOL    HW2 1954   2.805   6.784   1.932 -0.5157 -0.4738 -0.9155
33021SOL     OW 1955  10.608   7.253   5.125 -0.8747 -0.8090  0.4154
33021SOL    HW1 1956  10.647   7.226   5.041 -1.4662  0.5289 -0.3123
33021SOL    HW2 1957  10.517   7.273   5.104 -0.8930  0.0737  1.2641
33022SOL     OW 1958   0.701   2.552   2.718  0.6466 -0.1538  0.4350
33022SOL    HW1 1959   0.743   2.565   2.632  0.2293  2.2618  0.5123
33022SOL    HW2 1960   0.619   2.601   2.711  1.1608  1.1324  2.5800
33023SOL     OW 1961   2.955   2.089   0.674  0.2126  0.0567  0.6241
33023SOL    HW1 1962   2.902   2.142   0.615 -0.1505  1.2320  1.9713
33023SOL    HW2 1963   2.938   1.998   0.646  0.4952  0.5728 -1.4201
33024SOL     OW 1964   6.408   9.461   8.386  0.6370  0.2916 -0.1677
33024SOL    HW1 1965   6.463   9.440   8.461  1.0626  0.9804 -0.2751
33024SOL    HW2 1966   6.462   9.440   8.310  0.8876  1.2779 -0.2751
33025SOL     OW 1967   4.713   1.939   2.952 -0.4829  0.8163 -0.1157
33025SOL    HW1 1968   4.787   1.978   2.905  0.9548 -1.8606 -0.2548
33025SOL    HW2 1969   4.637   1.959   2.897  0.3907  2.0324 -0.9482
33026SOL     OW 1970   7.414   3.347   1.373 -0.4226 -0.3482 -0.0922
33026SOL    HW1 1971   7.402   3.414   1.440 -1.5182 -1.4406  0.8423
33026SOL    HW2 1972   7.337   3.355   1.317 -0.4263 -0.6411 -0.1328
33027SOL     OW 1973   5.320   3.255   3.464 -0.3051  0.0731  0.8731
33027SOL    HW1 1974   5.266   3.306   3.523 -0.6516  0.8778 -0.1183
33027SOL    HW2 1975   5.272   3.173   3.451 -0.4639  0.0975  1.3027
33028SOL     OW 1976   0.197   9.806   7.567  0.1878 -0.3526 -0.2755
33028SOL    HW1 1977   0.247   9.873   7.613  0.2012  1.2147 -2.4346
33028SOL    HW2 1978   0.250   9.727   7.575  1.7920  0.6759 -0.4035
33029SOL     OW 1979   1.433   4.661   3.637 -0.1324 -0.3704  0.3183
33029SOL    HW1 1980   1.481   4.696   3.712  1.4646  1.6278 -1.4850
33029SOL    HW2 1981   1.341   4.663   3.664  0.4593 -0.6281  2.5232
33030SOL     OW 1982  10.742   1.702   5.297 -0.6132 -0.3982  0.0413
33030SOL    HW1 1983  10.792   1.676   5.220 -0.0571 -0.9819  0.5771
33030SOL    HW2 1984  10.651   1.680   5.276 -0.5496 -0.0130 -0.6628
33031SOL     OW 1985   1.281   4.215   6.545  0.3485  0.5401  0.7237
33031SOL    HW1 1986   1.313   4.304   6.529  0.4970  0.6678  1.6891
33031SOL    HW2 1987   1.203   4.228   6.599 -0.9012  0.1905 -0.9344
33032SOL     OW 1988   5.589   0.035   6.368 -0.2038  0.3104 -0.5796
33032SOL    HW1 1989   5.544  -0.050   6.376  1.3861 -0.5913 -0.8957
33032SOL    HW2 1990   5.618   0.039   6.277  1.9231  0.0219  0.0405
33033SOL     OW 1991   8.148   5.370   2.828  0.6079  0.1734 -0.5555
33033SOL    HW1 1992   8.116   5.325   2.907  0.9184  0.7552 -0.0865
33033SOL    HW2 1993   8.077   5.428   2.803  0.7713  0.4932 -0.2919
33034SOL     OW 1994   8.725   3.199   5.483  0.0824  0.7525  0.4331
33034SOL    HW1 1995   8.680   3.121   5.515  0.9786  0.0512  0.0175
33034SOL    HW2 1996   8.663   3.240   5.423 -0.1597  0.0272  0.1851
33035SOL     OW 1997   0.111   9.407   2.809  0.1076  0.2912 -0.0007
33035SOL    HW1 1998   0.126   9.313   2.799  0.5842  0.4447 -0.7940
33035SOL    HW2 1999   0.137   9.426   2.899  0.5577 -0.2393 -0.0132
33036SOL     OW 2000   3.954   9.892   0.278 -0.3548 -0.7948 -0.7962
33036SOL    HW1 2001   3.929   9.852   0.362 -0.9116 -1.2798 -1.1912
33036SOL    HW2 2002   4.004   9.825   0.233  0.4469 -0.3329 -0.6234
33037SOL     OW 2003   4.119   6.216   8.455 -0.1487 -0.1398  0.2813
33037SOL    HW1 2004   4.137   6.284   8.520 -2.3482 -0.0049  0.8301
33037SOL    HW2 2005   4.062   6.154   8.500  1.8145 -2.4506 -0.2038
33038SOL     OW 2006  10.429   0.591   6.595 -0.0715 -0.6054  0.7764
33038SOL    HW1 2007  10.498   0.624   6.652 -1.2227  1.7052  0.9298
33038SOL    HW2 2008  10.360   0.658   6.598 -0.9881 -1.2859 -1.8095
33039SOL     OW 2009   7.788   2.203   0.496 -0.2470  0.4516  0.2777
33039SOL    HW1 2010   7.722   2.263   0.461 -1.1255 -0.4431  0.3531
33039SOL    HW2 2011   7.865   2.258   0.512 -0.3556  1.1753 -1.5101
33040SOL     OW 2012   4.291   5.893   3.794  0.4280 -0.0031  0.2065
33040SOL    HW1 2013   4.264   5.813   3.838  1.8397 -0.9031 -0.4811
33040SOL    HW2 2014   4.234   5.961   3.830  0.2844 -1.0126  2.0061
33041SOL     OW 2015   9.854   6.729   0.298  0.2795  0.0383 -0.4687
33041SOL    HW1 2016   9.903   6.811   0.292 -0.9214  0.7663 -0.6652
33041SOL    HW2 2017   9.810   6.720   0.213 -0.8614  0.0293  0.0991
33042SOL     OW 2018   1.791   8.040   8.592 -0.4226  0.1520 -0.3157
33042SOL    HW1 2019   1.733   8.111   8.619 -1.5721 -1.1141  0.6850
33042SOL    HW2 2020   1.735   7.963   8.587  0.6580 -0.5742 -2.0726
33043SOL     OW 2021   8.242   4.870   6.219 -0.0432 -0.0090 -0.3400
33043SOL    HW1 2022   8.314   4.862   6.281  1.4296 -1.0984 -2.0906
33043SOL    HW2 2023   8.283   4.861   6.133 -2.1507  0.3029 -1.4435
33044SOL     OW 2024   5.648   8.481   0.367 -0.6437 -0.3370  0.2323
33044SOL    HW1 2025   5.638   8.417   0.438  0.7931 -1.5088 -0.5463
33044SOL    HW2 2026   5.581   8.457   0.303  2.0883 -3.6583 -1.7932
33045SOL     OW 2027   0.667  10.069   4.962  0.2336  0.0797 -0.1214
33045SOL    HW1 2028   0.675  10.129   4.888  2.4612  0.4523  0.3323
33045SOL    HW2 2029   0.739  10.095   5.020  1.1646 -2.8755  0.1849
33046SOL     OW 2030   4.056   0.521   7.606  0.4120  0.2386  0.0962
33046SOL    HW1 2031   4.050   0.441   7.658 -1.3399 -0.2425 -0.7880
33046SOL    HW2 2032   4.009   0.501   7.526  1.2207  1.6836 -0.7769
33047SOL     OW 2033   3.734   1.320   5.474 -0.6470 -0.6439  0.0654
33047SOL    HW1 2034   3.726   1.227   5.496 -2.0226 -1.5083 -3.4354
33047SOL    HW2 2035   3.816   1.326   5.425  0.5060  0.4976  1.9939
33048SOL     OW 2036   9.531   2.987   9.714 -0.2500 -0.5636  0.5646
33048SOL    HW1 2037   9.553   3.061   9.770 -2.4599 -0.1296  0.9385
33048SOL    HW2 2038   9.608   2.976   9.658  0.9793  0.6281  1.9298
33049SOL     OW 2039  10.228   9.127   3.597 -0.0679 -0.2579 -0.2375
33049SOL    HW1 2040  10.305   9.171   3.561 -0.3788 -1.0268 -1.9770
33049SOL    HW2 2041  10.262   9.070   3.666  0.8087  0.0480 -0.4145
33050SOL     OW 2042  10.782   4.751   3.641 -0.0227 -0.4860  0.2082
33050SOL    HW1 2043  10.722   4.827   3.643  1.8111  1.0893 -1.0489
33050SOL    HW2 2044  10.762   4.707   3.559 -2.1513 -2.3963  1.6243
33051SOL     OW 2045   0.248   9.884   0.070  0.0865  0.0823  0.4710
33051SOL    HW1 2046   0.274   9.909  -0.019  2.2961  1.3133  1.3966
33051SOL    HW2 2047   0.190   9.808   0.057  1.0376 -0.3258 -1.9723
33052SOL     OW 2048   4.901   3.102   3.382 -0.2703 -0.3536 -0.4495
33052SOL    HW1 2049   4.840   3.034   3.410  0.4536 -0.5912  0.5800
33052SOL    HW2 2050   4.977   3.055   3.350 -0.2452 -0.0399 -0.8641
33053SOL     OW 2051   2.007   3.885   5.458 -0.5729 -0.2407  0.0252
33053SOL    HW1 2052   1.947   3.813   5.480 -0.4868 -0.7021 -1.1754
33053SOL    HW2 2053   1.953   3.948   5.410 -0.0407 -0.8511 -1.4295
33054SOL     OW 2054   3.868   7.549   6.975 -0.2323  0.4350  0.2491
33054SOL    HW1 2055   3.867   7.593   6.891  1.7155 -2.4202 -1.4346
33054SOL    HW2 2056   3.810   7.474   6.964 -0.5536  0.4137  1.7596
33055SOL     OW 2057  10.385   1.393   0.135 -0.0998 -0.3056 -0.2151
33055SOL    HW1 2058  10.304   1.371   0.180 -0.3380 -0.6646 -0.7989
33055SOL    HW2 2059  10.453   1.389   0.202 -0.7518  1.4279  0.5975
33056SOL     OW 2060   8.860   9.861   8.802 -0.5335 -0.1864 -0.1711
33056SOL    HW1 2061   8.887   9.948   8.772  1.2220 -0.2552  1.0696
33056SOL    HW2 2062   8.764   9.861   8.794 -0.4654  1.3110 -1.5661
33057SOL     OW 2063   9.842   2.541   6.817  0.2143  0.1916 -0.5670
33057SOL    HW1 2064   9.755   2.582   6.812  1.1689  2.2514 -1.0168
33057SOL    HW2 2065   9.847   2.486   6.739 -1.0446 -0.7863 -0.0102
33058SOL     OW 2066   9.259   9.128   1.289 -0.4491 -0.3491 -0.0798
33058SOL    HW1 2067   9.268   9.224   1.288 -0.9696 -0.2949 -1.5411
33058SOL    HW2 2068   9.208   9.110   1.368 -0.4902  0.6003  0.1253
33059SOL     OW 2069   2.813  10.162   3.822  0.6652  0.0531 -0.4439
33059SOL    HW1 2070   2.763  10.142   3.901 -2.1891 -0.5553 -2.2470
33059SOL    HW2 2071   2.817  10.080   3.774  0.6136  0.8238 -1.8310
33060SOL     OW 2072   1.661  10.660  10.266  0.3665  0.3469  0.2402
33060SOL    HW1 2073   1.659  10.719  10.341  0.9499 -0.3341  0.8152
33060SOL    HW2 2074   1.655  10.572  10.305 -1.8527  0.0365 -0.6613
33061SOL     OW 2075   6.570   1.222   3.094  0.0885  0.1036 -0.2834
33061SOL    HW1 2076   6.483   1.193   3.066 -0.4699 -1.1269  2.3901
33061SOL    HW2 2077   6.561   1.317   3.102 -0.5376  0.1596 -1.4604
33062SOL     OW 2078   1.574   5.875   5.418 -0.2881  0.0956  0.4836
33062SOL    HW1 2079   1.489   5.846   5.452 -0.4372  0.0537  0.0930
33062SOL    HW2 2080   1.630   5.884   5.495 -0.5221 -0.3046  0.7058
33063SOL     OW 2081   8.285   7.116   9.781 -0.5845 -0.0350 -0.2658
33063SOL    HW1 2082   8.305   7.064   9.859  0.4224  1.9794  0.8962
33063SOL    HW2 2083   8.202   7.081   9.749 -0.2758 -1.8829  0.8380
33064SOL     OW 2084   4.350   0.487   3.277 -0.1398  0.2856 -0.2113
33064SOL    HW1 2085   4.298   0.410   3.302  1.2054  0.0978  2.2828
33064SOL    HW2 2086   4.390   0.462   3.194  0.6450 -1.9571  0.7623
33065SOL     OW 2087   9.357   3.141   0.506 -0.5617 -0.0206 -0.1167
33065SOL    HW1 2088   9.302   3.113   0.580 -1.1284 -0.3101 -0.6425
33065SOL    HW2 2089   9.446   3.127   0.537 -0.8028 -0.6895  0.3082
33066SOL     OW 2090   1.350   0.496   9.023 -0.2474 -0.4167  0.3343
33066SOL    HW1 2091   1.410   0.422   9.011 -0.8174 -0.4634 -3.5769
33066SOL    HW2 2092   1.406   0.574   9.015 -0.3210 -0.4748 -1.0256
33067SOL     OW 2093   7.744   7.752   3.298  0.5073  0.4049 -0.5839
33067SOL    HW1 2094   7.767   7.692   3.227 -2.3407  0.7344 -1.9456
33067SOL    HW2 2095   7.771   7.707   3.378 -0.1491 -2.0319 -1.6529
33068SOL     OW 2096   0.991   7.482   6.867 -0.0230 -0.4262 -0.3492
33068SOL    HW1 2097   0.927   7.530   6.919  0.0698 -1.3948  0.7032
33068SOL    HW2 2098   0.982   7.391   6.896  0.9738 -0.7732 -1.0714
33069SOL     OW 2099   8.616   3.604   8.358 -0.8266  0.4203  0.3431
33069SOL    HW1 2100   8.605   3.561   8.273  1.6670  3.0437 -1.4801
33069SOL    HW2 2101   8.686   3.554   8.401 -0.8253  0.1738  0.0597
33070SOL     OW 2102   2.213   8.174   8.555  0.2274 -0.0576 -0.4697
33070SOL    HW1 2103   2.231   8.233   8.628 -0.6760  0.8692 -0.9696
33070SOL    HW2 2104   2.134   8.209   8.514 -1.4248 -2.5910  0.2469
33071SOL     OW 2105  10.791   7.177   3.867  0.1857 -0.8354 -0.0913
33071SOL    HW1 2106  10.857   7.203   3.931 -0.8820 -0.1761  0.7717
33071SOL    HW2 2107  10.834   7.187   3.782  1.0270  0.0710  0.4321
33072SOL     OW 2108   2.009   8.816   8.558 -0.9738  0.1169  0.0739
33072SOL    HW1 2109   2.097   8.797   8.591 -0.2495 -0.4720 -1.9970
33072SOL    HW2 2110   1.982   8.895   8.605  0.5700  0.1905  0.9119
33073SOL     OW 2111   6.453   8.862   1.149 -0.0776  0.3345 -0.6707
33073SOL    HW1 2112   6.484   8.938   1.198  1.0135  0.2965 -1.2854
33073SOL    HW2 2113   6.490   8.787   1.196 -0.4498  0.2135 -0.5632
33074SOL     OW 2114   6.028   2.233   3.638 -0.1617  0.2805 -0.0024
33074SOL    HW1 2115   6.102   2.278   3.596  0.0561 -1.1745 -1.2909
33074SOL    HW2 2116   6.027   2.147   3.597 -1.2115 -0.5203  1.6180
33075SOL     OW 2117   2.029   6.059   1.846  0.0043 -0.3563 -0.3485
33075SOL    HW1 2118   2.054   6.135   1.793 -0.7096 -1.1965 -1.9512
33075SOL    HW2 2119   1.989   6.097   1.924  2.0350  0.9370  0.1515
33076SOL     OW 2120   8.083   7.211   9.405 -0.2680  0.3135  0.5758
33076SOL    HW1 2121   8.073   7.120   9.432  1.7575 -0.1524 -0.0659
33076SOL    HW2 2122   8.084   7.208   9.310 -0.1647  1.0136  0.5492
33077SOL     OW 2123   0.908   7.198   3.507 -0.4780 -0.3581  0.0865
33077SOL    HW1 2124   0.872   7.227   3.423 -3.4987  0.2158  1.4515
33077SOL    HW2 2125   0.964   7.270   3.535 -0.9935  0.3209 -0.5668
33078SOL     OW 2126   3.546   5.153   1.115 -0.4723  0.3327  0.1690
33078SOL    HW1 2127   3.639   5.129   1.120 -0.1651  1.2918 -0.7211
33078SOL    HW2 2128   3.503   5.095   1.179  0.6301 -0.5949  0.0981
33079SOL     OW 2129   1.414   7.540   8.686  0.1094  0.4433 -0.3978
33079SOL    HW1 2130   1.499   7.526   8.645  0.2353  0.3250 -0.0925
33079SOL    HW2 2131   1.427   7.615   8.743  0.4036 -0.4620  0.7681
33080SOL     OW 2132   8.268   8.939   7.970 -0.2273  0.1409 -0.0756
33080SOL    HW1 2133   8.343   8.996   7.989  0.0849 -0.2821 -0.0111
33080SOL    HW2 2134   8.201   8.967   8.031  0.8955 -1.4616  2.0210
33081SOL     OW 2135   2.293   1.600   6.743 -0.6453 -0.1752 -0.0866
33081SOL    HW1 2136   2.208   1.643   6.732 -0.4604  0.4952  0.9448
33081SOL    HW2 2137   2.355   1.673   6.752 -0.1236 -0.6568  0.2842
33082SOL     OW 2138   1.470   7.520   4.527 -0.0364  0.3080  0.4653
33082SOL    HW1 2139   1.531   7.559   4.464 -0.9887  1.7663  0.4053
33082SOL    HW2 2140   1.395   7.579   4.529 -1.5385 -1.4970  0.4591
33083SOL     OW 2141   7.362   9.114   6.473 -0.3015  0.7995  0.1872
33083SOL    HW1 2142   7.342   9.083   6.561 -0.3534  1.4216  0.4029
33083SOL    HW2 2143   7.306   9.063   6.415  0.3825 -0.2422  0.4259
33084SOL     OW 2144   4.973   2.656   8.142  0.4823 -0.3275 -0.3998
33084SOL    HW1 2145   4.964   2.682   8.051  0.9616 -1.2397 -0.7261
33084SOL    HW2 2146   4.911   2.584   8.153  0.3246 -0.1329  0.0390
33085SOL     OW 2147   8.124   2.885   2.009  0.3937 -0.0937 -0.0985
33085SOL    HW1 2148   8.162   2.894   2.097 -0.5244 -2.3552  0.6012
33085SOL    HW2 2149   8.036   2.849   2.024  0.7884 -2.0656 -1.9595
33086SOL     OW 2150   8.782   4.175   7.888  0.7303 -0.0763 -0.6191
33086SOL    HW1 2151   8.690   4.197   7.903  1.0847  0.5694  0.7391
33086SOL    HW2 2152   8.820   4.256   7.854  1.0729  0.0645  0.0889
33087SOL     OW 2153   4.491   7.190  10.337 -0.0236  0.2463 -0.5220
33087SOL    HW1 2154   4.561   7.217  10.279  0.4403  0.2354  0.0176
33087SOL    HW2 2155   4.535   7.135  10.403 -0.5862 -0.0020 -0.3482
33088SOL     OW 2156   7.874   9.953   2.511  0.3404  0.4433 -0.2171
33088SOL    HW1 2157   7.819   9.884   2.547  1.1609 -0.1972 -0.1567
33088SOL    HW2 2158   7.883  10.016   2.581  2.2220 -0.9639  0.8907
33089SOL     OW 2159   7.217   6.697   8.498 -0.3804  0.0424 -0.1583
33089SOL    HW1 2160   7.162   6.769   8.468 -0.8219  0.4884  1.5752
33089SOL    HW2 2161   7.156   6.627   8.520 -0.2196  0.2191  0.9316
33090SOL     OW 2162   2.113  10.768   0.633  0.0096  0.1957 -1.0287
33090SOL    HW1 2163   2.128  10.844   0.577  1.1216  1.6591  1.1063
33090SOL    HW2 2164   2.184  10.707   0.611  1.8071  1.7182  0.2595
33091SOL     OW 2165   4.291   7.946  10.337  0.3909 -0.4542  0.1433
33091SOL    HW1 2166   4.291   7.911  10.426  0.2657 -1.5578 -0.2798
33091SOL    HW2 2167   4.270   7.871  10.281 -0.1934  0.3594 -0.7672
33092SOL     OW 2168   1.177   5.357   2.807  0.4326 -0.0482  0.3805
33092SOL    HW1 2169   1.196   5.304   2.885 -0.1118 -0.7469  0.0482
33092SOL    HW2 2170   1.189   5.297   2.734  1.2165  0.6833 -0.1048
33093SOL     OW 2171   7.172   0.646   6.254 -0.0131  0.0875 -0.0929
33093SOL    HW1 2172   7.260   0.676   6.232  0.2986 -2.0064 -2.0802
33093SOL    HW2 2173   7.114   0.714   6.220  0.7581  1.8668  1.8909
33094SOL     OW 2174   1.690   1.384   8.700  0.9690  0.0587  0.1480
33094SOL    HW1 2175   1.679   1.291   8.722 -0.0012 -0.0785 -0.8803
33094SOL    HW2 2176   1.663   1.430   8.780  1.4401 -0.5177  0.6611
33095SOL     OW 2177   8.288   0.749   8.669  0.5723  0.1894 -0.4748
33095SOL    HW1 2178   8.362   0.799   8.635  0.4942  0.1028 -0.7773
33095SOL    HW2 2179   8.217   0.813   8.679  1.3947  0.7884  2.1677
33096SOL     OW 2180   0.221  10.416   1.781 -0.7956  0.1248 -0.0557
33096SOL    HW1 2181   0.148  10.355   1.786  0.5522 -1.4940  1.2641
33096SOL    HW2 2182   0.225  10.457   1.867 -1.2463  1.6167 -0.7045
33097SOL     OW 2183   0.427   3.213   8.550  0.7146  0.3434 -0.0130
33097SOL    HW1 2184   0.500   3.164   8.589  0.9051  0.4307 -0.2553
33097SOL    HW2 2185   0.375   3.146   8.505  0.9850  0.3635 -0.3584
33098SOL     OW 2186   8.083   3.671   1.920 -0.0125  0.9743 -0.0251
33098SOL    HW1 2187   8.066   3.578   1.907 -1.3362  1.1762  0.1238
33098SOL    HW2 2188   8.004   3.704   1.963  0.5348  2.1238  0.1364
33099SOL     OW 2189  10.439   7.392   7.529 -0.2829  0.2850 -0.2372
33099SOL    HW1 2190  10.370   7.392   7.462 -0.7391  1.0576  0.2107
33099SOL    HW2 2191  10.436   7.304   7.567 -0.3582  0.0029 -0.8845
33100SOL     OW 2192   8.003   0.830   3.345  0.1519 -0.1321 -0.1261
33100SOL    HW1 2193   7.942   0.840   3.418  1.5031 -0.2844  1.0706
33100SOL    HW2 2194   7.961   0.875   3.272 -1.0809  0.3456  0.8456
33101SOL     OW 2195   8.870   0.734   4.320  0.4790  0.2223 -0.3021
33101SOL    HW1 2196   8.934   0.681   4.368 -1.7665 -2.3778  0.0014
33101SOL    HW2 2197   8.917   0.762   4.241  1.2064 -4.3528 -1.7736
33102SOL     OW 2198   7.521   7.129   7.408 -0.5595 -0.1053  0.0088
33102SOL    HW1 2199   7.434   7.142   7.443 -1.1072  0.8183 -1.5669
33102SOL    HW2 2200   7.545   7.214   7.371  1.4703 -0.0328  1.3448
33103SOL     OW 2201   0.148   8.479   1.773 -1.0834 -0.2152  0.4312
33103SOL    HW1 2202   0.131   8.517   1.859 -1.0851 -0.4041  0.5151
33103SOL    HW2 2203   0.237   8.445   1.779 -0.7470  0.5725  0.0646
33104SOL     OW 2204  10.579   2.817   3.483  0.3003 -0.1698 -0.3225
33104SOL    HW1 2205  10.554   2.902   3.518 -1.5749 -0.5642 -0.5966
33104SOL    HW2 2206  10.632   2.777   3.553  0.0922  0.6932  0.3477
33105SOL     OW 2207   7.360   8.124   1.943 -0.4910  0.2488  0.1530
33105SOL    HW1 2208   7.267   8.142   1.928 -0.5876  2.6533  2.8386
33105SOL    HW2 2209   7.406   8.192   1.893 -0.2296 -0.0325  0.0078
33106SOL     OW 2210   2.281   6.761  10.049  0.4291 -0.1366 -0.0160
33106SOL    HW1 2211   2.249   6.807  10.126 -0.0883 -0.8799  0.2320
33106SOL    HW2 2212   2.211   6.698  10.028  0.9331 -0.5206 -0.5801
33107SOL     OW 2213   7.342   3.036   2.415  0.0837 -0.3284 -0.3453
33107SOL    HW1 2214   7.371   3.093   2.486 -2.6919 -0.1331  0.7617
33107SOL    HW2 2215   7.371   3.080   2.335  1.4687  0.5119  0.5853
33108SOL     OW 2216   0.303   7.599   6.092 -0.6932  0.3101  0.2540
33108SOL    HW1 2217   0.346   7.605   6.006 -1.7986  1.2002 -0.2640
33108SOL    HW2 2218   0.335   7.676   6.139 -1.0268  0.4877  0.1907
33109SOL     OW 2219   0.605   3.842   2.372 -0.1348  0.0286  0.6452
33109SOL    HW1 2220   0.546   3.784   2.325 -0.4786 -0.0569  1.1806
33109SOL    HW2 2221   0.556   3.871   2.448  0.4458  0.1115  0.9956
33110SOL     OW 2222   3.959   6.043   8.590  0.4460  0.6394 -0.4119
33110SOL    HW1 2223   3.982   6.004   8.674  1.2049  2.9262  0.4888
33110SOL    HW2 2224   3.863   6.040   8.588  0.4442 -0.0577  0.1952
33111SOL     OW 2225   6.434   8.711  10.107  0.1861  0.3633  0.4853
33111SOL    HW1 2226   6.421   8.750  10.021 -0.1632 -0.8875 -0.0606
33111SOL    HW2 2227   6.446   8.785  10.166 -4.1659  1.5500  0.1696
33112SOL     OW 2228   2.552   3.462   2.566  0.1967 -1.1212 -0.3957
33112SOL    HW1 2229   2.635   3.480   2.611  0.3177 -0.7421 -0.7685
33112SOL    HW2 2230   2.576   3.416   2.487  0.3580  1.5268 -2.0224
33113SOL     OW 2231   9.170   0.922   5.124  0.2496  0.3442 -0.1853
33113SOL    HW1 2232   9.076   0.924   5.143  0.0654 -0.0727 -1.0120
33113SOL    HW2 2233   9.198   0.835   5.154  0.4578  0.6086  0.4090
33114SOL     OW 2234   3.776   8.108   3.906  0.3853 -0.3634  0.4686
33114SOL    HW1 2235   3.785   8.093   3.812  1.9188 -0.7185  0.6474
33114SOL    HW2 2236   3.793   8.201   3.918  1.1760 -0.5051  0.4912
33115SOL     OW 2237   7.002   5.503   4.624 -0.2146  0.6192  0.5111
33115SOL    HW1 2238   6.915   5.538   4.602  0.4468  1.6123 -0.6230
33115SOL    HW2 2239   7.054   5.516   4.545  0.0911 -3.1475 -0.1178
33116SOL     OW 2240  10.280   7.394   7.306  0.2087  0.0192 -0.2591
33116SOL    HW1 2241  10.212   7.353   7.252  1.9759 -3.2822 -0.2120
33116SOL    HW2 2242  10.353   7.409   7.246  1.0812 -0.7929  0.5760
33117SOL     OW 2243  10.500   3.675   4.163 -0.2649 -0.0541 -0.0331
33117SOL    HW1 2244  10.560   3.601   4.147  0.5405  0.2687  1.3438
33117SOL    HW2 2245  10.439   3.672   4.089  1.8396  0.0096 -1.8975
33118SOL     OW 2246   0.419   3.465   9.614 -0.7673  0.4322  0.0044
33118SOL    HW1 2247   0.422   3.429   9.703  1.1576 -0.4058 -0.3589
33118SOL    HW2 2248   0.420   3.388   9.557  1.9014  0.9400 -0.7716
33119SOL     OW 2249   0.111   3.405   2.993 -0.4207  0.0615 -0.3166
33119SOL    HW1 2250   0.199   3.437   3.014 -0.4484 -0.2512  0.3006
33119SOL    HW2 2251   0.053   3.479   3.012 -0.4014 -0.0869  0.3551
33120SOL     OW 2252   8.358   5.994   2.611  0.2139  0.1975  0.5259
33120SOL    HW1 2253   8.344   6.081   2.575  1.4290  0.4376  0.5994
33120SOL    HW2 2254   8.332   5.935   2.541 -1.0178  0.5939  0.6254
33121SOL     OW 2255   1.206  10.366   0.582  0.3108 -0.9676  0.2402
33121SOL    HW1 2256   1.181  10.334   0.495  0.9298  0.1768 -0.3709
33121SOL    HW2 2257   1.284  10.315   0.605  0.6557 -0.6714 -0.2575
33122SOL     OW 2258   5.263   5.610   6.335  0.1342  0.1354 -0.0489
33122SOL    HW1 2259   5.258   5.705   6.348  1.9857  0.3308 -0.4635
33122SOL    HW2 2260   5.277   5.600   6.240 -0.4078 -0.5687 -0.0596
33123SOL     OW 2261   7.123   2.529   3.668  0.4853 -0.3363 -0.6870
33123SOL    HW1 2262   7.093   2.440   3.687 -2.6050  0.6406 -0.4239
33123SOL    HW2 2263   7.191   2.546   3.733  0.7230 -2.2777 -0.3813
33124SOL     OW 2264   7.830   7.512   6.722  0.7372  0.2799  0.1229
33124SOL    HW1 2265   7.905   7.549   6.768  0.5317 -0.7049  1.3223
33124SOL    HW2 2266   7.857   7.422   6.702 -0.2272 -0.1987  0.8829
33125SOL     OW 2267   6.011   4.858   4.470 -0.0888 -0.2175  0.1074
33125SOL    HW1 2268   5.977   4.772   4.498  1.0388  0.4463  4.2096
33125SOL    HW2 2269   5.957   4.921   4.518  0.9168  1.2463 -0.6182
33126SOL     OW 2270   9.178   2.108   5.028 -0.6868 -0.2427  0.2829
33126SOL    HW1 2271   9.176   2.180   5.090  0.5863 -0.8281  1.0235
33126SOL    HW2 2272   9.271   2.089   5.014 -0.9843 -1.5840 -0.0827
33127SOL     OW 2273   2.242   5.985   9.996 -0.1769 -0.0797  0.5760
33127SOL    HW1 2274   2.302   6.042  10.044 -0.5821  0.1056  0.8732
33127SOL    HW2 2275   2.292   5.956   9.920  0.2767  0.0947  0.8033
33128SOL     OW 2276   3.374  10.612   4.157  0.4385  0.3710 -0.3438
33128SOL    HW1 2277   3.354  10.544   4.093  0.9632 -0.9276  0.8009
33128SOL    HW2 2278   3.469  10.625   4.148  0.9616 -1.4866  1.6340
33129SOL     OW 2279  10.765   3.840   2.379  0.0111  0.5797  0.1382
33129SOL    HW1 2280  10.821   3.849   2.303  0.8992 -0.7931  0.5943
33129SOL    HW2 2281  10.756   3.745   2.392 -1.3244  0.7733  0.8783
33130SOL     OW 2282   5.291   9.755   0.126  0.2160 -0.1488  0.4024
33130SOL    HW1 2283   5.333   9.709   0.199  1.7429 -1.0168 -0.9629
33130SOL    HW2 2284   5.213   9.703   0.107  1.1141 -1.3402 -0.1354
33131SOL     OW 2285   0.159   7.878   9.827 -0.1536 -0.4772  0.2200
33131SOL    HW1 2286   0.176   7.972   9.835 -0.1541 -0.2535 -1.8817
33131SOL    HW2 2287   0.237   7.836   9.863  1.2784  0.4136 -1.6903
33132SOL     OW 2288   7.556   8.746   2.131  0.0827  0.4177 -0.5533
33132SOL    HW1 2289   7.499   8.715   2.060 -1.0812  3.6348 -1.1898
33132SOL    HW2 2290   7.641   8.706   2.113 -0.6711 -0.4009 -2.6195
33133SOL     OW 2291   7.897   4.831   4.495  0.0555  0.7192  0.1278
33133SOL    HW1 2292   7.945   4.911   4.513 -1.0962  1.3237  0.6043
33133SOL    HW2 2293   7.827   4.829   4.561 -0.1392 -0.5010 -0.0853
33134SOL     OW 2294   6.537   3.788   1.156  0.1704  0.3084 -0.1221
33134SOL    HW1 2295   6.630   3.776   1.171  0.3181  0.6513 -0.7151
33134SOL    HW2 2296   6.526   3.781   1.061 -0.3290  0.7555 -0.1067
33135SOL     OW 2297   6.477   2.567   0.140 -0.4163  0.2232 -0.3129
33135SOL    HW1 2298   6.420   2.642   0.129 -0.3682  0.2167 -0.6076
33135SOL    HW2 2299   6.544   2.597   0.203  0.9530  1.2157 -2.1506
33136SOL     OW 2300   9.438   1.488   8.665 -0.2802  0.5229 -0.5957
33136SOL    HW1 2301   9.461   1.489   8.572 -3.0205  0.5000 -1.3619
33136SOL    HW2 2302   9.357   1.437   8.669 -1.0932  1.8504  1.5390
33137SOL     OW 2303   1.643   7.794   7.306  0.4290 -0.4637 -0.4911
33137SOL    HW1 2304   1.555   7.761   7.289  1.0535 -1.5382 -1.9321
33137SOL    HW2 2305   1.690   7.780   7.223  1.7406  0.8048 -0.0101
33138SOL     OW 2306   7.582   1.254   2.710  0.0372 -0.3404  0.3312
33138SOL    HW1 2307   7.504   1.307   2.725 -0.4177 -1.0784  0.5952
33138SOL    HW2 2308   7.591   1.251   2.615  0.1306  0.2982  0.3156
33139SOL     OW 2309   6.346   2.092  10.466 -0.6574 -0.2103  0.5765
33139SOL    HW1 2310   6.353   2.186  10.445  0.4821 -0.2936  0.5045
33139SOL    HW2 2311   6.286   2.089  10.541 -0.1892  0.6483  1.0070
33140SOL     OW 2312   7.900   6.947   1.227 -0.0822  0.1538  0.2065
33140SOL    HW1 2313   7.991   6.975   1.238  0.2903 -0.4064 -1.2223
33140SOL    HW2 2314   7.898   6.860   1.266  0.0570  0.0647  0.0172
33141SOL     OW 2315   0.617   7.174   1.512 -0.0312  0.3595  0.2030
33141SOL    HW1 2316   0.579   7.253   1.475  0.0555  0.7407  0.9018
33141SOL    HW2 2317   0.569   7.159   1.593  2.1373  1.6436  1.8437
33142SOL     OW 2318   2.420   4.992  10.628  0.1235  0.2410  0.0148
33142SOL    HW1 2319   2.356   5.051  10.669  1.4721  1.3766  0.5837
33142SOL    HW2 2320   2.490   4.984  10.693  0.4833 -1.1227 -0.5135
33143SOL     OW 2321   1.694   8.148   5.062 -0.2884  0.0086 -1.2683
33143SOL    HW1 2322   1.677   8.090   5.136  1.2660 -0.4608 -1.2358
33143SOL    HW2 2323   1.730   8.227   5.101  2.1709 -0.8799 -1.5381
33144SOL     OW 2324   8.101   4.952   4.786 -0.7759  0.3179  0.1771
33144SOL    HW1 2325   8.158   4.929   4.860 -0.4500  0.8287  0.0910
33144SOL    HW2 2326   8.014   4.921   4.812 -0.1260 -2.3449 -0.5576
33145SOL     OW 2327   6.484   4.790   8.939 -0.2211  0.5433  0.4674
33145SOL    HW1 2328   6.437   4.781   9.022  0.0194 -0.7183  0.4890
33145SOL    HW2 2329   6.513   4.701   8.918 -0.5804  0.7724 -1.1496
33146SOL     OW 2330   0.010   0.471   3.934  0.5804 -0.4643  0.0267
33146SOL    HW1 2331   0.097   0.450   3.900  0.0948  0.4784 -1.9791
33146SOL    HW2 2332  -0.051   0.427   3.875 -0.3201  0.8060 -0.0414
33147SOL     OW 2333   7.199   1.155   8.372  0.0298  0.1406  0.0998
33147SOL    HW1 2334   7.175   1.076   8.421 -0.3912  0.7331  0.8684
33147SOL    HW2 2335   7.121   1.177   8.323  0.2375 -0.0740 -0.3295
33148SOL     OW 2336   3.443   1.484   0.659 -0.1582 -0.1597 -0.4175
33148SOL    HW1 2337   3.467   1.500   0.568 -1.2260  2.5409 -0.3247
33148SOL    HW2 2338   3.486   1.402   0.681  0.1905 -0.8783 -3.3199
33149SOL     OW 2339   4.990   2.595   6.602  0.2890 -0.4158 -0.7058
33149SOL    HW1 2340   5.040   2.523   6.642  1.8449  0.3294 -1.2037
33149SOL    HW2 2341   4.967   2.562   6.515 -1.6842 -1.4279  0.1553
33150SOL     OW 2342   1.809   0.881   9.287  0.2819  0.8732  0.6848
33150SOL    HW1 2343   1.888   0.840   9.253  0.0394 -0.3873  1.5855
33150SOL    HW2 2344   1.782   0.941   9.217  2.1998  1.5996  0.4996
33151SOL     OW 2345   5.528   8.850   0.896  0.4660  0.3068  0.3398
33151SOL    HW1 2346   5.559   8.769   0.937 -1.1011  0.0835  1.1605
33151SOL    HW2 2347   5.528   8.830   0.802 -1.0193 -1.0970  0.5961
33152SOL     OW 2348   7.253   3.710   1.381  0.1829  0.6107 -0.1267
33152SOL    HW1 2349   7.327   3.655   1.407 -1.2245 -1.0370  0.6420
33152SOL    HW2 2350   7.242   3.692   1.287  1.3123  1.6288 -0.4859
33153SOL     OW 2351   4.381  10.712   5.378  0.0516 -0.5267  0.0536
33153SOL    HW1 2352   4.364  10.731   5.471  0.9519  1.3361 -0.1177
33153SOL    HW2 2353   4.477  10.709   5.372  0.0399  0.6472 -1.0250
33154SOL     OW 2354   7.558   7.485   4.622  0.0373 -0.0513 -0.3595
33154SOL    HW1 2355   7.468   7.464   4.599 -1.0943  1.8294  1.9021
33154SOL    HW2 2356   7.610   7.454   4.548 -2.5898  0.1689 -2.4411
33155SOL     OW 2357   7.314   5.800   8.640 -0.0653  0.4119  0.4502
33155SOL    HW1 2358   7.288   5.886   8.672 -0.0850  0.5294  0.1229
33155SOL    HW2 2359   7.253   5.781   8.568 -0.1743  0.0486  0.6354
33156SOL     OW 2360   6.969   4.085   2.803 -0.2025 -0.3243  0.3055
33156SOL    HW1 2361   6.901   4.142   2.766 -0.9993 -2.9191 -2.5769
33156SOL    HW2 2362   7.033   4.146   2.839 -0.6330  2.5119 -3.1658
33157SOL     OW 2363   0.658   3.186   8.874 -0.0175  0.3971 -0.0933
33157SOL    HW1 2364   0.618   3.099   8.877 -1.0698  0.8808  0.2953
33157SOL    HW2 2365   0.622   3.232   8.950 -0.6977  1.6808 -1.1308
33158SOL     OW 2366   0.234   9.126   5.745 -0.0230 -0.5397  0.2768
33158SOL    HW1 2367   0.302   9.164   5.801 -0.4796 -1.0743  1.2104
33158SOL    HW2 2368   0.180   9.201   5.720 -0.9153 -0.5274  2.1046
33159SOL     OW 2369   6.925   2.330   6.694 -0.0856 -0.1411 -0.1148
33159SOL    HW1 2370   6.842   2.350   6.737  0.5351  0.7446  0.6892
33159SOL    HW2 2371   6.984   2.307   6.765  0.7353  0.5520 -0.5584
33160SOL     OW 2372   8.508   7.693   9.535  0.0117 -0.2296  0.1203
33160SOL    HW1 2373   8.525   7.640   9.612  0.8509  0.3199  0.3318
33160SOL    HW2 2374   8.573   7.763   9.540  0.6410 -0.6565 -1.5295
33161SOL     OW 2375   2.347   9.002   8.546 -0.3552 -0.4810  0.0028
33161SOL    HW1 2376   2.426   8.949   8.542  0.3243  0.2995  2.0084
33161SOL    HW2 2377   2.302   8.972   8.626 -1.2982  0.1514 -0.2763
33162SOL     OW 2378   9.536   8.317  10.256  0.2117  0.1096  0.2666
33162SOL    HW1 2379   9.459   8.261  10.243  1.7407 -1.5010 -3.3002
33162SOL    HW2 2380   9.608   8.255  10.269  1.4075  1.3753 -0.1082
33163SOL     OW 2381   9.108   2.381   2.246 -0.4206  0.3399  0.0450
33163SOL    HW1 2382   9.178   2.442   2.271  0.0490 -0.8392  1.8665
33163SOL    HW2 2383   9.132   2.352   2.158  2.0518 -0.8538  1.0315
33164SOL     OW 2384  10.297   3.761   7.784  0.6182 -0.2000 -0.2428
33164SOL    HW1 2385  10.315   3.836   7.839  2.0356 -0.5280 -0.2172
33164SOL    HW2 2386  10.202   3.760   7.774  0.3761  0.2426  1.6453
33165SOL     OW 2387   0.403   1.676   5.090 -0.1420  0.2672  0.1841
33165SOL    HW1 2388   0.445   1.608   5.143 -0.2088 -0.1199 -0.2571
33165SOL    HW2 2389   0.473   1.739   5.073 -0.1290  0.4173  0.7659
33166SOL     OW 2390   9.594   3.909   9.386 -0.5965  0.4436 -0.5369
33166SOL    HW1 2391   9.591   3.998   9.419 -0.9696 -0.1213  1.0510
33166SOL    HW2 2392   9.503   3.879   9.388 -0.3498 -0.3119 -0.0413
33167SOL     OW 2393   4.652   6.655   9.643 -0.3142  0.0979 -0.3157
33167SOL    HW1 2394   4.579   6.639   9.583  2.1421  0.4472 -3.6696
33167SOL    HW2 2395   4.637   6.743   9.678 -0.8354  0.7138 -2.0344
33168SOL     OW 2396   8.594  10.621   3.499 -0.5816  0.1146  0.6072
33168SOL    HW1 2397   8.651  10.676   3.446 -1.7615  0.4790 -0.3437
33168SOL    HW2 2398   8.550  10.682   3.559 -0.2001 -0.1158  1.1220
33169SOL     OW 2399   6.273  10.383   9.996 -0.1201  0.1709 -0.2532
33169SOL    HW1 2400   6.289  10.382  10.091 -1.5690 -0.9668  0.0201
33169SOL    HW2 2401   6.357  10.408   9.958  0.5398  0.4799  1.3206
33170SOL     OW 2402   6.204   8.403  10.787  0.4430 -0.1184 -0.2300
33170SOL    HW1 2403   6.156   8.325  10.816  1.9622 -0.8250  0.4981
33170SOL    HW2 2404   6.179   8.471  10.849  2.0055 -1.0590  1.5332
33171SOL     OW 2405   9.271   8.471   4.484 -0.0214  0.3773  0.0129
33171SOL    HW1 2406   9.300   8.519   4.562  2.4404 -0.4426 -0.3059
33171SOL    HW2 2407   9.266   8.380   4.514 -0.4861  0.2555 -0.4348
33172SOL     OW 2408   9.405   1.522   2.513  0.3827 -0.2313 -0.1272
33172SOL    HW1 2409   9.412   1.551   2.604 -0.8070 -1.7590  0.5046
33172SOL    HW2 2410   9.344   1.583   2.472  2.1331  1.4423 -0.3982
33173SOL     OW 2411   9.363   1.094   7.068 -0.1574  0.6999  0.5310
33173SOL    HW1 2412   9.443   1.074   7.021 -1.0807  1.3120 -1.3712
33173SOL    HW2 2413   9.316   1.011   7.072  0.9528  0.1036  2.5382
33174SOL     OW 2414   6.921   6.731   2.763 -0.7069  0.0294  0.9863
33174SOL    HW1 2415   7.007   6.698   2.739  1.2159  4.3420  0.9530
33174SOL    HW2 2416   6.938   6.796   2.831 -3.6432  2.3684 -0.2540
33175SOL     OW 2417   4.594   8.982   7.418 -0.1904 -0.7877 -0.1313
33175SOL    HW1 2418   4.638   8.951   7.339 -1.1127 -1.4867 -0.3937
33175SOL    HW2 2419   4.538   8.909   7.445 -2.0717  0.4324 -0.4838
33176SOL     OW 2420   5.422   0.432   6.585  0.2922 -0.3428  0.1369
33176SOL    HW1 2421   5.443   0.404   6.675 -0.0091  0.8898  0.6082
33176SOL    HW2 2422   5.327   0.423   6.578  0.5192 -2.5318 -0.8183
33177SOL     OW 2423   6.486   6.000   7.674 -0.0342  0.0186 -0.3037
33177SOL    HW1 2424   6.442   5.921   7.642  0.2501 -0.6893  0.9715
33177SOL    HW2 2425   6.544   5.968   7.744 -2.7479  1.7469  3.0382
33178SOL     OW 2426   6.563   2.416   2.869  0.0943 -0.0297 -0.7154
33178SOL    HW1 2427   6.592   2.420   2.961  1.7984  1.8382 -1.2763
33178SOL    HW2 2428   6.517   2.332   2.863 -1.4050  0.4358  2.1896
33179SOL     OW 2429   0.753   5.293   5.358 -0.0288  0.0976  0.1398
33179SOL    HW1 2430   0.747   5.384   5.388 -1.4062 -0.6468  2.4163
33179SOL    HW2 2431   0.666   5.273   5.324 -0.4577 -0.9441  1.7107
33180SOL     OW 2432   8.695   6.162   1.042  0.4332  0.2508  0.2914
33180SOL    HW1 2433   8.737   6.087   1.084 -1.6720 -0.8223  0.6689
33180SOL    HW2 2434   8.684   6.136   0.951  0.2324  0.3240  0.2925
33181SOL     OW 2435   5.442   9.815   8.575 -0.1638 -0.0530  0.0499
33181SOL    HW1 2436   5.378   9.812   8.504 -0.1153 -0.5810  0.0274
33181SOL    HW2 2437   5.389   9.802   8.655  0.0477 -1.7526 -0.0508
33182SOL     OW 2438   4.168   3.786   7.565 -0.5026  0.4456 -0.3564
33182SOL    HW1 2439   4.182   3.790   7.470  0.7956 -1.3236 -0.2921
33182SOL    HW2 2440   4.187   3.875   7.595 -1.0147  1.0609 -1.7541
33183SOL     OW 2441  10.249   2.614   8.232  0.2556  0.1226  0.1454
33183SOL    HW1 2442  10.165   2.632   8.189 -1.0000 -0.0126  2.4129
33183SOL    HW2 2443  10.263   2.689   8.290 -0.3819 -1.6507  2.7858
33184SOL     OW 2444   7.094   6.652   4.131 -0.1457 -0.7974 -0.5774
33184SOL    HW1 2445   7.019   6.710   4.115 -0.0167 -0.0340  1.2478
33184SOL    HW2 2446   7.067   6.599   4.206  1.0418 -0.6865 -0.0601
33185SOL     OW 2447   4.389   9.949   2.793 -0.7101 -0.3038 -0.2191
33185SOL    HW1 2448   4.312   9.991   2.755  0.9657  2.3465 -1.0029
33185SOL    HW2 2449   4.379   9.962   2.888 -1.6500 -0.8336 -0.2378
33186SOL     OW 2450  10.586   5.710   4.877  0.0013 -0.3618  0.3926
33186SOL    HW1 2451  10.537   5.783   4.915 -0.8973 -0.6164 -0.2340
33186SOL    HW2 2452  10.589   5.730   4.783 -1.2844 -1.6888  0.0326
33187SOL     OW 2453   4.573   8.552   0.251 -0.0902 -0.0964  0.6052
33187SOL    HW1 2454   4.658   8.557   0.294 -0.0925 -0.4546  0.6559
33187SOL    HW2 2455   4.569   8.463   0.217  0.8272  0.7806 -2.0490
33188SOL     OW 2456   2.800   1.970   7.355  0.4866 -0.0656  0.3166
33188SOL    HW1 2457   2.726   2.024   7.384  0.2301  0.1914 -0.7777
33188SOL    HW2 2458   2.799   1.894   7.413  0.1298  0.5449  1.1211
33189SOL     OW 2459   2.158   0.646  10.008 -0.3112 -0.1712 -0.3647
33189SOL    HW1 2460   2.182   0.623  10.098 -0.7139 -0.7418 -0.3926
33189SOL    HW2 2461   2.068   0.678  10.014  0.2537  1.4833 -0.3283
33190SOL     OW 2462   2.399   8.490   4.161  0.1917 -0.2428  0.0443
33190SOL    HW1 2463   2.447   8.407   4.160 -0.4260 -0.6039  0.0414
33190SOL    HW2 2464   2.417   8.529   4.075  0.2833 -0.4872 -0.0493
33191SOL     OW 2465   5.025   2.473   3.922  0.4082 -0.4132 -0.8006
33191SOL    HW1 2466   4.962   2.515   3.981  0.6081 -0.3903 -0.6048
33191SOL    HW2 2467   5.092   2.540   3.907  2.4629 -1.6350  2.0497
33192SOL     OW 2468  10.359   7.134   6.388 -0.2711 -0.2757 -0.1817
33192SOL    HW1 2469  10.310   7.204   6.344  0.8928 -0.2241 -1.4704
33192SOL    HW2 2470  10.392   7.175   6.468 -0.7629  0.2252 -0.2279
33193SOL     OW 2471   5.214  10.064   3.752  0.4316  0.5153 -0.0789
33193SOL    HW1 2472   5.226  10.157   3.732  0.9631  0.7495  1.2354
33193SOL    HW2 2473   5.127  10.057   3.789 -0.5063  0.0996 -2.1975
33194SOL     OW 2474   3.712   4.293   5.527  0.0889  0.5464 -1.1890
33194SOL    HW1 2475   3.795   4.319   5.487  2.0964 -0.8473  1.7321
33194SOL    HW2 2476   3.681   4.372   5.572 -0.2551  1.0805 -2.3206
33195SOL     OW 2477   8.472   9.461   7.394 -0.2722  0.3962 -0.7047
33195SOL    HW1 2478   8.523   9.393   7.438 -1.5136 -0.4834 -0.5421
33195SOL    HW2 2479   8.458   9.528   7.461  0.4256  0.5121 -0.6747
33196SOL     OW 2480   7.142   7.391   6.294  0.0183 -0.3391  0.1208
33196SOL    HW1 2481   7.180   7.347   6.218 -1.5136  1.2795 -1.6549
33196SOL    HW2 2482   7.048   7.382   6.284 -0.2356 -0.1996  1.9297
33197SOL     OW 2483   6.888   4.017  10.378 -0.0963 -0.0481  0.3010
33197SOL    HW1 2484   6.830   3.942  10.370 -0.8932  0.4761  1.1140
33197SOL    HW2 2485   6.909   4.023  10.471  1.1683 -0.1525  0.0427
33198SOL     OW 2486   6.072   4.885   3.117 -0.0084  0.0153  0.9123
33198SOL    HW1 2487   6.110   4.804   3.152  0.8552  0.0350  0.0729
33198SOL    HW2 2488   6.021   4.856   3.041  0.8093  0.3150  0.2383
33199SOL     OW 2489   2.448   2.026   8.663 -0.2593  0.6435  0.0341
33199SOL    HW1 2490   2.355   2.048   8.659  0.1022  2.1580 -0.7979
33199SOL    HW2 2491   2.487   2.095   8.717  0.1980 -0.7636  1.5885
33200SOL     OW 2492   3.851   2.502  10.151  0.1081  0.3823  0.4043
33200SOL    HW1 2493   3.792   2.512  10.226 -1.1768 -0.8313 -0.3964
33200SOL    HW2 2494   3.792   2.491  10.076  1.3541 -1.1006 -0.3966
33201SOL     OW 2495   0.016   6.863   8.197  0.0728 -0.4085 -0.2123
33201SOL    HW1 2496   0.042   6.771   8.199  2.1332  0.1229  0.2185
33201SOL    HW2 2497  -0.062   6.867   8.252  0.3292 -1.8056  0.2863
33202SOL     OW 2498   7.261   1.052  10.385 -0.4813  0.6347  0.6537
33202SOL    HW1 2499   7.345   1.049  10.341 -1.2303 -0.5426 -0.8046
33202SOL    HW2 2500   7.262   0.976  10.444 -0.0476  1.3618  1.6041
33203SOL     OW 2501   4.595   0.035   0.083  0.5819 -0.2095  0.5405
33203SOL    HW1 2502   4.573   0.122   0.047  2.0919  0.8032  1.9211
33203SOL    HW2 2503   4.680   0.014   0.044  0.5358 -0.7627  0.7312
33204SOL     OW 2504   7.866   5.134   6.759  0.7986 -0.7100  0.8049
33204SOL    HW1 2505   7.913   5.211   6.792  0.9424 -0.2856 -0.3467
33204SOL    HW2 2506   7.918   5.059   6.790  2.5261 -0.2451 -0.7946
33205SOL     OW 2507  10.431   0.729   1.442 -0.3947  0.1209 -0.0597
33205SOL    HW1 2508  10.378   0.688   1.509 -2.3074 -0.7346 -1.9657
33205SOL    HW2 2509  10.421   0.823   1.457 -0.7925 -0.0551  0.8204
33206SOL     OW 2510   9.418   5.564   1.955 -0.0217  0.1584  0.2565
33206SOL    HW1 2511   9.461   5.590   1.874  2.1786 -3.4430  0.0179
33206SOL    HW2 2512   9.454   5.623   2.022  1.3468  0.5375 -0.7761
33207SOL     OW 2513   8.648  10.529   9.326 -0.0507  0.4967 -0.1503
33207SOL    HW1 2514   8.725  10.543   9.382  0.1357  2.4972 -0.8154
33207SOL    HW2 2515   8.573  10.548   9.382 -0.0165 -0.3382  0.1867
33208SOL     OW 2516   1.621   2.061   1.080  0.0063 -0.2312  0.2509
33208SOL    HW1 2517   1.607   2.016   1.163 -0.7053  0.5147  0.5456
33208SOL    HW2 2518   1.610   1.993   1.013 -2.2808 -0.2956  0.6185
33209SOL     OW 2519   8.377   8.478  10.282 -0.0891  0.4040  0.4342
33209SOL    HW1 2520   8.424   8.435  10.211 -0.6110 -1.6018  1.2412
33209SOL    HW2 2521   8.290   8.495  10.246 -0.4326 -0.8381  0.6331
33210SOL     OW 2522   8.404   8.994   1.801  0.0987  0.5864  0.0620
33210SOL    HW1 2523   8.402   8.948   1.885  1.5103  2.2853  1.1099
33210SOL    HW2 2524   8.369   9.081   1.821  1.4053  1.3657 -0.8219
33211SOL     OW 2525   7.475   9.307   1.337 -0.0003  0.1633  0.2222
33211SOL    HW1 2526   7.555   9.360   1.341  0.5828 -0.6983  0.1279
33211SOL    HW2 2527   7.427   9.341   1.261  0.3609  0.5598  0.1689
33212SOL     OW 2528   4.148  10.652   7.009 -0.1724  0.0415 -0.1095
33212SOL    HW1 2529   4.239  10.680   7.000 -0.0198  0.6900  2.4830
33212SOL    HW2 2530   4.136  10.641   7.104 -2.9292  0.5162 -0.3153
33213SOL     OW 2531   7.968   4.956   8.728 -0.2434 -0.1817 -0.5093
33213SOL    HW1 2532   8.045   4.966   8.671  0.5525  0.6095  0.6605
33213SOL    HW2 2533   7.897   4.996   8.678  0.8626  2.4838 -0.1269
33214SOL     OW 2534   9.019   2.624   8.019  0.4879  0.1721  0.1035
33214SOL    HW1 2535   8.995   2.708   8.059  1.0787 -0.1773  1.2374
33214SOL    HW2 2536   9.111   2.634   7.997  0.2346  0.2602 -0.9502
33215SOL     OW 2537   4.150   0.616   0.543  0.0355 -0.2770 -0.0144
33215SOL    HW1 2538   4.120   0.680   0.478  1.6083 -0.5305 -1.0622
33215SOL    HW2 2539   4.173   0.669   0.620 -0.1903  0.2388 -0.2983
33216SOL     OW 2540   8.120   3.903   5.713 -0.3422 -0.3162  0.4046
33216SOL    HW1 2541   8.168   3.883   5.633 -0.9145 -0.5522  0.1163
33216SOL    HW2 2542   8.041   3.850   5.708 -1.1845  0.9022  0.3221
33217SOL     OW 2543   7.142   7.333   9.604  0.3998  0.1549  0.4527
33217SOL    HW1 2544   7.055   7.293   9.614  0.6397 -1.5811 -2.9182
33217SOL    HW2 2545   7.128   7.425   9.623 -2.1738 -0.0782  0.1389
33218SOL     OW 2546  10.586   1.733  10.596 -0.3450 -0.1690  0.1737
33218SOL    HW1 2547  10.628   1.651  10.568  0.0192 -0.0271  0.3002
33218SOL    HW2 2548  10.505   1.705  10.639 -0.9350 -0.3993 -1.0267
33219SOL     OW 2549   3.070   7.067   6.760 -0.0368  0.3310  0.0093
33219SOL    HW1 2550   3.078   7.026   6.674 -1.0656 -1.5049  0.7268
33219SOL    HW2 2551   3.066   6.993   6.821 -1.8682  1.4867  1.3943
33220SOL     OW 2552   6.051  10.274   2.601 -0.0198 -0.0325 -0.1684
33220SOL    HW1 2553   6.039  10.292   2.508  0.1205 -1.7624 -0.5701
33220SOL    HW2 2554   6.127  10.214   2.604  0.8414  1.0502  1.1868
33221SOL     OW 2555   6.769   6.842  10.028 -0.1073 -0.2547  0.4864
33221SOL    HW1 2556   6.692   6.889  10.057  0.2147  0.1732  0.6527
33221SOL    HW2 2557   6.744   6.805   9.943 -0.4245  0.0489  0.4467
33222SOL     OW 2558   0.233   3.674  10.734 -0.0259  0.6922  0.2682
33222SOL    HW1 2559   0.196   3.680  10.822  0.7172  1.1313  0.5600
33222SOL    HW2 2560   0.305   3.612  10.743 -0.5959 -0.0645 -0.2708
33223SOL     OW 2561   8.049   4.029  10.682 -0.0447  0.1400  0.0994
33223SOL    HW1 2562   8.022   4.090  10.613  0.7743 -0.1665 -0.5090
33223SOL    HW2 2563   8.045   4.081  10.762  0.5811  0.9874 -0.4017
33224SOL     OW 2564   2.608  10.024   0.975  0.0388  0.5354  0.4924
33224SOL    HW1 2565   2.536  10.031   0.913  0.5598 -0.3974 -0.2345
33224SOL    HW2 2566   2.565  10.025   1.061 -0.7211  1.3448  0.1295
33225SOL     OW 2567  10.513   5.962  10.665 -0.3171 -0.2496  0.2341
33225SOL    HW1 2568  10.528   6.042  10.614  0.3002  1.0187  2.2854
33225SOL    HW2 2569  10.443   5.986  10.726 -0.5453 -1.4942  0.4840
33226SOL     OW 2570   0.681   0.975   7.400  0.1463  0.5874  0.0032
33226SOL    HW1 2571   0.738   1.002   7.472 -0.3821  0.2334  0.5601
33226SOL    HW2 2572   0.593   0.973   7.438 -0.5214  2.7400 -1.2347
33227SOL     OW 2573   2.129   8.345   7.193 -0.4877 -0.0531 -0.1911
33227SOL    HW1 2574   2.148   8.254   7.218  0.7991 -0.0036 -0.9062
33227SOL    HW2 2575   2.068   8.376   7.259 -1.3691 -1.6122 -0.2273
33228SOL     OW 2576   9.345   9.402   2.054  0.6483 -0.3304  0.3577
33228SOL    HW1 2577   9.371   9.477   2.108  0.1525 -0.6358  1.0402
33228SOL    HW2 2578   9.275   9.360   2.104  0.2573 -0.6943 -0.4755
33229SOL     OW 2579   2.791   4.875   8.930 -0.0844 -0.3099  0.0211
33229SOL    HW1 2580   2.866   4.830   8.969  0.5822  0.5996 -0.1575
33229SOL    HW2 2581   2.786   4.958   8.977 -1.5820 -0.7467  0.6726
33230SOL     OW 2582   7.584   2.715  10.761  0.3634 -0.3209 -0.9763
33230SOL    HW1 2583   7.620   2.784  10.816  0.7196  0.5854 -2.2879
33230SOL    HW2 2584   7.642   2.713  10.684 -1.2482 -0.1460 -2.2502
33231SOL     OW 2585   5.092   0.942   2.611 -0.0185 -0.6347 -0.8173
33231SOL    HW1 2586   5.005   0.977   2.594 -0.0013 -0.9215 -1.5665
33231SOL    HW2 2587   5.098   0.865   2.554 -0.2409 -2.1438  1.0985
33232SOL     OW 2588   4.394   3.391   2.472 -0.0949 -0.0728 -0.1431
33232SOL    HW1 2589   4.378   3.300   2.498 -2.8983  0.3838  0.0125
33232SOL    HW2 2590   4.385   3.441   2.553  1.1974  0.3970 -0.2711
33233SOL     OW 2591  10.297   1.931   0.890 -0.9253  0.4959 -0.3986
33233SOL    HW1 2592  10.311   1.914   0.984 -2.8745 -0.0047 -0.1572
33233SOL    HW2 2593  10.250   1.854   0.859  1.5157 -0.3333 -2.3323
33234SOL     OW 2594   7.836  10.624   5.484 -0.5179 -0.6528 -0.1833
33234SOL    HW1 2595   7.850  10.531   5.469 -0.8071 -0.5925 -0.8800
33234SOL    HW2 2596   7.909  10.650   5.541 -0.1946 -1.2138 -0.3303
33235SOL     OW 2597   2.440  10.333   9.555 -0.3805  0.1570 -0.3211
33235SOL    HW1 2598   2.346  10.319   9.564 -0.3119 -0.1043 -0.0007
33235SOL    HW2 2599   2.480  10.264   9.607 -0.0132  0.5067 -0.1306
33236SOL     OW 2600   7.015   8.046   6.471  0.1997  0.0052 -0.5046
33236SOL    HW1 2601   7.021   7.997   6.389 -1.7346  0.4467 -0.9586
33236SOL    HW2 2602   6.936   8.099   6.461  1.2908  1.9262  0.6811
33237SOL     OW 2603   5.803   2.610   7.208  0.2043 -0.2325 -0.5152
33237SOL    HW1 2604   5.725   2.621   7.155  0.1803 -0.2473 -0.4825
33237SOL    HW2 2605   5.810   2.515   7.221 -0.1557 -0.1870  0.0550
33238SOL     OW 2606   2.815   9.778   6.448  0.1455 -0.1515  0.3854
33238SOL    HW1 2607   2.739   9.719   6.455  0.4797 -0.4225  2.2104
33238SOL    HW2 2608   2.888   9.728   6.484  0.9079  0.5886 -0.1028
33239SOL     OW 2609   0.760   8.761   3.371 -0.2286  0.3550  0.1343
33239SOL    HW1 2610   0.718   8.838   3.332  0.3789  0.7419  0.2329
33239SOL    HW2 2611   0.811   8.723   3.299 -0.9994 -0.3075 -0.0767
33240SOL     OW 2612   4.618   1.502   3.304 -0.2201 -0.5534  0.0500
33240SOL    HW1 2613   4.572   1.429   3.262 -1.5308  0.2044  0.1288
33240SOL    HW2 2614   4.603   1.577   3.246 -1.2253  0.2810  1.3256
33241SOL     OW 2615  10.006   5.018   6.966 -0.8341 -0.4723  1.1015
33241SOL    HW1 2616  10.065   5.070   7.022 -1.4504  0.5093  0.8680
33241SOL    HW2 2617  10.055   4.939   6.947  0.4292  0.3328  0.8871
33242SOL     OW 2618   4.357   4.288   8.138  0.0825  0.1283  0.1734
33242SOL    HW1 2619   4.301   4.344   8.193 -0.6349 -1.5253  1.2150
33242SOL    HW2 2620   4.441   4.334   8.135 -0.3450  1.0566  1.3395
33243SOL     OW 2621   4.779   0.381   2.910 -0.1352 -0.2006  0.7272
33243SOL    HW1 2622   4.873   0.379   2.930  0.1926  1.3356 -0.4570
33243SOL    HW2 2623   4.740   0.430   2.982  0.2077  0.4118  0.5110
33244SOL     OW 2624   0.805   3.442  10.306 -0.1672 -0.0030 -0.4690
33244SOL    HW1 2625   0.712   3.417  10.303 -1.0485  2.7786  0.3045
33244SOL    HW2 2626   0.828   3.434  10.398 -0.4942  1.7821 -0.1814
33245SOL     OW 2627   6.058   4.994   9.828  0.3953 -0.6562 -0.0209
33245SOL    HW1 2628   6.005   4.960   9.756 -0.2233 -0.5390  0.3726
33245SOL    HW2 2629   6.045   4.932   9.899 -1.3235  0.7358  0.9439
33246SOL     OW 2630   0.722   4.300   4.130  0.5419 -0.8249  0.0172
33246SOL    HW1 2631   0.676   4.321   4.049 -0.1253 -1.8133  0.1164
33246SOL    HW2 2632   0.805   4.346   4.123 -0.1018  0.2827 -0.5642
33247SOL     OW 2633   7.694   7.182   4.947  0.1401 -0.7274  0.5500
33247SOL    HW1 2634   7.618   7.213   4.897 -0.3128 -2.5540  0.0380
33247SOL    HW2 2635   7.753   7.257   4.949 -0.1098 -0.3675 -2.1885
33248SOL     OW 2636   6.450   5.038   1.411 -0.6670 -0.7166  0.1902
33248SOL    HW1 2637   6.366   5.067   1.445  0.0611  1.2153  0.4353
33248SOL    HW2 2638   6.515   5.086   1.462  0.5314 -0.1758 -1.7174
33249SOL     OW 2639   3.268   8.231   2.904  0.4355 -0.4519 -0.4160
33249SOL    HW1 2640   3.183   8.187   2.896  0.3847 -0.7009  1.1690
33249SOL    HW2 2641   3.258   8.311   2.851 -1.1138 -0.0281  0.4258
33250SOL     OW 2642   5.147   6.902   5.352 -0.7134  0.0769  0.4844
33250SOL    HW1 2643   5.243   6.904   5.355 -0.7466  1.5516  1.0406
33250SOL    HW2 2644   5.119   6.932   5.438 -1.6874 -0.2141  0.2835
33251SOL     OW 2645   0.668   7.973   9.139 -0.2845 -0.1291 -0.2297
33251SOL    HW1 2646   0.760   7.979   9.113 -0.8023  0.5599 -2.1005
33251SOL    HW2 2647   0.652   8.054   9.188  0.4445 -0.9326  1.3753
33252SOL     OW 2648   0.358   7.734   9.323  0.6795 -0.2268  0.2040
33252SOL    HW1 2649   0.446   7.706   9.296  0.5055 -0.2758 -0.3164
33252SOL    HW2 2650   0.316   7.655   9.355  0.1150 -0.6208 -1.4586
33253SOL     OW 2651   8.210   0.923   1.127 -0.2588  0.1227  0.3608
33253SOL    HW1 2652   8.130   0.900   1.175 -0.4291 -0.8868 -0.3758
33253SOL    HW2 2653   8.188   0.909   1.035  0.9592 -0.7868  0.1806
33254SOL     OW 2654   0.780   8.697  10.476  0.4572 -0.4085  0.0698
33254SOL    HW1 2655   0.848   8.694  10.408  0.7008 -0.3400  0.3120
33254SOL    HW2 2656   0.801   8.625  10.535  1.3286  0.6617  1.1060
33255SOL     OW 2657   1.510   7.743   9.864  0.7190  0.0263 -0.0797
33255SOL    HW1 2658   1.572   7.746   9.791  0.1775  1.2748 -0.5251
33255SOL    HW2 2659   1.424   7.733   9.822  0.6177 -2.6898  0.5657
33256SOL     OW 2660   8.149   8.440   0.525  0.1370 -0.2253  0.3509
33256SOL    HW1 2661   8.158   8.383   0.602 -0.6024 -0.0476  0.5780
33256SOL    HW2 2662   8.142   8.379   0.452  0.2380 -0.4085  0.4905
33257SOL     OW 2663   9.824   6.337   3.702  0.5324  0.0445  0.2934
33257SOL    HW1 2664   9.829   6.318   3.796  0.0662  0.9167  0.5069
33257SOL    HW2 2665   9.864   6.261   3.660 -1.2653 -1.3921  1.0850
33258SOL     OW 2666   5.326   1.427   1.823  0.3627 -0.3130  0.1305
33258SOL    HW1 2667   5.367   1.504   1.784  2.0911 -1.5763 -0.6847
33258SOL    HW2 2668   5.369   1.417   1.908  0.4290 -0.6002  0.0642
33259SOL     OW 2669   0.658   2.167   8.103 -0.1285  0.3490  0.2011
33259SOL    HW1 2670   0.646   2.230   8.173  0.4329  0.6606  0.0171
33259SOL    HW2 2671   0.742   2.189   8.064 -0.5640  0.3709 -0.7625
33260SOL     OW 2672   0.555   1.950   4.164 -0.5162  0.0062  0.1265
33260SOL    HW1 2673   0.600   1.928   4.246 -0.1761  1.6315  0.4202
33260SOL    HW2 2674   0.611   1.913   4.095 -0.6520 -1.1160  0.5922
33261SOL     OW 2675   3.035   4.081   9.875  0.2197  0.1127 -0.0934
33261SOL    HW1 2676   3.001   4.167   9.851  0.5724 -0.0027 -1.0762
33261SOL    HW2 2677   3.116   4.072   9.823 -0.1778 -1.0902 -0.5492
33262SOL     OW 2678   2.150   9.791   3.141  0.0363  0.2881  0.3016
33262SOL    HW1 2679   2.172   9.848   3.214  0.7045  0.5512 -0.0973
33262SOL    HW2 2680   2.184   9.705   3.167  1.2544  0.6149 -0.1560
33263SOL     OW 2681  10.165   5.100   6.361  0.1108  0.6208 -0.6606
33263SOL    HW1 2682  10.231   5.136   6.302  0.6485 -0.6948 -0.8760
33263SOL    HW2 2683  10.212   5.036   6.414 -0.6805  0.7432  0.2098
33264SOL     OW 2684   8.786   9.341   3.038 -0.3155  0.1207 -0.2827
33264SOL    HW1 2685   8.808   9.264   3.091  1.7051  1.4344  0.9194
33264SOL    HW2 2686   8.852   9.344   2.969 -2.0927 -0.7638 -2.1358
33265SOL     OW 2687   8.346   1.882   1.101  0.3261 -0.1976  0.1922
33265SOL    HW1 2688   8.272   1.831   1.069 -1.1931  0.3548  2.5708
33265SOL    HW2 2689   8.343   1.963   1.050  1.2565 -1.3975 -1.8821
33266SOL     OW 2690   4.748  10.338   9.140 -0.0428  0.5595  0.2037
33266SOL    HW1 2691   4.709  10.254   9.119 -1.6625  0.7421  2.2191
33266SOL    HW2 2692   4.746  10.387   9.057 -0.3480 -0.8630 -0.6665
33267SOL     OW 2693   6.292   4.558   8.298 -0.1279  0.2628 -0.1126
33267SOL    HW1 2694   6.378   4.579   8.261  0.7585 -0.1154  1.6213
33267SOL    HW2 2695   6.270   4.634   8.351 -0.8246  0.3107 -0.4660
33268SOL     OW 2696   4.051   0.769  10.357  0.4278 -0.1984  0.3633
33268SOL    HW1 2697   4.116   0.792  10.424  0.9567 -1.6627  0.3922
33268SOL    HW2 2698   3.967   0.772  10.403  0.3883  2.0789  0.2353
33269SOL     OW 2699   5.607   2.268   9.521  0.2054  0.2310 -0.9159
33269SOL    HW1 2700   5.513   2.268   9.537  0.3059  1.8513 -0.1248
33269SOL    HW2 2701   5.616   2.236   9.431 -1.0590 -0.3379 -0.8537
33270SOL     OW 2702   2.666   5.941   6.586 -0.2863  0.3692  0.2031
33270SOL    HW1 2703   2.590   5.962   6.640 -0.5746  0.6492 -0.2999
33270SOL    HW2 2704   2.729   6.010   6.608  0.3375 -0.5868  1.5769
33271SOL     OW 2705   9.347   4.606   8.944 -0.0782  0.2220  0.1832
33271SOL    HW1 2706   9.314   4.524   8.908 -0.6600 -0.5826  2.3908
33271SOL    HW2 2707   9.393   4.581   9.023  0.3292  1.9826  0.5495
33272SOL     OW 2708   3.026   9.922   2.980  0.0796 -0.2567  0.0433
33272SOL    HW1 2709   3.042   9.901   3.072 -0.6121 -0.3843  0.1365
33272SOL    HW2 2710   3.067   9.850   2.932  2.0830  0.7319  0.1531
33273SOL     OW 2711   7.051  10.099  10.323 -0.4390  0.4164 -0.0916
33273SOL    HW1 2712   6.960  10.129  10.318 -0.6802 -0.1180  0.8328
33273SOL    HW2 2713   7.078  10.118  10.412  0.4509  0.8004 -0.4318
33274SOL     OW 2714   2.449   9.546   6.460  0.0499  0.3925  0.1096
33274SOL    HW1 2715   2.412   9.565   6.373  0.1927 -0.1428 -0.0708
33274SOL    HW2 2716   2.395   9.597   6.520 -1.6655 -1.1308 -0.0318
33275SOL     OW 2717   9.813  10.482   3.500 -0.1656  0.2642  0.2050
33275SOL    HW1 2718   9.768  10.417   3.447  0.3401 -0.1159  0.2307
33275SOL    HW2 2719   9.743  10.536   3.537 -0.4791  2.0297 -2.6533
33276SOL     OW 2720   6.368   4.361   6.505 -0.7005  0.2402  0.0775
33276SOL    HW1 2721   6.459   4.345   6.478 -0.5385  1.7525 -0.3707
33276SOL    HW2 2722   6.319   4.287   6.469  0.1186  0.2453 -1.1224
33277SOL     OW 2723   5.524   6.891   8.744  0.1435  0.0073  0.2723
33277SOL    HW1 2724   5.601   6.941   8.770  0.8770 -0.6328 -0.6341
33277SOL    HW2 2725   5.456   6.958   8.729  0.1146  0.4912  2.3015
33278SOL     OW 2726   7.252   9.359   7.524  0.1850 -0.3785 -0.0543
33278SOL    HW1 2727   7.215   9.296   7.463 -1.6961 -0.1358  0.7785
33278SOL    HW2 2728   7.233   9.444   7.484 -1.5904 -0.1896  1.0710
33279SOL     OW 2729   5.969   1.580   2.289 -0.4687  0.1072 -0.3667
33279SOL    HW1 2730   5.914   1.566   2.212  0.7661 -0.7246 -1.1288
33279SOL    HW2 2731   6.018   1.498   2.298 -1.5058 -0.3214  2.0899
33280SOL     OW 2732   3.349   6.771   7.699 -0.4833 -0.3414  0.1540
33280SOL    HW1 2733   3.315   6.700   7.645 -0.0674 -2.1271  2.0667
33280SOL    HW2 2734   3.444   6.756   7.702 -0.3175  0.6338  0.1585
33281SOL     OW 2735   5.479   8.819   4.507 -0.4461  0.1159 -0.3448
33281SOL    HW1 2736   5.473   8.751   4.440 -0.9596  0.4398 -0.6320
33281SOL    HW2 2737   5.389   8.849   4.519 -0.2702  0.5107  0.0228
33282SOL     OW 2738   2.269   7.752   2.598 -0.2205 -0.4114 -0.9975
33282SOL    HW1 2739   2.314   7.755   2.514 -0.1995 -1.8071 -1.0589
33282SOL    HW2 2740   2.203   7.683   2.588 -0.3451 -0.4659  0.0657
33283SOL     OW 2741   6.472   9.821  10.491  0.1887 -0.4341 -0.4188
33283SOL    HW1 2742   6.411   9.765  10.539  1.1901 -1.7035 -0.5840
33283SOL    HW2 2743   6.492   9.892  10.552  0.4901 -1.3608  0.5777
33284SOL     OW 2744   2.704  10.006   7.238  0.5655  0.0326  0.5914
33284SOL    HW1 2745   2.652   9.977   7.313  1.8154  1.7277  2.1821
33284SOL    HW2 2746   2.734   9.925   7.197 -0.8799 -0.9365  1.3529
33285SOL     OW 2747   3.310   6.028   1.402  0.0425 -0.0942 -0.2005
33285SOL    HW1 2748   3.347   6.116   1.395  1.5265 -0.6436  0.2401
33285SOL    HW2 2749   3.386   5.970   1.399 -0.8665 -1.3367 -0.0054
33286SOL     OW 2750   5.520   7.699   3.868 -0.2854  0.3710  0.0291
33286SOL    HW1 2751   5.457   7.760   3.829 -0.6096 -0.4991 -0.8505
33286SOL    HW2 2752   5.551   7.744   3.946 -1.5699  1.0697  0.1734
33287SOL     OW 2753   0.863   7.398   4.997 -0.4760  0.2563 -0.2147
33287SOL    HW1 2754   0.927   7.466   5.017 -1.2383  0.5505  1.3242
33287SOL    HW2 2755   0.856   7.400   4.901  0.6429  1.2800 -0.3015
33288SOL     OW 2756   5.668   6.687  10.341  0.3593 -0.5043 -0.1150
33288SOL    HW1 2757   5.726   6.619  10.376  0.8518 -0.6250 -1.1393
33288SOL    HW2 2758   5.595   6.690  10.403  2.5603  1.3817  2.6787
33289SOL     OW 2759   0.149   1.286   5.993  0.3204  0.2274 -0.1109
33289SOL    HW1 2760   0.244   1.290   5.999  0.4670 -2.3997  0.6673
33289SOL    HW2 2761   0.118   1.323   6.075  0.7327 -0.0409  0.1672
33290SOL     OW 2762   0.604   0.784   6.549 -0.0067 -0.2769 -0.3115
33290SOL    HW1 2763   0.577   0.760   6.638  1.0770 -0.2417  0.0470
33290SOL    HW2 2764   0.614   0.701   6.503  0.1148 -0.3309 -0.1889
33291SOL     OW 2765   4.770   5.097   0.002 -0.4037 -0.4125  0.0451
33291SOL    HW1 2766   4.778   5.052  -0.082 -0.2658  0.7258 -0.5671
33291SOL    HW2 2767   4.805   5.035   0.066  0.7550 -0.7696 -0.9004
33292SOL     OW 2768   6.640   4.714   9.471 -0.4835 -0.1189  0.1251
33292SOL    HW1 2769   6.650   4.619   9.478 -0.7382 -0.1350  0.2873
33292SOL    HW2 2770   6.728   4.749   9.486 -0.3264 -0.3424 -0.2448
33293SOL     OW 2771   7.381   7.949   6.014 -0.0960  0.1514 -0.3635
33293SOL    HW1 2772   7.321   8.000   5.959  1.7892  0.1161 -2.5975
33293SOL    HW2 2773   7.454   8.007   6.031 -0.0210 -0.3111  1.0044
33294SOL     OW 2774   3.990   5.628   4.930  0.2032  0.1368  0.3277
33294SOL    HW1 2775   4.082   5.601   4.928 -0.0381 -0.6634 -0.5150
33294SOL    HW2 2776   3.968   5.644   4.839 -0.1015  1.7703  0.6636
33295SOL     OW 2777  10.760  10.092   5.134 -0.0881  0.5285  0.3327
33295SOL    HW1 2778  10.833  10.064   5.189 -0.8774  2.3831  2.5111
33295SOL    HW2 2779  10.781  10.061   5.047  2.9193  0.3315  1.0432
33296SOL     OW 2780   7.377  10.765   2.073  0.2227 -0.0055 -0.4623
33296SOL    HW1 2781   7.359  10.820   2.150 -0.2303  1.0357 -1.2919
33296SOL    HW2 2782   7.329  10.685   2.090 -0.2046  0.3663  0.1623
33297SOL     OW 2783   2.646   2.714   7.160  0.2588  0.4625  0.2676
33297SOL    HW1 2784   2.711   2.714   7.229  1.9537  0.9287 -1.2487
33297SOL    HW2 2785   2.668   2.638   7.106  1.2318  2.0288 -1.6831
33298SOL     OW 2786   1.371  10.329   6.526  0.4467 -0.0423 -0.6638
33298SOL    HW1 2787   1.342  10.354   6.439 -0.6456 -0.2611 -0.3751
33298SOL    HW2 2788   1.335  10.242   6.540 -0.7660  0.6026  0.6025
33299SOL     OW 2789   9.874   8.797   1.339  0.7320  0.6014  0.0525
33299SOL    HW1 2790   9.957   8.800   1.387  1.1134 -0.6429 -0.4911
33299SOL    HW2 2791   9.891   8.737   1.266 -0.9936 -0.6640  0.6356
33300SOL     OW 2792  10.375   4.844   1.185  0.2731 -0.3051 -0.2385
33300SOL    HW1 2793  10.396   4.859   1.092  0.9553 -2.4257 -0.4977
33300SOL    HW2 2794  10.283   4.816   1.184  0.2142 -0.1145 -0.2411
33301SOL     OW 2795   7.337   8.928   2.772 -0.5462  0.1060  0.4198
33301SOL    HW1 2796   7.277   8.949   2.700 -0.9118 -0.3322  0.5932
33301SOL    HW2 2797   7.286   8.872   2.830 -0.7648  1.6744  1.8060
33302SOL     OW 2798   4.382   0.989   2.410 -0.1888 -0.0534  0.4370
33302SOL    HW1 2799   4.319   0.934   2.456 -0.1534 -1.8043 -1.4526
33302SOL    HW2 2800   4.368   0.969   2.317  0.8323  2.0944 -0.2510
33303SOL     OW 2801   4.664   9.748   3.277 -0.1136  0.7768  0.4135
33303SOL    HW1 2802   4.710   9.747   3.193 -0.6555  1.4933  0.0916
33303SOL    HW2 2803   4.711   9.685   3.332  1.6920  2.0167  0.3451
33304SOL     OW 2804   3.288   9.340   6.216  0.0705 -0.0805 -0.4802
33304SOL    HW1 2805   3.204   9.294   6.214  0.2024 -0.3116 -0.7125
33304SOL    HW2 2806   3.297   9.369   6.307  1.1146 -2.6185  0.3144
33305SOL     OW 2807   4.480   4.153   3.693  0.1906 -0.0132  0.1584
33305SOL    HW1 2808   4.505   4.245   3.698  1.0982 -0.1909 -0.8446
33305SOL    HW2 2809   4.561   4.105   3.708 -0.1850 -0.6546  0.1699
33306SOL     OW 2810   4.839   1.003   8.147  0.5437 -0.3000  0.0089
33306SOL    HW1 2811   4.793   0.921   8.128  2.3209 -1.1944 -0.7236
33306SOL    HW2 2812   4.923   0.976   8.183  0.1009  1.2968  2.5349
33307SOL     OW 2813   4.390   9.822   7.017  0.7194  0.1758 -0.8277
33307SOL    HW1 2814   4.473   9.868   7.006  1.2381 -0.4971  0.1209
33307SOL    HW2 2815   4.323   9.889   7.003  1.4500  1.1610  0.2402
33308SOL     OW 2816   8.097   5.582   5.390 -0.0059 -0.2990 -0.1899
33308SOL    HW1 2817   8.180   5.574   5.436  0.2381 -0.5784 -0.6729
33308SOL    HW2 2818   8.119   5.569   5.298 -0.7967 -1.8622 -0.1860
33309SOL     OW 2819   0.012   8.474   9.374 -0.1428 -0.9240 -0.5346
33309SOL    HW1 2820  -0.068   8.481   9.322 -1.7490  0.2124  1.9103
33309SOL    HW2 2821  -0.017   8.442   9.459  1.8202  0.4751  0.7649
33310SOL     OW 2822   8.148   7.110   5.509 -0.5840 -0.1442  0.6275
33310SOL    HW1 2823   8.059   7.090   5.539 -0.9397  0.9039  0.3138
33310SOL    HW2 2824   8.137   7.129   5.415 -0.0290  0.0031  0.5927
33311SOL     OW 2825   9.387   6.383   2.572 -0.5664  0.2618  0.5834
33311SOL    HW1 2826   9.411   6.320   2.504 -1.9731  1.7721 -1.4467
33311SOL    HW2 2827   9.291   6.380   2.575 -0.5413  0.3453  2.4359
33312SOL     OW 2828   4.822   8.341   3.698 -0.5498  0.1621 -0.2471
33312SOL    HW1 2829   4.788   8.252   3.690 -0.8833  0.2892 -0.2285
33312SOL    HW2 2830   4.842   8.352   3.791 -1.3488  0.4154 -0.0987
33313SOL     OW 2831   2.845   9.640   3.410  0.6599  0.1922 -0.3359
33313SOL    HW1 2832   2.938   9.661   3.406  0.6842  0.2869  0.6448
33313SOL    HW2 2833   2.833   9.594   3.492 -0.5032  2.0206  0.5931
33314SOL     OW 2834   6.623   2.587   5.395 -0.4162  0.8636  0.0358
33314SOL    HW1 2835   6.650   2.665   5.444 -1.6892  3.2293 -2.6981
33314SOL    HW2 2836   6.539   2.563   5.433 -0.1025  0.9168  0.7795
33315SOL     OW 2837   8.842   6.207   5.158 -0.0397 -0.0296 -0.2084
33315SOL    HW1 2838   8.865   6.300   5.152 -0.8244  0.3074  1.2975
33315SOL    HW2 2839   8.749   6.205   5.134  0.4699 -0.7656 -2.2863
33316SOL     OW 2840   3.734   8.975   6.434  0.6664 -0.2260  0.1225
33316SOL    HW1 2841   3.699   9.058   6.402  1.5566  0.4482  0.8445
33316SOL    HW2 2842   3.827   8.980   6.416  0.7019 -1.1332  0.0422
33317SOL     OW 2843   7.745   6.947   5.981  0.2754  0.2437 -0.3292
33317SOL    HW1 2844   7.819   6.961   5.922  0.7068 -1.3814 -0.2101
33317SOL    HW2 2845   7.721   6.856   5.969 -1.3940  0.6058  0.0336
33318SOL     OW 2846   8.055  10.262   7.924 -0.1505 -0.3839  0.0844
33318SOL    HW1 2847   7.984  10.256   7.989 -0.5672 -2.3113 -0.4937
33318SOL    HW2 2848   8.030  10.336   7.869 -1.4007 -0.6427  0.2731
33319SOL     OW 2849   3.215   5.952   0.495  0.0481  0.0453  0.2065
33319SOL    HW1 2850   3.242   5.862   0.479 -0.1700  0.1403 -0.7588
33319SOL    HW2 2851   3.147   5.968   0.430  0.0050  0.8721  0.4472
33320SOL     OW 2852   9.884   4.893   3.614  0.4154 -0.2305 -0.0615
33320SOL    HW1 2853   9.882   4.960   3.682  0.8271  0.0135 -0.2878
33320SOL    HW2 2854   9.908   4.940   3.534  0.4248 -0.5989 -0.2781
33321SOL     OW 2855   8.381   3.059  10.446  0.1904 -0.0643  0.2179
33321SOL    HW1 2856   8.396   3.108  10.527  2.3033 -1.5400  0.8174
33321SOL    HW2 2857   8.441   3.097  10.383  0.4824 -0.6395  0.1410
33322SOL     OW 2858   6.082   4.172   0.978 -0.2312  0.0952  0.5392
33322SOL    HW1 2859   6.079   4.218   0.894 -2.4669 -0.4962  0.2209
33322SOL    HW2 2860   6.116   4.236   1.039  0.4622  0.8752 -0.6221
33323SOL     OW 2861   6.204   0.073  10.120  0.3629  0.6863  0.5255
33323SOL    HW1 2862   6.132   0.082  10.184 -0.0646  1.6018 -0.0612
33323SOL    HW2 2863   6.220   0.162  10.089 -0.2932  0.1411 -1.5635
33324SOL     OW 2864   1.267   4.196   2.796  0.3846  0.0332 -0.3314
33324SOL    HW1 2865   1.342   4.137   2.798  0.2230 -0.1864  2.1373
33324SOL    HW2 2866   1.194   4.143   2.827 -0.1420  1.0488  0.2018
33325SOL     OW 2867   4.981   7.590   5.830 -0.0388  0.3548  0.0572
33325SOL    HW1 2868   4.963   7.560   5.741 -1.0331 -2.3961  1.0686
33325SOL    HW2 2869   5.070   7.560   5.848  0.4665  1.6095 -0.2279
33326SOL     OW 2870   4.691   1.373   4.946  0.4007  0.5569  0.2736
33326SOL    HW1 2871   4.752   1.363   4.873  0.2644 -0.3795  0.2667
33326SOL    HW2 2872   4.742   1.415   5.015  0.7257  0.8246 -0.1260
33327SOL     OW 2873   4.435   8.285   9.439  0.6212  0.0365  0.2815
33327SOL    HW1 2874   4.341   8.280   9.456  0.1423 -1.6405 -2.3578
33327SOL    HW2 2875   4.442   8.320   9.350  2.6524  2.2718  1.1933
33328SOL     OW 2876   7.107   2.358   8.902  0.1032  0.7223 -0.1163
33328SOL    HW1 2877   7.047   2.285   8.916 -0.8488  1.2324 -1.4118
33328SOL    HW2 2878   7.152   2.368   8.987 -1.1369 -0.1017  0.6670
33329SOL     OW 2879   9.363   4.435   0.374  0.0589  0.3391 -0.0386
33329SOL    HW1 2880   9.291   4.375   0.390  1.0138 -0.6704  0.6618
33329SOL    HW2 2881   9.442   4.381   0.382  1.0134  1.8271  1.5448
33330SOL     OW 2882   8.076   0.485   9.417 -0.6994  0.2395 -0.0281
33330SOL    HW1 2883   8.138   0.415   9.397 -0.1113  0.9112 -0.5880
33330SOL    HW2 2884   7.999   0.465   9.363  0.6300  1.6842 -2.6288
33331SOL     OW 2885   1.120   0.922   0.657  0.1980  0.0677  0.0626
33331SOL    HW1 2886   1.056   0.967   0.602  0.8605 -0.7037 -1.4010
33331SOL    HW2 2887   1.132   0.979   0.733 -1.8267  0.4662  0.1205
33332SOL     OW 2888   3.258   8.482   6.310  0.4500  0.0080  0.0835
33332SOL    HW1 2889   3.219   8.421   6.248 -1.3441 -0.5073  1.6143
33332SOL    HW2 2890   3.352   8.474   6.295  0.1067  0.2351 -2.7973
33333SOL     OW 2891   3.067   4.880   6.139  0.0694  0.2888 -0.2114
33333SOL    HW1 2892   3.085   4.964   6.095 -0.7934  1.4775  1.6105
33333SOL    HW2 2893   3.147   4.861   6.188  0.6895 -0.5812 -1.4863
33334SOL     OW 2894   4.658  10.105   9.681 -0.0811  0.6495 -0.5044
33334SOL    HW1 2895   4.676  10.119   9.588  0.0372 -0.8514 -0.7393
33334SOL    HW2 2896   4.720  10.038   9.708  0.2942  1.4849  0.8323
33335SOL     OW 2897   9.726   1.387  10.205  0.0133 -0.1610  0.4836
33335SOL    HW1 2898   9.704   1.442  10.281 -3.2315  0.2853 -0.6370
33335SOL    HW2 2899   9.738   1.299  10.242 -0.7498  0.1880  1.6362
33336SOL     OW 2900   3.145   2.920   9.610  0.3451 -0.4854  0.4420
33336SOL    HW1 2901   3.218   2.859   9.599  0.5879  0.1848 -2.2433
33336SOL    HW2 2902   3.157   2.985   9.542 -1.6642  0.8061  1.2274
33337SOL     OW 2903   0.056   9.047   5.096  0.1186 -0.1716  0.3965
33337SOL    HW1 2904   0.126   9.030   5.158 -0.7077  0.8608  1.6585
33337SOL    HW2 2905   0.006   9.119   5.135 -1.2138 -0.3935 -0.8180
33338SOL     OW 2906   8.772   2.493   9.769  0.3033 -0.1749  0.6070
33338SOL    HW1 2907   8.698   2.436   9.792 -0.3853 -0.3255 -1.7186
33338SOL    HW2 2908   8.847   2.452   9.812 -0.4905 -1.7536  0.5924
33339SOL     OW 2909  10.329   5.405   6.394  0.2600 -0.0349 -0.3482
33339SOL    HW1 2910  10.305   5.484   6.347 -0.7267  1.3764  2.2865
33339SOL    HW2 2911  10.424   5.399   6.384  0.3683  1.5772 -0.4869
33340SOL     OW 2912   2.248   9.657   5.565 -0.1686  0.7014  0.6608
33340SOL    HW1 2913   2.273   9.663   5.658 -1.7019  1.5482  1.0707
33340SOL    HW2 2914   2.160   9.696   5.562 -0.0426  0.9337 -1.2037
33341SOL     OW 2915   2.380   0.673   0.330  0.4350 -0.1547 -0.4629
33341SOL    HW1 2916   2.428   0.728   0.268 -1.8921  0.7798 -1.5952
33341SOL    HW2 2917   2.359   0.594   0.280 -0.7569  0.2593 -0.6611
33342SOL     OW 2918  10.339   7.955   7.064  0.0979 -0.2360 -0.5631
33342SOL    HW1 2919  10.339   7.860   7.074 -0.4464 -0.2811 -0.9825
33342SOL    HW2 2920  10.325   7.988   7.153  1.6993 -0.5055 -0.1669
33343SOL     OW 2921   7.077   4.053   4.232 -0.0911  0.1749  0.1456
33343SOL    HW1 2922   7.021   4.111   4.181  0.5981  1.1461  0.4607
33343SOL    HW2 2923   7.129   4.112   4.287 -0.6021 -0.7998  1.7679
33344SOL     OW 2924   0.478   2.077   5.431  0.1599  0.1927 -0.1985
33344SOL    HW1 2925   0.557   2.031   5.458  0.3424 -1.1761 -2.7194
33344SOL    HW2 2926   0.407   2.027   5.471  0.4008 -1.9882 -2.2357
33345SOL     OW 2927   7.839   4.172   5.727 -0.2764 -0.1360 -0.0112
33345SOL    HW1 2928   7.765   4.231   5.739 -0.6073 -0.7339  1.0749
33345SOL    HW2 2929   7.884   4.173   5.812  0.1302 -0.8769 -0.2082
33346SOL     OW 2930  10.320   5.802   2.878  0.1625 -0.6808  0.3858
33346SOL    HW1 2931  10.365   5.839   2.954 -0.0249  0.5094 -0.0584
33346SOL    HW2 2932  10.390   5.767   2.823  0.8336  2.6720 -1.1337
33347SOL     OW 2933   8.113   8.119   1.388  0.2125  0.2856 -0.2150
33347SOL    HW1 2934   8.154   8.088   1.469 -0.5515 -0.8353 -0.2434
33347SOL    HW2 2935   8.172   8.090   1.319  1.3796  2.0779 -0.0574
33348SOL     OW 2936   8.114   3.891   3.800  0.1350  0.7247 -0.1268
33348SOL    HW1 2937   8.074   3.972   3.769 -0.4612  1.1956  1.7630
33348SOL    HW2 2938   8.051   3.823   3.776 -0.5848  1.1485  0.5100
33349SOL     OW 2939   8.418   7.374   0.509 -0.0324 -0.1217 -0.8093
33349SOL    HW1 2940   8.340   7.418   0.475 -0.4134 -0.9104 -0.9802
33349SOL    HW2 2941   8.450   7.432   0.578 -0.0828  0.7928 -1.5330
33350SOL     OW 2942   5.078   2.692   9.200 -0.7907 -0.1727 -0.5316
33350SOL    HW1 2943   5.030   2.611   9.185 -2.9313  1.0138 -0.3879
33350SOL    HW2 2944   5.134   2.702   9.123 -0.3743 -1.8360 -0.4707
33351SOL     OW 2945   7.784   6.984   2.790  0.0691  0.1811 -0.1331
33351SOL    HW1 2946   7.878   7.002   2.785  0.4151 -1.5349 -0.6531
33351SOL    HW2 2947   7.770   6.914   2.726 -0.9518 -1.8953  2.1761
33352SOL     OW 2948   2.359   4.812   1.771  0.1398 -0.4449  0.0440
33352SOL    HW1 2949   2.333   4.723   1.746 -0.1673 -0.2718 -0.2631
33352SOL    HW2 2950   2.300   4.834   1.844 -1.2610  0.3070 -1.2707
33353SOL     OW 2951   9.837   4.665   2.929 -0.7702  0.2754  0.1537
33353SOL    HW1 2952   9.822   4.570   2.921 -1.7335  0.4105  0.2490
33353SOL    HW2 2953   9.803   4.686   3.016  0.1978  0.5739  0.4661
33354SOL     OW 2954   1.588   9.443   5.835 -0.1906 -0.1097  0.6140
33354SOL    HW1 2955   1.586   9.347   5.832 -1.0721 -0.0996  0.7582
33354SOL    HW2 2956   1.607   9.464   5.926 -1.5365 -0.1476  0.9281
33355SOL     OW 2957   3.642   0.933  10.012 -0.2721 -0.0224 -0.0549
33355SOL    HW1 2958   3.621   1.002  10.074  1.4205 -0.0488  0.5984
33355SOL    HW2 2959   3.701   0.974   9.949 -3.1078  0.4431 -2.6788
33356SOL     OW 2960   9.658   7.758   5.020 -0.3964 -0.4938 -0.3960
33356SOL    HW1 2961   9.592   7.802   4.966 -0.3242  0.7319  0.4662
33356SOL    HW2 2962   9.620   7.672   5.039  0.5153 -1.9731 -4.2194
33357SOL     OW 2963   4.378   6.143   1.335 -0.0739 -0.1196  0.2714
33357SOL    HW1 2964   4.463   6.187   1.323 -0.6115  0.8348 -0.1529
33357SOL    HW2 2965   4.397   6.050   1.323  0.5114  0.2591 -2.1640
33358SOL     OW 2966   6.534   4.304   1.241 -0.6485  0.1187 -0.3040
33358SOL    HW1 2967   6.542   4.216   1.277 -1.9154 -0.3413 -1.0875
33358SOL    HW2 2968   6.586   4.359   1.300 -2.4800 -0.6246  2.1682
33359SOL     OW 2969   9.813   8.464   9.816  0.0745  0.5606  0.1921
33359SOL    HW1 2970   9.876   8.497   9.752 -1.3890  1.3275 -0.9096
33359SOL    HW2 2971   9.795   8.374   9.788 -0.0221  0.6532 -0.0443
33360SOL     OW 2972   5.403   0.515   4.911  0.1641 -0.1172 -0.2248
33360SOL    HW1 2973   5.402   0.449   4.841 -1.0266 -0.4604  0.0877
33360SOL    HW2 2974   5.423   0.597   4.866  2.4313 -0.7549 -0.5175
33361SOL     OW 2975   8.490   7.758   2.319  0.2200  0.0895  0.1132
33361SOL    HW1 2976   8.531   7.742   2.404  0.3518 -1.4898 -0.2205
33361SOL    HW2 2977   8.428   7.686   2.309 -0.0920  0.4945 -0.9549
33362SOL     OW 2978   9.582   1.328   4.797  0.1304  0.0960 -0.0696
33362SOL    HW1 2979   9.522   1.346   4.869 -0.0233 -0.0614 -0.1566
33362SOL    HW2 2980   9.600   1.234   4.803 -1.8568 -0.4701 -1.7106
33363SOL     OW 2981   4.675   9.300   7.895  0.5236  0.0175  0.6111
33363SOL    HW1 2982   4.767   9.301   7.922  0.6320  1.4446  0.2648
33363SOL    HW2 2983   4.674   9.248   7.814  1.0029 -0.1174  0.6901
33364SOL     OW 2984   7.702   8.925   9.735 -0.5658 -0.1392 -0.5591
33364SOL    HW1 2985   7.755   8.873   9.676 -1.4046  1.3750 -2.8107
33364SOL    HW2 2986   7.667   8.863   9.799  1.1206 -1.6942 -1.0900
33365SOL     OW 2987   3.466  10.720   9.208 -0.2728 -0.8114  0.3732
33365SOL    HW1 2988   3.509  10.786   9.263 -0.2375  0.4541 -1.0940
33365SOL    HW2 2989   3.379  10.757   9.192 -0.2278 -1.0829 -0.5261
33366SOL     OW 2990   4.500  10.342   9.461  0.0702 -0.2355  0.1648
33366SOL    HW1 2991   4.568  10.284   9.494 -0.5949 -0.4220  1.2689
33366SOL    HW2 2992   4.449  10.288   9.401  0.9589 -0.0514 -0.7868
33367SOL     OW 2993   5.457   1.101   2.390 -0.0140 -0.3588 -0.3600
33367SOL    HW1 2994   5.377   1.069   2.348 -0.6751 -1.0671  1.3488
33367SOL    HW2 2995   5.429   1.123   2.480  1.7499 -0.8303  0.3351
33368SOL     OW 2996   5.438   8.854   6.488  0.3086  0.5130 -0.1359
33368SOL    HW1 2997   5.459   8.820   6.575  0.5822  2.5422  0.6420
33368SOL    HW2 2998   5.523   8.875   6.449  0.1762 -0.1911 -0.8543
33369SOL     OW 2999   3.065   2.993   6.686  0.5986  0.2046 -0.5141
33369SOL    HW1 3000   3.055   3.088   6.672 -3.2808 -0.0953 -0.8554
33369SOL    HW2 3001   3.032   2.979   6.774  1.9348 -0.7983 -0.1481
33370SOL     OW 3002   2.743   6.683  10.601  0.1632  0.2052  0.2717
33370SOL    HW1 3003   2.785   6.654  10.682 -0.0355  0.4428  0.4628
33370SOL    HW2 3004   2.816   6.719  10.548  0.4243 -0.7194 -0.0152
33371SOL     OW 3005   9.867  10.693  10.296 -0.1235 -0.0036  0.4018
33371SOL    HW1 3006   9.861  10.639  10.375 -0.6585  1.6493  1.5421
33371SOL    HW2 3007   9.928  10.645  10.239  0.7903 -0.9245  2.0722
33372SOL     OW 3008   4.935   4.898   4.030 -1.1498 -0.1014 -0.3825
33372SOL    HW1 3009   4.891   4.926   3.949 -1.4543  0.7413  0.0564
33372SOL    HW2 3010   4.866   4.902   4.097 -0.2004  2.4829  0.5856
33373SOL     OW 3011   3.502   9.670   0.724 -0.2295 -0.5218 -0.1734
33373SOL    HW1 3012   3.487   9.757   0.687 -0.1780 -1.3306 -2.2010
33373SOL    HW2 3013   3.440   9.613   0.678 -0.8206 -1.4782  1.6694
33374SOL     OW 3014   4.113   0.746   5.929 -0.7047 -0.3050  0.4235
33374SOL    HW1 3015   4.164   0.808   5.981 -0.1607  0.0229 -0.4793
33374SOL    HW2 3016   4.026   0.786   5.922 -0.3284  0.4304 -0.2473
33375SOL     OW 3017   6.628   7.552   5.251 -0.4605  0.8102  0.1845
33375SOL    HW1 3018   6.589   7.614   5.312  2.7190  1.7169  1.4952
33375SOL    HW2 3019   6.649   7.475   5.305 -0.1897  0.4727 -0.3868
33376SOL     OW 3020   1.519   6.394   5.390 -0.0428 -0.0465 -0.5158
33376SOL    HW1 3021   1.547   6.393   5.481 -1.9052 -0.8855  0.0926
33376SOL    HW2 3022   1.523   6.486   5.364  4.3148 -0.1511 -0.9334
33377SOL     OW 3023   1.565   1.758   0.051 -0.4190  0.7654  0.0963
33377SOL    HW1 3024   1.519   1.801   0.123  0.8347 -0.5599  1.7774
33377SOL    HW2 3025   1.616   1.828   0.010  1.3370  1.0596  2.5633
33378SOL     OW 3026  10.253   4.650   2.902  0.3410  0.0279 -0.1732
33378SOL    HW1 3027  10.202   4.648   2.983  0.3739 -0.9462 -0.1673
33378SOL    HW2 3028  10.187   4.655   2.832  0.3022  0.5130 -0.1058
33379SOL     OW 3029   1.565   2.230   3.905 -0.0313 -0.6743 -0.1407
33379SOL    HW1 3030   1.549   2.298   3.970 -2.2785 -0.4264 -0.8348
33379SOL    HW2 3031   1.547   2.148   3.951 -1.5817 -0.5011 -0.3695
33380SOL     OW 3032  10.340   3.532   0.647  0.2315 -0.0300 -0.1766
33380SOL    HW1 3033  10.402   3.593   0.606  0.3113 -0.2705 -0.4180
33380SOL    HW2 3034  10.385   3.447   0.645 -0.0848 -0.1955 -0.3062
33381SOL     OW 3035   0.124   3.001   0.167  0.3142 -0.4457 -0.7719
33381SOL    HW1 3036   0.159   2.914   0.184 -0.4701 -0.6640 -0.1824
33381SOL    HW2 3037   0.066   3.019   0.242  0.7163  0.7225 -0.7104
33382SOL     OW 3038   0.535   3.809   3.864 -0.1272  0.9711 -0.1332
33382SOL    HW1 3039   0.568   3.741   3.805  0.7383 -0.2230  1.6701
33382SOL    HW2 3040   0.582   3.888   3.838 -0.9302  0.8794 -2.0591
33383SOL     OW 3041   1.420   2.582   7.813 -0.1766 -0.3072  0.5309
33383SOL    HW1 3042   1.433   2.675   7.833 -0.6717 -0.1603  0.1958
33383SOL    HW2 3043   1.474   2.566   7.736 -0.7170 -0.0893  0.0976
33384SOL     OW 3044   5.876   4.294   5.780 -0.1328 -0.2479 -0.0458
33384SOL    HW1 3045   5.894   4.360   5.714 -0.3880 -0.3839 -0.2533
33384SOL    HW2 3046   5.934   4.221   5.758 -0.0973 -0.2277 -0.0190
33385SOL     OW 3047   7.358   6.927  10.386 -0.2085 -0.5367  0.1761
33385SOL    HW1 3048   7.328   6.989  10.452 -0.1728 -2.2158  1.8569
33385SOL    HW2 3049   7.279   6.903  10.338 -0.4472 -0.2092  0.4038
33386SOL     OW 3050   5.626   9.119   9.935 -0.2836  0.0338  0.4182
33386SOL    HW1 3051   5.659   9.161   9.855  0.5314  0.7721  1.1189
33386SOL    HW2 3052   5.554   9.065   9.905 -0.3360  0.7061 -0.7535
33387SOL     OW 3053   9.549   2.772   0.254  0.4397  0.8331  0.5321
33387SOL    HW1 3054   9.462   2.747   0.286  0.7136  0.1844  0.7799
33387SOL    HW2 3055   9.577   2.841   0.314  0.8967 -0.2834  1.6512
33388SOL     OW 3056   8.683   4.846   3.164  0.5792  0.5975 -0.1572
33388SOL    HW1 3057   8.711   4.777   3.104 -0.9118  0.3421 -0.6074
33388SOL    HW2 3058   8.750   4.914   3.155  1.6390 -0.4349 -0.3097
33389SOL     OW 3059   4.089   9.072   9.678 -0.2242  0.0486 -0.3479
33389SOL    HW1 3060   4.022   9.058   9.745  0.3122 -1.9498 -0.1643
33389SOL    HW2 3061   4.123   8.984   9.660  1.3306  0.8453 -1.4875
33390SOL     OW 3062   9.857   5.664   4.115 -0.0333 -0.2770  0.4894
33390SOL    HW1 3063   9.849   5.570   4.100 -0.3561 -0.2692  0.5957
33390SOL    HW2 3064   9.767   5.695   4.117  0.0883  0.3137 -1.3298
33391SOL     OW 3065   7.257  10.658   4.936  0.1611  0.4898 -0.1002
33391SOL    HW1 3066   7.188  10.689   4.996  1.5631  0.5743  1.5351
33391SOL    HW2 3067   7.242  10.564   4.929 -0.1303  0.5078  0.2228
33392SOL     OW 3068   2.979   9.081   5.721  0.0354  0.5294  0.4211
33392SOL    HW1 3069   2.967   9.009   5.659  1.4064  1.1531 -0.5901
33392SOL    HW2 3070   3.032   9.044   5.791 -0.1804  0.2632  0.4452
33393SOL     OW 3071   4.478  10.754   5.095  0.1983  0.1217 -0.4805
33393SOL    HW1 3072   4.458  10.823   5.032  0.6373  0.8801  0.1876
33393SOL    HW2 3073   4.395  10.740   5.142  0.1310  0.2433 -0.5635
33394SOL     OW 3074   8.638   8.134   8.672  0.0559 -0.6358 -0.3674
33394SOL    HW1 3075   8.572   8.165   8.734 -2.3911 -2.0883 -2.0565
33394SOL    HW2 3076   8.614   8.174   8.589  2.1126 -0.2138 -0.8037
33395SOL     OW 3077   0.901   3.923  10.762 -0.2091 -0.0797 -0.8265
33395SOL    HW1 3078   0.840   3.986  10.799 -0.1596 -0.7101  0.3917
33395SOL    HW2 3079   0.851   3.876  10.696 -1.0424 -0.5391  0.1063
33396SOL     OW 3080   4.939   0.257   3.618 -0.7184 -0.2703  0.0548
33396SOL    HW1 3081   4.944   0.338   3.567 -1.7054  0.1218  0.5616
33396SOL    HW2 3082   4.866   0.209   3.578 -0.7674 -0.4697  0.3872
33397SOL     OW 3083   9.438  10.777   5.526 -0.1116  0.2147  0.7346
33397SOL    HW1 3084   9.462  10.744   5.613  0.1349 -0.2293  0.5000
33397SOL    HW2 3085   9.343  10.790   5.531 -0.1842 -0.3367  0.8990
33398SOL     OW 3086   1.377   1.570   3.652 -0.3192  0.0699 -0.0790
33398SOL    HW1 3087   1.285   1.591   3.670  0.5774  2.7239  2.1245
33398SOL    HW2 3088   1.386   1.478   3.675 -2.2183  0.0116  0.6067
33399SOL     OW 3089   5.292   0.169   6.837  1.2100  0.4969 -0.4096
33399SOL    HW1 3090   5.305   0.159   6.931  0.5056  1.6593 -0.1654
33399SOL    HW2 3091   5.269   0.081   6.807 -1.9497  0.6273  1.1262
33400SOL     OW 3092   2.244   9.380   1.826 -0.2859  0.2924 -0.1394
33400SOL    HW1 3093   2.157   9.369   1.789 -0.1808 -0.8289 -0.0917
33400SOL    HW2 3094   2.271   9.292   1.850  0.8935  0.6178 -0.2118
33401SOL     OW 3095   1.427   6.511   3.149  0.4318 -0.0867 -0.4190
33401SOL    HW1 3096   1.486   6.586   3.139  0.5307  0.1510  1.5927
33401SOL    HW2 3097   1.483   6.439   3.177  0.0435 -0.3777 -0.3760
33402SOL     OW 3098   8.503   7.868   8.224  0.1018 -0.4578  0.3899
33402SOL    HW1 3099   8.555   7.823   8.158  0.1466  1.0074 -0.6287
33402SOL    HW2 3100   8.485   7.801   8.290 -0.8203 -2.2805 -1.5702
33403SOL     OW 3101   7.510   3.138  10.204  0.1068 -0.0353 -0.5772
33403SOL    HW1 3102   7.505   3.104  10.114 -0.3298 -1.0195 -0.1939
33403SOL    HW2 3103   7.493   3.232  10.195  1.9444  0.2391 -1.7405
33404SOL     OW 3104  10.063   0.090   7.672 -0.5295  0.0131 -0.5668
33404SOL    HW1 3105   9.992   0.052   7.723 -1.4516 -1.0959 -2.5532
33404SOL    HW2 3106  10.056   0.048   7.586  0.7026  2.0657 -1.7523
33405SOL     OW 3107   2.176   3.203   6.415 -0.3532 -0.5428  0.4172
33405SOL    HW1 3108   2.108   3.254   6.370  0.9369  2.3806  1.5357
33405SOL    HW2 3109   2.180   3.121   6.366 -1.3478  1.1029 -2.7118
33406SOL     OW 3110   7.003   0.681   5.248 -0.0658 -0.2318 -0.1011
33406SOL    HW1 3111   6.963   0.673   5.161 -0.2816  2.1424 -0.2869
33406SOL    HW2 3112   6.933   0.657   5.308 -1.6574  2.8856 -0.4646
33407SOL     OW 3113   5.914   9.132   4.930 -0.3318 -0.5614 -0.1519
33407SOL    HW1 3114   5.863   9.187   4.991  0.0213  0.5949 -0.8664
33407SOL    HW2 3115   5.853   9.062   4.905 -1.2852  0.2991 -0.3179
33408SOL     OW 3116   4.739   3.865   7.771 -0.4405  1.1651 -0.3917
33408SOL    HW1 3117   4.668   3.868   7.706  0.4072 -0.6346 -1.4519
33408SOL    HW2 3118   4.733   3.778   7.810  0.1907  1.5836  0.6912
33409SOL     OW 3119   4.368   1.590   4.750 -0.1891  0.4021  0.3731
33409SOL    HW1 3120   4.343   1.668   4.701  1.2019  0.3152 -0.5200
33409SOL    HW2 3121   4.284   1.549   4.774 -0.9246  0.7329 -1.4557
33410SOL     OW 3122   3.620   6.890   0.345 -0.1493 -0.1608  0.4099
33410SOL    HW1 3123   3.649   6.971   0.387  0.5611  0.5145 -1.2876
33410SOL    HW2 3124   3.543   6.863   0.395 -0.3788  1.5344  1.0385
33411SOL     OW 3125   4.365  10.509   0.287  0.5977  0.5456  0.2392
33411SOL    HW1 3126   4.282  10.488   0.245  0.4915 -0.1270  0.7740
33411SOL    HW2 3127   4.417  10.550   0.218  0.1322  0.2025 -0.3227
33412SOL     OW 3128   9.375  10.029   6.555  0.3559 -0.1113 -0.6864
33412SOL    HW1 3129   9.341  10.115   6.579  1.5767  0.3592 -0.5318
33412SOL    HW2 3130   9.463  10.047   6.520  1.0553 -1.3816  0.3282
33413SOL     OW 3131   7.212   2.519   0.095  0.0742 -0.0566  0.5395
33413SOL    HW1 3132   7.159   2.500   0.017  0.9726 -1.5475  0.2563
33413SOL    HW2 3133   7.147   2.528   0.165 -0.6096 -1.3404  0.1074
33414SOL     OW 3134   3.720   7.925   4.134 -0.7527 -0.0694 -0.1978
33414SOL    HW1 3135   3.744   7.920   4.226 -0.9427 -1.7435 -0.2133
33414SOL    HW2 3136   3.763   7.850   4.093  0.1632  1.1902 -1.6933
33415SOL     OW 3137   7.426   1.966  10.728  0.4016  0.7057  0.2789
33415SOL    HW1 3138   7.435   2.061  10.723  2.1166  0.5807  0.4200
33415SOL    HW2 3139   7.508   1.932  10.693  0.1721 -0.7121  1.0285
33416SOL     OW 3140   0.805   6.133   8.488  0.5200  0.1798 -0.2009
33416SOL    HW1 3141   0.715   6.102   8.481  0.2836  1.0963 -1.6091
33416SOL    HW2 3142   0.853   6.060   8.526 -0.9757  0.0168  1.5180
33417SOL     OW 3143   8.707   2.233   8.872 -0.0993 -0.5044 -0.1630
33417SOL    HW1 3144   8.762   2.218   8.795  1.0524  0.8439  0.3688
33417SOL    HW2 3145   8.628   2.273   8.837 -0.6461 -2.1133 -0.8922
33418SOL     OW 3146   7.960   7.456   5.344 -0.0765 -0.0538 -0.1438
33418SOL    HW1 3147   8.029   7.398   5.312  0.8624  0.9823 -0.0606
33418SOL    HW2 3148   7.890   7.397   5.373  0.4445 -1.0945 -0.9641
33419SOL     OW 3149   7.882   7.090   0.191 -0.2974  0.0819  0.0949
33419SOL    HW1 3150   7.915   7.119   0.276  0.1915  0.4033 -0.1989
33419SOL    HW2 3151   7.830   7.012   0.211 -1.2561  0.8946  0.8441
33420SOL     OW 3152   1.969  10.767   7.701 -0.0138  0.1866  0.0682
33420SOL    HW1 3153   1.919  10.848   7.708  0.2558  0.2560  1.2680
33420SOL    HW2 3154   1.977  10.752   7.606 -1.5279  0.6375 -0.1549
33421SOL     OW 3155   4.281   2.796   1.999 -0.3873 -0.3743  0.0052
33421SOL    HW1 3156   4.262   2.755   1.915 -2.4668  2.6925 -1.1999
33421SOL    HW2 3157   4.376   2.809   1.998 -0.4798  0.6553 -2.4872
33422SOL     OW 3158   2.510   7.696  10.466  0.0699  0.3194  0.1734
33422SOL    HW1 3159   2.576   7.743  10.416  0.5975  0.7464  1.2529
33422SOL    HW2 3160   2.427   7.717  10.423  0.1489  3.0251  1.1556
33423SOL     OW 3161   3.427   2.372  10.647 -0.1277  0.2721 -0.2657
33423SOL    HW1 3162   3.413   2.321  10.726 -1.3035  0.9883  0.0090
33423SOL    HW2 3163   3.512   2.415  10.660  0.1453 -0.3789  0.1560
33424SOL     OW 3164   0.020   7.154   4.615  0.0300  0.0384 -0.1972
33424SOL    HW1 3165   0.083   7.192   4.676 -0.3100 -1.1512  0.9451
33424SOL    HW2 3166   0.071   7.090   4.565  0.1570  0.5212 -0.6942
33425SOL     OW 3167   8.223   9.600   4.257 -0.2541  0.4182  0.5783
33425SOL    HW1 3168   8.309   9.640   4.264  0.2801 -0.3861 -0.9422
33425SOL    HW2 3169   8.228   9.522   4.312 -0.1785  0.6122  0.8499
33426SOL     OW 3170   4.763   1.087   6.601 -0.4673 -0.5427  0.1717
33426SOL    HW1 3171   4.672   1.082   6.629 -1.2074  1.8550 -1.4617
33426SOL    HW2 3172   4.811   1.112   6.680 -1.7978  1.6059  0.3877
33427SOL     OW 3173   6.443   0.051   9.984 -0.3297  0.7595  0.0994
33427SOL    HW1 3174   6.349   0.033   9.985  0.1926 -2.7261  1.9825
33427SOL    HW2 3175   6.465   0.057   9.891 -2.1863  0.3634 -0.4111
33428SOL     OW 3176   1.332   6.404   6.050  0.0400 -0.1798 -0.3864
33428SOL    HW1 3177   1.427   6.402   6.059  0.0592  0.1439 -0.4828
33428SOL    HW2 3178   1.299   6.363   6.129  0.2735 -1.0797 -0.7463
33429SOL     OW 3179   1.502   5.593   1.792 -0.1167 -0.5102  0.0102
33429SOL    HW1 3180   1.552   5.674   1.795 -0.0910 -0.4159 -1.7787
33429SOL    HW2 3181   1.415   5.616   1.823  0.6762 -0.5024  2.3974
33430SOL     OW 3182   2.722   8.089   8.873 -0.7607  0.1671  0.3026
33430SOL    HW1 3183   2.659   8.024   8.843 -1.3604  0.7992  0.1771
33430SOL    HW2 3184   2.740   8.143   8.795  1.3418 -1.1021 -0.1741
33431SOL     OW 3185   1.973   5.438   0.963 -0.2599 -0.3375  0.3655
33431SOL    HW1 3186   2.030   5.509   0.992  0.9528 -1.0068 -0.3251
33431SOL    HW2 3187   1.897   5.483   0.925 -0.5512  0.5541  1.9191
33432SOL     OW 3188   8.318   7.778   7.522  0.3396  0.9568  0.0859
33432SOL    HW1 3189   8.326   7.691   7.483  3.0557  0.5775  1.2409
33432SOL    HW2 3190   8.318   7.762   7.617  2.5417  2.2170  0.3771
33433SOL     OW 3191   1.321   1.623   5.372  0.2092  0.1162 -0.5294
33433SOL    HW1 3192   1.411   1.614   5.338  1.4283 -0.1298  2.4472
33433SOL    HW2 3193   1.300   1.537   5.408 -0.9587  0.3643 -0.5934
33434SOL     OW 3194   2.879   6.910   8.200  0.1083  0.4368 -0.2825
33434SOL    HW1 3195   2.872   6.885   8.108 -0.1605  1.3708 -0.5252
33434SOL    HW2 3196   2.819   6.850   8.245  0.6812 -0.4106 -0.6324
33435SOL     OW 3197   5.684   6.061   5.736 -0.5949 -0.3135  0.6885
33435SOL    HW1 3198   5.643   6.132   5.785 -1.6998 -0.1329 -0.4275
33435SOL    HW2 3199   5.778   6.076   5.745 -0.7965  0.5015  1.5765
33436SOL     OW 3200   0.757   4.568   2.730  0.7873 -0.2209 -0.2153
33436SOL    HW1 3201   0.801   4.499   2.680 -1.6507 -1.7543 -0.3733
33436SOL    HW2 3202   0.749   4.532   2.819  0.8619  0.5388  0.1126
33437SOL     OW 3203   9.310   6.434   3.925 -0.5104  0.1878  0.2058
33437SOL    HW1 3204   9.339   6.514   3.968  0.9967  1.2795 -2.6013
33437SOL    HW2 3205   9.228   6.411   3.969  0.8209  1.2132  3.4540
33438SOL     OW 3206   9.494   0.253   4.318  0.6334  0.2872 -0.1917
33438SOL    HW1 3207   9.523   0.266   4.228  1.0655 -0.6761 -0.1990
33438SOL    HW2 3208   9.460   0.338   4.345  2.7845  1.2551 -0.4174
33439SOL     OW 3209   5.352   9.241   5.450  0.4308 -0.2608  0.0412
33439SOL    HW1 3210   5.295   9.298   5.398  0.1932  0.8058  1.3949
33439SOL    HW2 3211   5.347   9.156   5.407 -1.4803  0.0251 -0.4038
33440SOL     OW 3212   2.440   0.892  10.038  0.6203 -0.4513 -0.0309
33440SOL    HW1 3213   2.523   0.931  10.067  0.8403 -1.2686  0.4696
33440SOL    HW2 3214   2.467   0.823   9.978  0.2136  0.4915 -1.3457
33441SOL     OW 3215   7.539   9.424  10.236 -0.1249 -0.1527  0.4997
33441SOL    HW1 3216   7.539   9.410  10.142 -1.9231 -0.5130  0.5194
33441SOL    HW2 3217   7.562   9.516  10.247 -0.3583  0.0056 -0.3173
33442SOL     OW 3218   4.411   3.832   1.737 -0.4824  0.3580 -0.1962
33442SOL    HW1 3219   4.464   3.784   1.800  0.2398  0.8498 -0.4101
33442SOL    HW2 3220   4.363   3.765   1.688  1.7774 -0.3086 -1.6483
33443SOL     OW 3221   1.449   6.507   7.222 -0.2969 -0.1540  0.2299
33443SOL    HW1 3222   1.514   6.442   7.249  0.5573  0.2620 -0.7399
33443SOL    HW2 3223   1.421   6.478   7.135 -0.1251  0.6060 -0.0842
33444SOL     OW 3224   6.064   4.671   9.226 -0.5677  0.6811 -0.2599
33444SOL    HW1 3225   6.159   4.674   9.239 -0.5742  0.8370 -0.2407
33444SOL    HW2 3226   6.028   4.669   9.315 -0.5032 -3.5897 -0.1381
33445SOL     OW 3227   2.197   0.754   5.164 -0.2146  0.0866 -0.5522
33445SOL    HW1 3228   2.237   0.736   5.248 -0.0366 -0.4902 -0.7613
33445SOL    HW2 3229   2.269   0.750   5.101 -0.5061 -0.4267 -0.8558
33446SOL     OW 3230   8.745   1.108   1.966 -0.6514 -0.1929 -0.5630
33446SOL    HW1 3231   8.807   1.159   2.019 -0.0137 -1.0533 -0.4556
33446SOL    HW2 3232   8.660   1.150   1.982 -0.6100 -0.8028  1.6961
33447SOL     OW 3233   5.664  10.519   5.922 -0.0571  0.3287 -0.1917
33447SOL    HW1 3234   5.702  10.601   5.956 -0.4275 -1.0671  4.3635
33447SOL    HW2 3235   5.736  10.478   5.875  1.1705  1.8147  0.2788
33448SOL     OW 3236   5.598   0.040  10.376 -0.3049 -0.4714 -0.4574
33448SOL    HW1 3237   5.603   0.120  10.428 -0.6778  0.4666 -1.7931
33448SOL    HW2 3238   5.665  -0.017  10.413 -1.3817 -0.3605  1.8146
33449SOL     OW 3239   4.841   5.194   9.305  0.1001 -0.1897  0.0760
33449SOL    HW1 3240   4.754   5.193   9.265  1.1094  0.1052 -2.2457
33449SOL    HW2 3241   4.891   5.128   9.257  1.1571 -0.4356  1.4407
33450SOL     OW 3242   7.792   7.546   2.846  0.5024 -0.2507 -0.6699
33450SOL    HW1 3243   7.812   7.458   2.815  0.6122 -0.5162  0.1195
33450SOL    HW2 3244   7.704   7.539   2.882  0.2191  0.1478 -1.2734
33451SOL     OW 3245   6.614   0.211   0.194 -0.6783 -0.3318  1.1956
33451SOL    HW1 3246   6.609   0.244   0.284  1.6770  1.3714  0.8011
33451SOL    HW2 3247   6.683   0.144   0.198 -1.5746 -1.2901  0.9078
33452SOL     OW 3248   8.799   2.930  10.504 -0.6493 -0.6194  0.0857
33452SOL    HW1 3249   8.707   2.955  10.505 -0.8296 -1.2384  1.9929
33452SOL    HW2 3250   8.810   2.874  10.580  1.7305  1.0533  1.0849
33453SOL     OW 3251   1.969   0.566   6.660  0.1674  0.5428 -0.3596
33453SOL    HW1 3252   1.982   0.596   6.570  2.3148  0.6166 -0.0858
33453SOL    HW2 3253   1.981   0.471   6.655  1.2473  0.6495 -0.0320
33454SOL     OW 3254   0.820   2.656   3.201  0.4044 -0.2713  0.2017
33454SOL    HW1 3255   0.861   2.740   3.183  2.1661 -1.2519 -0.6394
33454SOL    HW2 3256   0.838   2.603   3.123 -0.3528 -1.5372  0.8443
33455SOL     OW 3257   1.034   9.421   0.810 -0.1335 -0.1316  0.2048
33455SOL    HW1 3258   0.964   9.377   0.859  0.2753  0.1842  1.0986
33455SOL    HW2 3259   1.114   9.401   0.860  0.1006  1.3567  0.4573
33456SOL     OW 3260   9.772   1.449   1.023 -0.0916  0.4935 -0.0142
33456SOL    HW1 3261   9.856   1.487   1.047  0.0752 -0.1276  0.4209
33456SOL    HW2 3262   9.726   1.519   0.976 -0.1559  1.5242  1.5296
33457SOL     OW 3263   7.654   7.070   4.156 -0.0451  0.3207 -0.4058
33457SOL    HW1 3264   7.623   6.991   4.112  0.2735  1.8401 -3.6341
33457SOL    HW2 3265   7.574   7.119   4.175 -0.1831 -0.3391  0.8543
33458SOL     OW 3266   0.732   9.277   2.179  0.4125  0.0437 -0.2671
33458SOL    HW1 3267   0.656   9.242   2.225  0.7218 -0.3049 -0.0147
33458SOL    HW2 3268   0.699   9.355   2.134  0.2862  0.8599  1.1810
33459SOL     OW 3269   1.772   0.485  10.080 -0.0163  0.2852  0.3860
33459SOL    HW1 3270   1.735   0.428  10.147  0.0057  1.7621  1.7157
33459SOL    HW2 3271   1.824   0.427  10.024  0.9199 -0.8304  2.3372
33460SOL     OW 3272   8.340   6.840   7.234 -0.4219  0.1072 -0.2238
33460SOL    HW1 3273   8.361   6.864   7.143  0.9556  0.7053  0.2221
33460SOL    HW2 3274   8.307   6.922   7.272  0.5461  0.3076  0.2295
33461SOL     OW 3275   5.240   2.441   9.506 -0.6188 -0.2151 -0.3320
33461SOL    HW1 3276   5.223   2.530   9.474  0.1627 -0.6083 -1.9257
33461SOL    HW2 3277   5.228   2.385   9.429 -1.8460 -1.6097  0.8068
33462SOL     OW 3278   3.005   1.475   0.059  0.2154  0.1338  0.5063
33462SOL    HW1 3279   2.939   1.527   0.106  1.6606  1.5520  1.0922
33462SOL    HW2 3280   3.041   1.417   0.125 -0.0322 -0.2366  0.3215
33463SOL     OW 3281   4.921   4.152   9.432  0.1458 -0.4305 -0.1314
33463SOL    HW1 3282   4.985   4.223   9.439 -0.0500 -0.2749  0.1004
33463SOL    HW2 3283   4.955   4.096   9.362 -0.4831  0.7085 -1.4082
33464SOL     OW 3284   0.541  10.099   0.734  0.1943  0.2984  0.4817
33464SOL    HW1 3285   0.485  10.155   0.787  0.6985  0.0757  1.2550
33464SOL    HW2 3286   0.541  10.141   0.648 -2.3228 -0.4731  0.0149
33465SOL     OW 3287   0.172   7.217   0.629  0.1218 -0.3881  0.2220
33465SOL    HW1 3288   0.170   7.245   0.537 -0.6343  2.0872  0.9102
33465SOL    HW2 3289   0.083   7.185   0.645 -0.4475  1.2760  0.6165
33466SOL     OW 3290   8.109  10.488   2.722 -0.1334 -1.2169 -0.8564
33466SOL    HW1 3291   8.162  10.454   2.795  0.4457 -0.7520 -1.0550
33466SOL    HW2 3292   8.026  10.514   2.763  0.7092  0.4122 -0.0787
33467SOL     OW 3293   8.035   7.552   6.872 -0.0401  0.2580  0.6183
33467SOL    HW1 3294   8.119   7.519   6.839  0.5248  0.1152  2.1376
33467SOL    HW2 3295   8.040   7.538   6.967 -1.3161  1.3136  0.8524
33468SOL     OW 3296   9.683   6.813   7.058  0.3450  0.4099 -0.7887
33468SOL    HW1 3297   9.732   6.801   6.976  4.1156  1.5801  1.0614
33468SOL    HW2 3298   9.660   6.724   7.085  1.0419 -0.1585 -1.9881
33469SOL     OW 3299   2.821  10.413   0.926  0.2148  0.1826  0.3296
33469SOL    HW1 3300   2.836  10.432   1.019  1.4150 -1.6439  0.5611
33469SOL    HW2 3301   2.822  10.317   0.921  1.9831  0.2423 -1.8251
33470SOL     OW 3302   3.826   6.405   2.406  0.3717  0.1361  0.4197
33470SOL    HW1 3303   3.883   6.347   2.355  0.2011  0.7448 -0.4804
33470SOL    HW2 3304   3.738   6.383   2.376  0.3303  1.1037 -0.2021
33471SOL     OW 3305   2.096   5.936   6.950  0.1215  0.1151  0.4636
33471SOL    HW1 3306   2.091   5.844   6.927 -1.3068  0.2076  0.3587
33471SOL    HW2 3307   2.045   5.981   6.883 -1.9318  0.6550  2.2796
33472SOL     OW 3308   2.876   6.371   7.512 -0.2450 -0.2760 -0.0259
33472SOL    HW1 3309   2.796   6.322   7.532 -0.7344 -0.2940 -1.8260
33472SOL    HW2 3310   2.936   6.305   7.478  0.6305 -0.2892  1.4868
33473SOL     OW 3311   6.288   3.669   7.776  0.2007 -0.1699 -0.1000
33473SOL    HW1 3312   6.356   3.733   7.798  1.2107 -1.0721 -0.5066
33473SOL    HW2 3313   6.259   3.636   7.861 -0.6402  1.1052  0.1388
33474SOL     OW 3314   1.536   4.612  10.270 -0.3067 -0.4060 -0.3788
33474SOL    HW1 3315   1.542   4.584  10.178  2.1077 -0.9719 -0.1149
33474SOL    HW2 3316   1.564   4.703  10.270 -1.7942  0.0834 -0.3577
33475SOL     OW 3317   7.277   9.004   2.187 -0.1218 -0.4509  0.1971
33475SOL    HW1 3318   7.260   9.033   2.098  1.3927 -0.0591  0.0065
33475SOL    HW2 3319   7.252   9.078   2.242 -0.6412 -0.5346  0.0830
33476SOL     OW 3320   7.446   3.808   7.350 -0.3389  0.1646  0.0713
33476SOL    HW1 3321   7.496   3.882   7.315 -0.7800  0.5968  0.3491
33476SOL    HW2 3322   7.415   3.761   7.273 -1.0609  0.9477 -0.1318
33477SOL     OW 3323  10.363   2.367   4.066  0.3171 -0.1967  0.1233
33477SOL    HW1 3324  10.440   2.313   4.082  1.1089  1.0061  0.4751
33477SOL    HW2 3325  10.289   2.311   4.090  1.1395 -0.9483  0.9725
33478SOL     OW 3326   0.425   9.712   3.000  0.4921  0.3055  0.3087
33478SOL    HW1 3327   0.376   9.631   3.007  0.1895  0.4446 -0.2042
33478SOL    HW2 3328   0.513   9.685   2.974  0.7772  0.0363  1.4903
33479SOL     OW 3329   1.675   6.770   7.482  0.0741  0.2497  0.7296
33479SOL    HW1 3330   1.583   6.741   7.481  0.7835 -2.2735  0.4849
33479SOL    HW2 3331   1.670   6.865   7.477 -2.5303  0.2008  0.7424
33480SOL     OW 3332   5.324   8.656   3.396  0.2568  0.1121  0.2401
33480SOL    HW1 3333   5.280   8.735   3.427 -1.0206 -0.0742 -0.9917
33480SOL    HW2 3334   5.339   8.671   3.303 -1.7660 -1.8066 -0.4940
33481SOL     OW 3335   4.167   9.380  10.598  0.0707 -0.0272  0.3683
33481SOL    HW1 3336   4.141   9.443  10.530  1.0506 -1.0358 -1.0028
33481SOL    HW2 3337   4.212   9.311  10.550 -0.3256 -1.4223  1.9294
33482SOL     OW 3338   7.414   4.544   8.493 -0.4708 -0.6533 -0.3189
33482SOL    HW1 3339   7.333   4.587   8.521  0.3329  1.6614 -1.3313
33482SOL    HW2 3340   7.403   4.532   8.398 -0.6372 -2.7086 -0.0821
33483SOL     OW 3341   3.515   6.720   4.720  0.3480 -0.0284  0.5728
33483SOL    HW1 3342   3.521   6.647   4.658  0.5952 -1.2370  1.9421
33483SOL    HW2 3343   3.448   6.777   4.684  0.1872 -0.8987 -0.5843
33484SOL     OW 3344   5.893   3.960   8.721 -0.5937  0.2654  0.1314
33484SOL    HW1 3345   5.887   3.977   8.627 -1.2105 -0.6072 -0.0084
33484SOL    HW2 3346   5.802   3.954   8.750 -0.4202 -0.7736  0.5145
33485SOL     OW 3347   3.706   8.994   3.531 -0.8209 -0.3951 -0.4832
33485SOL    HW1 3348   3.663   8.909   3.531 -0.6172 -0.5043 -1.0788
33485SOL    HW2 3349   3.648   9.050   3.478 -1.7868  0.2889  1.1936
33486SOL     OW 3350   7.097   2.639   7.273 -0.7395 -0.2493  0.0367
33486SOL    HW1 3351   7.189   2.617   7.288 -0.1621  1.3472 -0.9614
33486SOL    HW2 3352   7.098   2.698   7.198 -2.3574  1.6162  1.3963
33487SOL     OW 3353   8.591   4.602   0.144 -0.3893 -0.4846 -0.1908
33487SOL    HW1 3354   8.623   4.689   0.122  0.1245 -0.9157 -1.1886
33487SOL    HW2 3355   8.595   4.553   0.062  0.2867 -1.7477  0.5681
33488SOL     OW 3356  10.163   1.369   0.268  0.1053  0.8775  0.0779
33488SOL    HW1 3357  10.207   1.326   0.342 -0.5510 -0.6885 -0.4006
33488SOL    HW2 3358  10.083   1.318   0.255  0.6618  0.5196 -2.3217
33489SOL     OW 3359   9.545   3.427   5.063  0.1414  0.1014 -0.3424
33489SOL    HW1 3360   9.544   3.510   5.014  0.0350 -0.2137 -0.8880
33489SOL    HW2 3361   9.477   3.438   5.130  1.2625  1.0742  0.6716
33490SOL     OW 3362   1.758   6.002   2.388  0.1393  0.2127  0.0640
33490SOL    HW1 3363   1.764   5.973   2.479  0.7508  0.9114  0.2605
33490SOL    HW2 3364   1.846   6.031   2.366 -0.2427  1.0815 -0.3878
33491SOL     OW 3365   2.431   0.114   7.793 -0.4764  0.0704  0.3685
33491SOL    HW1 3366   2.453   0.028   7.757 -0.4843 -0.0771  0.7118
33491SOL    HW2 3367   2.504   0.135   7.852 -0.6688  0.1201  0.5908
33492SOL     OW 3368   8.893   6.595   1.071  0.7078  0.0661  0.8118
33492SOL    HW1 3369   8.920   6.607   0.980 -0.6376 -0.7525  0.2727
33492SOL    HW2 3370   8.821   6.532   1.066 -0.0315  0.7539  2.3524
33493SOL     OW 3371   1.558   0.631   3.767  0.6256  0.3247  0.0863
33493SOL    HW1 3372   1.637   0.676   3.737  0.5266  1.1448  0.9811
33493SOL    HW2 3373   1.519   0.692   3.829  0.7300 -1.2041  1.7277
33494SOL     OW 3374   7.854   3.604   6.795  0.3868 -0.2592 -0.3684
33494SOL    HW1 3375   7.859   3.516   6.832 -2.6994 -0.4798 -0.1878
33494SOL    HW2 3376   7.938   3.618   6.752  1.5253 -2.6676  0.9000
33495SOL     OW 3377   8.166   9.640   7.873 -0.3597 -0.2546 -0.0396
33495SOL    HW1 3378   8.186   9.653   7.966  1.4976 -0.3504 -0.3910
33495SOL    HW2 3379   8.224   9.569   7.846 -0.0445  0.5469 -1.5425
33496SOL     OW 3380   3.876  10.473   4.658  0.3153  0.4910 -0.4592
33496SOL    HW1 3381   3.939  10.474   4.730 -0.5080  0.0570  0.2819
33496SOL    HW2 3382   3.818  10.547   4.676  0.3050  0.5851 -0.8694
33497SOL     OW 3383   9.534   9.807   5.641 -0.4755  0.1239  0.6794
33497SOL    HW1 3384   9.598   9.870   5.675  1.8771 -1.9331  0.3995
33497SOL    HW2 3385   9.545   9.730   5.697  0.9864 -2.0866 -2.3377
33498SOL     OW 3386   1.095   8.822   1.671  0.3702  0.1557  0.1062
33498SOL    HW1 3387   1.120   8.852   1.584 -1.3347 -0.7505 -0.7525
33498SOL    HW2 3388   1.138   8.883   1.731  0.2201  1.8426 -1.4263
33499SOL     OW 3389   6.796   1.381   6.705  0.5409 -1.2027  0.3559
33499SOL    HW1 3390   6.837   1.298   6.731  0.4139 -1.4336 -0.1715
33499SOL    HW2 3391   6.821   1.442   6.775  2.5231 -1.1046 -0.3592
33500SOL     OW 3392   9.549   0.030   4.483 -0.1575 -0.7605 -1.1707
33500SOL    HW1 3393   9.625   0.055   4.536 -0.6927 -2.1575  0.3334
33500SOL    HW2 3394   9.525   0.109   4.436  0.4593  0.4972  0.5499
33501SOL     OW 3395  10.074   5.832   9.762 -0.3086  0.3363  0.0167
33501SOL    HW1 3396  10.005   5.776   9.725 -0.5670  1.2644 -0.9638
33501SOL    HW2 3397  10.116   5.777   9.828 -0.5896 -1.0094 -0.8593
33502SOL     OW 3398   2.343   3.203   4.689  0.2615 -0.1113  0.9308
33502SOL    HW1 3399   2.353   3.260   4.766  1.4615  0.0052  0.7088
33502SOL    HW2 3400   2.419   3.146   4.692 -0.5761 -1.2725  0.7676
33503SOL     OW 3401   1.139   7.059   1.712 -0.1526  0.2990 -0.4689
33503SOL    HW1 3402   1.089   7.126   1.665  0.1521  0.2955 -0.8050
33503SOL    HW2 3403   1.159   6.993   1.646 -1.0149 -0.4544  0.0177
33504SOL     OW 3404   6.111   5.101   3.460  0.4789 -0.0395 -0.0758
33504SOL    HW1 3405   6.183   5.131   3.404  0.5757 -1.9658 -1.0722
33504SOL    HW2 3406   6.043   5.072   3.399 -0.4881  0.2172  0.8480
33505SOL     OW 3407   1.398   4.331   5.416 -0.0424 -0.4956 -0.4347
33505SOL    HW1 3408   1.337   4.330   5.489 -1.2082 -1.7112 -1.3827
33505SOL    HW2 3409   1.397   4.242   5.382 -0.7856  0.3812 -2.9341
33506SOL     OW 3410   1.163   3.923   8.656  0.3216  0.2833 -0.4046
33506SOL    HW1 3411   1.221   3.861   8.700  1.9395  1.0940 -1.2932
33506SOL    HW2 3412   1.104   3.953   8.725  1.7623  0.3441  0.8640
33507SOL     OW 3413   4.826  10.750   7.446 -0.0631  0.0577  0.3729
33507SOL    HW1 3414   4.821  10.671   7.392 -2.1490  0.0519  0.5216
33507SOL    HW2 3415   4.736  10.778   7.458  0.5671  1.9487  1.1321
33508SOL     OW 3416   7.185   2.490  10.440 -0.1130  0.0482 -0.1999
33508SOL    HW1 3417   7.185   2.579  10.474 -0.6306 -0.2757  0.6765
33508SOL    HW2 3418   7.142   2.497  10.354  1.9673  1.0069 -1.2366
33509SOL     OW 3419   3.159   4.749   6.438 -0.9553 -0.1723  0.0773
33509SOL    HW1 3420   3.130   4.714   6.523 -1.5957 -0.3439 -0.2102
33509SOL    HW2 3421   3.085   4.800   6.406 -0.7247 -0.1325 -0.4024
33510SOL     OW 3422   2.430   5.755   7.500 -0.5320  0.1932 -0.3951
33510SOL    HW1 3423   2.425   5.743   7.405  0.0297 -1.5624 -0.2417
33510SOL    HW2 3424   2.366   5.824   7.519 -1.4945 -0.2306 -1.8986
33511SOL     OW 3425   7.197   6.133   4.868  0.2025  0.8022  0.3000
33511SOL    HW1 3426   7.221   6.185   4.944 -1.5571  0.0887  1.4023
33511SOL    HW2 3427   7.209   6.042   4.896  2.3110  0.5294 -1.2718
33512SOL     OW 3428   7.857   8.118   1.832  0.3357  0.2086 -0.1234
33512SOL    HW1 3429   7.889   8.175   1.762  2.8805 -0.8564  0.0453
33512SOL    HW2 3430   7.933   8.065   1.856 -1.5236 -2.3496  0.6238
33513SOL     OW 3431  10.769   2.688   7.252  0.2920  0.3104  0.0675
33513SOL    HW1 3432  10.711   2.738   7.311  3.0999  0.9936  2.4776
33513SOL    HW2 3433  10.781   2.746   7.177  0.8012  1.8604  1.2800
33514SOL     OW 3434   3.066   9.716   9.009 -0.7972  0.3924  0.6183
33514SOL    HW1 3435   3.032   9.657   9.077 -0.5978 -2.0746 -1.2756
33514SOL    HW2 3436   3.002   9.787   9.006 -1.8373 -0.4087  2.0731
33515SOL     OW 3437   9.382   7.885   8.566  0.2100 -0.3472 -0.6509
33515SOL    HW1 3438   9.307   7.942   8.550  0.6035  0.4043  0.1266
33515SOL    HW2 3439   9.383   7.826   8.490 -1.6982 -0.9710 -0.2483
33516SOL     OW 3440   6.077  10.543   5.213 -0.4436  0.0385 -0.5490
33516SOL    HW1 3441   6.024  10.582   5.283  1.2069  2.0764 -0.3417
33516SOL    HW2 3442   6.013  10.501   5.155 -2.1278  1.0067  0.5264
33517SOL     OW 3443   9.759   2.462   7.585 -0.0492  0.2611  0.1774
33517SOL    HW1 3444   9.781   2.369   7.577  0.2627  0.0302  2.9763
33517SOL    HW2 3445   9.752   2.492   7.494  0.3613 -2.3474 -0.8113
33518SOL     OW 3446  10.697   7.036   0.945  0.0820  0.0301  0.4447
33518SOL    HW1 3447  10.779   7.040   0.894 -0.3385  1.9444 -0.1692
33518SOL    HW2 3448  10.726   7.032   1.036  0.8582 -0.4720  0.1873
33519SOL     OW 3449   0.221   6.499   4.108 -0.1418 -0.0027  0.0049
33519SOL    HW1 3450   0.239   6.583   4.066  0.6138 -0.2713 -0.2187
33519SOL    HW2 3451   0.167   6.521   4.184  2.2203  1.0207  1.4959
33520SOL     OW 3452   0.964   9.449   6.357  0.3817  0.2010  0.2876
33520SOL    HW1 3453   1.027   9.466   6.427  0.3599  0.4179  0.2551
33520SOL    HW2 3454   0.882   9.433   6.403  0.4970 -0.2615  0.3384
33521SOL     OW 3455   6.043   3.092   7.417 -0.5696 -0.5826  0.0393
33521SOL    HW1 3456   6.105   3.163   7.436 -2.3985  0.3810  3.2639
33521SOL    HW2 3457   5.970   3.136   7.372 -0.0794 -1.2308 -1.4514
33522SOL     OW 3458   1.428  10.064  10.664 -0.6384 -0.4923  0.0936
33522SOL    HW1 3459   1.394  10.076  10.575  0.5516 -1.4747 -0.5273
33522SOL    HW2 3460   1.456   9.973  10.667  2.4928  0.3614  0.3029
33523SOL     OW 3461   2.835   7.416   5.304 -0.2065 -0.2889  0.2251
33523SOL    HW1 3462   2.826   7.388   5.213 -0.9495 -2.2139  0.8341
33523SOL    HW2 3463   2.774   7.489   5.313 -1.9493 -1.5959 -0.2865
33524SOL     OW 3464   4.592   1.644   8.411  0.1018  0.2285  0.4537
33524SOL    HW1 3465   4.660   1.580   8.432 -0.1932 -0.2406 -0.0333
33524SOL    HW2 3466   4.519   1.593   8.378  0.8118  0.9674 -2.5293
33525SOL     OW 3467   0.430   1.623   1.272  0.2325  0.6368  0.3153
33525SOL    HW1 3468   0.393   1.553   1.218  1.7727 -0.1487  0.2131
33525SOL    HW2 3469   0.525   1.610   1.266  0.4866  1.3728  2.0820
33526SOL     OW 3470   0.385   2.382   2.160  0.1766  0.1021 -0.0383
33526SOL    HW1 3471   0.364   2.438   2.085 -2.2782 -0.4410  0.1587
33526SOL    HW2 3472   0.340   2.423   2.233 -0.2968 -1.2148  0.4319
33527SOL     OW 3473   2.290   8.727   3.232  0.8996  0.0564 -0.1006
33527SOL    HW1 3474   2.237   8.795   3.274 -0.1335 -0.9914  0.3126
33527SOL    HW2 3475   2.227   8.670   3.189  1.6235 -1.5185  0.8479
33528SOL     OW 3476   2.231   4.962   0.680  0.4201 -0.1251 -0.4915
33528SOL    HW1 3477   2.313   5.010   0.688 -0.4778  1.6032 -1.0592
33528SOL    HW2 3478   2.174   5.000   0.748  0.0199 -1.1524 -0.2365
33529SOL     OW 3479   1.757   1.014   4.726 -0.1536  0.5252 -0.3980
33529SOL    HW1 3480   1.774   1.017   4.632 -3.0197 -2.7006 -1.1870
33529SOL    HW2 3481   1.842   0.991   4.765  0.9688  1.4227 -2.1654
33530SOL     OW 3482   9.863   4.915   8.436  0.6636 -0.2476  0.1137
33530SOL    HW1 3483   9.867   4.997   8.387  3.6707 -0.3861 -0.0343
33530SOL    HW2 3484   9.883   4.940   8.526  3.1013 -0.9075 -0.1790
33531SOL     OW 3485   6.695   7.475   3.164 -0.6845 -0.1926 -0.0805
33531SOL    HW1 3486   6.608   7.514   3.176 -0.2990  0.3415  1.1283
33531SOL    HW2 3487   6.719   7.443   3.251  1.2016  1.5474  0.1169
33532SOL     OW 3488   1.906   7.863   1.778  0.3436  0.4682 -0.3242
33532SOL    HW1 3489   1.977   7.800   1.787 -1.2655 -1.1786  2.4767
33532SOL    HW2 3490   1.947   7.941   1.742  2.9079 -1.3631 -1.6610
33533SOL     OW 3491   5.994   0.515   4.176 -0.0735 -0.0315 -0.5232
33533SOL    HW1 3492   6.023   0.572   4.104  0.9281  0.9012  0.5837
33533SOL    HW2 3493   5.934   0.570   4.227 -0.2695 -0.4658 -0.2839
33534SOL     OW 3494   2.008   0.639   7.242 -0.2919 -0.9094 -0.1764
33534SOL    HW1 3495   1.994   0.727   7.276 -0.7079 -1.2947  0.6768
33534SOL    HW2 3496   2.021   0.651   7.147  5.2198  0.7210  0.4320
33535SOL     OW 3497   1.396   9.954   3.867 -0.1664  0.2126 -0.2372
33535SOL    HW1 3498   1.462   9.902   3.912 -1.8773 -0.5690  1.4954
33535SOL    HW2 3499   1.441  10.035   3.844  1.3217 -0.1992  1.0859
33536SOL     OW 3500   8.129   7.788  10.488  0.2940  0.3288  0.1060
33536SOL    HW1 3501   8.185   7.848  10.440 -1.0912  1.7148  0.1355
33536SOL    HW2 3502   8.043   7.831  10.488 -0.3776 -0.9464  1.4471
33537SOL     OW 3503   0.256   3.168   8.034  0.9281 -0.3093  0.2490
33537SOL    HW1 3504   0.301   3.160   7.951  0.8851  0.0405  0.1908
33537SOL    HW2 3505   0.274   3.258   8.063 -2.0836  0.8740 -1.1660
33538SOL     OW 3506   0.327   2.975   7.025  0.1939  1.1647  0.5118
33538SOL    HW1 3507   0.339   2.935   7.111  0.8785  2.9461  1.2799
33538SOL    HW2 3508   0.281   2.908   6.974  2.2142 -0.9949  1.3880
33539SOL     OW 3509   0.538   4.296   2.300  0.4356 -0.1516  0.0553
33539SOL    HW1 3510   0.543   4.303   2.395  1.0077  0.3848 -0.0091
33539SOL    HW2 3511   0.462   4.348   2.276  0.0944 -0.5572  0.2424
33540SOL     OW 3512   1.051   1.907   9.514 -0.1219 -0.3408  0.3228
33540SOL    HW1 3513   1.002   1.825   9.523 -2.7277  1.1936  0.9551
33540SOL    HW2 3514   1.000   1.971   9.562  1.3347  1.8907 -0.9404
33541SOL     OW 3515   1.892   1.758   2.068 -0.2477  0.1306  0.1484
33541SOL    HW1 3516   1.873   1.696   2.139 -0.3707 -0.0425 -0.0326
33541SOL    HW2 3517   1.819   1.820   2.070 -0.1764  0.2087  0.2671
33542SOL     OW 3518   5.101   7.290   5.323  0.5630 -0.3299  0.4434
33542SOL    HW1 3519   5.050   7.226   5.273  0.6464  0.2199 -0.3537
33542SOL    HW2 3520   5.189   7.254   5.326  1.0986  0.6616 -1.7254
33543SOL     OW 3521   1.794   4.095   7.368  0.3381 -0.0352  0.2703
33543SOL    HW1 3522   1.880   4.091   7.411  1.1808 -1.9303 -1.3874
33543SOL    HW2 3523   1.807   4.048   7.285 -2.4356 -0.8238  0.1811
33544SOL     OW 3524  10.495  10.209   6.642 -0.3230 -0.2261 -0.2028
33544SOL    HW1 3525  10.424  10.151   6.617 -1.0049  1.2615 -1.8701
33544SOL    HW2 3526  10.525  10.248   6.560 -0.2327  2.1516  0.8907
33545SOL     OW 3527   9.150   6.086   4.773  0.3006  0.0211 -0.0242
33545SOL    HW1 3528   9.068   6.136   4.773  0.3205  0.0606 -0.5468
33545SOL    HW2 3529   9.211   6.141   4.723  0.5800 -0.1147  0.1656
33546SOL     OW 3530   1.759   6.042   8.415  0.4649 -0.2622  0.0077
33546SOL    HW1 3531   1.728   6.001   8.335  0.2319  1.2180 -0.6981
33546SOL    HW2 3532   1.732   5.983   8.485  0.0659 -1.2297 -0.9443
33547SOL     OW 3533   3.390  10.061   5.170 -0.1180 -0.8004  0.2194
33547SOL    HW1 3534   3.324  10.005   5.129 -1.7231  1.3612 -0.2980
33547SOL    HW2 3535   3.432  10.106   5.097 -1.4671  1.4318  0.7503
33548SOL     OW 3536   0.415   4.056   4.981 -0.3940 -0.3109 -0.2483
33548SOL    HW1 3537   0.376   3.969   4.974  0.6191 -0.9831  1.7574
33548SOL    HW2 3538   0.509   4.041   4.985 -0.0976  1.0120 -1.3058
33549SOL     OW 3539   0.387   6.470   7.573 -0.5202  0.1556 -0.1983
33549SOL    HW1 3540   0.446   6.501   7.504  0.0941 -1.2865 -0.3556
33549SOL    HW2 3541   0.446   6.430   7.637 -1.2595 -0.4660  0.0972
33550SOL     OW 3542   3.224   9.069  10.475 -0.0717  0.1716  0.3148
33550SOL    HW1 3543   3.194   9.159  10.462  1.3131  0.3705 -1.9362
33550SOL    HW2 3544   3.206   9.025  10.392  0.5939 -1.2474  0.8928
33551SOL     OW 3545  10.685   8.693   9.956 -0.1778 -0.0603 -0.5160
33551SOL    HW1 3546  10.591   8.705   9.965 -0.3759 -1.7221 -0.0463
33551SOL    HW2 3547  10.702   8.607   9.995  1.6740  0.6093  0.2923
33552SOL     OW 3548   1.701  10.486   0.547  0.1682 -0.4397 -0.2309
33552SOL    HW1 3549   1.773  10.530   0.592 -0.2369  1.1051 -1.0347
33552SOL    HW2 3550   1.725  10.490   0.455 -1.3870  1.0284 -0.6173
33553SOL     OW 3551   5.259   8.290   5.609  0.2028 -0.1298 -0.3803
33553SOL    HW1 3552   5.314   8.286   5.688  0.1135  0.0012 -0.3110
33553SOL    HW2 3553   5.181   8.339   5.637 -0.0274 -0.4594 -0.4300
33554SOL     OW 3554   8.041   0.996   4.217  0.6631  0.4052 -0.0904
33554SOL    HW1 3555   8.024   0.939   4.292 -0.5869  3.1011  1.8547
33554SOL    HW2 3556   7.959   0.993   4.166  1.0209 -0.3570 -0.6552
33555SOL     OW 3557   5.220   9.015   7.779  0.1275 -0.0826 -0.9391
33555SOL    HW1 3558   5.305   9.056   7.792 -0.9578  2.5006 -1.3927
33555SOL    HW2 3559   5.232   8.957   7.703  1.7706 -0.8363 -0.1470
33556SOL     OW 3560   2.978   3.302   0.214 -0.4351  0.0000 -0.2225
33556SOL    HW1 3561   2.971   3.383   0.164 -0.6950 -0.5805 -1.1494
33556SOL    HW2 3562   3.041   3.323   0.283  0.1111  0.7647 -0.9165
33557SOL     OW 3563   0.018   3.078   0.832  0.2848  0.1739 -0.7612
33557SOL    HW1 3564  -0.052   3.062   0.769 -2.3159  0.3831  1.8851
33557SOL    HW2 3565  -0.002   3.020   0.905  2.6762  0.5574  0.2834
33558SOL     OW 3566   1.582   2.138   6.126  0.0839 -0.5347 -0.2570
33558SOL    HW1 3567   1.513   2.184   6.079  0.8575  1.1805  0.2092
33558SOL    HW2 3568   1.538   2.064   6.169 -1.7465  1.2674  1.1510
33559SOL     OW 3569   5.584   5.663   1.780  0.0937  0.5071 -0.4722
33559SOL    HW1 3570   5.520   5.733   1.768 -0.4000  0.1006 -0.2662
33559SOL    HW2 3571   5.542   5.585   1.743  0.5146  0.2592 -0.4370
33560SOL     OW 3572   8.904   0.970  10.650  0.1303  0.8824  0.4661
33560SOL    HW1 3573   8.849   0.972  10.572 -1.5609 -2.8875  1.3343
33560SOL    HW2 3574   8.990   1.001  10.620 -0.8956  1.2251 -2.4148
33561SOL     OW 3575   0.152   6.994   4.449  0.0174 -0.0095  0.1911
33561SOL    HW1 3576   0.181   7.039   4.370  2.2238 -4.3728 -1.8211
33561SOL    HW2 3577   0.098   6.921   4.417 -1.6310 -0.1772  3.0088
33562SOL     OW 3578   0.004   4.578   1.205  0.8070 -0.1995  0.6206
33562SOL    HW1 3579  -0.045   4.633   1.143  1.4811  0.8165  0.9571
33562SOL    HW2 3580  -0.041   4.494   1.203 -0.9793  0.7004  0.9240
33563SOL     OW 3581   8.241   5.689   4.878  0.2906  0.0517  0.6398
33563SOL    HW1 3582   8.247   5.785   4.877 -1.0480  0.1889  2.0071
33563SOL    HW2 3583   8.299   5.661   4.948  0.1221 -0.0757  0.7304
33564SOL     OW 3584   0.194  10.264   9.816  0.5441  0.1328  0.2096
33564SOL    HW1 3585   0.266  10.317   9.849  0.8424  0.1821 -0.5062
33564SOL    HW2 3586   0.141  10.245   9.893 -1.2792  4.0299  0.1701
33565SOL     OW 3587   9.331   7.303  10.656  0.0349  0.5887  0.1049
33565SOL    HW1 3588   9.358   7.351  10.734 -0.3656  1.0614 -0.0393
33565SOL    HW2 3589   9.288   7.369  10.601 -0.1922  0.1409 -0.2589
33566SOL     OW 3590   0.018   5.941   3.134 -0.1399  0.1019 -0.1856
33566SOL    HW1 3591   0.058   5.855   3.149  0.5391  0.4184 -0.1312
33566SOL    HW2 3592  -0.048   5.950   3.203 -0.5551 -0.5778 -0.4889
33567SOL     OW 3593  10.181   5.244   4.910  0.4882 -0.0275 -1.1223
33567SOL    HW1 3594  10.255   5.282   4.959  0.8074 -0.5542 -1.1922
33567SOL    HW2 3595  10.107   5.251   4.971  0.6728  0.1876 -0.9186
33568SOL     OW 3596   4.797   2.309   2.244  0.8315  0.2359 -0.0909
33568SOL    HW1 3597   4.825   2.222   2.274 -0.7445 -0.4277 -0.4669
33568SOL    HW2 3598   4.857   2.369   2.288  0.7645 -0.9165  1.6834
33569SOL     OW 3599   7.158   0.770   2.984  0.4894 -0.0208 -0.0446
33569SOL    HW1 3600   7.224   0.838   2.976  1.3324 -0.8309 -0.1068
33569SOL    HW2 3601   7.080   0.816   3.017  1.0531  0.9487 -0.0280
33570SOL     OW 3602   9.590   5.657   0.719 -0.2313  0.3726 -0.2717
33570SOL    HW1 3603   9.617   5.633   0.808  1.0639 -0.4640 -0.8494
33570SOL    HW2 3604   9.495   5.663   0.724 -0.4214 -2.0517  0.6495
33571SOL     OW 3605   5.376   1.220   3.866 -0.7200  0.2584 -0.3377
33571SOL    HW1 3606   5.427   1.279   3.922  0.7049 -1.5419  0.3732
33571SOL    HW2 3607   5.411   1.234   3.778 -0.5277  0.6069 -0.2075
33572SOL     OW 3608   4.752   4.463   4.782 -0.1649  0.1717  0.0736
33572SOL    HW1 3609   4.787   4.477   4.870  0.5119  0.7031 -0.2726
33572SOL    HW2 3610   4.712   4.376   4.787 -0.4113  0.3214  0.9875
33573SOL     OW 3611   5.356   1.499   6.365 -0.0687 -0.5629 -0.1024
33573SOL    HW1 3612   5.317   1.415   6.340  0.1862 -0.8914  0.5630
33573SOL    HW2 3613   5.298   1.534   6.432  0.2647 -0.6058  0.2138
33574SOL     OW 3614   8.883   9.682   8.001  0.0027  0.5927  0.0457
33574SOL    HW1 3615   8.848   9.753   8.055 -1.7515 -0.3728  0.2472
33574SOL    HW2 3616   8.808   9.650   7.951  0.4871 -1.7474  0.6854
33575SOL     OW 3617   4.437   6.125   7.233 -0.1144  0.1439  0.4012
33575SOL    HW1 3618   4.351   6.095   7.264 -0.4201  0.0525 -0.5012
33575SOL    HW2 3619   4.449   6.210   7.274 -0.5333  0.0569  0.7168
33576SOL     OW 3620   5.585   3.114   5.295 -0.0177 -0.7932  0.0200
33576SOL    HW1 3621   5.652   3.163   5.342 -0.7247  0.4840 -0.2701
33576SOL    HW2 3622   5.619   3.024   5.292  2.2142  0.0115 -1.0918
33577SOL     OW 3623   8.938   7.888   1.194 -0.0597  0.1481 -0.1359
33577SOL    HW1 3624   8.987   7.845   1.264  0.5233  0.6541 -0.2281
33577SOL    HW2 3625   8.861   7.924   1.238  1.4319  2.4727  0.7171
33578SOL     OW 3626   1.674   0.493   0.719  0.5053  0.4255 -0.5413
33578SOL    HW1 3627   1.629   0.572   0.750  0.8506  1.1018 -1.7059
33578SOL    HW2 3628   1.696   0.512   0.628  0.3507 -1.1330 -0.9401
33579SOL     OW 3629   0.652   7.564   0.765 -0.0191  0.4682  0.0541
33579SOL    HW1 3630   0.666   7.549   0.672  1.7987  0.5002  0.2848
33579SOL    HW2 3631   0.719   7.510   0.808 -1.1588  0.0513  1.3758
33580SOL     OW 3632   8.182   7.371   3.427  0.2560 -0.1332  1.0188
33580SOL    HW1 3633   8.227   7.437   3.479  0.5472 -0.2578  0.9266
33580SOL    HW2 3634   8.155   7.418   3.348 -0.2025  0.0596  1.2873
33581SOL     OW 3635   3.335   1.009   6.954  0.3286  0.0918  0.4776
33581SOL    HW1 3636   3.314   1.102   6.951  0.1867  0.0475  0.1060
33581SOL    HW2 3637   3.388   0.994   6.876 -0.0586 -0.2408  0.2806
33582SOL     OW 3638   3.076   4.311   1.389 -0.0197 -0.1638  0.0094
33582SOL    HW1 3639   2.998   4.289   1.338 -0.3143 -0.0525  0.4035
33582SOL    HW2 3640   3.122   4.228   1.400 -0.0258 -0.2105 -0.3202
33583SOL     OW 3641   0.571   5.522   8.936 -0.0794  0.6094  0.1826
33583SOL    HW1 3642   0.663   5.547   8.945  0.6952 -0.9366 -2.4848
33583SOL    HW2 3643   0.531   5.592   8.885  0.0133  0.5042 -0.0346
33584SOL     OW 3644   8.521   2.837   8.306 -0.3253  0.6124  0.5187
33584SOL    HW1 3645   8.531   2.742   8.318 -0.4928  0.3568 -1.0950
33584SOL    HW2 3646   8.429   2.854   8.324 -0.5483  0.2662 -0.2428
33585SOL     OW 3647   4.247   7.520   5.485  0.3723  0.3863  0.3844
33585SOL    HW1 3648   4.196   7.601   5.478 -0.0215  0.5349  3.5143
33585SOL    HW2 3649   4.333   7.549   5.517 -0.4028 -0.4730  3.5180
33586SOL     OW 3650   0.222   6.775   1.584 -0.0857  0.0761 -0.3726
33586SOL    HW1 3651   0.192   6.699   1.534 -1.6694  0.2594  0.2246
33586SOL    HW2 3652   0.310   6.792   1.552  0.9109 -2.9117  0.4873
33587SOL     OW 3653   1.366   3.317   8.848  0.1991 -0.0124 -0.0124
33587SOL    HW1 3654   1.327   3.362   8.773  0.7986 -1.1024 -1.0035
33587SOL    HW2 3655   1.317   3.235   8.855 -1.1010  0.8238  1.9754
33588SOL     OW 3656   6.942   1.989   0.158 -0.4616  0.5468 -0.2380
33588SOL    HW1 3657   6.884   2.013   0.086 -0.0337 -0.4844 -0.9497
33588SOL    HW2 3658   6.885   1.948   0.223 -0.6130 -0.0284 -0.7245
33589SOL     OW 3659   5.167   6.654  10.309 -0.2793 -0.6085  0.1798
33589SOL    HW1 3660   5.216   6.736  10.315  2.5241 -2.0929 -0.6695
33589SOL    HW2 3661   5.123   6.646  10.393  2.0493  0.2245  1.5667
33590SOL     OW 3662   0.387  10.123   1.194  0.2297  0.3404 -0.6494
33590SOL    HW1 3663   0.317  10.107   1.257  1.7595  1.4208  1.4339
33590SOL    HW2 3664   0.402  10.037   1.153 -1.5353 -0.1359 -0.3859
33591SOL     OW 3665   4.090   9.991   7.328 -0.3813 -0.9393 -0.2688
33591SOL    HW1 3666   4.094   9.927   7.399 -1.6720 -0.6457  0.0905
33591SOL    HW2 3667   4.170  10.043   7.337  0.0937 -1.7257  0.1689
33592SOL     OW 3668   2.179   2.013   8.031 -0.3202 -0.5011 -0.3095
33592SOL    HW1 3669   2.125   1.949   8.077 -2.4061  0.5758 -1.1265
33592SOL    HW2 3670   2.157   2.097   8.071  1.0690 -0.0547 -0.4176
33593SOL     OW 3671   9.031   9.522   5.346  0.4503 -0.1600 -0.3650
33593SOL    HW1 3672   9.106   9.575   5.320 -0.6374  1.3509 -0.5966
33593SOL    HW2 3673   9.069   9.447   5.391  2.1035  0.3826 -0.7820
33594SOL     OW 3674   8.805   0.733  10.420  0.1735 -0.2282  0.4437
33594SOL    HW1 3675   8.765   0.652  10.451 -0.2714 -0.1276  0.1387
33594SOL    HW2 3676   8.889   0.705  10.384 -0.4310 -0.7188 -0.6318
33595SOL     OW 3677   9.696   2.994   4.065 -0.2513 -0.3442  0.4864
33595SOL    HW1 3678   9.748   2.961   3.992 -2.2574 -0.2259 -1.0525
33595SOL    HW2 3679   9.711   3.089   4.065 -0.0060 -0.3803  0.4690
33596SOL     OW 3680   9.151   5.529   8.737  0.8417  0.1213  0.0477
33596SOL    HW1 3681   9.201   5.552   8.659  0.6713  0.4570  0.0374
33596SOL    HW2 3682   9.086   5.465   8.707  1.6591 -0.8034  0.1758
33597SOL     OW 3683   4.289   5.559   5.475 -0.5387  0.3241 -0.3439
33597SOL    HW1 3684   4.193   5.568   5.472 -0.5170  0.3147 -1.3338
33597SOL    HW2 3685   4.309   5.555   5.569 -1.5792 -0.5114 -0.1331
33598SOL     OW 3686   2.272   1.872   4.662 -0.5604 -0.0203 -0.0935
33598SOL    HW1 3687   2.316   1.889   4.579  1.4371  0.0890  0.9162
33598SOL    HW2 3688   2.343   1.868   4.726 -2.0329 -0.1088  1.6157
33599SOL     OW 3689   2.689   5.673   0.696 -0.1586 -0.3809  0.4007
33599SOL    HW1 3690   2.720   5.663   0.786 -0.6129 -1.5350  0.4497
33599SOL    HW2 3691   2.766   5.652   0.642 -0.1485 -0.6524  0.5193
33600SOL     OW 3692   4.422   1.548   4.341 -0.2410  0.2770 -0.3569
33600SOL    HW1 3693   4.513   1.519   4.346 -0.6416 -1.3528 -1.5072
33600SOL    HW2 3694   4.425   1.626   4.286  0.2854 -1.0970 -2.4425
33601SOL     OW 3695   7.903   5.920   0.304  0.0103  0.1299 -0.0118
33601SOL    HW1 3696   7.840   5.984   0.270 -0.1717 -0.0163  0.0487
33601SOL    HW2 3697   7.849   5.846   0.333  0.2924 -0.5144 -1.0886
33602SOL     OW 3698   6.639   4.454   9.972  0.1289  0.3072  0.3900
33602SOL    HW1 3699   6.692   4.423   9.899  0.1679  0.7593  0.2239
33602SOL    HW2 3700   6.701   4.463  10.045  0.0779 -0.2073  0.4998
33603SOL     OW 3701   5.073   8.526   6.407 -0.0697  0.0622  0.0522
33603SOL    HW1 3702   5.124   8.605   6.389  0.9427 -0.4484  0.5909
33603SOL    HW2 3703   5.136   8.454   6.398 -0.1787 -0.4425  2.6153
33604SOL     OW 3704   7.510   3.498  10.662  0.2502 -0.0628 -0.0198
33604SOL    HW1 3705   7.591   3.468  10.703  0.1552 -2.7331 -1.5528
33604SOL    HW2 3706   7.538   3.543  10.582  0.3058  2.8728  1.5006
33605SOL     OW 3707   9.344   8.126   9.172 -0.2445 -0.1883 -0.3307
33605SOL    HW1 3708   9.327   8.220   9.171  1.1550  0.1295  1.5250
33605SOL    HW2 3709   9.434   8.117   9.143 -0.6635 -1.0709 -1.4256
33606SOL     OW 3710   4.740   3.370   3.074 -0.2156 -0.1985 -0.2348
33606SOL    HW1 3711   4.665   3.380   3.017 -0.0295  0.9129 -0.2966
33606SOL    HW2 3712   4.745   3.276   3.091 -2.4126 -0.1648  0.8546
33607SOL     OW 3713   6.042   0.011   8.706  0.0098 -0.0083  0.5454
33607SOL    HW1 3714   6.120   0.064   8.689 -0.5615 -0.0388 -2.9426
33607SOL    HW2 3715   5.987   0.067   8.762  1.3351  1.1613  0.7476
33608SOL     OW 3716   9.225   4.832   7.707 -0.1308 -0.2369 -0.4142
33608SOL    HW1 3717   9.303   4.805   7.658 -0.1424  1.0055 -1.1489
33608SOL    HW2 3718   9.183   4.897   7.651 -1.5738 -0.7129  0.0865
33609SOL     OW 3719   6.115   9.236   7.451  0.2647 -0.8390  0.0321
33609SOL    HW1 3720   6.151   9.216   7.537  1.0577 -0.4530 -0.1988
33609SOL    HW2 3721   6.021   9.222   7.460  0.5196 -2.3661  0.5107
33610SOL     OW 3722   5.164   0.733   5.807  0.2680 -0.3055  0.3555
33610SOL    HW1 3723   5.258   0.746   5.819  0.2389  0.0021  0.2596
33610SOL    HW2 3724   5.153   0.725   5.712  0.2614 -0.8484  0.4021
33611SOL     OW 3725   6.698   3.945   4.356 -0.0756  0.1914 -0.4053
33611SOL    HW1 3726   6.604   3.960   4.346 -0.1405  0.2953  0.2834
33611SOL    HW2 3727   6.731   4.025   4.396  0.1655 -0.1402  0.0817
33612SOL     OW 3728   2.696   0.618   2.078  0.2607  0.3365  0.0637
33612SOL    HW1 3729   2.602   0.618   2.064  0.5351  0.5318 -2.1131
33612SOL    HW2 3730   2.709   0.668   2.159 -1.3818  2.0145 -0.6420
33613SOL     OW 3731   4.453   8.627  10.032 -0.2120  0.0734  0.0527
33613SOL    HW1 3732   4.503   8.546  10.021  0.2291  0.0281  2.0617
33613SOL    HW2 3733   4.518   8.697  10.028 -0.6110  0.3902 -1.8336
33614SOL     OW 3734   3.571   8.365   8.315  0.0210  0.0938 -0.1761
33614SOL    HW1 3735   3.633   8.293   8.322  0.7506  0.6950 -0.3158
33614SOL    HW2 3736   3.535   8.357   8.227  0.3852  0.1221 -0.3307
33615SOL     OW 3737   5.851   7.567   8.148  0.3323 -0.1091 -0.1156
33615SOL    HW1 3738   5.895   7.505   8.090  0.4575 -0.4157  0.2963
33615SOL    HW2 3739   5.829   7.642   8.092  2.3426  0.5409 -0.1179
33616SOL     OW 3740   9.646   5.337   8.526 -0.5507 -0.9613  0.0970
33616SOL    HW1 3741   9.720   5.293   8.484 -1.1882 -1.9294 -0.0455
33616SOL    HW2 3742   9.571   5.318   8.469 -1.2773 -1.6476  1.2496
33617SOL     OW 3743   3.140   3.828   5.174 -0.4976  0.1967 -0.4057
33617SOL    HW1 3744   3.135   3.821   5.079 -1.1254  1.8836 -0.5252
33617SOL    HW2 3745   3.178   3.744   5.202  0.9616  0.1821 -2.2318
33618SOL     OW 3746  10.597   4.729   6.254  0.1447 -0.8044  0.4428
33618SOL    HW1 3747  10.526   4.699   6.311 -0.5973 -0.3982 -0.2299
33618SOL    HW2 3748  10.623   4.651   6.205 -0.2716 -0.8298  0.2550
33619SOL     OW 3749  10.687  10.746   3.895 -0.1348 -0.1395 -0.2441
33619SOL    HW1 3750  10.629  10.783   3.962 -0.2996  0.2823 -0.6188
33619SOL    HW2 3751  10.715  10.662   3.932  1.9782  1.2536  1.6200
33620SOL     OW 3752   9.871   6.150  10.376 -0.0118 -0.2522  0.1413
33620SOL    HW1 3753   9.890   6.061  10.347 -0.9348 -1.5783  3.1498
33620SOL    HW2 3754   9.776   6.151  10.390 -0.1753  1.5564 -0.7657
33621SOL     OW 3755  10.168   9.407   8.923 -0.0565  0.0269 -0.0697
33621SOL    HW1 3756  10.177   9.498   8.894 -1.3948  0.3842  0.5484
33621SOL    HW2 3757  10.221   9.402   9.002  0.4758  0.1112 -0.4173
33622SOL     OW 3758   1.608   7.816   8.613  0.2504  0.3587  0.2169
33622SOL    HW1 3759   1.556   7.824   8.694  0.5031 -0.4535  0.4623
33622SOL    HW2 3760   1.651   7.731   8.620 -1.1612 -0.5792 -1.6119
33623SOL     OW 3761   7.395  10.485   6.186 -0.5949  0.1469  0.1164
33623SOL    HW1 3762   7.396  10.540   6.108  1.1744  1.6766  1.1555
33623SOL    HW2 3763   7.351  10.538   6.252 -0.0581 -0.2184  0.7770
33624SOL     OW 3764   9.842   2.319   0.621 -0.2596  0.1841 -0.2998
33624SOL    HW1 3765   9.814   2.403   0.583 -0.8888  0.0541 -0.1367
33624SOL    HW2 3766   9.799   2.316   0.707 -0.1802 -0.2710 -0.2728
33625SOL     OW 3767   4.604   1.270   4.247  0.0959  0.3965 -0.1315
33625SOL    HW1 3768   4.538   1.246   4.312 -0.4142 -0.3370 -0.8964
33625SOL    HW2 3769   4.681   1.218   4.272  0.2075  0.8253  0.4310
33626SOL     OW 3770   4.936   8.341   7.122  0.3153 -0.4204  0.2907
33626SOL    HW1 3771   4.966   8.426   7.154 -0.2564 -0.3372  0.6163
33626SOL    HW2 3772   4.903   8.296   7.200 -1.5381 -0.0330 -0.2106
33627SOL     OW 3773   3.106   2.101   5.908  0.1417  0.2500 -0.2451
33627SOL    HW1 3774   3.136   2.184   5.946 -0.2602  1.9384 -3.3169
33627SOL    HW2 3775   3.177   2.075   5.849 -0.2719 -0.9719 -0.2333
33628SOL     OW 3776   7.020   5.123   9.042  0.1594 -0.0978  0.3537
33628SOL    HW1 3777   7.067   5.194   9.084  1.0609  0.0515 -0.8584
33628SOL    HW2 3778   6.928   5.138   9.064  0.4906  0.5931  1.3141
33629SOL     OW 3779   4.189   9.982   6.973  0.3358 -0.4979  0.2637
33629SOL    HW1 3780   4.135  10.059   6.996  0.6692 -0.0277 -0.4945
33629SOL    HW2 3781   4.133   9.931   6.915  0.2491 -0.6449  0.4753
33630SOL     OW 3782   9.682   6.607   6.382 -0.0237 -0.4737 -0.1290
33630SOL    HW1 3783   9.750   6.584   6.318  1.5540 -1.1609  1.6931
33630SOL    HW2 3784   9.670   6.527   6.433 -1.3644  0.0144  0.3596
33631SOL     OW 3785   8.896   6.290   6.324 -0.0037 -0.4248  0.4471
33631SOL    HW1 3786   8.840   6.261   6.252  3.9321  0.8927 -3.5232
33631SOL    HW2 3787   8.957   6.218   6.337  1.0145  0.4361  0.5235
33632SOL     OW 3788   8.625   3.247   6.293  0.3596  0.7752 -0.2763
33632SOL    HW1 3789   8.588   3.164   6.322  1.1099  0.6823  0.4501
33632SOL    HW2 3790   8.551   3.308   6.292  0.1079  0.4952  0.7385
33633SOL     OW 3791   9.529   9.503   1.396 -0.1386  0.0534  0.2334
33633SOL    HW1 3792   9.577   9.566   1.341 -0.1316  0.5157  0.7606
33633SOL    HW2 3793   9.572   9.508   1.481  1.6619 -2.6671 -0.3973
33634SOL     OW 3794   0.331   9.730   0.544  0.2217 -0.1096 -0.3921
33634SOL    HW1 3795   0.402   9.779   0.502  0.7415  0.3857  0.9785
33634SOL    HW2 3796   0.374   9.683   0.616 -0.7723 -0.1471  0.2011
33635SOL     OW 3797   4.112   5.206   1.761 -0.5152  0.2655 -0.4358
33635SOL    HW1 3798   4.065   5.281   1.723 -2.2901  0.2472  1.5743
33635SOL    HW2 3799   4.082   5.131   1.710 -0.7153  0.5886 -0.7982
33636SOL     OW 3800   9.329   8.406   3.567  0.9010  0.2428  0.7528
33636SOL    HW1 3801   9.364   8.471   3.506 -2.7454  0.1356 -1.8443
33636SOL    HW2 3802   9.342   8.322   3.523 -2.6138  0.2394 -0.6347
33637SOL     OW 3803   8.659   6.083  10.007 -0.2815 -0.1850 -0.2177
33637SOL    HW1 3804   8.581   6.050   9.962 -0.7251  0.9594 -0.3288
33637SOL    HW2 3805   8.653   6.047  10.095 -0.4353 -0.8632 -0.4991
33638SOL     OW 3806   5.434   6.121   3.772 -0.4715  0.6741 -0.2964
33638SOL    HW1 3807   5.380   6.077   3.706  0.5904  0.0791 -0.8111
33638SOL    HW2 3808   5.522   6.123   3.732  0.2353  0.1171  1.1694
33639SOL     OW 3809   4.817   1.330   5.777  0.0410 -0.2918 -0.1240
33639SOL    HW1 3810   4.776   1.268   5.838  0.4251 -1.1398 -0.7089
33639SOL    HW2 3811   4.814   1.414   5.823 -1.6561 -0.4647  0.1585
33640SOL     OW 3812  10.345   6.124   9.415 -0.0374 -0.0465  0.6442
33640SOL    HW1 3813  10.322   6.033   9.402 -0.7290 -0.1743  2.4457
33640SOL    HW2 3814  10.350   6.134   9.511  0.8468  1.5968  0.4674
33641SOL     OW 3815   4.806   7.677   1.274 -0.0690 -0.2047 -0.3320
33641SOL    HW1 3816   4.806   7.724   1.358 -2.1983 -1.5492  0.5054
33641SOL    HW2 3817   4.718   7.690   1.240 -0.3356 -2.5542 -0.6485
33642SOL     OW 3818   6.847   6.036   2.070  0.1660  0.6191  0.0566
33642SOL    HW1 3819   6.807   5.979   2.005  0.6433  0.3770 -0.0255
33642SOL    HW2 3820   6.843   6.124   2.032 -0.0868  0.5626 -0.0447
33643SOL     OW 3821   2.531   6.932   9.605 -0.3501  0.2094 -0.2500
33643SOL    HW1 3822   2.623   6.916   9.584 -0.3596 -1.6386  0.8398
33643SOL    HW2 3823   2.506   7.007   9.552  1.4889  0.0644 -1.3893
33644SOL     OW 3824   5.500   5.171   2.495 -0.1655 -0.1348 -0.0320
33644SOL    HW1 3825   5.438   5.124   2.439  0.1221 -0.4903 -0.0532
33644SOL    HW2 3826   5.562   5.104   2.524  0.2872  0.2440 -0.1180
33645SOL     OW 3827   4.175   1.969   0.785  0.9418  0.9668  0.1564
33645SOL    HW1 3828   4.175   2.062   0.809 -0.9148  0.9346  0.4483
33645SOL    HW2 3829   4.197   1.968   0.692 -1.0015  1.9020 -0.3605
33646SOL     OW 3830  10.343   2.568   4.390 -0.5947 -0.0768 -0.2633
33646SOL    HW1 3831  10.317   2.481   4.361  1.7756 -0.5957 -1.0836
33646SOL    HW2 3832  10.403   2.553   4.463  0.8360  0.7174 -1.2044
33647SOL     OW 3833   8.509   8.047   9.994 -0.3582  0.5653 -0.3105
33647SOL    HW1 3834   8.437   8.024   9.935  0.0760 -1.5210 -0.1039
33647SOL    HW2 3835   8.581   7.990   9.967  0.4885  0.9947  0.9583
33648SOL     OW 3836   9.876   0.328   9.213 -0.3745  0.0104 -0.1484
33648SOL    HW1 3837   9.856   0.305   9.123  2.9378  0.4306 -1.1230
33648SOL    HW2 3838   9.969   0.351   9.212 -0.8145  2.6813  2.8470
33649SOL     OW 3839   2.719   0.456   1.325 -0.2970 -0.3547 -0.5179
33649SOL    HW1 3840   2.735   0.373   1.279  0.9113  0.0141 -0.7885
33649SOL    HW2 3841   2.796   0.468   1.381 -1.1503 -0.1472  0.6648
33650SOL     OW 3842  10.057   6.590   4.631 -0.1130 -0.1260  0.1901
33650SOL    HW1 3843  10.125   6.635   4.581  1.1779 -0.1954  1.7923
33650SOL    HW2 3844  10.041   6.647   4.707 -1.0324 -0.6545  0.4033
33651SOL     OW 3845   2.780  10.177   4.676  0.3625  0.0931  0.3418
33651SOL    HW1 3846   2.818  10.091   4.695 -1.1686 -0.6822  0.0226
33651SOL    HW2 3847   2.687  10.166   4.693  0.2807  2.0372  1.4474
33652SOL     OW 3848   1.319   9.473  10.486 -0.2731 -0.1831  0.6848
33652SOL    HW1 3849   1.257   9.531  10.530  0.6043  0.1880  1.4510
33652SOL    HW2 3850   1.367   9.430  10.557  0.7222 -0.0646  0.0959
33653SOL     OW 3851   6.495   9.421   1.037 -0.0536 -0.0260  0.0351
33653SOL    HW1 3852   6.561   9.361   1.002 -0.6287 -1.3129  1.0336
33653SOL    HW2 3853   6.495   9.495   0.977  1.6979 -0.3674 -0.4602
33654SOL     OW 3854   5.891   0.837   2.401 -0.0676  0.2438 -0.1559
33654SOL    HW1 3855   5.886   0.787   2.482  1.7245 -1.4703 -1.0066
33654SOL    HW2 3856   5.824   0.905   2.410 -0.8635 -0.7490  2.1366
33655SOL     OW 3857   6.866   3.692   0.662  0.6142  0.4029  0.0952
33655SOL    HW1 3858   6.946   3.640   0.662  0.7793  0.6354 -0.9243
33655SOL    HW2 3859   6.866   3.736   0.576 -1.2148 -0.5452 -0.4342
33656SOL     OW 3860   6.779   2.547   4.735  0.1042 -0.5733  0.2827
33656SOL    HW1 3861   6.806   2.523   4.647 -1.3930 -1.0559 -0.0741
33656SOL    HW2 3862   6.737   2.632   4.725  0.8843 -0.1315  0.7150
33657SOL     OW 3863   5.494   7.750   0.238  0.1126  0.6847 -0.4890
33657SOL    HW1 3864   5.540   7.686   0.184  1.3197  1.8515 -0.8904
33657SOL    HW2 3865   5.481   7.706   0.322  4.9707  1.3375  0.8920
33658SOL     OW 3866   6.236   5.545   2.741  0.1813  0.1068 -0.0003
33658SOL    HW1 3867   6.250   5.566   2.833 -2.0075  1.4303  0.1117
33658SOL    HW2 3868   6.149   5.581   2.721  0.4575 -0.4079 -2.5090
33659SOL     OW 3869   3.894   7.163   8.622  0.1588  0.3234  0.2324
33659SOL    HW1 3870   3.947   7.128   8.693 -0.0211 -0.1904  0.1117
33659SOL    HW2 3871   3.950   7.229   8.581  0.5367  0.0961  0.3818
33660SOL     OW 3872   1.949   4.430   9.795 -0.1019  0.4475  0.3608
33660SOL    HW1 3873   1.948   4.348   9.745 -0.0987  1.7195 -1.8541
33660SOL    HW2 3874   1.956   4.402   9.886  1.1416 -1.9847 -0.3855
33661SOL     OW 3875   9.236   6.715   5.872  0.0589 -0.3267  0.4087
33661SOL    HW1 3876   9.270   6.626   5.877  0.7516 -0.0639  0.4707
33661SOL    HW2 3877   9.257   6.753   5.957  0.0508 -0.0012  0.2644
33662SOL     OW 3878  10.001   8.318   3.674 -0.1928  0.6578  0.1315
33662SOL    HW1 3879  10.023   8.258   3.746 -0.9376 -0.6138 -0.6724
33662SOL    HW2 3880   9.905   8.321   3.674 -0.2704 -0.4233 -1.6190
33663SOL     OW 3881   7.862   1.331   7.791 -0.6504  0.2056  0.0119
33663SOL    HW1 3882   7.890   1.355   7.879 -0.1318 -2.5278  0.6618
33663SOL    HW2 3883   7.771   1.302   7.801 -0.1580 -1.4485 -0.0409
33664SOL     OW 3884   5.052   9.150   3.472  0.4373  0.3734  0.1769
33664SOL    HW1 3885   5.131   9.187   3.512  0.2647 -0.8715  1.7497
33664SOL    HW2 3886   4.994   9.133   3.545 -1.7517  2.1599 -1.0117
33665SOL     OW 3887   8.048   9.915   3.737  0.3462  0.2751  0.4298
33665SOL    HW1 3888   8.049  10.008   3.762  0.3634  0.1232  0.9969
33665SOL    HW2 3889   8.108   9.910   3.662  1.1002  0.5553  1.0012
33666SOL     OW 3890  10.294   8.451  10.337  0.7604 -0.2462  0.3046
33666SOL    HW1 3891  10.334   8.365  10.351  0.5971 -0.4773 -0.5828
33666SOL    HW2 3892  10.334   8.508  10.403  0.7827 -1.0255  0.9761
33667SOL     OW 3893   4.550  10.446   5.270 -0.0304  0.4725  0.2781
33667SOL    HW1 3894   4.474  10.445   5.328 -1.7372 -0.5519 -1.8324
33667SOL    HW2 3895   4.577  10.354   5.264 -0.7035  0.3457 -1.4785
33668SOL     OW 3896   8.453   1.088   6.580 -0.6115  0.2845 -0.1184
33668SOL    HW1 3897   8.470   1.074   6.487  1.0998  0.0877  0.1971
33668SOL    HW2 3898   8.526   1.046   6.625 -1.3628  0.4534  1.3206
33669SOL     OW 3899   3.495   8.208  10.081  0.2078 -0.0314 -0.1103
33669SOL    HW1 3900   3.436   8.206  10.156  1.6952 -2.0669  1.1033
33669SOL    HW2 3901   3.567   8.149  10.105  0.8333 -0.6247 -3.0713
33670SOL     OW 3902   7.142   0.768   8.210  0.4837  0.2727  0.3272
33670SOL    HW1 3903   7.171   0.743   8.298  0.7046  0.3621  0.2810
33670SOL    HW2 3904   7.050   0.791   8.221  0.5879  0.5713  0.5923
33671SOL     OW 3905   8.782   4.761   9.167 -0.9026 -0.2714 -0.1921
33671SOL    HW1 3906   8.754   4.844   9.129  1.3682  0.7701  0.3202
33671SOL    HW2 3907   8.765   4.770   9.261 -0.3422 -0.2438 -0.0903
33672SOL     OW 3908   1.515   2.411   0.823  0.4505  0.2802  0.1731
33672SOL    HW1 3909   1.484   2.321   0.815  0.4902  0.3055 -0.3129
33672SOL    HW2 3910   1.533   2.423   0.916 -1.2969  0.3678  0.5249
33673SOL     OW 3911   8.528   7.742   6.699  0.4013  0.3090  0.6847
33673SOL    HW1 3912   8.593   7.674   6.717 -0.6791 -0.2410  2.8084
33673SOL    HW2 3913   8.570   7.823   6.724  1.0960  0.2616 -0.2591
33674SOL     OW 3914   5.288   1.350   5.839 -0.3558  0.1352  0.0370
33674SOL    HW1 3915   5.316   1.275   5.891 -1.3848 -0.0094  0.4102
33674SOL    HW2 3916   5.197   1.331   5.816 -0.1145  0.4854 -1.3039
33675SOL     OW 3917   5.976   6.310   1.947  0.0461 -0.3249  0.2409
33675SOL    HW1 3918   6.013   6.255   1.879  2.0311  0.0322  0.9743
33675SOL    HW2 3919   6.022   6.284   2.027 -1.0681  0.3939  1.1508
33676SOL     OW 3920  10.287   3.330   4.418 -0.0923 -0.4623  0.5485
33676SOL    HW1 3921  10.364   3.315   4.363 -1.0448 -0.2300 -0.8873
33676SOL    HW2 3922  10.243   3.246   4.422 -0.9211 -0.0968 -0.4771
33677SOL     OW 3923   9.485   7.024   9.930 -0.0771 -0.5421  0.4889
33677SOL    HW1 3924   9.497   7.114   9.900 -0.0061 -0.9231 -0.6744
33677SOL    HW2 3925   9.522   7.023  10.018  0.7191  0.3569  0.1838
33678SOL     OW 3926   1.478   1.841   7.336 -0.3377 -0.2112 -0.4005
33678SOL    HW1 3927   1.537   1.866   7.407 -0.1367 -0.0409 -0.6288
33678SOL    HW2 3928   1.459   1.749   7.352  1.2558 -0.7158 -1.2166
33679SOL     OW 3929  10.569   5.924   4.270 -0.8693 -0.4326  0.0476
33679SOL    HW1 3930  10.476   5.926   4.292 -0.6739  1.5064  0.8515
33679SOL    HW2 3931  10.612   5.966   4.344  0.3228  1.6333 -1.7161
33680SOL     OW 3932   7.095   7.765   8.445  0.3242 -0.0464  0.5662
33680SOL    HW1 3933   7.002   7.752   8.464  0.3322  0.1780  0.7672
33680SOL    HW2 3934   7.133   7.794   8.528  0.7145 -0.8251  0.6779
33681SOL     OW 3935  10.562   7.058   3.398  0.0307  0.8033  0.0882
33681SOL    HW1 3936  10.597   7.138   3.358  0.5413  0.2042 -0.6830
33681SOL    HW2 3937  10.639   7.006   3.420 -0.2542  0.9408  1.5132
33682SOL     OW 3938   5.361   3.923   6.135 -0.1747  0.1356 -0.1034
33682SOL    HW1 3939   5.423   3.896   6.203  0.0470 -0.5286 -0.5708
33682SOL    HW2 3940   5.350   3.847   6.080 -1.2319  0.3196 -0.1731
33683SOL     OW 3941   4.126   5.441   9.785  0.1356  0.0352  0.5901
33683SOL    HW1 3942   4.208   5.448   9.834  0.3635 -0.2971  0.2619
33683SOL    HW2 3943   4.087   5.359   9.816 -0.4026  0.5219  1.2347
33684SOL     OW 3944   9.147   0.316   7.641  0.3635 -0.0461  0.0564
33684SOL    HW1 3945   9.197   0.393   7.611 -1.3999  2.3048  2.6421
33684SOL    HW2 3946   9.213   0.248   7.653  2.5054  1.9598  0.3759
33685SOL     OW 3947   1.513   9.179   0.787 -0.2163 -0.0481 -0.6095
33685SOL    HW1 3948   1.449   9.156   0.854 -0.8547  0.9654 -0.8578
33685SOL    HW2 3949   1.548   9.094   0.758  0.5436 -0.5116  1.4122
33686SOL     OW 3950   6.888   4.106   8.026 -0.4624 -0.2944  0.2661
33686SOL    HW1 3951   6.843   4.022   8.024  0.6074 -0.8787 -0.4715
33686SOL    HW2 3952   6.941   4.103   8.106  1.8139 -1.6011 -1.1702
33687SOL     OW 3953   4.905   7.988   5.293  0.2156  0.4614  0.0141
33687SOL    HW1 3954   4.940   8.077   5.288 -1.9452  1.4009  0.6194
33687SOL    HW2 3955   4.930   7.957   5.380 -0.8166  1.3003  0.6226
33688SOL     OW 3956   3.658   2.623   5.498 -0.3433  0.5629 -0.1939
33688SOL    HW1 3957   3.723   2.553   5.499  0.5254  1.3367 -0.9210
33688SOL    HW2 3958   3.668   2.664   5.412  0.1090  2.4264  0.6906
33689SOL     OW 3959   9.553   9.525  10.566 -0.3682  0.2741  0.5428
33689SOL    HW1 3960   9.638   9.544  10.606  0.2522  0.5778 -0.8600
33689SOL    HW2 3961   9.532   9.436  10.594  2.1743 -1.2655 -1.9527
33690SOL     OW 3962   9.520   6.153   7.900 -0.2536 -0.0175 -0.0633
33690SOL    HW1 3963   9.430   6.137   7.872 -0.1846 -1.5763  0.4931
33690SOL    HW2 3964   9.513   6.222   7.966 -0.9364  0.4632 -0.6257
33691SOL     OW 3965   9.298   3.555   6.295  0.1802  0.9127  0.3498
33691SOL    HW1 3966   9.299   3.470   6.338  0.2177  1.3396  1.2035
33691SOL    HW2 3967   9.313   3.535   6.202  1.4482  0.0853  0.7082
33692SOL     OW 3968   4.063   4.567   4.186  0.2395 -0.1941 -0.6152
33692SOL    HW1 3969   4.126   4.552   4.116 -0.8118 -1.3553 -1.3693
33692SOL    HW2 3970   4.067   4.487   4.239 -0.1372 -0.0171 -0.3160
33693SOL     OW 3971   5.730   4.062   3.024 -0.2874  0.5166 -0.2059
33693SOL    HW1 3972   5.700   4.004   3.093 -1.7014 -0.3587 -1.5003
33693SOL    HW2 3973   5.791   4.009   2.972  1.4866  1.4432  0.8178
33694SOL     OW 3974   4.394   0.226   7.454 -0.2538  0.2741  0.1858
33694SOL    HW1 3975   4.376   0.316   7.428  3.5168  1.5709  1.4506
33694SOL    HW2 3976   4.340   0.212   7.532  0.5413  2.1609  1.1180
33695SOL     OW 3977   8.682   2.057  10.672  0.7694  0.1410 -0.8395
33695SOL    HW1 3978   8.637   1.993  10.726  1.6521  0.5309  0.4096
33695SOL    HW2 3979   8.708   2.008  10.593 -0.2444 -0.5162 -0.7821
33696SOL     OW 3980   7.112   8.065   4.838  0.7015  0.4150 -0.7810
33696SOL    HW1 3981   7.060   7.990   4.808  1.1050  0.0275 -0.5254
33696SOL    HW2 3982   7.203   8.034   4.835  0.7960  0.5350  0.3020
33697SOL     OW 3983   2.946   0.929   6.826 -0.5315  0.3957 -0.1364
33697SOL    HW1 3984   2.933   0.928   6.921  0.0185 -0.1147 -0.0576
33697SOL    HW2 3985   2.890   0.860   6.793  1.2354 -1.2356  0.1150
33698SOL     OW 3986   3.703   6.554   6.880 -0.5881  0.1782 -0.1292
33698SOL    HW1 3987   3.628   6.560   6.940  0.3095 -1.4924  1.2645
33698SOL    HW2 3988   3.779   6.560   6.937  0.3247 -0.3727 -1.2488
33699SOL     OW 3989   5.052   9.636   6.324 -0.1201  0.2659  0.0534
33699SOL    HW1 3990   4.973   9.652   6.375 -0.7127 -1.6004 -0.1981
33699SOL    HW2 3991   5.089   9.555   6.361  0.6596  0.1061 -1.0200
33700SOL     OW 3992   3.922   8.616   0.844 -0.4512 -0.0607  0.4127
33700SOL    HW1 3993   3.827   8.629   0.843 -0.5977 -0.5379  2.5947
33700SOL    HW2 3994   3.933   8.523   0.824 -0.4287  0.0379 -0.0367
33701SOL     OW 3995   7.733   0.136   4.349 -0.1242 -0.1236 -0.1192
33701SOL    HW1 3996   7.756   0.145   4.257  0.9207 -1.6265 -0.0365
33701SOL    HW2 3997   7.817   0.133   4.395 -0.5263 -1.9202  0.5924
33702SOL     OW 3998   0.343   0.862   5.805  0.3297  0.1591 -1.0031
33702SOL    HW1 3999   0.339   0.844   5.899  2.8930 -0.2245 -0.8835
33702SOL    HW2 4000   0.282   0.800   5.766 -0.3356 -0.0818  0.3527
33703SOL     OW 4001   1.447  10.606   9.319 -0.5081  0.4088  0.1583
33703SOL    HW1 4002   1.473  10.624   9.409  0.8065  0.0446 -0.1158
33703SOL    HW2 4003   1.530  10.605   9.271 -1.1968  0.6981 -1.0711
33704SOL     OW 4004   0.992   6.591   2.175  0.6378  0.6631 -0.1495
33704SOL    HW1 4005   0.980   6.505   2.215 -1.5822  0.8455 -0.2476
33704SOL    HW2 4006   0.967   6.653   2.244  1.2288  1.1808 -0.3956
33705SOL     OW 4007   1.507   5.959   9.829 -0.1194 -0.2609  0.6080
33705SOL    HW1 4008   1.597   5.947   9.800 -0.1586 -1.2468  0.8566
33705SOL    HW2 4009   1.469   6.017   9.763  0.5214 -0.3542  0.1419
33706SOL     OW 4010   2.514   7.619   9.122 -0.5234  0.2853  0.1636
33706SOL    HW1 4011   2.553   7.648   9.040  1.0240  2.5547  1.6107
33706SOL    HW2 4012   2.434   7.671   9.130 -0.4486  0.3792  0.2993
33707SOL     OW 4013  10.524   4.911   2.055 -0.1073  0.4020  0.2343
33707SOL    HW1 4014  10.587   4.859   2.105  0.8976  1.4685  0.1274
33707SOL    HW2 4015  10.463   4.945   2.121 -1.4954 -1.8088  0.1771
33708SOL     OW 4016   5.904   1.855   7.570  0.7276 -0.3231 -0.0269
33708SOL    HW1 4017   5.874   1.922   7.509  0.4414 -2.0415 -1.8725
33708SOL    HW2 4018   5.982   1.893   7.611 -1.1413  2.3700  1.4247
33709SOL     OW 4019   8.539   3.678   0.178 -0.0543 -0.4993  0.5435
33709SOL    HW1 4020   8.468   3.621   0.207 -0.0512 -0.9654 -0.3312
33709SOL    HW2 4021   8.558   3.650   0.089  0.6431  0.2003  0.4548
33710SOL     OW 4022   1.378   4.485   0.946  0.2855 -0.1824 -0.3464
33710SOL    HW1 4023   1.318   4.473   0.872 -0.4260  3.2350 -0.4730
33710SOL    HW2 4024   1.321   4.486   1.023 -0.5794  5.5785 -0.6317
33711SOL     OW 4025   8.828   1.224   8.633 -0.6879 -0.2665 -0.1337
33711SOL    HW1 4026   8.767   1.190   8.568  0.5544 -1.7000 -0.6105
33711SOL    HW2 4027   8.897   1.266   8.582 -0.0541 -0.7977  0.2610
33712SOL     OW 4028   5.502   0.608   5.305  0.0899  0.1174 -0.4448
33712SOL    HW1 4029   5.450   0.589   5.227 -0.6960 -0.3572  0.1838
33712SOL    HW2 4030   5.473   0.694   5.333  0.5090  0.3705 -0.7809
33713SOL     OW 4031   9.741   4.262   5.417  0.1082  0.5744  0.2086
33713SOL    HW1 4032   9.800   4.252   5.342 -0.6698 -0.0878 -0.3414
33713SOL    HW2 4033   9.762   4.190   5.475 -0.5612 -0.0351 -0.2853
33714SOL     OW 4034   5.221   4.436   4.873  0.5383  0.4111  0.2651
33714SOL    HW1 4035   5.173   4.387   4.940 -1.7183  0.3163 -1.3122
33714SOL    HW2 4036   5.257   4.512   4.919  0.1574 -0.3065  1.8099
33715SOL     OW 4037   9.176   1.138   4.646 -0.5177  0.1053 -0.1329
33715SOL    HW1 4038   9.154   1.071   4.711 -0.1335  1.3245  1.3108
33715SOL    HW2 4039   9.185   1.090   4.564  1.2335 -1.8371  1.1136
33716SOL     OW 4040   0.016   1.418   7.717  0.5471  0.4158  0.2279
33716SOL    HW1 4041  -0.018   1.408   7.628 -1.3526  2.3738  0.6376
33716SOL    HW2 4042  -0.043   1.365   7.771 -0.4749  1.9146  0.6582
33717SOL     OW 4043   5.679   4.280  10.226 -0.0083 -0.7381  0.0538
33717SOL    HW1 4044   5.774   4.269  10.222 -0.0816 -1.3294 -0.2676
33717SOL    HW2 4045   5.660   4.344  10.157 -0.1079 -2.6886 -1.8564
33718SOL     OW 4046   7.734   8.231   6.991 -0.0878  0.1345  0.5757
33718SOL    HW1 4047   7.811   8.274   6.953 -0.2081  0.2401  0.4496
33718SOL    HW2 4048   7.660   8.268   6.943 -0.0659 -1.9133 -1.1565
33719SOL     OW 4049   0.267   7.930   1.008 -0.1599  0.4189  0.6884
33719SOL    HW1 4050   0.213   7.986   1.065 -0.4327 -0.6105  1.4884
33719SOL    HW2 4051   0.297   7.860   1.066  1.2872  0.4721  0.0248
33720SOL     OW 4052   0.852   7.518   8.976  0.1881 -0.0550  0.4985
33720SOL    HW1 4053   0.918   7.582   8.949  0.2863  1.1663  3.2846
33720SOL    HW2 4054   0.770   7.550   8.938  0.7264 -0.0148 -0.6631
33721SOL     OW 4055   3.190   7.813   5.634 -0.3819 -0.1372 -0.5926
33721SOL    HW1 4056   3.255   7.747   5.609  0.3088 -0.4168  1.7499
33721SOL    HW2 4057   3.241   7.891   5.655 -0.7906 -0.2249  0.8544
33722SOL     OW 4058   8.271   8.879   9.065  0.4780 -0.2626  0.5644
33722SOL    HW1 4059   8.176   8.867   9.066  0.5003 -0.5475  1.6863
33722SOL    HW2 4060   8.294   8.891   9.158  1.5304 -0.1950  0.3054
33723SOL     OW 4061   4.516   2.177   8.810  0.7042  0.0528 -0.2625
33723SOL    HW1 4062   4.541   2.108   8.748  1.1147  1.1016 -1.3014
33723SOL    HW2 4063   4.558   2.256   8.776 -0.8921  1.1134  0.0962
33724SOL     OW 4064   5.232   1.558   1.452 -0.3619  0.2196 -0.1733
33724SOL    HW1 4065   5.220   1.552   1.357 -1.1167  2.2242 -0.2446
33724SOL    HW2 4066   5.302   1.621   1.464 -1.2135  1.0409  0.6096
33725SOL     OW 4067   0.798   0.695  10.425  0.3118 -0.3068  0.1965
33725SOL    HW1 4068   0.828   0.741  10.346  0.2571  0.1919  0.4580
33725SOL    HW2 4069   0.724   0.642  10.395  2.5840 -3.0980 -0.8680
33726SOL     OW 4070   6.413   2.766   8.719  0.6569  0.6193  0.3950
33726SOL    HW1 4071   6.482   2.813   8.765  0.7562  1.1370 -0.2756
33726SOL    HW2 4072   6.370   2.832   8.665  0.4954  0.0350 -0.2034
33727SOL     OW 4073   0.378   2.651   9.342  0.2765  0.2263 -1.0326
33727SOL    HW1 4074   0.443   2.612   9.402 -0.4696  2.0632  1.1292
33727SOL    HW2 4075   0.298   2.600   9.357  0.1732  0.4870 -0.6892
33728SOL     OW 4076   4.382   3.350   8.612 -0.4417 -0.0216 -1.3721
33728SOL    HW1 4077   4.428   3.288   8.555  1.2891  1.6697 -1.9258
33728SOL    HW2 4078   4.418   3.435   8.588 -1.0185  0.9595  0.9917
33729SOL     OW 4079   2.619   3.487  10.484 -0.4177  0.4332 -0.3654
33729SOL    HW1 4080   2.535   3.511  10.445 -0.3101  0.8626 -0.3373
33729SOL    HW2 4081   2.596   3.460  10.573 -0.6595 -0.5224 -0.7051
33730SOL     OW 4082   7.844   1.200   3.339 -0.3077  0.7710  0.0318
33730SOL    HW1 4083   7.832   1.295   3.327  0.6765  0.6501 -2.3997
33730SOL    HW2 4084   7.853   1.166   3.251  1.5445 -1.3154  0.9322
33731SOL     OW 4085   8.974   3.261   9.183  0.9432  0.1067  0.6527
33731SOL    HW1 4086   8.879   3.250   9.178  0.7461  1.8448 -0.1491
33731SOL    HW2 4087   9.008   3.173   9.203 -0.7178 -0.8045 -0.3551
33732SOL     OW 4088   6.429   1.849   5.096  0.2297  0.2382  0.1471
33732SOL    HW1 4089   6.376   1.812   5.026 -0.2399  0.0084  0.6164
33732SOL    HW2 4090   6.383   1.824   5.177  0.4295  1.0159  0.5141
33733SOL     OW 4091   9.604   6.092  10.459  0.0059 -0.8589  0.4946
33733SOL    HW1 4092   9.513   6.107  10.435  0.0324 -0.6269  0.5357
33733SOL    HW2 4093   9.623   6.003  10.428 -0.1111 -0.7533  0.1160
33734SOL     OW 4094   6.196   0.648   8.596  0.1693  0.3436 -0.1876
33734SOL    HW1 4095   6.126   0.645   8.532 -0.6069  0.8004  0.6114
33734SOL    HW2 4096   6.161   0.702   8.667  0.5365 -1.1336  1.1740
33735SOL     OW 4097   1.482   3.979  10.583 -0.2941  0.4427  0.0896
33735SOL    HW1 4098   1.469   4.057  10.530  3.4885  1.4277  0.3117
33735SOL    HW2 4099   1.416   3.986  10.653 -1.2113  2.4396 -0.9052
33736SOL     OW 4100   0.671   2.084  10.414  0.3130  1.2282  0.1289
33736SOL    HW1 4101   0.601   2.022  10.390 -0.5387  1.3204  2.1851
33736SOL    HW2 4102   0.640   2.168  10.380 -0.9026  1.3750  1.5245
33737SOL     OW 4103   0.978   4.047   2.339 -0.0579  0.3726  0.4037
33737SOL    HW1 4104   1.006   4.057   2.430  2.1550 -0.2426 -0.1424
33737SOL    HW2 4105   1.024   4.118   2.293  0.5377 -0.5908 -0.5306
33738SOL     OW 4106   0.501   0.037   5.723  0.1115  0.0672  0.5455
33738SOL    HW1 4107   0.413   0.001   5.711 -0.4757  2.0495 -1.6574
33738SOL    HW2 4108   0.550  -0.035   5.764 -2.1846 -1.5114  0.7300
33739SOL     OW 4109  10.225   0.164   4.955  0.2064  0.0495  0.3499
33739SOL    HW1 4110  10.302   0.206   4.993  0.1206  0.0569  0.5160
33739SOL    HW2 4111  10.202   0.095   5.018  0.3789 -0.2847  0.0524
33740SOL     OW 4112   5.245   5.857   7.746 -0.2519  0.0297  0.8562
33740SOL    HW1 4113   5.242   5.953   7.739  0.4050  0.2020  2.4031
33740SOL    HW2 4114   5.302   5.830   7.674 -0.3813  0.8065  0.4439
33741SOL     OW 4115   4.918   0.328   6.797  0.0650  0.1738 -0.3832
33741SOL    HW1 4116   4.837   0.340   6.847  1.0379  0.1568  1.2773
33741SOL    HW2 4117   4.928   0.409   6.747 -1.4478 -0.2170 -1.3811
33742SOL     OW 4118   7.995   2.012   1.521  0.2712 -0.1104 -0.1075
33742SOL    HW1 4119   7.934   2.081   1.549  0.3273 -0.0805 -0.0580
33742SOL    HW2 4120   8.043   2.050   1.448 -0.8642 -0.6837 -1.2034
33743SOL     OW 4121   9.810   9.781   1.453  0.7627  0.1365  0.5958
33743SOL    HW1 4122   9.854   9.700   1.479 -1.1078 -2.1399 -2.6325
33743SOL    HW2 4123   9.851   9.805   1.370  0.5770  1.9481  0.9874
33744SOL     OW 4124   2.333   5.771   6.648 -0.4775 -0.2561  0.3276
33744SOL    HW1 4125   2.308   5.720   6.571 -1.6061 -0.0015  0.5020
33744SOL    HW2 4126   2.403   5.719   6.689 -0.2296 -0.6533 -0.5706
33745SOL     OW 4127   4.793  10.655  10.752 -0.2829 -0.7633 -0.3126
33745SOL    HW1 4128   4.784  10.569  10.794 -1.7085 -0.1308  0.7577
33745SOL    HW2 4129   4.864  10.697  10.800 -1.4931 -0.2821  1.1143
33746SOL     OW 4130   0.395  10.080   7.977 -0.0542  0.4592  0.4688
33746SOL    HW1 4131   0.461  10.146   7.999  0.5388  0.5545 -1.3882
33746SOL    HW2 4132   0.353  10.059   8.060  3.1988 -0.5791  2.0177
33747SOL     OW 4133   9.737   7.630   9.592 -0.1333 -0.2016 -0.4968
33747SOL    HW1 4134   9.798   7.556   9.599  0.5053  0.3343 -0.2695
33747SOL    HW2 4135   9.688   7.629   9.674  2.2404  1.6506  1.0659
33748SOL     OW 4136   8.333   3.319   1.224  0.1450  0.4552  0.2503
33748SOL    HW1 4137   8.410   3.263   1.233 -2.2277 -2.9430  1.6853
33748SOL    HW2 4138   8.316   3.350   1.313  0.7529  2.6033 -0.3427
33749SOL     OW 4139   9.200   6.362   7.298 -0.2040  0.4069 -0.6187
33749SOL    HW1 4140   9.168   6.374   7.387 -0.0945 -0.1950 -0.4943
33749SOL    HW2 4141   9.124   6.330   7.249 -0.0126 -0.2194 -0.5124
33750SOL     OW 4142   8.630   6.122   5.950  0.1388 -0.3076 -0.0632
33750SOL    HW1 4143   8.595   6.052   6.004  1.0777  0.0370  1.0364
33750SOL    HW2 4144   8.557   6.149   5.894 -0.0261 -2.6835 -1.1176
33751SOL     OW 4145   9.776   1.206   7.218 -0.4637 -0.9025 -0.3089
33751SOL    HW1 4146   9.837   1.276   7.240 -0.7941 -0.9637  0.9177
33751SOL    HW2 4147   9.700   1.251   7.182 -0.1405 -0.7438 -0.8037
33752SOL     OW 4148   8.208   6.796   5.769 -0.1289  0.1853 -0.3020
33752SOL    HW1 4149   8.221   6.823   5.860  2.4577 -1.0522 -0.2192
33752SOL    HW2 4150   8.185   6.703   5.775 -1.0423  0.3607 -0.8880
33753SOL     OW 4151   0.507   8.622   7.026  0.0618 -0.0710  0.4515
33753SOL    HW1 4152   0.475   8.533   7.039  1.2040 -0.3406  1.6080
33753SOL    HW2 4153   0.428   8.676   7.024 -0.6847 -1.1503 -0.8133
33754SOL     OW 4154   7.739   8.372   0.361 -0.5503  0.1184 -0.3065
33754SOL    HW1 4155   7.787   8.453   0.378 -1.5318  0.9542 -1.3892
33754SOL    HW2 4156   7.800   8.318   0.310  0.6635 -0.4883  1.6842
33755SOL     OW 4157   4.539   5.790   1.077 -0.5013 -0.9424 -0.1213
33755SOL    HW1 4158   4.553   5.696   1.084 -0.3508 -1.0701 -1.6988
33755SOL    HW2 4159   4.485   5.812   1.153 -1.8119 -2.5766 -0.5133
33756SOL     OW 4160   2.087   3.888   6.406  0.1119  0.5175 -0.2802
33756SOL    HW1 4161   2.157   3.830   6.379  0.2049  0.9712 -1.0354
33756SOL    HW2 4162   2.022   3.882   6.336 -0.0389  1.0526 -0.1926
33757SOL     OW 4163   3.747   2.541   4.290 -0.1026 -0.4852  0.6716
33757SOL    HW1 4164   3.776   2.627   4.260 -2.3708  0.3582  0.7253
33757SOL    HW2 4165   3.779   2.536   4.380  0.7214 -0.0443  0.4148
33758SOL     OW 4166   3.696   5.887  10.008  0.1812  0.2533  0.6524
33758SOL    HW1 4167   3.741   5.857   9.929  1.8839  1.8084  0.9745
33758SOL    HW2 4168   3.666   5.976   9.987 -2.3503 -0.5025  0.6487
33759SOL     OW 4169   9.438   5.387   4.909  0.4045 -0.1383  0.4890
33759SOL    HW1 4170   9.491   5.457   4.871 -0.8925 -0.5232 -2.2969
33759SOL    HW2 4171   9.393   5.429   4.983  0.3939  1.7417 -0.5007
33760SOL     OW 4172   5.160  10.606   4.608  0.4747  0.1282  0.1170
33760SOL    HW1 4173   5.242  10.583   4.652  0.1778 -0.0351  0.5840
33760SOL    HW2 4174   5.134  10.689   4.647 -0.2127 -0.4206  0.8348
33761SOL     OW 4175   9.676   6.781   7.961 -0.6548  0.7475  0.2932
33761SOL    HW1 4176   9.764   6.752   7.984 -1.0354 -0.3992  0.3750
33761SOL    HW2 4177   9.628   6.783   8.044 -1.5450 -1.7128 -0.0696
33762SOL     OW 4178   2.026   2.727   2.905  0.0439  0.1865  0.3035
33762SOL    HW1 4179   1.981   2.730   2.821 -1.4374 -0.3398  1.0513
33762SOL    HW2 4180   1.961   2.755   2.969  1.5359  1.8829  1.1611
33763SOL     OW 4181   4.716   2.252   6.604 -0.1650  0.4790  0.1052
33763SOL    HW1 4182   4.698   2.164   6.570 -1.0563  0.2961  1.0272
33763SOL    HW2 4183   4.770   2.238   6.682 -2.0191  0.5812  1.4745
33764SOL     OW 4184   6.093   9.599   3.741 -0.1885  0.0084  0.2760
33764SOL    HW1 4185   6.128   9.681   3.706 -1.5181  0.3579 -0.3107
33764SOL    HW2 4186   6.154   9.532   3.710  0.6864  0.7146  0.4136
33765SOL     OW 4187  10.060   1.442   2.554 -0.0016 -0.2396  0.3890
33765SOL    HW1 4188  10.070   1.348   2.536 -0.3159 -0.4330  1.1768
33765SOL    HW2 4189   9.968   1.460   2.536 -0.1206 -0.2553  0.9543
33766SOL     OW 4190   2.892   8.134   0.409 -0.0606  0.4810  0.7416
33766SOL    HW1 4191   2.838   8.200   0.365  2.8346  1.7202 -1.3273
33766SOL    HW2 4192   2.860   8.050   0.375  0.0307  1.2421 -1.3803
33767SOL     OW 4193   9.796   7.064   2.764 -0.0309  0.2956  0.6083
33767SOL    HW1 4194   9.847   7.144   2.760  0.9711 -0.3129  0.9809
33767SOL    HW2 4195   9.857   6.995   2.738 -1.3109 -0.1772 -1.3565
33768SOL     OW 4196   9.576   3.420   3.646  0.0095 -0.1890  0.3265
33768SOL    HW1 4197   9.665   3.388   3.632  0.4877  0.8369  0.9422
33768SOL    HW2 4198   9.574   3.507   3.606  0.2209  1.0948  2.9026
33769SOL     OW 4199   2.654   1.475   9.130 -0.1016 -0.1685 -0.2324
33769SOL    HW1 4200   2.602   1.441   9.202  1.3711 -1.6162  0.2275
33769SOL    HW2 4201   2.634   1.417   9.056  0.4958 -0.4720 -0.1681
33770SOL     OW 4202   7.354   6.390   3.943 -0.2627  0.7433  0.3258
33770SOL    HW1 4203   7.271   6.354   3.972  0.4564  0.4557  2.2109
33770SOL    HW2 4204   7.419   6.346   3.998  1.2908 -0.0231 -1.9726
33771SOL     OW 4205   2.704  10.584   6.591 -0.3429  0.3580  0.0158
33771SOL    HW1 4206   2.744  10.520   6.650  0.3258  1.1060  0.3868
33771SOL    HW2 4207   2.610  10.572   6.602 -0.2411 -0.9790 -0.3872
33772SOL     OW 4208   6.072   9.605   3.040 -0.4734  0.0364  0.4564
33772SOL    HW1 4209   6.025   9.630   3.119 -2.1080 -1.9109  0.1713
33772SOL    HW2 4210   6.020   9.536   3.001  1.7206 -0.9909 -0.8812
33773SOL     OW 4211   1.217   9.925   7.335 -0.2586 -0.2501 -0.5768
33773SOL    HW1 4212   1.143   9.912   7.394 -0.3346 -1.4554 -0.9031
33773SOL    HW2 4213   1.183   9.982   7.266 -0.6100 -0.0550 -0.2441
33774SOL     OW 4214   5.057   3.834   9.468  0.0723 -0.1868  0.9897
33774SOL    HW1 4215   5.079   3.923   9.496  0.0409  0.0918  0.1638
33774SOL    HW2 4216   4.967   3.822   9.497  0.0377  0.0984  1.0111
33775SOL     OW 4217   2.943   9.606   1.074 -0.5475  0.4222  0.1094
33775SOL    HW1 4218   2.881   9.533   1.084 -1.0425  0.9723  1.2490
33775SOL    HW2 4219   2.902   9.663   1.009 -0.2183 -0.2442 -0.6944
33776SOL     OW 4220   0.215   0.671   1.025 -0.0370  0.0410 -0.1985
33776SOL    HW1 4221   0.204   0.766   1.024 -0.3908  0.0127  0.7198
33776SOL    HW2 4222   0.145   0.638   0.969  0.2471  0.3204 -0.7389
33777SOL     OW 4223   2.419   8.515   5.422  0.0900 -0.5069  0.1148
33777SOL    HW1 4224   2.401   8.424   5.446 -0.7057 -0.4278 -0.1513
33777SOL    HW2 4225   2.344   8.541   5.368  0.1514  0.4022  0.4487
33778SOL     OW 4226   6.719   3.565   5.127 -0.5494 -0.7000 -0.1649
33778SOL    HW1 4227   6.727   3.660   5.120  0.1365 -0.7485 -0.1292
33778SOL    HW2 4228   6.642   3.543   5.075 -0.4730 -0.1690 -0.5080
33779SOL     OW 4229   7.595   8.839   9.079 -0.0122  0.2716 -0.4209
33779SOL    HW1 4230   7.551   8.891   9.146  0.9358  1.2925 -0.5577
33779SOL    HW2 4231   7.539   8.848   9.002  0.3506  1.4765 -0.5663
33780SOL     OW 4232   8.457   6.531   9.622  0.8386 -0.1255  0.0028
33780SOL    HW1 4233   8.397   6.510   9.693  0.8701 -0.8711 -0.1767
33780SOL    HW2 4234   8.411   6.596   9.569  0.8152  0.4399  0.6952
33781SOL     OW 4235  10.324   6.797   7.686  0.1380  0.2731  0.3990
33781SOL    HW1 4236  10.406   6.813   7.731  0.8920 -1.3375 -0.2935
33781SOL    HW2 4237  10.270   6.873   7.706  1.9746  1.6437  0.4217
33782SOL     OW 4238   0.101   9.372   5.752  0.4509  0.6685 -0.1106
33782SOL    HW1 4239   0.148   9.389   5.834 -0.7527  1.0082  0.5403
33782SOL    HW2 4240   0.010   9.359   5.779  0.2447 -0.5481 -1.2677
33783SOL     OW 4241   6.165   6.685   9.138 -0.3697  0.4139  0.0430
33783SOL    HW1 4242   6.105   6.701   9.065  1.5081  0.6805 -1.5260
33783SOL    HW2 4243   6.129   6.608   9.182 -2.2666  1.0280 -0.3515
33784SOL     OW 4244   9.507   6.410   2.891  0.4422 -0.3949 -0.4973
33784SOL    HW1 4245   9.586   6.374   2.930  0.4633 -0.1728 -0.3341
33784SOL    HW2 4246   9.471   6.468   2.958  1.0802  0.8600 -1.2134
33785SOL     OW 4247   8.020   9.959   0.059  0.8303 -0.5783 -0.2582
33785SOL    HW1 4248   7.964   9.965   0.137  0.2369 -0.6561 -0.6752
33785SOL    HW2 4249   8.102   9.922   0.092  0.3044 -1.3792  0.2027
33786SOL     OW 4250   7.571   0.928   7.759  0.3984  0.2671 -0.6166
33786SOL    HW1 4251   7.502   0.944   7.694  0.0938  0.5315 -0.2382
33786SOL    HW2 4252   7.653   0.936   7.711  0.1515 -0.7900 -1.2339
33787SOL     OW 4253   9.498   6.409   7.401 -0.4356  0.0911  0.4381
33787SOL    HW1 4254   9.412   6.391   7.365 -0.1549  1.0342 -0.7955
33787SOL    HW2 4255   9.492   6.384   7.493 -1.6149 -1.0817  0.0639
33788SOL     OW 4256  10.476   0.675   5.369 -0.3069 -0.2486  0.3604
33788SOL    HW1 4257  10.462   0.726   5.289  0.8850  0.9767  0.8944
33788SOL    HW2 4258  10.553   0.621   5.349 -0.2686 -0.2545  0.5281
33789SOL     OW 4259  10.769   0.875   2.464  0.0775  0.9771 -0.1826
33789SOL    HW1 4260  10.819   0.810   2.413 -0.9571 -1.3463  1.5497
33789SOL    HW2 4261  10.836   0.925   2.511  0.8936  0.8006 -1.1186
33790SOL     OW 4262   0.239   4.729   2.869  0.2391 -0.1109  0.0185
33790SOL    HW1 4263   0.310   4.669   2.892 -1.6033 -2.3219  0.2901
33790SOL    HW2 4264   0.220   4.711   2.777 -1.6193 -1.4631  0.6074
33791SOL     OW 4265   6.371   3.585   9.948  0.2838 -0.4151  0.0613
33791SOL    HW1 4266   6.419   3.660   9.983 -0.7913 -0.1427  1.0358
33791SOL    HW2 4267   6.343   3.612   9.861  0.0593  0.2499  0.3363
33792SOL     OW 4268   4.134   9.690   2.020  0.3751  0.5303  0.8736
33792SOL    HW1 4269   4.170   9.649   2.098  0.8736  0.8795  0.8309
33792SOL    HW2 4270   4.116   9.780   2.046 -1.3436  0.1473  1.1661
33793SOL     OW 4271   1.256   8.397   4.143  0.0753  0.2495  0.4931
33793SOL    HW1 4272   1.196   8.434   4.078  0.0099 -1.0256 -0.1935
33793SOL    HW2 4273   1.342   8.433   4.120 -0.4607  2.7409  1.9680
33794SOL     OW 4274   0.996   5.462   6.529  0.1265 -0.1510  0.3315
33794SOL    HW1 4275   0.915   5.457   6.579  0.2911  1.5598  0.8600
33794SOL    HW2 4276   0.995   5.386   6.472 -1.0856 -1.0121  1.4535
33795SOL     OW 4277   2.022   8.993   0.196  0.2898 -0.2530  0.4850
33795SOL    HW1 4278   1.929   8.969   0.193  0.0233  0.5956  1.4018
33795SOL    HW2 4279   2.036   9.022   0.286  1.4234 -0.2739  0.3245
33796SOL     OW 4280   0.510  10.747   4.937  0.5437  0.4371 -0.2197
33796SOL    HW1 4281   0.496  10.841   4.949  1.0473  0.4081  0.6083
33796SOL    HW2 4282   0.540  10.739   4.846  0.1619  1.0353 -0.4045
33797SOL     OW 4283  10.185   7.009   7.775  0.6740  0.2753 -0.5069
33797SOL    HW1 4284  10.120   6.939   7.772  0.3711  0.5822 -1.7420
33797SOL    HW2 4285  10.143   7.079   7.825  0.5385  0.0002 -0.2359
33798SOL     OW 4286   1.588   4.090   0.612  0.0296 -0.0487  0.4378
33798SOL    HW1 4287   1.521   4.052   0.556 -1.0519  0.1123  1.5649
33798SOL    HW2 4288   1.613   4.171   0.568  0.3414 -0.6960 -0.5889
33799SOL     OW 4289   7.679   9.040   2.119 -0.2499 -0.1873  0.0955
33799SOL    HW1 4290   7.630   9.024   2.039  0.1653  1.3982 -0.5231
33799SOL    HW2 4291   7.621   9.009   2.189 -0.6785 -1.4624 -0.7847
33800SOL     OW 4292   3.655   5.763   4.071  0.3676  0.4622 -0.2055
33800SOL    HW1 4293   3.723   5.696   4.060  1.1970  1.3918 -0.9274
33800SOL    HW2 4294   3.612   5.767   3.986 -2.0734 -1.5973  0.8011
33801SOL     OW 4295  10.252   4.148  10.603 -0.3737 -0.0195  0.6556
33801SOL    HW1 4296  10.161   4.165  10.625 -0.5300  1.3804 -0.8961
33801SOL    HW2 4297  10.260   4.171  10.510  1.8664  1.2696  1.0886
33802SOL     OW 4298   4.146   9.283   0.489  0.1603 -0.2111  0.4986
33802SOL    HW1 4299   4.085   9.229   0.538  0.3452 -0.3480  0.5801
33802SOL    HW2 4300   4.094   9.324   0.420  0.1620 -1.0357  0.0036
33803SOL     OW 4301   3.818   8.738   1.243 -0.0875 -0.3144  0.4008
33803SOL    HW1 4302   3.817   8.682   1.165  0.0071  0.4716 -0.1800
33803SOL    HW2 4303   3.759   8.695   1.304 -0.9676 -0.4184 -0.4958
33804SOL     OW 4304   5.273   1.451   9.349 -0.3981  0.1890 -0.3358
33804SOL    HW1 4305   5.290   1.357   9.340  0.6935  0.4038 -0.6883
33804SOL    HW2 4306   5.264   1.465   9.443 -1.0437 -0.3379 -0.3106
33805SOL     OW 4307   0.068   6.901  10.795 -0.1376  0.2282 -0.4018
33805SOL    HW1 4308   0.112   6.954  10.729  0.3198 -0.5092 -0.6972
33805SOL    HW2 4309  -0.007   6.862  10.749  0.3783 -0.5589 -0.5817
33806SOL     OW 4310   2.614   6.269   5.828 -0.6447  0.5778 -0.5191
33806SOL    HW1 4311   2.599   6.337   5.894 -2.0545  0.3875 -0.6003
33806SOL    HW2 4312   2.607   6.316   5.745 -1.3155  0.4090 -0.5678
33807SOL     OW 4313   2.812   0.362  10.527  0.1709  0.6830 -0.2290
33807SOL    HW1 4314   2.873   0.435  10.538  1.2414 -0.0961 -0.9190
33807SOL    HW2 4315   2.842   0.316  10.449  0.1519 -1.1368  0.7859
33808SOL     OW 4316   0.984   3.432   4.482  0.2249  0.2307  0.0201
33808SOL    HW1 4317   0.962   3.494   4.413  1.1679  0.0068 -0.5093
33808SOL    HW2 4318   1.079   3.441   4.493  0.4085 -1.1994 -0.1632
33809SOL     OW 4319   6.356   7.795   3.645 -0.1033 -0.5817  0.1694
33809SOL    HW1 4320   6.357   7.848   3.725 -0.1810  2.1333 -1.5076
33809SOL    HW2 4321   6.447   7.797   3.615 -0.3007 -0.5415 -0.4330
33810SOL     OW 4322   6.009   8.691   8.370  0.2292  0.3659 -0.4881
33810SOL    HW1 4323   6.080   8.656   8.423  0.1163  2.2803  1.0641
33810SOL    HW2 4324   5.934   8.635   8.389  0.3075  0.7652  1.0782
33811SOL     OW 4325   9.675   1.896   6.231 -0.3823 -0.1493 -0.3953
33811SOL    HW1 4326   9.630   1.878   6.313 -0.3878  1.7377  0.0746
33811SOL    HW2 4327   9.662   1.818   6.178 -1.3161 -0.9708  0.9920
33812SOL     OW 4328   8.102   5.350   1.373 -0.1719  0.2121 -0.2262
33812SOL    HW1 4329   8.179   5.318   1.325 -1.0265  1.1916 -2.3759
33812SOL    HW2 4330   8.030   5.297   1.339 -0.5306 -0.6206  1.6886
33813SOL     OW 4331   5.055   8.861   2.955 -0.1439  0.3485  0.4211
33813SOL    HW1 4332   5.014   8.805   2.888 -0.6421  0.9034  0.2509
33813SOL    HW2 4333   5.092   8.934   2.906 -1.8069  1.5412  0.8428
33814SOL     OW 4334   1.473   0.689   1.681 -0.7214 -0.0719 -0.3633
33814SOL    HW1 4335   1.445   0.764   1.629 -0.5925  0.3781  0.2059
33814SOL    HW2 4336   1.402   0.626   1.672 -0.2353 -0.4467 -1.9472
33815SOL     OW 4337   6.999   0.083   6.614 -0.3421 -0.2928 -0.6779
33815SOL    HW1 4338   7.064   0.055   6.550 -0.2127 -0.5236 -0.4473
33815SOL    HW2 4339   7.015   0.177   6.626 -0.3247 -0.2626 -0.9310
33816SOL     OW 4340   4.425   1.816   6.746 -0.2007 -0.4205  0.0971
33816SOL    HW1 4341   4.511   1.821   6.788  0.0767 -0.3250 -0.4706
33816SOL    HW2 4342   4.443   1.784   6.658 -0.7122 -0.0896 -0.1347
33817SOL     OW 4343   8.241   0.314   8.910 -0.0693 -0.2730  0.2118
33817SOL    HW1 4344   8.315   0.269   8.870 -0.2760  0.9869 -1.7803
33817SOL    HW2 4345   8.278   0.396   8.943 -0.1680 -0.6819  1.3643
33818SOL     OW 4346   6.823   0.793   6.599  0.8925 -0.5413 -0.3693
33818SOL    HW1 4347   6.729   0.777   6.598  0.4456  1.7512 -0.5304
33818SOL    HW2 4348   6.862   0.710   6.570 -1.0692 -1.4457 -0.5695
33819SOL     OW 4349   3.781   0.731   8.255  0.4435 -0.2573  0.0953
33819SOL    HW1 4350   3.819   0.725   8.343  1.2590 -0.5236 -0.2623
33819SOL    HW2 4351   3.697   0.775   8.268  0.4484 -0.4964  1.0360
33820SOL     OW 4352   0.478   8.686   7.941 -0.1461  0.4876 -0.2239
33820SOL    HW1 4353   0.395   8.726   7.914 -0.3536 -0.5652 -1.2183
33820SOL    HW2 4354   0.496   8.725   8.027 -2.7076 -0.7353  0.9781
33821SOL     OW 4355   2.275  10.654   4.768 -0.8825  0.0589 -0.0328
33821SOL    HW1 4356   2.314  10.637   4.683 -1.3486 -1.5456  0.0432
33821SOL    HW2 4357   2.269  10.568   4.810 -3.1589  0.4142  0.5332
33822SOL     OW 4358   6.731   6.555   9.431  0.1579  0.3885 -0.3677
33822SOL    HW1 4359   6.646   6.594   9.450  0.0271  1.2651 -2.4384
33822SOL    HW2 4360   6.794   6.624   9.451  0.2457  0.3149 -0.3908
33823SOL     OW 4361   0.299   4.648   0.144  0.2481 -0.2260 -0.4322
33823SOL    HW1 4362   0.224   4.668   0.200 -0.9079 -1.9614 -1.2545
33823SOL    HW2 4363   0.289   4.706   0.068  0.7981  0.8509  0.3083
33824SOL     OW 4364   4.185   8.117   9.598  0.8350  0.1148  0.1458
33824SOL    HW1 4365   4.202   8.067   9.519 -0.5267  1.0132 -0.7577
33824SOL    HW2 4366   4.116   8.068   9.643  2.7761 -1.3445  1.7455
33825SOL     OW 4367   1.103   8.928   1.416 -0.3703  0.0643 -0.1087
33825SOL    HW1 4368   1.122   8.837   1.392 -1.5387 -0.1895 -0.0983
33825SOL    HW2 4369   1.190   8.966   1.431  0.1044 -1.3859  1.1627
33826SOL     OW 4370   6.644   8.187   9.703  0.7810  0.0032  0.0786
33826SOL    HW1 4371   6.665   8.108   9.653  1.6702 -0.5408  1.2677
33826SOL    HW2 4372   6.674   8.168   9.792 -0.2753  1.1446  0.7192
33827SOL     OW 4373  10.330   6.501   9.385 -0.6590  0.0906  0.1412
33827SOL    HW1 4374  10.327   6.457   9.470 -1.2632 -1.6889 -0.7477
33827SOL    HW2 4375  10.241   6.533   9.372 -1.0048 -1.0818 -0.5102
33828SOL     OW 4376   8.187  10.547   7.060 -0.2567 -0.2962 -0.6855
33828SOL    HW1 4377   8.146  10.579   6.980 -2.9764  0.2767  0.8149
33828SOL    HW2 4378   8.208  10.627   7.109 -0.6128 -0.6618  0.0741
33829SOL     OW 4379   9.695   2.998   7.022  0.2929 -0.1648  0.5426
33829SOL    HW1 4380   9.735   3.037   6.944 -0.2362 -1.9418 -0.6811
33829SOL    HW2 4381   9.646   3.069   7.062 -1.3716  0.2921 -2.0772
33830SOL     OW 4382   2.673   8.522   7.505  0.0870 -0.4465  0.3994
33830SOL    HW1 4383   2.723   8.471   7.441 -0.0788 -0.1425  0.0204
33830SOL    HW2 4384   2.739   8.573   7.551  0.5788 -2.7575  2.4962
33831SOL     OW 4385   6.129   5.984   1.533 -0.3354  0.5158  0.1489
33831SOL    HW1 4386   6.217   5.976   1.570 -1.1782 -2.8013  1.7174
33831SOL    HW2 4387   6.125   5.916   1.465 -2.0008 -0.1395  0.8478
33832SOL     OW 4388   2.008   5.185   6.980 -0.1207 -0.1020 -0.5354
33832SOL    HW1 4389   1.980   5.265   6.936  0.6341 -0.1745 -1.1702
33832SOL    HW2 4390   1.958   5.116   6.937 -0.0358 -0.0746 -0.6813
33833SOL     OW 4391   9.890   0.703   0.655  0.4023 -0.4191  0.0613
33833SOL    HW1 4392   9.952   0.632   0.673  0.1739 -0.5588  0.2940
33833SOL    HW2 4393   9.942   0.783   0.663  0.4544 -0.5146  0.6577
33834SOL     OW 4394   2.051   1.796   4.241 -0.1595 -0.1863 -0.5723
33834SOL    HW1 4395   2.131   1.814   4.191 -0.7019  0.6525 -1.1630
33834SOL    HW2 4396   2.067   1.710   4.280  0.8538 -0.2349 -1.0357
33835SOL     OW 4397   5.888  10.294  10.309  0.6607  0.3159  0.6285
33835SOL    HW1 4398   5.944  10.368  10.332 -0.0516  1.1863 -0.3684
33835SOL    HW2 4399   5.925  10.260  10.227  0.7432 -0.1956  0.8695
33836SOL     OW 4400   4.749   7.560   5.990  0.0532 -0.0053 -0.3533
33836SOL    HW1 4401   4.682   7.589   5.928  0.3514 -0.3697 -0.8624
33836SOL    HW2 4402   4.832   7.579   5.946  0.2814  0.2156  0.1646
33837SOL     OW 4403   9.594   9.915   7.002 -0.3760  0.2889 -0.2202
33837SOL    HW1 4404   9.555   9.828   7.002  1.2466 -0.5660 -2.7825
33837SOL    HW2 4405   9.521   9.975   6.993 -1.4661 -0.8234  0.8295
33838SOL     OW 4406   8.897  10.048   3.538  0.5494  1.2095 -0.0889
33838SOL    HW1 4407   8.829  10.114   3.522  0.2942  0.8464 -0.5685
33838SOL    HW2 4408   8.972  10.078   3.487  0.8299  1.7314  0.6256
33839SOL     OW 4409   1.899   5.577   5.921  0.2493  0.0738  0.3584
33839SOL    HW1 4410   1.952   5.657   5.912  0.8115 -0.4431 -1.1333
33839SOL    HW2 4411   1.809   5.609   5.931  0.4544  0.8957 -0.3437
33840SOL     OW 4412   8.741   8.387  10.643  0.1384 -0.4907 -0.3299
33840SOL    HW1 4413   8.728   8.313  10.703 -0.9725 -0.2247 -0.2359
33840SOL    HW2 4414   8.653   8.419  10.624  0.6132  0.8954 -0.2808
33841SOL     OW 4415   4.669   1.885   9.125  0.1356  0.6418 -0.0702
33841SOL    HW1 4416   4.761   1.911   9.133  0.0855  0.8686 -0.1977
33841SOL    HW2 4417   4.671   1.790   9.120  0.2584  0.5608  1.3183
33842SOL     OW 4418   2.339   2.943   7.593 -0.2142 -0.5705  0.1614
33842SOL    HW1 4419   2.412   2.996   7.562 -1.1221 -0.5712 -2.2000
33842SOL    HW2 4420   2.360   2.854   7.564 -1.2011 -0.5463 -0.6681
33843SOL     OW 4421   0.470   1.027   0.235  0.3718  0.2111  0.4164
33843SOL    HW1 4422   0.503   1.069   0.155 -0.1058  1.3675  0.8202
33843SOL    HW2 4423   0.472   0.933   0.214  1.0427  0.4396 -0.6506
33844SOL     OW 4424   4.041  10.042  10.415  0.3940 -0.3795  0.5988
33844SOL    HW1 4425   4.083  10.056  10.330 -0.1362 -1.7165  0.0913
33844SOL    HW2 4426   4.097  10.089  10.477  2.3684 -1.6024 -0.1284
33845SOL     OW 4427   7.910   4.397   1.757 -0.7067  0.3632  0.2552
33845SOL    HW1 4428   7.856   4.466   1.717  0.7107  1.2560 -0.1933
33845SOL    HW2 4429   7.956   4.441   1.828  3.3724  1.0830 -2.5318
33846SOL     OW 4430   2.184  10.151   6.718 -0.2395 -1.0542 -0.0380
33846SOL    HW1 4431   2.122  10.206   6.766  0.7515  0.4582 -0.4485
33846SOL    HW2 4432   2.184  10.069   6.767 -1.2167 -0.4683  1.0070
33847SOL     OW 4433   0.393   3.128   3.068  0.3429  0.0076  0.0675
33847SOL    HW1 4434   0.379   3.060   3.002  0.3802  0.4273 -0.3791
33847SOL    HW2 4435   0.383   3.082   3.152 -0.5195 -0.3610 -0.2221
33848SOL     OW 4436   0.741   0.888   8.355 -0.3293  0.2234 -0.5622
33848SOL    HW1 4437   0.733   0.947   8.430 -0.2652  1.5436 -1.5520
33848SOL    HW2 4438   0.713   0.803   8.388 -0.3049  0.7665  0.9513
33849SOL     OW 4439   3.727   0.658   0.274 -0.9660 -0.4236 -0.4765
33849SOL    HW1 4440   3.637   0.683   0.295 -1.3257 -1.4569 -0.7188
33849SOL    HW2 4441   3.738   0.686   0.183  0.0958  2.6942  0.4870
33850SOL     OW 4442   6.875   3.185   8.234 -0.7622 -0.0027 -0.1705
33850SOL    HW1 4443   6.916   3.246   8.173 -0.8859 -1.5172 -1.8434
33850SOL    HW2 4444   6.934   3.184   8.310 -0.3884  1.6152 -0.4070
33851SOL     OW 4445   8.009   4.518  10.359 -0.0595  0.1780  0.1541
33851SOL    HW1 4446   7.944   4.512  10.289 -0.1353  1.0000  0.1409
33851SOL    HW2 4447   7.961   4.555  10.433 -0.1567 -1.3653  0.8832
33852SOL     OW 4448   5.368   7.955   0.487  0.1698 -0.8456  0.1465
33852SOL    HW1 4449   5.417   7.872   0.484  0.3482 -0.7460  0.2969
33852SOL    HW2 4450   5.277   7.928   0.498  0.4196 -0.9786  2.1955
33853SOL     OW 4451   3.302   8.164   4.722  0.5825  0.0160  0.2061
33853SOL    HW1 4452   3.317   8.184   4.814 -0.8132  0.8073  0.2977
33853SOL    HW2 4453   3.267   8.074   4.723  3.2758 -1.1086  0.1424
33854SOL     OW 4454   5.647   7.259   5.483 -0.3517  0.3556 -0.0997
33854SOL    HW1 4455   5.600   7.338   5.512  0.8263  0.7916  0.7046
33854SOL    HW2 4456   5.702   7.235   5.558 -2.1818 -2.4857  0.5039
33855SOL     OW 4457   0.106   1.365   1.063  0.4295 -0.0779  0.7090
33855SOL    HW1 4458   0.143   1.445   1.025 -1.2204  0.9448  1.1827
33855SOL    HW2 4459   0.134   1.366   1.155 -0.2202  0.3591  0.9052
33856SOL     OW 4460   4.286   9.144   5.358 -0.4395 -0.2744  0.1237
33856SOL    HW1 4461   4.209   9.107   5.315 -0.7938 -0.1593  0.6574
33856SOL    HW2 4462   4.323   9.204   5.293 -1.9686  1.2308  0.5739
33857SOL     OW 4463   4.240   6.232   9.318  0.1660 -0.0057  1.0891
33857SOL    HW1 4464   4.275   6.215   9.231 -0.2972 -0.4680  0.9927
33857SOL    HW2 4465   4.304   6.292   9.358  0.0378  0.7475  0.1990
33858SOL     OW 4466   1.234   1.997   7.831  0.1104 -0.0356  0.0172
33858SOL    HW1 4467   1.301   2.014   7.765 -0.0776  1.3891  0.1633
33858SOL    HW2 4468   1.155   2.038   7.796 -0.2318 -0.1223  0.6797
33859SOL     OW 4469   6.444   5.186   4.937 -0.2825  0.1203 -0.2001
33859SOL    HW1 4470   6.410   5.113   4.884  1.0860  0.4165 -1.5602
33859SOL    HW2 4471   6.517   5.148   4.986  0.0008  0.4145 -0.3908
33860SOL     OW 4472  10.247  10.363   1.823  0.2530  0.2011 -0.0026
33860SOL    HW1 4473  10.239  10.326   1.735 -0.0880 -1.4231  0.6756
33860SOL    HW2 4474  10.311  10.434   1.813  0.1916  0.0823 -1.5526
33861SOL     OW 4475   8.994   9.220   2.861  0.5683 -0.6809  0.4941
33861SOL    HW1 4476   9.088   9.201   2.863  0.5843 -0.7391 -0.5118
33861SOL    HW2 4477   8.985   9.294   2.801 -0.0344 -0.6716  0.5842
33862SOL     OW 4478   5.517   1.233   7.075 -0.2546  0.0157 -0.4248
33862SOL    HW1 4479   5.422   1.219   7.074 -0.1412 -0.7800 -0.3843
33862SOL    HW2 4480   5.547   1.195   7.157  0.4217 -2.0816 -1.5646
33863SOL     OW 4481   4.979   9.462   9.275 -0.2715  0.1716  0.1568
33863SOL    HW1 4482   4.960   9.386   9.221 -0.8865  1.2958 -1.2918
33863SOL    HW2 4483   4.987   9.428   9.364 -1.3641 -1.4470 -0.3282
33864SOL     OW 4484   5.757   2.431   7.532 -0.0694  0.0519  0.3114
33864SOL    HW1 4485   5.847   2.463   7.536  0.1751 -0.7036  1.2894
33864SOL    HW2 4486   5.737   2.427   7.438  0.3972  1.5966  0.1185
33865SOL     OW 4487   5.048   0.158   2.391 -0.1793 -0.1574  0.5877
33865SOL    HW1 4488   5.048   0.063   2.407  1.5177 -0.2477  0.2880
33865SOL    HW2 4489   4.995   0.169   2.313 -1.0082 -0.7752  1.0538
33866SOL     OW 4490  10.497   9.572   1.221  0.1793  0.1817 -0.0954
33866SOL    HW1 4491  10.426   9.594   1.161 -0.1580 -0.8239 -0.0754
33866SOL    HW2 4492  10.473   9.614   1.304  0.6439  1.5685 -0.6312
33867SOL     OW 4493   1.405   1.043   8.922  0.0907  0.0239  0.3137
33867SOL    HW1 4494   1.327   1.062   8.975 -0.7816  1.4248 -1.3458
33867SOL    HW2 4495   1.478   1.067   8.978 -0.6114 -1.5276  2.0040
33868SOL     OW 4496   7.194   1.156   2.914 -0.0922 -0.4515 -0.0094
33868SOL    HW1 4497   7.182   1.242   2.953  0.9431 -0.2932 -0.0105
33868SOL    HW2 4498   7.241   1.106   2.981 -0.4524 -0.9377 -0.1115
33869SOL     OW 4499   1.940  10.615   3.357 -0.0953  0.2211  0.7076
33869SOL    HW1 4500   2.034  10.623   3.340  0.0901  0.0228  1.5804
33869SOL    HW2 4501   1.898  10.629   3.272  0.7445 -0.0693  0.2411
33870SOL     OW 4502  10.728   1.200  10.608  0.3604 -0.3463 -0.5132
33870SOL    HW1 4503  10.702   1.238  10.691  1.1470  1.7358 -1.1600
33870SOL    HW2 4504  10.654   1.143  10.583  0.0335 -0.8533  1.4634
33871SOL     OW 4505   4.360   0.620  10.771  0.6912 -0.2908  0.2539
33871SOL    HW1 4506   4.397   0.541  10.731  0.1879 -0.6698  0.5380
33871SOL    HW2 4507   4.314   0.663  10.700  3.7932  1.5693 -0.8299
33872SOL     OW 4508   0.231   1.163   9.925  0.0310 -0.6862 -0.1889
33872SOL    HW1 4509   0.172   1.198   9.858  1.9197  0.4373 -1.3561
33872SOL    HW2 4510   0.230   1.229   9.995 -0.1698 -0.7377 -0.1404
33873SOL     OW 4511   1.556   2.662   0.736 -0.3546  0.7060 -0.0589
33873SOL    HW1 4512   1.553   2.576   0.778  2.0888  1.0219  0.9163
33873SOL    HW2 4513   1.570   2.643   0.643 -0.9464  0.0519 -0.0218
33874SOL     OW 4514  10.411  10.487   9.824 -0.3553  0.0894 -0.2279
33874SOL    HW1 4515  10.399  10.566   9.877  0.8962  0.4033 -0.4012
33874SOL    HW2 4516  10.449  10.423   9.884  2.7593  0.9925 -1.1051
33875SOL     OW 4517   8.603   1.768   6.353 -0.1116  0.3074  0.2224
33875SOL    HW1 4518   8.515   1.789   6.321 -0.9286 -1.7338  0.9571
33875SOL    HW2 4519   8.639   1.852   6.381 -3.0069  0.8842  2.7585
33876SOL     OW 4520   8.229   2.132   2.266 -0.7467  0.0487  0.0317
33876SOL    HW1 4521   8.290   2.062   2.242 -0.6496 -0.4646  1.6573
33876SOL    HW2 4522   8.285   2.198   2.307 -1.1593 -0.0300  0.7291
33877SOL     OW 4523   6.392   0.517   2.714 -0.4769  0.2192 -0.1679
33877SOL    HW1 4524   6.442   0.597   2.697 -1.9925  1.1927 -0.3471
33877SOL    HW2 4525   6.407   0.462   2.638  1.6874 -0.3042  0.5780
33878SOL     OW 4526   2.026   5.404   2.278 -0.7341  0.0333  0.2278
33878SOL    HW1 4527   2.120   5.417   2.261 -1.1180  1.9682 -0.7465
33878SOL    HW2 4528   2.023   5.346   2.354  1.2400 -0.6903 -0.1954
33879SOL     OW 4529   9.881   4.007   1.264 -0.0038  0.4021 -0.4483
33879SOL    HW1 4530   9.915   4.050   1.342 -1.2202  2.5441 -1.0111
33879SOL    HW2 4531   9.817   3.944   1.297  1.1661 -0.4033  0.3517
33880SOL     OW 4532   1.487   0.643   6.389 -0.3139 -0.9700 -0.5083
33880SOL    HW1 4533   1.517   0.589   6.462 -0.4213  1.3948  1.4175
33880SOL    HW2 4534   1.394   0.659   6.407 -0.8633 -1.8637 -2.2423
33881SOL     OW 4535  10.406   1.892   6.197 -0.1122  0.1831  0.1620
33881SOL    HW1 4536  10.425   1.985   6.183 -1.9083  0.7330  1.0595
33881SOL    HW2 4537  10.345   1.870   6.126 -0.2913 -0.0869  0.3992
33882SOL     OW 4538   2.455   5.012   8.699 -0.3701  0.3839  0.0778
33882SOL    HW1 4539   2.383   5.007   8.762 -0.4936  0.7371 -0.0318
33882SOL    HW2 4540   2.434   5.088   8.646 -0.9556 -0.6512 -1.2409
33883SOL     OW 4541   8.795   1.580   1.640  0.2148 -0.0638 -0.7333
33883SOL    HW1 4542   8.797   1.530   1.558  2.3853  0.3739 -0.9995
33883SOL    HW2 4543   8.811   1.671   1.613  0.0391  0.2215  0.0968
33884SOL     OW 4544   3.835   2.905   0.171 -0.0937  0.8017 -0.0612
33884SOL    HW1 4545   3.811   2.863   0.088  0.1834  0.8457 -0.1664
33884SOL    HW2 4546   3.888   2.980   0.145  0.2663  0.6288  0.1682
33885SOL     OW 4547   1.153   3.688  10.108  0.0130 -0.0145  0.5175
33885SOL    HW1 4548   1.179   3.747  10.179 -0.3718  1.2010 -0.3158
33885SOL    HW2 4549   1.097   3.742  10.051 -2.8440 -1.9526  1.2583
33886SOL     OW 4550  10.624   5.496   8.740 -0.1539 -0.3973  0.1043
33886SOL    HW1 4551  10.682   5.526   8.669  0.6281  1.5099  1.4701
33886SOL    HW2 4552  10.682   5.457   8.804 -0.3774  1.1015  1.2739
33887SOL     OW 4553   7.404   6.521   6.392  0.1428 -0.1755 -0.8326
33887SOL    HW1 4554   7.446   6.438   6.369 -0.2507 -0.8137  0.5869
33887SOL    HW2 4555   7.400   6.519   6.488 -5.1028 -1.2978 -0.7678
33888SOL     OW 4556   2.420  10.206   2.336 -0.5593 -0.2749  0.2981
33888SOL    HW1 4557   2.514  10.193   2.344 -0.0839  2.8316  1.0795
33888SOL    HW2 4558   2.382  10.157   2.409  0.6739  0.1142  1.2229
33889SOL     OW 4559   7.546   6.139   6.683  0.2533 -0.6474 -0.2474
33889SOL    HW1 4560   7.462   6.113   6.646 -0.2238 -0.9922  1.0108
33889SOL    HW2 4561   7.535   6.128   6.778  0.0478  4.0599  0.4792
33890SOL     OW 4562   6.904   2.257  10.314 -0.4687 -0.4717 -0.5603
33890SOL    HW1 4563   6.828   2.210  10.348  0.1832 -1.0509  0.1087
33890SOL    HW2 4564   6.963   2.189  10.281  0.4306 -0.1465  0.3146
33891SOL     OW 4565   9.367   1.938   8.862 -0.6014 -0.2117  0.2489
33891SOL    HW1 4566   9.458   1.953   8.835 -0.2178 -2.0078  0.3992
33891SOL    HW2 4567   9.326   1.896   8.787 -0.6318 -1.5424  0.9724
33892SOL     OW 4568   8.413  10.501   0.238 -0.5009  0.8688  0.2372
33892SOL    HW1 4569   8.359  10.472   0.164  0.5170 -0.1040 -0.1632
33892SOL    HW2 4570   8.461  10.423   0.264 -0.4189  1.3406  1.5839
33893SOL     OW 4571   1.652   3.400   7.892 -0.1338  0.1856 -0.1573
33893SOL    HW1 4572   1.651   3.495   7.903 -1.3423  0.1044  0.6559
33893SOL    HW2 4573   1.738   3.373   7.923 -0.6869  0.7843  2.0677
33894SOL     OW 4574   5.992   3.518   1.814 -0.3615 -0.1572  0.8437
33894SOL    HW1 4575   5.955   3.432   1.836  0.2342 -0.5058  0.4963
33894SOL    HW2 4576   5.994   3.519   1.719  1.9001 -0.7662  0.8375
33895SOL     OW 4577   4.087   9.107   9.079  0.6894 -0.1253 -0.0088
33895SOL    HW1 4578   4.156   9.171   9.099  0.5140  0.2589 -0.6111
33895SOL    HW2 4579   4.073   9.115   8.985  0.0198 -0.3996  0.0594
33896SOL     OW 4580   6.178   3.051   9.672  0.0246 -0.4775 -0.3921
33896SOL    HW1 4581   6.213   3.096   9.595  0.6121  1.7090  1.0685
33896SOL    HW2 4582   6.254   3.038   9.729 -0.5141 -1.4206  0.1381
33897SOL     OW 4583   9.920  10.735   3.180  0.5736  0.1887 -0.0522
33897SOL    HW1 4584   9.830  10.707   3.164  0.5918  0.2256 -0.2244
33897SOL    HW2 4585   9.922  10.758   3.273  0.9212 -1.6928  0.4388
33898SOL     OW 4586   6.714   6.628   3.967  0.3422  0.1751 -0.5965
33898SOL    HW1 4587   6.631   6.666   3.994  0.9338 -0.1056  1.8927
33898SOL    HW2 4588   6.690   6.549   3.918 -0.8294  0.7497 -0.9918
33899SOL     OW 4589   4.142   9.671   3.251 -0.0735 -0.4715  0.4020
33899SOL    HW1 4590   4.053   9.665   3.286 -0.3860 -0.0396 -0.2952
33899SOL    HW2 4591   4.130   9.688   3.158  0.7273  0.5812  0.4630
33900SOL     OW 4592   5.922   0.340   8.101  0.1226 -0.0299 -0.0912
33900SOL    HW1 4593   5.999   0.285   8.113  1.0232  1.3005  0.5212
33900SOL    HW2 4594   5.930   0.373   8.011  0.9757  1.0843  0.3658
33901SOL     OW 4595   5.554   4.209   7.134  0.1684  0.2059  0.4091
33901SOL    HW1 4596   5.583   4.118   7.138  0.2455  0.1598 -0.7507
33901SOL    HW2 4597   5.477   4.212   7.190  0.1383 -0.5888  0.4206
33902SOL     OW 4598   4.924   2.384   5.466  0.2344 -0.5199  0.1455
33902SOL    HW1 4599   4.835   2.390   5.430  0.5655  1.0496 -0.4778
33902SOL    HW2 4600   4.973   2.336   5.399  0.6680  1.7473 -1.2964
33903SOL     OW 4601  10.416   4.825   4.938 -0.9030 -0.7155 -0.0119
33903SOL    HW1 4602  10.472   4.748   4.929 -0.2653 -0.4823  1.7102
33903SOL    HW2 4603  10.468   4.888   4.988 -1.7518  0.5054 -0.6034
33904SOL     OW 4604   2.964   4.556   6.946 -0.0056 -0.2501  0.8381
33904SOL    HW1 4605   3.020   4.543   6.870  0.2981  0.8011  0.8664
33904SOL    HW2 4606   2.950   4.468   6.981  0.5369 -0.6544  0.0575
33905SOL     OW 4607   2.043   7.744   3.895 -0.5964 -0.0430 -0.0113
33905SOL    HW1 4608   1.969   7.695   3.930  0.6381 -1.2258  1.0574
33905SOL    HW2 4609   2.025   7.751   3.801 -2.9739  1.4071  0.4612
33906SOL     OW 4610   2.297   7.228   6.892  0.4403  0.0549  0.6238
33906SOL    HW1 4611   2.352   7.279   6.952  0.4375  0.5663  0.1954
33906SOL    HW2 4612   2.224   7.286   6.871  1.5543  0.7636 -1.6122
33907SOL     OW 4613   9.858   6.660   8.793 -0.3396  0.1544  0.1592
33907SOL    HW1 4614   9.835   6.737   8.844  1.2743 -0.0605  1.2692
33907SOL    HW2 4615   9.834   6.682   8.703 -2.0266  1.0378  0.7855
33908SOL     OW 4616   0.331   5.623   9.057  0.4191  0.7153  0.5419
33908SOL    HW1 4617   0.380   5.542   9.071 -2.9921 -1.6794  0.0427
33908SOL    HW2 4618   0.263   5.622   9.125 -0.8047  2.1858 -0.5775
33909SOL     OW 4619   1.320   9.477   4.503 -0.0011 -0.3846  0.1781
33909SOL    HW1 4620   1.322   9.573   4.499 -0.3489 -0.4118 -0.7186
33909SOL    HW2 4621   1.234   9.456   4.538  0.6093 -0.3445  1.7967
33910SOL     OW 4622  10.620   1.949   7.440 -0.6036 -0.2919  0.0255
33910SOL    HW1 4623  10.620   1.994   7.524 -1.1752  1.2194 -0.7386
33910SOL    HW2 4624  10.626   1.856   7.462  1.7479  0.1543  1.6280
33911SOL     OW 4625   9.559   9.546   2.474  0.1147  0.2421  0.4614
33911SOL    HW1 4626   9.544   9.454   2.497 -3.6131  0.6133  0.1993
33911SOL    HW2 4627   9.645   9.566   2.509 -0.2881 -2.4839  3.4799
33912SOL     OW 4628   2.575   7.077   8.695  0.5288 -0.2860 -0.0811
33912SOL    HW1 4629   2.483   7.100   8.685  0.6161  0.7422  1.2376
33912SOL    HW2 4630   2.621   7.160   8.686  1.2403 -0.6240  0.3656
33913SOL     OW 4631   7.551   7.366   9.290 -0.6937  0.6799 -0.2659
33913SOL    HW1 4632   7.547   7.320   9.374 -0.0465  1.1490  0.0275
33913SOL    HW2 4633   7.623   7.325   9.243 -1.1398  0.3283 -0.6574
33914SOL     OW 4634  10.103   2.215   9.472  0.4870 -0.3817  0.1341
33914SOL    HW1 4635  10.148   2.130   9.470  1.4650  0.1256 -0.7641
33914SOL    HW2 4636  10.144   2.264   9.400  2.1159  1.9481  2.4885
33915SOL     OW 4637   1.797   8.198   0.308 -0.0236 -0.3437  0.2039
33915SOL    HW1 4638   1.888   8.213   0.333  0.1835  0.1545 -0.8209
33915SOL    HW2 4639   1.803   8.143   0.230 -0.5740  0.2723 -0.2776
33916SOL     OW 4640   4.307   2.383   4.700 -0.0258  0.0935  0.1055
33916SOL    HW1 4641   4.263   2.324   4.761 -0.0754 -0.5158 -0.5183
33916SOL    HW2 4642   4.283   2.471   4.731  0.3436 -0.1878  1.2580
33917SOL     OW 4643   9.800   6.398   0.440  0.1938 -0.5903 -0.3191
33917SOL    HW1 4644   9.841   6.415   0.355  1.1344  1.7337  0.5397
33917SOL    HW2 4645   9.720   6.450   0.439  0.3782 -0.2882  0.3451
33918SOL     OW 4646   0.847   8.855   8.886 -0.0984 -0.3308  0.1877
33918SOL    HW1 4647   0.886   8.892   8.808 -0.6694  0.6359  0.3440
33918SOL    HW2 4648   0.910   8.873   8.956 -0.4668  0.5632  0.3033
33919SOL     OW 4649   7.324   8.619   9.330 -0.2117 -0.2098  0.1621
33919SOL    HW1 4650   7.343   8.707   9.362  0.6572 -0.2460 -0.2206
33919SOL    HW2 4651   7.368   8.615   9.245 -1.0152 -0.7030 -0.2404
33920SOL     OW 4652   6.765   7.880   1.569 -0.5734 -0.8503 -0.2358
33920SOL    HW1 4653   6.718   7.931   1.503 -0.6240  0.1730  0.5790
33920SOL    HW2 4654   6.702   7.868   1.640 -0.4033 -1.6409 -0.2070
33921SOL     OW 4655   3.047   7.440   2.011  0.5253 -0.1274 -0.4744
33921SOL    HW1 4656   3.114   7.504   2.030  0.5464 -0.5604  1.0119
33921SOL    HW2 4657   3.092   7.370   1.963  0.8463  0.1744 -0.6110
33922SOL     OW 4658   4.461   7.322   5.855 -0.1762 -0.5250 -0.0646
33922SOL    HW1 4659   4.435   7.280   5.773  1.0612 -0.0289 -0.7518
33922SOL    HW2 4660   4.537   7.376   5.831 -0.8059  0.9410  1.0754
33923SOL     OW 4661   2.496   7.612   4.111 -0.2349 -0.5416  0.3907
33923SOL    HW1 4662   2.413   7.647   4.142 -0.3602 -0.6160  0.1396
33923SOL    HW2 4663   2.491   7.617   4.016  1.0184  1.7442  0.3790
33924SOL     OW 4664   2.982   4.945  10.784  0.4296  0.4982 -1.1283
33924SOL    HW1 4665   3.049   4.923  10.848  1.2041 -0.3002 -2.1899
33924SOL    HW2 4666   3.025   4.935  10.699 -0.8047  0.7376 -1.8034
33925SOL     OW 4667   8.988   2.498   4.065  0.1552  0.5125 -0.0895
33925SOL    HW1 4668   8.921   2.543   4.014  0.0500  0.1323 -0.2877
33925SOL    HW2 4669   9.048   2.568   4.093  0.0170  0.7686 -0.4269
33926SOL     OW 4670   1.717   6.955   2.089 -0.6613 -0.3040 -0.0684
33926SOL    HW1 4671   1.787   6.994   2.037 -0.7293  0.4952  0.4275
33926SOL    HW2 4672   1.658   6.915   2.025  1.5445 -3.3125 -0.4259
33927SOL     OW 4673   5.806   2.928   5.085  0.8031  0.2162 -0.4170
33927SOL    HW1 4674   5.865   2.871   5.133  0.1643  0.1928  0.3533
33927SOL    HW2 4675   5.790   3.002   5.143  1.9081  1.3927 -1.5471
33928SOL     OW 4676   5.070   1.861   1.256 -0.6881  0.4224  0.5779
33928SOL    HW1 4677   5.054   1.865   1.351 -2.0809 -0.4782  0.4179
33928SOL    HW2 4678   5.151   1.810   1.248 -0.0237  1.3213  1.2954
33929SOL     OW 4679   1.798   8.304  10.739 -0.3129  0.6245  0.0756
33929SOL    HW1 4680   1.715   8.278  10.777 -0.1593  0.3007  0.1881
33929SOL    HW2 4681   1.863   8.290  10.808  0.1203 -0.8982 -0.5983
33930SOL     OW 4682   4.572   2.325   2.382 -0.5829  0.2823 -0.3839
33930SOL    HW1 4683   4.546   2.412   2.352  0.0977  0.2776 -1.0274
33930SOL    HW2 4684   4.652   2.306   2.333 -1.6341 -1.4164 -1.5583
33931SOL     OW 4685   4.193   5.320   0.316 -0.9052 -0.2693  0.0496
33931SOL    HW1 4686   4.231   5.294   0.400  0.4061  1.0428 -0.1143
33931SOL    HW2 4687   4.098   5.316   0.331 -0.7581  2.1939  2.3809
33932SOL     OW 4688   3.934   8.442   0.030  0.3932 -0.1229 -0.9030
33932SOL    HW1 4689   3.933   8.501  -0.046 -0.5303  0.3323 -0.5531
33932SOL    HW2 4690   3.989   8.486   0.094 -0.2364  0.3360 -0.6690
33933SOL     OW 4691   4.327   2.670   4.797  0.3832  0.5048  0.5417
33933SOL    HW1 4692   4.346   2.715   4.715  1.6617 -0.0057  0.5338
33933SOL    HW2 4693   4.344   2.736   4.865 -0.2033  0.7826  0.4203
33934SOL     OW 4694   4.750   1.831   8.807  0.3436 -0.0713 -0.4452
33934SOL    HW1 4695   4.668   1.781   8.805  1.1580 -1.5382 -2.9378
33934SOL    HW2 4696   4.727   1.916   8.771 -0.0329 -0.6830 -1.7282
33935SOL     OW 4697   5.463   0.224   3.181  0.7516 -0.8166 -0.7105
33935SOL    HW1 4698   5.438   0.311   3.149  1.3760 -0.4791 -0.2947
33935SOL    HW2 4699   5.380   0.177   3.188  0.0356  0.6730  1.7791
33936SOL     OW 4700   0.800   5.520   9.477 -0.4761  0.1583 -0.2183
33936SOL    HW1 4701   0.734   5.535   9.544 -1.4510 -0.7161 -0.9356
33936SOL    HW2 4702   0.858   5.453   9.514  0.4818  1.4687  0.7113
33937SOL     OW 4703  10.046   4.258   3.714 -0.6256  0.1055  0.0807
33937SOL    HW1 4704  10.009   4.193   3.774 -0.3324 -0.2506 -0.1201
33937SOL    HW2 4705   9.976   4.321   3.701 -1.4379 -0.9569 -0.8829
33938SOL     OW 4706   4.138   0.357   3.360  0.3027 -0.1503 -0.7425
33938SOL    HW1 4707   4.095   0.427   3.410 -2.7696 -1.8195 -0.7622
33938SOL    HW2 4708   4.174   0.299   3.427  0.1397 -0.0927 -0.6022
33939SOL     OW 4709  10.013   8.032   7.422  0.5241  0.8366  0.3373
33939SOL    HW1 4710   9.986   7.962   7.481  0.8317 -1.3299 -1.9661
33939SOL    HW2 4711   9.933   8.058   7.377  0.7417  0.5818 -0.2032
33940SOL     OW 4712   1.535   8.091   7.590 -0.4896 -0.6015  0.6394
33940SOL    HW1 4713   1.483   8.058   7.516 -0.4750 -0.2184  0.4590
33940SOL    HW2 4714   1.471   8.104   7.660 -0.5438 -0.7128  0.6106
33941SOL     OW 4715   7.568   3.921   9.537 -0.0893  0.2697 -0.6071
33941SOL    HW1 4716   7.625   3.876   9.475  0.6273 -0.5149  0.5905
33941SOL    HW2 4717   7.627   3.973   9.591 -0.5986  0.1836  0.0445
33942SOL     OW 4718   9.747   1.647   5.657  0.0194 -0.3689  0.2310
33942SOL    HW1 4719   9.778   1.689   5.737  0.1076  0.6865 -0.3396
33942SOL    HW2 4720   9.694   1.574   5.687  0.4713 -0.2891  1.2475
33943SOL     OW 4721   3.132   8.354   8.294 -0.0612  0.1924  0.2112
33943SOL    HW1 4722   3.048   8.381   8.331  0.8841  0.4411  2.2945
33943SOL    HW2 4723   3.113   8.270   8.251 -1.3944  0.3008  0.5307
33944SOL     OW 4724   7.130   8.815   9.657 -0.0658 -0.1877  0.0806
33944SOL    HW1 4725   7.100   8.752   9.592  0.6243 -1.9572  1.3946
33944SOL    HW2 4726   7.072   8.890   9.646  0.1407 -0.3427 -2.6562
33945SOL     OW 4727   0.242   7.855   0.483  0.5058 -0.0793 -0.5719
33945SOL    HW1 4728   0.148   7.848   0.500  0.3305  2.6682  0.1070
33945SOL    HW2 4729   0.281   7.867   0.569  1.2576  0.5516 -0.9857
33946SOL     OW 4730   0.940   3.342  10.563  0.2045  0.2128  0.1255
33946SOL    HW1 4731   0.974   3.419  10.608 -0.1027  0.0488  0.6488
33946SOL    HW2 4732   1.017   3.305  10.519  0.5363  0.3306  0.5891
33947SOL     OW 4733   2.288  10.477   3.656 -0.3403 -0.1321  0.2022
33947SOL    HW1 4734   2.315  10.540   3.590 -1.1905 -0.1669 -0.2012
33947SOL    HW2 4735   2.193  10.468   3.643 -0.4841 -0.3300  1.2589
33948SOL     OW 4736   7.438   6.938   4.722  0.1920 -0.5073 -0.2413
33948SOL    HW1 4737   7.370   6.997   4.755 -0.1625 -1.2621  0.4220
33948SOL    HW2 4738   7.492   6.993   4.665 -1.6985 -0.1847 -1.8044
33949SOL     OW 4739   6.443   8.501   3.942 -0.2895 -0.2081 -0.4106
33949SOL    HW1 4740   6.401   8.556   4.008 -0.7355 -0.6542 -0.3166
33949SOL    HW2 4741   6.470   8.422   3.990 -2.6808 -1.5791 -1.1581
33950SOL     OW 4742   7.505   6.968   1.334  0.0389 -0.2856 -0.0761
33950SOL    HW1 4743   7.546   7.054   1.344 -2.6954  1.0407  0.3920
33950SOL    HW2 4744   7.460   6.972   1.249 -0.8382 -0.9294  0.3418
33951SOL     OW 4745   0.342  10.677   5.981 -0.0660  0.4266  0.0823
33951SOL    HW1 4746   0.324  10.676   5.887  0.5150 -0.5454 -0.0363
33951SOL    HW2 4747   0.354  10.585   6.003 -0.0901  0.6600  1.0947
33952SOL     OW 4748   6.378   1.918   1.162 -0.2648  0.6145  0.5173
33952SOL    HW1 4749   6.365   1.871   1.245 -0.6012  0.4924  0.3970
33952SOL    HW2 4750   6.302   1.975   1.154 -0.2848  0.5528  0.2419
33953SOL     OW 4751   4.476   6.473   0.727  0.3774 -0.3201  0.3087
33953SOL    HW1 4752   4.431   6.390   0.743  0.2759 -0.6074 -1.2793
33953SOL    HW2 4753   4.419   6.520   0.667 -0.1921  1.4905  2.1716
33954SOL     OW 4754   3.972   6.831   5.229 -0.0057 -0.0599 -0.3265
33954SOL    HW1 4755   3.984   6.736   5.220 -1.1532 -0.0303 -3.3743
33954SOL    HW2 4756   3.950   6.844   5.321 -0.1525 -2.7927  0.1109
33955SOL     OW 4757   5.718   7.459   5.991  0.1903 -0.1668  0.6881
33955SOL    HW1 4758   5.701   7.460   5.897  0.4344 -2.0918  0.5883
33955SOL    HW2 4759   5.782   7.530   6.004  2.3225 -1.6199 -1.0841
33956SOL     OW 4760   5.196   7.531   4.310 -0.5792  0.2725 -0.1418
33956SOL    HW1 4761   5.243   7.569   4.236  0.7183 -2.5979 -0.9004
33956SOL    HW2 4762   5.114   7.498   4.273  0.5100 -2.0791 -0.6269
33957SOL     OW 4763   7.419   0.948   7.504  0.5927 -0.2587  0.6918
33957SOL    HW1 4764   7.329   0.929   7.530  0.0101 -3.2422 -2.7486
33957SOL    HW2 4765   7.417   1.040   7.478 -0.7945  0.3961  2.8441
33958SOL     OW 4766   3.926   9.310   5.408  0.0239 -0.1875 -0.3458
33958SOL    HW1 4767   3.835   9.321   5.383 -0.7440 -1.2645  1.7466
33958SOL    HW2 4768   3.973   9.304   5.325 -1.5505  1.9023 -1.5001
33959SOL     OW 4769   6.751   6.045   9.294  0.3835 -0.5883  0.2053
33959SOL    HW1 4770   6.792   6.046   9.381 -0.6192 -0.6133  0.6957
33959SOL    HW2 4771   6.719   6.135   9.282  1.1420 -0.3994 -0.4527
33960SOL     OW 4772   1.294   6.952   0.891 -0.3130  0.4214 -0.6794
33960SOL    HW1 4773   1.255   6.874   0.930  2.0215 -0.7939 -0.6214
33960SOL    HW2 4774   1.267   7.024   0.949 -0.5995 -0.6895  0.5999
33961SOL     OW 4775   3.729   6.030   7.125 -0.0234  0.2897 -0.1668
33961SOL    HW1 4776   3.712   6.124   7.132  0.9904  0.4156  1.1048
33961SOL    HW2 4777   3.725   5.999   7.216 -2.7591 -1.3906 -0.7434
33962SOL     OW 4778   5.382   4.303   6.280 -0.1404  0.1906  0.3913
33962SOL    HW1 4779   5.326   4.290   6.356 -0.4912  0.7865  0.2391
33962SOL    HW2 4780   5.334   4.262   6.208 -0.7551  1.3461  0.1147
33963SOL     OW 4781   5.823   7.536   5.319 -0.0641  0.6822 -0.2430
33963SOL    HW1 4782   5.765   7.548   5.244  1.2538  0.9287 -1.2742
33963SOL    HW2 4783   5.768   7.553   5.396 -2.4796 -3.1092 -0.8297
33964SOL     OW 4784   3.630   2.837  10.356 -0.1728  0.3106  0.1091
33964SOL    HW1 4785   3.545   2.881  10.369 -0.1752  0.6870 -1.0127
33964SOL    HW2 4786   3.622   2.797  10.270  0.4418 -0.5060  0.4264
33965SOL     OW 4787   1.003   5.546   6.110  0.1225 -0.3044 -0.4499
33965SOL    HW1 4788   1.054   5.624   6.089 -1.7545  1.5358  1.3304
33965SOL    HW2 4789   0.917   5.563   6.070  0.3507 -2.6211 -2.1092
33966SOL     OW 4790   7.059   7.405   0.274 -0.4237 -0.3713 -0.5166
33966SOL    HW1 4791   7.054   7.366   0.187 -0.6666  1.0988 -1.1850
33966SOL    HW2 4792   6.973   7.446   0.287 -0.3423 -0.4468  0.3567
33967SOL     OW 4793   9.137   5.971   1.183 -0.2957  0.1171 -0.1006
33967SOL    HW1 4794   9.106   6.042   1.126  0.5604  1.1228  0.6659
33967SOL    HW2 4795   9.147   6.012   1.269 -0.7565 -1.1867  0.5962
33968SOL     OW 4796   9.288   4.563   2.845  0.5422 -0.0788  0.2220
33968SOL    HW1 4797   9.352   4.619   2.803  1.8035 -0.4860  1.5210
33968SOL    HW2 4798   9.291   4.588   2.937 -2.8136  1.4418  0.0531
33969SOL     OW 4799   9.500   8.479   3.957 -0.4356 -0.2251 -0.3450
33969SOL    HW1 4800   9.511   8.554   4.015  3.9361 -1.0397  0.2513
33969SOL    HW2 4801   9.502   8.516   3.868  0.0104  0.4989 -0.0409
33970SOL     OW 4802   1.750  10.692   8.879  0.2526 -0.2303  0.4280
33970SOL    HW1 4803   1.707  10.749   8.942  3.2480 -0.2647  2.7223
33970SOL    HW2 4804   1.753  10.606   8.922 -1.7327 -1.5832 -1.8200
33971SOL     OW 4805   1.031  10.743   0.819 -0.8683  0.1481 -0.4384
33971SOL    HW1 4806   0.978  10.785   0.751 -2.0893  0.1374  0.4695
33971SOL    HW2 4807   0.973  10.675   0.855 -0.1503 -0.0126  0.4418
33972SOL     OW 4808   3.306  10.270   4.177 -0.0892  0.2884  0.2285
33972SOL    HW1 4809   3.229  10.313   4.139 -1.2131 -0.8211  1.1833
33972SOL    HW2 4810   3.277  10.181   4.195  0.6159  0.5237  2.9387
33973SOL     OW 4811   4.439   8.735  10.700  0.7601 -0.2723 -0.0217
33973SOL    HW1 4812   4.382   8.794  10.650  1.2536 -0.0692 -0.3570
33973SOL    HW2 4813   4.412   8.647  10.672  0.1641 -0.2025  0.3229
33974SOL     OW 4814   0.139   6.081   9.377  0.6704 -0.0106 -0.6099
33974SOL    HW1 4815   0.220   6.104   9.423 -0.3601  2.3833  0.1810
33974SOL    HW2 4816   0.167   6.021   9.308  2.7204 -1.3599  1.2173
33975SOL     OW 4817   6.960   3.248   5.426 -0.3856  0.5399 -0.3769
33975SOL    HW1 4818   7.000   3.181   5.371 -1.0419 -0.1026 -0.0841
33975SOL    HW2 4819   6.890   3.286   5.372 -1.3541 -0.4277  0.1550
33976SOL     OW 4820   4.758   7.799   9.608 -0.1603  0.2418 -0.4541
33976SOL    HW1 4821   4.842   7.822   9.648 -0.5791  0.5243  0.2870
33976SOL    HW2 4822   4.700   7.873   9.630 -0.7813 -0.2582 -0.3828
33977SOL     OW 4823   5.875  10.657   0.306  0.1752  0.0272  0.3142
33977SOL    HW1 4824   5.851  10.723   0.241 -1.1870 -0.6530  0.0872
33977SOL    HW2 4825   5.838  10.690   0.388  1.6236  0.7296  0.7214
33978SOL     OW 4826   8.920   3.964   9.508 -0.2035  0.4745  0.8034
33978SOL    HW1 4827   8.852   3.916   9.554 -1.1151  1.5739  0.6309
33978SOL    HW2 4828   8.939   3.910   9.431  1.4066 -1.4350  2.4079
33979SOL     OW 4829   7.390   9.289   5.820 -0.1655 -0.0427  0.6176
33979SOL    HW1 4830   7.423   9.301   5.910 -0.2490 -1.4342  0.8452
33979SOL    HW2 4831   7.447   9.223   5.782 -0.9737 -0.4561  0.0946
33980SOL     OW 4832   9.661   8.917   9.627 -0.6549 -0.7594  0.5187
33980SOL    HW1 4833   9.601   8.924   9.701  0.0279 -0.5030  1.0638
33980SOL    HW2 4834   9.722   8.990   9.639  0.0974 -1.3400  0.2993
33981SOL     OW 4835   3.749   8.812  10.062 -0.3444 -0.3363  0.2756
33981SOL    HW1 4836   3.841   8.832  10.040 -0.2192 -3.0245 -2.1768
33981SOL    HW2 4837   3.751   8.722  10.093 -2.2064 -0.6177 -0.3023
33982SOL     OW 4838   8.564   6.794   8.922 -0.2167  0.0690 -0.1396
33982SOL    HW1 4839   8.594   6.709   8.890 -1.5660  0.1648 -1.8531
33982SOL    HW2 4840   8.607   6.858   8.865 -2.8166  0.2363 -2.1523
33983SOL     OW 4841   7.161   0.823   7.032 -0.1188 -0.3900 -0.0963
33983SOL    HW1 4842   7.096   0.853   6.969  1.4845  1.1377 -1.0898
33983SOL    HW2 4843   7.179   0.733   7.008 -0.0034 -0.0233 -1.4533
33984SOL     OW 4844   8.332   3.225   9.287  0.3279  0.0666 -0.4306
33984SOL    HW1 4845   8.334   3.262   9.376  1.4285  0.5697 -0.6459
33984SOL    HW2 4846   8.240   3.204   9.272  0.1610 -0.3195  0.9480
33985SOL     OW 4847   5.454   1.932   5.752  0.0420  0.2128 -0.3721
33985SOL    HW1 4848   5.473   2.003   5.812 -1.6972 -1.1169  1.9187
33985SOL    HW2 4849   5.522   1.867   5.770 -2.4704 -1.7837  3.1211
33986SOL     OW 4850   0.676   3.619  10.049  0.3194 -0.2438  0.4130
33986SOL    HW1 4851   0.605   3.634   9.987  1.3837  2.0456 -0.3625
33986SOL    HW2 4852   0.742   3.570  10.000  0.5512  0.3013  0.1771
33987SOL     OW 4853   2.632   1.441   9.985 -0.1379  0.0069  0.3843
33987SOL    HW1 4854   2.702   1.378   9.970  2.4059  2.0844  2.4064
33987SOL    HW2 4855   2.671   1.526   9.965 -1.4773  1.4048  3.1112
33988SOL     OW 4856  10.358  10.188   8.336  0.2680 -0.4060  0.3222
33988SOL    HW1 4857  10.399  10.187   8.249 -0.0571  0.8956  0.1417
33988SOL    HW2 4858  10.297  10.262   8.333 -0.1377 -0.6774  1.4892
33989SOL     OW 4859   8.654   3.980   8.964  0.1376 -0.0878 -0.2639
33989SOL    HW1 4860   8.687   4.013   8.880  0.8021 -1.0512 -0.4016
33989SOL    HW2 4861   8.572   3.936   8.941 -0.1793  0.4913 -0.2521
33990SOL     OW 4862   1.349   5.417   1.227  0.3916 -0.6963  0.3014
33990SOL    HW1 4863   1.298   5.423   1.308 -0.3490 -2.0078 -0.0299
33990SOL    HW2 4864   1.390   5.503   1.217 -2.0715  0.5829  0.4002
33991SOL     OW 4865   7.882   5.252   5.893  0.0649  0.3086  0.0625
33991SOL    HW1 4866   7.877   5.260   5.988  0.9744  3.0960 -0.0422
33991SOL    HW2 4867   7.818   5.314   5.860 -0.4617 -0.8420 -1.1976
33992SOL     OW 4868   0.192   2.161   2.433  0.2694 -0.1847 -0.5290
33992SOL    HW1 4869   0.266   2.186   2.488  1.2885 -3.2312 -0.3897
33992SOL    HW2 4870   0.218   2.186   2.344  2.1659 -2.4341 -0.6920
33993SOL     OW 4871   7.649   7.878   8.896  0.2788 -0.0644  0.1683
33993SOL    HW1 4872   7.697   7.897   8.815 -0.0658 -1.0944 -0.2872
33993SOL    HW2 4873   7.628   7.964   8.931  2.4290  0.4259  0.3698
33994SOL     OW 4874   6.355   6.581   6.334 -0.3515 -0.0983  0.1095
33994SOL    HW1 4875   6.432   6.635   6.318 -0.0885 -0.5127 -0.0560
33994SOL    HW2 4876   6.364   6.553   6.425  0.7446 -1.7544 -0.4636
33995SOL     OW 4877   9.221   8.012   4.363  0.5181 -0.8429 -0.3884
33995SOL    HW1 4878   9.211   8.042   4.272  1.3470 -0.7448 -0.4553
33995SOL    HW2 4879   9.298   7.956   4.361  0.3103 -1.1543  0.1897
33996SOL     OW 4880   2.281  10.312  10.253 -0.1865  0.2997  0.0607
33996SOL    HW1 4881   2.344  10.254  10.210 -0.0163 -1.2719  2.3014
33996SOL    HW2 4882   2.334  10.379  10.296 -0.3015  1.2079 -1.1542
33997SOL     OW 4883   9.256   1.519   9.237  0.0369  0.4583 -0.0505
33997SOL    HW1 4884   9.164   1.523   9.266  0.0357  0.3595 -0.0378
33997SOL    HW2 4885   9.266   1.594   9.178  0.2081  1.0265  0.6877
33998SOL     OW 4886   0.226   4.220   4.228 -0.0919 -0.3622 -0.1569
33998SOL    HW1 4887   0.268   4.211   4.313 -1.1112  1.6345  0.6332
33998SOL    HW2 4888   0.157   4.153   4.229  0.3493 -0.8200  0.2926
33999SOL     OW 4889   3.177   9.666   5.478  0.1912 -0.1841  0.1969
33999SOL    HW1 4890   3.136   9.685   5.394  1.2495  1.9929  0.0938
33999SOL    HW2 4891   3.134   9.726   5.539  0.1067 -1.0720  1.0398
34000SOL     OW 4892   4.470   2.445   3.732 -0.3493  0.8305  1.0504
34000SOL    HW1 4893   4.550   2.397   3.708 -0.2214  1.9289 -0.9910
34000SOL    HW2 4894   4.457   2.426   3.825  0.5905 -1.8032  0.7263
34001SOL     OW 4895   3.665   6.017   4.166  0.3081 -0.3400  0.0229
34001SOL    HW1 4896   3.655   5.929   4.131  0.4327  0.1590 -1.2972
34001SOL    HW2 4897   3.739   6.010   4.227  0.8220 -0.9793 -0.6581
34002SOL     OW 4898   5.695   9.769   4.890 -0.4550  0.3915  0.3580
34002SOL    HW1 4899   5.729   9.749   4.977  0.2248  0.9424  0.2328
34002SOL    HW2 4900   5.716   9.862   4.877  0.8132 -0.0479 -0.9828
34003SOL     OW 4901   2.279   8.046   0.997 -0.3822 -0.6845  0.3763
34003SOL    HW1 4902   2.297   8.135   0.966  1.3088 -1.1772 -0.1866
34003SOL    HW2 4903   2.339   8.034   1.070 -0.9592 -1.1854  0.7711
34004SOL     OW 4904   2.038   2.056   4.147 -0.3724 -0.1603  0.3882
34004SOL    HW1 4905   2.034   2.084   4.056 -0.9272 -0.8478  0.1929
34004SOL    HW2 4906   2.131   2.044   4.166 -0.3419 -2.8422 -0.9797
34005SOL     OW 4907   0.909   3.977   3.380 -0.2824 -0.4476 -0.9510
34005SOL    HW1 4908   0.965   3.919   3.432 -0.2988 -0.1678 -0.6148
34005SOL    HW2 4909   0.882   4.045   3.441 -0.6638 -0.3566 -1.2171
34006SOL     OW 4910   5.987   2.041   5.027 -0.3841 -0.1570 -0.2386
34006SOL    HW1 4911   5.902   2.077   5.001 -0.0949  0.4217 -0.3913
34006SOL    HW2 4912   6.012   1.984   4.954 -0.6485 -0.3553 -0.1791
34007SOL     OW 4913   2.635   7.829   1.966  0.1702  0.6083  0.1902
34007SOL    HW1 4914   2.632   7.908   1.911 -0.0172 -0.2516 -1.0820
34007SOL    HW2 4915   2.561   7.776   1.936  0.9394 -0.5350  0.2471
34008SOL     OW 4916   9.108   2.118   8.360 -0.5323  0.2341 -0.9571
34008SOL    HW1 4917   9.017   2.143   8.373 -0.0485  3.1875 -2.4524
34008SOL    HW2 4918   9.121   2.124   8.266  1.3346  0.3556 -0.7293
34009SOL     OW 4919   4.255  10.785   2.447  0.6839  0.2636  0.0555
34009SOL    HW1 4920   4.237  10.803   2.539  2.6080 -1.1568  0.7764
34009SOL    HW2 4921   4.219  10.860   2.400  0.5407  1.5121  2.0550
34010SOL     OW 4922   0.622   2.325  10.640 -0.0342 -0.4558 -0.2390
34010SOL    HW1 4923   0.581   2.371  10.713 -1.3071  0.7401 -1.6341
34010SOL    HW2 4924   0.549   2.282  10.595  0.6972 -1.0170 -0.9196
34011SOL     OW 4925   5.060   5.127   1.774 -0.5839 -0.1762  0.2376
34011SOL    HW1 4926   4.968   5.151   1.768 -0.3794  0.8433  0.9176
34011SOL    HW2 4927   5.090   5.166   1.856  0.3876 -0.7252  0.1611
34012SOL     OW 4928   3.893   3.945   4.258  0.1976  0.3084  0.4266
34012SOL    HW1 4929   3.855   3.907   4.338 -1.8239  0.7688 -0.2416
34012SOL    HW2 4930   3.839   4.023   4.241  0.1227 -0.1608 -1.7511
34013SOL     OW 4931   0.926   1.550   6.045 -0.1368  0.5708 -0.2015
34013SOL    HW1 4932   0.986   1.618   6.075  1.0756  0.1011 -1.4078
34013SOL    HW2 4933   0.843   1.595   6.029 -0.0318  1.2984  1.1958
34014SOL     OW 4934  10.440   9.344   9.741 -0.1319 -0.2681  0.2081
34014SOL    HW1 4935  10.505   9.340   9.671 -1.6572 -0.9402 -1.2211
34014SOL    HW2 4936  10.429   9.437   9.758 -0.6872 -0.0137 -1.3934
34015SOL     OW 4937   1.957   0.295   3.398  0.6811 -0.3367 -0.5794
34015SOL    HW1 4938   1.887   0.271   3.458  2.7589 -2.1241  1.2720
34015SOL    HW2 4939   1.918   0.362   3.341 -1.5274  1.2064  2.4799
34016SOL     OW 4940   9.631   0.428   1.979  0.1250 -0.8245 -0.0741
34016SOL    HW1 4941   9.704   0.402   1.923  0.3370 -0.2976 -0.0408
34016SOL    HW2 4942   9.605   0.346   2.022  1.5601 -0.7828  0.9302
34017SOL     OW 4943   3.198   5.133   8.671  0.2214  0.1784  0.5225
34017SOL    HW1 4944   3.274   5.126   8.730  0.4371  0.9552  0.3490
34017SOL    HW2 4945   3.123   5.135   8.729  0.5303  2.9283  0.9423
34018SOL     OW 4946   4.763   8.756   8.294  0.6494 -0.1961  0.1754
34018SOL    HW1 4947   4.820   8.791   8.362 -1.9543  0.5534  2.1131
34018SOL    HW2 4948   4.777   8.813   8.218  1.8197  0.4927  0.8923
34019SOL     OW 4949   2.128  10.318   8.909 -0.5561 -0.0905 -0.1856
34019SOL    HW1 4950   2.079  10.236   8.916 -1.5949  0.5153 -0.2305
34019SOL    HW2 4951   2.123  10.341   8.816  2.3587 -1.5190 -0.8415
34020SOL     OW 4952  10.735   0.604   9.745  0.4721 -0.2055  0.1810
34020SOL    HW1 4953  10.736   0.700   9.745  1.5647 -0.1774 -1.5261
34020SOL    HW2 4954  10.642   0.581   9.743  0.2021  0.8618 -0.5339
34021SOL     OW 4955   3.791   9.941   4.905  1.0539  0.2381  0.0699
34021SOL    HW1 4956   3.837   9.924   4.988  1.5452 -0.2676 -0.2936
34021SOL    HW2 4957   3.855   9.917   4.837  0.4582  0.1004 -0.4505
34022SOL     OW 4958   6.617   9.643   2.312 -0.2366  0.5090 -0.1668
34022SOL    HW1 4959   6.529   9.677   2.328  0.2483  0.6569  2.5335
34022SOL    HW2 4960   6.668   9.720   2.289 -0.6526  0.5042 -1.1733
34023SOL     OW 4961   4.548   6.310   2.874 -0.6882 -0.2829  0.2158
34023SOL    HW1 4962   4.500   6.235   2.841 -1.2862  0.6722 -1.1676
34023SOL    HW2 4963   4.640   6.289   2.858 -0.8980 -0.3914 -0.9219
34024SOL     OW 4964   2.705   5.558   8.553 -0.0021 -0.1686  0.5104
34024SOL    HW1 4965   2.656   5.574   8.473  1.2832  0.6388 -0.1389
34024SOL    HW2 4966   2.777   5.501   8.527 -0.1981 -0.8072  1.3180
34025SOL     OW 4967   2.366   3.870   6.230  0.1482 -0.5061  0.0160
34025SOL    HW1 4968   2.461   3.862   6.217  0.6398  1.5158  1.8368
34025SOL    HW2 4969   2.340   3.785   6.266  1.1306 -1.2808 -1.0167
34026SOL     OW 4970   0.830   4.452   7.215 -0.4501 -0.3524  0.3344
34026SOL    HW1 4971   0.835   4.537   7.170 -0.9654  0.0639  1.0348
34026SOL    HW2 4972   0.765   4.403   7.166 -0.0430 -0.4008 -0.1642
34027SOL     OW 4973   2.366   3.404   6.560  0.5828  0.3434 -0.4096
34027SOL    HW1 4974   2.364   3.374   6.651  0.5869  0.1746 -0.4647
34027SOL    HW2 4975   2.413   3.335   6.513  0.0182  0.1157 -0.6563
34028SOL     OW 4976   0.811   0.841   1.183  0.3300  0.1363  0.1958
34028SOL    HW1 4977   0.802   0.748   1.203  0.3815 -0.0755 -0.7070
34028SOL    HW2 4978   0.893   0.846   1.132  0.4305  0.7005  0.4072
34029SOL     OW 4979  10.069   3.779   8.235 -0.9861 -0.2046 -0.2236
34029SOL    HW1 4980  10.046   3.730   8.156 -3.5864 -0.6210  0.7027
34029SOL    HW2 4981  10.076   3.713   8.303  2.4637 -0.0037 -0.2224
34030SOL     OW 4982   2.396   1.224   9.961  0.0612  0.3825 -0.7847
34030SOL    HW1 4983   2.475   1.269   9.991 -0.2407  0.2184  0.3019
34030SOL    HW2 4984   2.401   1.137  10.002 -1.6850  1.0672  1.0711
34031SOL     OW 4985   4.139   0.800   4.132 -0.3847  0.2549  0.2066
34031SOL    HW1 4986   4.144   0.896   4.135 -1.0631  0.3457 -0.9538
34031SOL    HW2 4987   4.094   0.776   4.213  1.3330  0.7618  1.3678
34032SOL     OW 4988   2.802   8.644   4.838 -0.3077 -0.3666 -0.5280
34032SOL    HW1 4989   2.849   8.587   4.898 -3.4836 -1.6848  0.9301
34032SOL    HW2 4990   2.820   8.608   4.751  1.1346 -0.9040 -0.0427
34033SOL     OW 4991   8.824   0.021   7.540 -0.1748 -0.4582 -0.2545
34033SOL    HW1 4992   8.852   0.040   7.630  2.3307 -0.4695 -0.9587
34033SOL    HW2 4993   8.832   0.104   7.494 -1.7080 -0.3921 -0.4642
34034SOL     OW 4994   0.922   9.953   7.743  0.8518 -0.2288  0.2618
34034SOL    HW1 4995   0.946   9.862   7.760  1.0628 -0.6549 -2.0754
34034SOL    HW2 4996   0.880   9.982   7.824  0.2366 -2.5834  0.8587
34035SOL     OW 4997   2.641   0.060   3.541 -0.3506  0.3139  0.2950
34035SOL    HW1 4998   2.622  -0.024   3.583 -2.0396 -0.6422 -2.1860
34035SOL    HW2 4999   2.660   0.038   3.450  1.0326  2.4923 -0.0127
34036SOL     OW 5000   0.012   6.828   4.311 -0.1097 -0.5700 -0.1246
34036SOL    HW1 5001  -0.002   6.737   4.337  0.6112 -0.8084 -0.5565
34036SOL    HW2 5002  -0.041   6.839   4.232 -0.4321 -0.5279  0.0977
34037SOL     OW 5003   4.144   4.236   3.039 -0.9563  0.1674  0.6470
34037SOL    HW1 5004   4.164   4.144   3.052  1.0460  0.4601 -0.0750
34037SOL    HW2 5005   4.170   4.254   2.949  0.3120  1.8130  1.2980
34038SOL     OW 5006   5.371   2.721   5.324 -0.1324  0.7261  0.1638
34038SOL    HW1 5007   5.465   2.738   5.324 -0.1863  1.0445  0.4419
34038SOL    HW2 5008   5.342   2.745   5.413 -0.5484  1.0568 -0.0560
34039SOL     OW 5009   5.372   3.834   3.776  0.5351  0.7344  0.1712
34039SOL    HW1 5010   5.307   3.772   3.811 -1.7142  2.5038 -0.5985
34039SOL    HW2 5011   5.371   3.818   3.682  0.4329  1.4546  0.0442
34040SOL     OW 5012   4.145   8.617   0.650  0.0805  0.2276 -0.5651
34040SOL    HW1 5013   4.059   8.633   0.690  0.5961 -0.2501  0.7875
34040SOL    HW2 5014   4.125   8.593   0.559 -1.3929 -1.8876  0.2327
34041SOL     OW 5015   7.701   5.248   5.591 -0.4239 -0.1252 -0.3257
34041SOL    HW1 5016   7.666   5.265   5.503 -0.8827 -2.6089 -0.7013
34041SOL    HW2 5017   7.795   5.264   5.582 -0.4314 -0.5405 -1.3400
34042SOL     OW 5018  10.540   2.933   6.539 -0.3289  0.2743 -0.2971
34042SOL    HW1 5019  10.636   2.940   6.541 -0.2242  0.2420  3.7689
34042SOL    HW2 5020  10.524   2.841   6.519  0.3246  0.6635 -2.9268
34043SOL     OW 5021   0.277   8.401   1.132  0.1718 -0.4260  0.0941
34043SOL    HW1 5022   0.332   8.429   1.059  0.7721  1.5744  1.2257
34043SOL    HW2 5023   0.338   8.393   1.206 -0.7177 -0.3459  0.8565
34044SOL     OW 5024   2.298   3.924   4.152 -0.7956  0.1465  0.5528
34044SOL    HW1 5025   2.269   4.012   4.178 -0.7568  0.0953  0.7685
34044SOL    HW2 5026   2.303   3.928   4.056  0.1534  0.6849  0.6065
34045SOL     OW 5027   0.438   6.032   1.979  0.0140  0.5544  0.4095
34045SOL    HW1 5028   0.434   5.995   2.067 -2.7855  1.1969  0.6542
34045SOL    HW2 5029   0.463   6.124   1.993 -1.3694  0.9146  0.6860
34046SOL     OW 5030   6.834   7.505   3.734  0.1012  0.0280 -0.2580
34046SOL    HW1 5031   6.904   7.481   3.673  0.1396 -0.3627 -0.0622
34046SOL    HW2 5032   6.758   7.523   3.678 -0.0994 -1.1402 -0.3746
34047SOL     OW 5033   7.230   4.019   4.964 -0.4878  0.2334 -0.0054
34047SOL    HW1 5034   7.275   4.095   4.927 -1.7397  1.2804  0.5320
34047SOL    HW2 5035   7.141   4.025   4.930 -0.3880 -1.4982 -0.6373
34048SOL     OW 5036   0.535   8.601   1.590 -0.0539  0.0649 -0.0890
34048SOL    HW1 5037   0.611   8.660   1.594  0.4355 -0.2925 -2.6841
34048SOL    HW2 5038   0.459   8.659   1.598  0.4543  0.8299 -0.6439
34049SOL     OW 5039   1.769   1.435   2.078  0.0827  0.4608  0.2713
34049SOL    HW1 5040   1.736   1.345   2.071  0.4366  0.3825 -0.5343
34049SOL    HW2 5041   1.711   1.486   2.020  0.0472  0.7050  0.5191
34050SOL     OW 5042   0.695  10.540   5.075 -0.7750  0.4615 -0.3356
34050SOL    HW1 5043   0.639  10.561   5.000 -1.5182 -0.6906 -0.1231
34050SOL    HW2 5044   0.643  10.479   5.127  0.5755 -0.3965  0.0291
34051SOL     OW 5045   2.211   4.604   3.270 -0.3117  0.4972 -0.2884
34051SOL    HW1 5046   2.160   4.524   3.267 -0.5456  0.6546 -0.6285
34051SOL    HW2 5047   2.186   4.646   3.352 -2.1415  1.4843 -1.2902
34052SOL     OW 5048   5.223   3.660   9.716  0.3946  0.2157 -0.1725
34052SOL    HW1 5049   5.198   3.752   9.704  1.0124  0.4159  0.0730
34052SOL    HW2 5050   5.145   3.619   9.754  0.1454  0.6545 -0.2048
34053SOL     OW 5051   7.578   7.792   4.481 -0.3267 -0.0693  0.2205
34053SOL    HW1 5052   7.565   7.706   4.521  0.0791 -0.4077 -0.3620
34053SOL    HW2 5053   7.558   7.855   4.551  0.3389 -0.6495  0.9377
34054SOL     OW 5054   7.533   1.938   9.883  0.4796 -0.0328  0.5712
34054SOL    HW1 5055   7.495   1.868   9.831 -1.8105  0.2682  1.7425
34054SOL    HW2 5056   7.481   2.016   9.860  1.5342  0.8076  0.9350
34055SOL     OW 5057   0.538   3.878   1.257  0.0295  0.0372 -0.1728
34055SOL    HW1 5058   0.452   3.857   1.220  0.8952 -0.4689 -2.0396
34055SOL    HW2 5059   0.552   3.811   1.325 -1.5547  0.9110  1.0842
34056SOL     OW 5060   2.800   4.128   2.623 -0.1883 -0.5095 -0.0285
34056SOL    HW1 5061   2.818   4.215   2.658  0.3020 -0.4117 -0.5042
34056SOL    HW2 5062   2.875   4.076   2.650 -0.8263 -0.9822  0.8822
34057SOL     OW 5063   5.048   8.492   7.459 -0.2228  0.8738 -0.0145
34057SOL    HW1 5064   4.954   8.480   7.443 -0.3621  1.9411 -0.0201
34057SOL    HW2 5065   5.066   8.437   7.535 -1.0337  1.3140  0.5119
34058SOL     OW 5066   9.283   3.534   2.043  0.1385 -0.0667  0.2204
34058SOL    HW1 5067   9.284   3.441   2.019 -1.1308 -0.1437  0.3884
34058SOL    HW2 5068   9.310   3.536   2.134  0.0745 -0.2758  0.2428
34059SOL     OW 5069   5.775   3.665   4.189 -0.2174  0.0706  0.2423
34059SOL    HW1 5070   5.709   3.612   4.234  0.5268 -0.7306  0.4265
34059SOL    HW2 5071   5.775   3.632   4.100 -1.5107  1.4864 -0.3217
34060SOL     OW 5072   0.630   4.333   1.959 -0.1482  0.5346  0.2953
34060SOL    HW1 5073   0.684   4.386   2.017  0.9330 -0.4617  0.2359
34060SOL    HW2 5074   0.666   4.348   1.872 -0.7015  0.7263  0.0890
34061SOL     OW 5075   8.165   8.864   8.337  0.3928  0.2272 -0.1801
34061SOL    HW1 5076   8.248   8.848   8.291  1.9568 -0.1189  2.5200
34061SOL    HW2 5077   8.181   8.943   8.388 -0.3343 -0.7344  1.6245
34062SOL     OW 5078   0.041   0.106   1.153 -0.7045  0.3578 -0.2413
34062SOL    HW1 5079   0.087   0.087   1.234 -0.4264  0.0127 -0.4745
34062SOL    HW2 5080  -0.019   0.032   1.141 -0.3239  0.1081 -0.6469
34063SOL     OW 5081   0.968   8.971   5.445  0.4924 -0.2275 -0.1425
34063SOL    HW1 5082   0.875   8.966   5.465  0.6430 -1.0194  0.3928
34063SOL    HW2 5083   1.006   8.894   5.486  1.2402 -0.4327 -1.1648
34064SOL     OW 5084   4.056   6.547   0.934 -0.0970 -0.7675  0.1686
34064SOL    HW1 5085   4.112   6.590   0.998 -1.6110 -1.2934  1.9510
34064SOL    HW2 5086   4.024   6.469   0.979 -1.5891 -0.9241 -1.0696
34065SOL     OW 5087   6.271   0.309   5.354 -0.4996 -0.6471  0.0274
34065SOL    HW1 5088   6.233   0.222   5.373 -0.8361 -0.3134  0.9864
34065SOL    HW2 5089   6.322   0.329   5.432  1.0206 -0.7233 -0.9155
34066SOL     OW 5090   9.098  10.046   2.990 -0.0205  0.1240  0.4106
34066SOL    HW1 5091   9.130   9.994   2.917  0.9023 -0.0508  0.9289
34066SOL    HW2 5092   9.176  10.084   3.030 -0.6612  2.0341 -0.0299
34067SOL     OW 5093   8.925   5.482   4.739  0.4144  0.1865  0.3514
34067SOL    HW1 5094   8.967   5.397   4.751  0.3762  0.2802  1.2101
34067SOL    HW2 5095   8.872   5.494   4.818 -1.6208 -0.1359 -0.8935
34068SOL     OW 5096   9.048   3.636   0.977 -0.0817 -0.6360  0.2648
34068SOL    HW1 5097   9.024   3.546   0.955 -1.0689 -0.5630  0.9446
34068SOL    HW2 5098   9.037   3.640   1.072 -0.4231  0.3117  0.1905
34069SOL     OW 5099   8.871   5.137  10.597  0.0928 -0.1554 -0.4724
34069SOL    HW1 5100   8.885   5.153  10.504  0.4018  2.3618 -0.0703
34069SOL    HW2 5101   8.957   5.148  10.637 -0.5252  2.0421  0.4346
34070SOL     OW 5102   0.874   0.288   9.440  0.1121 -0.0495  0.5408
34070SOL    HW1 5103   0.829   0.204   9.449 -1.6144  0.8871  1.1153
34070SOL    HW2 5104   0.807   0.347   9.405  1.4410  0.9815 -0.3555
34071SOL     OW 5105   1.866   1.583   9.508  0.1425 -0.5808  0.1751
34071SOL    HW1 5106   1.955   1.552   9.522  1.5706  1.9971 -2.1975
34071SOL    HW2 5107   1.847   1.639   9.583  0.8648 -0.4904  0.2959
34072SOL     OW 5108   3.150   0.118   0.403  0.4450 -0.0568  0.2989
34072SOL    HW1 5109   3.220   0.057   0.383  0.5818  0.6111 -1.4196
34072SOL    HW2 5110   3.073   0.082   0.358  0.6473  1.2582 -1.1716
34073SOL     OW 5111   7.605   5.355   5.069 -0.0667  0.2172 -0.1333
34073SOL    HW1 5112   7.641   5.269   5.049 -0.7510  0.3917 -2.4452
34073SOL    HW2 5113   7.640   5.413   5.000  0.0103  1.6961  1.0968
34074SOL     OW 5114   9.101   0.417   8.340 -0.2321 -0.2506  0.2527
34074SOL    HW1 5115   9.101   0.441   8.433 -1.6006  0.5098  0.0829
34074SOL    HW2 5116   9.105   0.321   8.340  1.8244 -0.2142  1.0219
34075SOL     OW 5117   3.070   9.867  10.278  0.1257 -0.1163 -0.2496
34075SOL    HW1 5118   3.114   9.785  10.256  1.1073  0.6389 -1.2850
34075SOL    HW2 5119   3.133   9.914  10.334 -1.1562 -0.7795  1.8422
34076SOL     OW 5120   8.525   8.989   0.008 -0.3274 -0.0297  0.7233
34076SOL    HW1 5121   8.534   9.084   0.003  2.0227 -0.2242 -0.1462
34076SOL    HW2 5122   8.615   8.957   0.018 -0.9844 -2.1894  0.2583
34077SOL     OW 5123   8.793   1.189   3.436  0.4162 -0.4270 -0.2436
34077SOL    HW1 5124   8.883   1.184   3.402  0.0542 -0.8123 -1.1845
34077SOL    HW2 5125   8.779   1.104   3.478 -0.6065 -1.7941 -3.0461
34078SOL     OW 5126   8.369   4.976   0.810 -0.0771  0.2123  1.1720
34078SOL    HW1 5127   8.425   4.933   0.746 -1.8324 -1.1824  0.4841
34078SOL    HW2 5128   8.429   5.029   0.863  1.9035 -1.3555  0.6213
34079SOL     OW 5129   0.609   9.865   7.383  0.0425 -0.0082  0.4343
34079SOL    HW1 5130   0.680   9.817   7.423  0.2514  1.8714  2.5079
34079SOL    HW2 5131   0.607   9.834   7.292  3.8513  0.2652  0.1117
34080SOL     OW 5132   5.858   1.309   4.930  0.1227 -0.6433  0.7602
34080SOL    HW1 5133   5.878   1.344   4.844  3.0869  0.0540  1.6221
34080SOL    HW2 5134   5.888   1.218   4.927  2.6762  0.0963  1.7378
34081SOL     OW 5135   6.965   2.755   1.328  0.3827 -0.3078  0.3788
34081SOL    HW1 5136   6.988   2.794   1.243  0.3788  1.9551  1.3451
34081SOL    HW2 5137   7.035   2.784   1.386 -0.7729  0.0562  1.6278
34082SOL     OW 5138   0.476  10.139   9.064 -0.0305 -0.6110 -1.0155
34082SOL    HW1 5139   0.428  10.101   8.990 -1.2624  0.8891 -1.0623
34082SOL    HW2 5140   0.443  10.229   9.069  2.1593  0.2236 -0.4390
34083SOL     OW 5141   6.591   0.019   3.490  0.2986 -0.2214 -0.1476
34083SOL    HW1 5142   6.686   0.007   3.481  0.5859  2.3499 -1.4105
34083SOL    HW2 5143   6.574   0.105   3.454 -2.2906  0.2479  1.8784
34084SOL     OW 5144   4.303   7.586   7.250  0.2536 -0.2031 -0.3007
34084SOL    HW1 5145   4.210   7.603   7.235  0.4590  0.3364 -1.0316
34084SOL    HW2 5146   4.308   7.559   7.341 -0.3434  2.0625  0.4730
34085SOL     OW 5147   0.485   6.855   1.004 -0.0727  0.0646 -0.2816
34085SOL    HW1 5148   0.394   6.860   0.975 -0.1568 -2.6990 -0.7951
34085SOL    HW2 5149   0.536   6.890   0.931 -0.6210 -0.4287 -0.9057
34086SOL     OW 5150   5.509   9.981   2.873  0.3620 -0.1968 -0.1905
34086SOL    HW1 5151   5.486   9.940   2.790  0.0692 -0.1763 -0.1190
34086SOL    HW2 5152   5.442  10.047   2.887  1.3922  1.0337 -0.8137
34087SOL     OW 5153   6.410  10.308   4.807  0.0608  0.5764  0.0006
34087SOL    HW1 5154   6.431  10.217   4.829 -0.6638  0.0473 -1.3740
34087SOL    HW2 5155   6.356  10.338   4.880  1.1623  0.2532  0.9759
34088SOL     OW 5156   1.913  10.679   2.983  0.5040  0.0726  0.2462
34088SOL    HW1 5157   1.862  10.603   2.955 -1.4840  1.4226  0.0146
34088SOL    HW2 5158   1.914  10.738   2.908 -0.3946  1.4683  1.2672
34089SOL     OW 5159  10.158   7.611   5.239 -0.0147 -0.5697  0.0320
34089SOL    HW1 5160  10.105   7.688   5.256  0.5538  0.1355 -1.2720
34089SOL    HW2 5161  10.226   7.613   5.307  0.2699  0.3483 -0.2636
34090SOL     OW 5162   3.351   4.856   9.778 -0.1517 -0.0373  0.6872
34090SOL    HW1 5163   3.295   4.841   9.702  1.6653 -1.7086 -0.4602
34090SOL    HW2 5164   3.296   4.838   9.854 -2.2547  2.4904 -0.1244
34091SOL     OW 5165   9.911   0.448   5.651  0.1198  0.2155  0.0763
34091SOL    HW1 5166   9.825   0.436   5.609  0.4975  0.6718 -0.8530
34091SOL    HW2 5167   9.893   0.440   5.745 -1.0239  0.7840 -0.0763
34092SOL     OW 5168   1.039   9.009   4.017 -0.1170  0.1957 -0.1180
34092SOL    HW1 5169   0.994   9.094   4.015  0.5664  0.5748  0.2871
34092SOL    HW2 5170   1.071   9.001   4.107 -1.2726 -1.0915  0.2105
34093SOL     OW 5171   0.438   9.849   0.827  0.1585  0.6598  0.2483
34093SOL    HW1 5172   0.527   9.821   0.805  0.1724 -0.3952  1.5415
34093SOL    HW2 5173   0.430   9.936   0.787  1.6810  0.6627 -0.1116
34094SOL     OW 5174   6.700   7.429   3.957 -0.5953  0.3788  0.0661
34094SOL    HW1 5175   6.738   7.468   3.878 -1.1698 -0.3152 -0.5769
34094SOL    HW2 5176   6.758   7.455   4.028  0.6662 -0.0639 -0.7751
34095SOL     OW 5177   1.853   1.583   1.590 -0.2077  0.2230 -0.2329
34095SOL    HW1 5178   1.910   1.630   1.529 -1.9899  1.0414 -1.3312
34095SOL    HW2 5179   1.909   1.567   1.666  1.1807  1.9885 -0.7950
34096SOL     OW 5180   8.007  10.747   4.627  0.2909 -0.1879  0.2006
34096SOL    HW1 5181   8.100  10.733   4.649  0.6218  0.5721 -0.6507
34096SOL    HW2 5182   7.966  10.661   4.640  0.8308 -0.2246  1.9041
34097SOL     OW 5183   2.149   4.600   2.121  0.2580 -0.1863 -0.1789
34097SOL    HW1 5184   2.239   4.610   2.091 -0.1591 -0.2493 -1.5117
34097SOL    HW2 5185   2.110   4.538   2.059 -1.0045  0.6858 -0.2904
34098SOL     OW 5186   3.530  10.428   4.541 -0.0507 -0.4350 -0.3145
34098SOL    HW1 5187   3.513  10.458   4.630  1.5734  0.3955 -0.2389
34098SOL    HW2 5188   3.445  10.430   4.497 -0.6847  0.1779  0.9069
34099SOL     OW 5189   5.465   0.462   5.558  0.2006  0.4260  0.3588
34099SOL    HW1 5190   5.396   0.459   5.624 -0.4533  0.4033 -0.3111
34099SOL    HW2 5191   5.419   0.479   5.476  0.9465 -0.0107 -0.1670
34100SOL     OW 5192   1.080   3.005   1.705 -0.3102 -0.3459 -0.5079
34100SOL    HW1 5193   1.134   3.064   1.757  2.3421 -1.6941 -1.5520
34100SOL    HW2 5194   0.990   3.025   1.731  0.6880  1.6149  1.7481
34101SOL     OW 5195   0.278   3.927   6.442  0.1088 -0.4825 -0.4041
34101SOL    HW1 5196   0.250   4.003   6.494 -2.0061 -1.7561  0.4721
34101SOL    HW2 5197   0.277   3.958   6.352  3.2412  1.6108  0.1210
34102SOL     OW 5198   7.208   7.401   3.314  0.3001 -0.0275 -0.5317
34102SOL    HW1 5199   7.152   7.371   3.386 -0.2821  1.9281 -0.1036
34102SOL    HW2 5200   7.297   7.381   3.343 -0.0437 -1.6397 -0.4741
34103SOL     OW 5201   7.141   3.545   8.131 -0.0692 -0.4458  0.2314
34103SOL    HW1 5202   7.109   3.571   8.218 -1.3358 -0.2881 -0.2575
34103SOL    HW2 5203   7.177   3.626   8.094  1.0307 -0.6432  0.8201
34104SOL     OW 5204   1.935  10.096   7.881  0.1794 -0.1206  0.4625
34104SOL    HW1 5205   1.885  10.033   7.933 -0.1232 -0.2368  0.0385
34104SOL    HW2 5206   2.023  10.060   7.876  0.1221 -0.2795  0.6111
34105SOL     OW 5207   3.403   1.154   8.055  0.0201 -0.3631 -0.6467
34105SOL    HW1 5208   3.493   1.161   8.084 -0.2335 -0.5675  0.2044
34105SOL    HW2 5209   3.398   1.210   7.978  0.7466  0.0358 -0.4069
34106SOL     OW 5210  10.018   3.371  10.313 -0.5184  0.6290  0.4087
34106SOL    HW1 5211  10.088   3.310  10.337 -0.5866  0.2504 -0.3448
34106SOL    HW2 5212   9.952   3.359  10.382 -1.0161 -0.9519 -0.2967
34107SOL     OW 5213   0.983   4.748  10.568  0.6749  0.3549  0.1734
34107SOL    HW1 5214   0.977   4.668  10.620  1.2010  0.4476  0.3877
34107SOL    HW2 5215   1.014   4.814  10.629 -0.1298  0.8222  0.0885
34108SOL     OW 5216   4.130   2.259   2.929  0.1330  0.2841 -0.3158
34108SOL    HW1 5217   4.115   2.190   2.865  0.8611 -0.0427 -0.1515
34108SOL    HW2 5218   4.071   2.330   2.904 -0.9762 -0.5848 -0.2023
34109SOL     OW 5219   0.971   4.456   9.457  0.8904 -0.5832 -0.1242
34109SOL    HW1 5220   0.897   4.477   9.401  0.8014  0.1203  0.2444
34109SOL    HW2 5221   1.016   4.540   9.469  0.8146 -0.6825  0.9671
34110SOL     OW 5222   4.912   1.532   9.285  0.2438  0.8521 -0.1862
34110SOL    HW1 5223   4.949   1.464   9.341 -0.1720  2.2390  1.8626
34110SOL    HW2 5224   4.974   1.605   9.292  0.3755  0.9535 -1.8732
34111SOL     OW 5225   3.442   4.903   7.098 -0.4148 -0.0299 -0.5045
34111SOL    HW1 5226   3.377   4.871   7.035 -1.0728 -1.0883  0.6675
34111SOL    HW2 5227   3.443   4.998   7.085 -0.4086 -0.2358 -2.2082
34112SOL     OW 5228   0.837   8.190   6.769  0.8142  0.1413 -0.0746
34112SOL    HW1 5229   0.790   8.139   6.836  0.3950  0.2013 -0.3222
34112SOL    HW2 5230   0.901   8.240   6.819  0.5843  0.0939  0.2739
34113SOL     OW 5231   2.703   5.525   7.869 -0.3858  0.3503  0.2163
34113SOL    HW1 5232   2.689   5.453   7.808 -0.8673  0.1198  0.5889
34113SOL    HW2 5233   2.700   5.484   7.956 -0.0393  0.7227  0.4116
34114SOL     OW 5234   6.370   3.644   2.992  0.0194 -0.4038  0.4690
34114SOL    HW1 5235   6.333   3.560   2.962  1.2201 -0.4746 -0.9704
34114SOL    HW2 5236   6.298   3.688   3.036 -1.7119 -0.6913 -1.8650
34115SOL     OW 5237   2.899   7.023   0.720 -0.5047 -0.7130 -0.0183
34115SOL    HW1 5238   2.859   6.936   0.719 -0.0935 -0.9052  0.2804
34115SOL    HW2 5239   2.977   7.014   0.774  0.1792 -0.4421 -0.9250
34116SOL     OW 5240   8.942   2.650   3.714  0.2844 -0.6183  0.1785
34116SOL    HW1 5241   8.964   2.563   3.681  0.2913 -0.2556 -0.8087
34116SOL    HW2 5242   8.953   2.708   3.638 -2.3602 -0.1466  0.0694
34117SOL     OW 5243   0.074   5.114   1.673 -0.5137  0.0851 -0.0353
34117SOL    HW1 5244   0.092   5.024   1.649  0.5048  0.0417  0.8252
34117SOL    HW2 5245   0.118   5.126   1.757 -2.6009  0.6907  1.0260
34118SOL     OW 5246   3.497   8.462   7.668 -0.1730 -0.5761  0.8908
34118SOL    HW1 5247   3.458   8.511   7.596 -0.1102 -1.0874  0.5016
34118SOL    HW2 5248   3.423   8.441   7.725 -0.2277 -0.1913  0.9635
34119SOL     OW 5249   6.163   3.419   3.190  0.0548  0.4128  0.2478
34119SOL    HW1 5250   6.136   3.509   3.168  0.7549  1.7742  4.1143
34119SOL    HW2 5251   6.251   3.411   3.154 -0.7418  0.4325 -1.8701
34120SOL     OW 5252   3.930   6.810   1.202 -0.6699  0.4685  0.6170
34120SOL    HW1 5253   3.915   6.719   1.225  1.1630 -0.1293 -0.3301
34120SOL    HW2 5254   3.877   6.825   1.124 -1.4992  0.4403  1.1610
34121SOL     OW 5255   4.665  10.568   5.780 -0.0686 -0.5261 -0.2828
34121SOL    HW1 5256   4.607  10.527   5.843 -0.0776 -1.7119 -1.0258
34121SOL    HW2 5257   4.676  10.503   5.711  0.8999  0.2688 -0.9214
34122SOL     OW 5258   9.676   3.659   7.394  0.4305 -0.1184 -0.2076
34122SOL    HW1 5259   9.606   3.705   7.349 -1.3028 -0.6740  1.7603
34122SOL    HW2 5260   9.673   3.570   7.359 -0.9763 -0.5744  0.9358
34123SOL     OW 5261   8.472   9.998   4.201  0.0063 -0.1505 -0.4370
34123SOL    HW1 5262   8.411  10.072   4.205  1.6630  1.2706  0.1005
34123SOL    HW2 5263   8.540  10.020   4.264  0.6085 -2.1227 -0.3464
34124SOL     OW 5264  10.523   6.031   4.709 -0.5484  0.1964 -0.3698
34124SOL    HW1 5265  10.571   6.109   4.680  0.7210 -0.6973 -0.7838
34124SOL    HW2 5266  10.581   5.990   4.773 -0.8493 -0.8007 -0.7237
34125SOL     OW 5267  10.449   3.989  10.211 -0.0378 -0.0736  0.9249
34125SOL    HW1 5268  10.379   3.954  10.266 -0.4451 -1.1266 -0.2094
34125SOL    HW2 5269  10.515   4.020  10.272 -0.7192 -0.7008  2.0002
34126SOL     OW 5270   6.604   6.056   5.692 -0.3902  0.1443  0.2838
34126SOL    HW1 5271   6.647   5.971   5.702 -1.2823 -0.4525 -0.8560
34126SOL    HW2 5272   6.517   6.036   5.659 -0.4581  1.5338 -0.4510
34127SOL     OW 5273  10.070   4.622   8.368 -0.3726 -0.6330  0.3111
34127SOL    HW1 5274   9.981   4.654   8.380 -0.9966 -1.0010 -2.5474
34127SOL    HW2 5275  10.123   4.701   8.357 -0.6482 -0.4355  0.4110
34128SOL     OW 5276  10.528   8.757   4.965  0.7136 -0.5532  0.0209
34128SOL    HW1 5277  10.566   8.750   5.052  1.3733 -0.5003 -0.2553
34128SOL    HW2 5278  10.443   8.799   4.979  0.9098 -0.3451  0.6116
34129SOL     OW 5279   6.883   6.368   0.526  0.3116  0.2342 -0.1542
34129SOL    HW1 5280   6.816   6.428   0.560  0.1093  1.3981 -2.3779
34129SOL    HW2 5281   6.966   6.404   0.557  0.1273  1.1794 -0.7104
34130SOL     OW 5282   1.039   3.032   7.948  0.7588 -0.0927 -1.4087
34130SOL    HW1 5283   0.973   3.092   7.914 -1.7010  0.0163  2.8878
34130SOL    HW2 5284   1.095   3.087   8.003  0.9549 -1.0978 -0.5895
34131SOL     OW 5285   9.508   1.004   6.543  0.1702  0.0858 -0.3021
34131SOL    HW1 5286   9.576   0.981   6.480  1.4683  3.2282 -0.1875
34131SOL    HW2 5287   9.541   0.971   6.627  0.6504 -0.0049 -0.5241
34132SOL     OW 5288   4.942   1.162   3.960 -0.4256  0.0550 -0.4707
34132SOL    HW1 5289   5.002   1.154   3.885  0.1552 -0.4913  0.0436
34132SOL    HW2 5290   4.855   1.146   3.922 -0.3011  1.1101 -1.2720
34133SOL     OW 5291   3.516   8.260   7.096  0.3919  0.4777  0.0293
34133SOL    HW1 5292   3.545   8.200   7.027 -1.2477  0.3727 -0.6129
34133SOL    HW2 5293   3.500   8.203   7.172  1.0143  0.4292  0.1314
34134SOL     OW 5294   1.483   6.519   0.474 -0.5121  0.0119 -0.1128
34134SOL    HW1 5295   1.413   6.569   0.434 -0.6517  0.6201  0.8813
34134SOL    HW2 5296   1.465   6.521   0.568  0.2486 -0.7171  0.0659
34135SOL     OW 5297   5.755   6.830   3.557 -0.3909  0.2147 -0.0442
34135SOL    HW1 5298   5.677   6.883   3.541 -0.1131  0.6960  0.1928
34135SOL    HW2 5299   5.804   6.877   3.624 -0.0645 -0.2642  0.0644
34136SOL     OW 5300   4.024   3.482   3.933 -0.0958 -0.5030  0.0275
34136SOL    HW1 5301   4.106   3.444   3.966 -1.3150 -3.7499 -0.3156
34136SOL    HW2 5302   3.957   3.452   3.994 -1.4503 -0.7530 -1.5156
34137SOL     OW 5303  10.092   2.463   7.843 -0.4906  0.6180  0.7169
34137SOL    HW1 5304  10.016   2.406   7.855 -0.4037  0.3199 -0.0684
34137SOL    HW2 5305  10.167   2.407   7.864 -0.4712  0.8380  1.2442
34138SOL     OW 5306   8.316   5.837   6.025  0.3833 -0.7320  0.3103
34138SOL    HW1 5307   8.293   5.782   6.100 -0.8866  2.0278  2.1228
34138SOL    HW2 5308   8.234   5.876   5.997  1.1365 -0.2010 -1.2886
34139SOL     OW 5309   5.295   6.209   0.359  0.1126  0.3003  0.5916
34139SOL    HW1 5310   5.299   6.297   0.323 -0.5605 -0.7004 -2.2204
34139SOL    HW2 5311   5.354   6.158   0.303  0.3598 -1.1076  2.0394
34140SOL     OW 5312  10.512   3.352   8.715  0.4067 -0.4869  0.8601
34140SOL    HW1 5313  10.537   3.334   8.805 -0.9892 -1.9087  1.0146
34140SOL    HW2 5314  10.418   3.373   8.720  0.2075 -1.0007 -0.2820
34141SOL     OW 5315   0.333   7.789   7.462  0.0411 -0.0482  0.2663
34141SOL    HW1 5316   0.304   7.701   7.484 -1.9687  0.9916  2.1276
34141SOL    HW2 5317   0.279   7.814   7.387 -1.6208  0.6445  1.6282
34142SOL     OW 5318   3.401   4.161   5.210  0.1270 -0.7844 -0.2301
34142SOL    HW1 5319   3.352   4.146   5.129  1.7566 -0.1865 -1.3836
34142SOL    HW2 5320   3.454   4.240   5.192  0.1015 -0.2831  1.6277
34143SOL     OW 5321   4.754   5.204   5.453  0.6766 -0.1780 -0.2717
34143SOL    HW1 5322   4.685   5.197   5.519  0.7200 -3.1174 -0.4158
34143SOL    HW2 5323   4.708   5.222   5.371  0.5246  2.1882  0.2467
34144SOL     OW 5324  10.632   3.557   6.156 -0.1209  0.1177 -0.1353
34144SOL    HW1 5325  10.540   3.536   6.143 -0.1393  0.6911 -1.0014
34144SOL    HW2 5326  10.633   3.651   6.177  0.2910  0.1788 -0.4213
34145SOL     OW 5327   0.887   9.970   3.729  0.2699  0.4730 -0.6116
34145SOL    HW1 5328   0.930   9.886   3.711 -0.0387  0.5989 -2.0162
34145SOL    HW2 5329   0.955  10.036   3.715  0.1916  0.5316 -0.7186
34146SOL     OW 5330   7.534   9.857   6.748 -0.1886 -0.1169  0.0247
34146SOL    HW1 5331   7.508   9.891   6.834 -1.1599 -2.4407  0.7286
34146SOL    HW2 5332   7.494   9.918   6.685 -1.8672  0.0711  1.1915
34147SOL     OW 5333  10.447   9.451   5.645  0.6091  0.1249 -0.1193
34147SOL    HW1 5334  10.416   9.418   5.561  1.4337  1.4560 -0.9864
34147SOL    HW2 5335  10.514   9.515   5.622  1.2142  0.1407  1.5798
34148SOL     OW 5336   3.683   4.683   6.749 -0.3423 -0.5923 -0.7629
34148SOL    HW1 5337   3.748   4.716   6.810  0.1061  0.9562 -2.0174
34148SOL    HW2 5338   3.607   4.663   6.803 -0.7250  2.7081  0.1268
34149SOL     OW 5339   6.678   7.303   5.370 -0.1282 -0.2501  0.1876
34149SOL    HW1 5340   6.595   7.285   5.414 -0.2809  1.8239  0.9013
34149SOL    HW2 5341   6.738   7.237   5.404 -1.1335 -0.9018  0.7511
34150SOL     OW 5342   0.882   5.450   3.802 -0.2814  0.2404 -0.2516
34150SOL    HW1 5343   0.952   5.481   3.744  2.9626 -1.1527  2.5747
34150SOL    HW2 5344   0.889   5.354   3.798 -0.9940  0.0938  1.2517
34151SOL     OW 5345  10.330   6.692   3.092 -0.2193 -0.1923  0.4785
34151SOL    HW1 5346  10.298   6.638   3.020  0.7565  1.9809 -1.7389
34151SOL    HW2 5347  10.415   6.656   3.114 -0.3205 -0.6019  0.2057
34152SOL     OW 5348   0.589   7.788   5.656 -0.5788  0.6585  0.6527
34152SOL    HW1 5349   0.595   7.712   5.599  0.8455  0.5105  0.9596
34152SOL    HW2 5350   0.528   7.847   5.611 -1.5944 -0.5811  0.3482
34153SOL     OW 5351   5.585  10.076   2.012 -0.2037  0.5730 -0.2806
34153SOL    HW1 5352   5.633   9.997   1.985 -1.3843  0.4246 -2.1952
34153SOL    HW2 5353   5.581  10.129   1.933 -2.6356  0.8322 -0.0663
34154SOL     OW 5354   2.545  10.192   7.955 -0.2001 -0.9577  0.2273
34154SOL    HW1 5355   2.625  10.143   7.941  1.2952  0.8319  1.9401
34154SOL    HW2 5356   2.527  10.183   8.049 -1.2447 -0.2650  0.1128
34155SOL     OW 5357   6.491   6.649  10.664 -0.0647 -0.3816  0.2591
34155SOL    HW1 5358   6.428   6.614  10.727 -0.9493  0.2045 -0.2781
34155SOL    HW2 5359   6.443   6.653  10.582  0.8882 -0.5591 -0.3227
34156SOL     OW 5360   2.904   9.484   5.190 -0.4961 -0.2746 -0.0949
34156SOL    HW1 5361   2.888   9.564   5.141 -0.4377  0.7836  1.5415
34156SOL    HW2 5362   2.993   9.494   5.224 -0.6830 -0.7730  0.5695
34157SOL     OW 5363   8.984   1.276   4.075 -0.1195 -0.1156 -0.0977
34157SOL    HW1 5364   8.898   1.317   4.069 -1.0388 -2.0195 -0.5597
34157SOL    HW2 5365   8.968   1.191   4.116  1.6675 -0.1805  0.5569
34158SOL     OW 5366   8.943   2.559   3.209  0.0796 -0.3436 -0.3009
34158SOL    HW1 5367   8.959   2.649   3.240 -1.0054  0.1482 -1.1186
34158SOL    HW2 5368   8.996   2.552   3.130 -0.0735 -0.3305 -0.4032
34159SOL     OW 5369   4.972   2.763   5.614  0.1957  0.0018  0.2705
34159SOL    HW1 5370   5.027   2.817   5.557 -0.9613  0.8908 -0.0514
34159SOL    HW2 5371   4.909   2.722   5.555 -0.9194  0.8054  0.8699
34160SOL     OW 5372   0.716   3.874   0.676  0.5685  0.3864  0.4622
34160SOL    HW1 5373   0.671   3.874   0.761 -1.5654 -0.2982 -0.6042
34160SOL    HW2 5374   0.671   3.941   0.625  0.6004 -0.4642 -0.7145
34161SOL     OW 5375   9.592   9.801   5.039 -0.1055 -0.0019 -0.1418
34161SOL    HW1 5376   9.636   9.833   4.960  2.0823 -0.7459  0.6984
34161SOL    HW2 5377   9.576   9.709   5.022  2.4672 -0.7453  1.0703
34162SOL     OW 5378   5.322   4.236   1.785 -0.5523 -0.1359 -0.1474
34162SOL    HW1 5379   5.394   4.173   1.787 -0.0824  0.3928  0.0026
34162SOL    HW2 5380   5.253   4.196   1.837  0.2009  0.0109  1.0048
34163SOL     OW 5381   9.594   9.370   9.274 -0.0969  0.4909  0.0592
34163SOL    HW1 5382   9.550   9.396   9.355 -0.4485 -2.1693  0.8206
34163SOL    HW2 5383   9.686   9.360   9.299 -0.2152 -0.3855  0.1755
34164SOL     OW 5384   5.690   8.401  10.053 -0.3715  0.1228  0.0596
34164SOL    HW1 5385   5.718   8.403   9.962 -0.0988  0.8685  0.1542
34164SOL    HW2 5386   5.736   8.326  10.091  0.3711  0.4608 -0.1496
34165SOL     OW 5387   0.509   5.267   7.051  0.1399  0.3390  0.2551
34165SOL    HW1 5388   0.478   5.219   6.974  1.6287 -0.5039  0.1467
34165SOL    HW2 5389   0.597   5.233   7.067 -0.1500  0.4433  2.3889
34166SOL     OW 5390   8.992   6.023   8.057  0.7032 -0.1994  0.3099
34166SOL    HW1 5391   8.982   5.974   8.139  1.1079 -0.8029  0.0014
34166SOL    HW2 5392   9.056   5.973   8.007 -0.4230 -0.5032 -0.8830
34167SOL     OW 5393   8.194   8.331   7.641 -0.0492  0.0805  0.0566
34167SOL    HW1 5394   8.265   8.295   7.589 -0.1463 -0.4254  0.2746
34167SOL    HW2 5395   8.184   8.421   7.608 -0.0966 -0.2208 -0.7826
34168SOL     OW 5396  10.030   6.628   9.071  0.2927  0.2353  0.1390
34168SOL    HW1 5397  10.046   6.543   9.112  0.3496 -0.1424 -0.6496
34168SOL    HW2 5398   9.966   6.670   9.128 -0.3733 -0.6801  0.0969
34169SOL     OW 5399   9.105  10.234   1.764  0.0612  0.3463  0.6953
34169SOL    HW1 5400   9.033  10.179   1.795 -0.7266  0.6339 -0.5519
34169SOL    HW2 5401   9.100  10.228   1.668  1.7253  0.3444  0.5812
34170SOL     OW 5402   3.256  10.767   8.533  0.4409  0.4337  0.3471
34170SOL    HW1 5403   3.182  10.742   8.589  0.6737 -1.8175 -0.2843
34170SOL    HW2 5404   3.298  10.685   8.510  1.4162  1.4388 -1.7055
34171SOL     OW 5405   8.300   7.709   4.013  0.2194  0.1703 -0.1709
34171SOL    HW1 5406   8.218   7.660   4.017  0.6138 -0.4649  0.2308
34171SOL    HW2 5407   8.358   7.664   4.074  0.2877  1.7195  0.9864
34172SOL     OW 5408  10.658   6.165   2.657  0.4390 -0.3424 -0.1402
34172SOL    HW1 5409  10.695   6.110   2.588 -2.5300 -2.5181 -0.2211
34172SOL    HW2 5410  10.730   6.182   2.717  1.8398 -3.2997 -0.8049
34173SOL     OW 5411   1.519   5.189   6.850 -0.1016  0.2287  0.4434
34173SOL    HW1 5412   1.530   5.276   6.887  0.0321 -0.2756  1.6629
34173SOL    HW2 5413   1.426   5.171   6.857 -0.0705  0.1163  0.5861
34174SOL     OW 5414   0.894   2.365   9.494 -0.3075 -0.3130  0.3338
34174SOL    HW1 5415   0.799   2.366   9.512 -0.5479  0.4698 -0.9101
34174SOL    HW2 5416   0.902   2.322   9.410  0.1799  1.8758 -0.8179
34175SOL     OW 5417   7.005  10.747   6.041 -0.3099  0.2486  0.3347
34175SOL    HW1 5418   7.063  10.672   6.027 -0.7589 -0.0081 -0.1841
34175SOL    HW2 5419   6.992  10.749   6.136  1.0549  0.7039  0.5403
34176SOL     OW 5420   8.258   1.211  10.455 -0.2290  0.1960 -0.7590
34176SOL    HW1 5421   8.214   1.296  10.454 -0.7086  0.1057  2.4278
34176SOL    HW2 5422   8.349   1.232  10.432 -0.3252  1.6220  0.0112
34177SOL     OW 5423   5.832   1.325   7.827 -0.4600 -0.3195  0.1257
34177SOL    HW1 5424   5.830   1.417   7.802 -0.6905 -0.1199  0.8412
34177SOL    HW2 5425   5.790   1.323   7.913 -0.5206 -1.1037  0.0861
34178SOL     OW 5426   1.275   1.988   8.524  1.0015 -0.0230 -0.3907
34178SOL    HW1 5427   1.359   1.946   8.504  0.9758 -0.8929  1.1812
34178SOL    HW2 5428   1.255   1.961   8.613  0.0115  1.7933 -0.0090
34179SOL     OW 5429   3.741   7.896   5.057  0.4210 -0.0728  0.6148
34179SOL    HW1 5430   3.708   7.983   5.034  1.3179  0.0861 -0.1414
34179SOL    HW2 5431   3.832   7.896   5.026  0.4574 -1.2515  0.6764
34180SOL     OW 5432   3.133   1.222   5.831 -0.4965 -0.5564 -0.0991
34180SOL    HW1 5433   3.092   1.157   5.773 -0.8787  0.0395 -0.5084
34180SOL    HW2 5434   3.104   1.307   5.797  2.3034 -0.0064 -1.3716
34181SOL     OW 5435   8.882   0.848   9.743 -0.0010 -0.0305  0.2665
34181SOL    HW1 5436   8.937   0.777   9.712 -1.0476 -0.7984  0.1112
34181SOL    HW2 5437   8.927   0.882   9.821  1.0375 -0.1590 -0.2644
34182SOL     OW 5438   7.718   6.084   0.172  0.5838 -0.2163  0.5210
34182SOL    HW1 5439   7.668   6.123   0.244 -2.1231  1.7543 -2.1610
34182SOL    HW2 5440   7.781   6.151   0.147 -1.2409  0.8914 -1.4115
34183SOL     OW 5441   6.539   1.806   7.651  0.2764  0.5566  0.7567
34183SOL    HW1 5442   6.606   1.757   7.602 -0.3057 -0.6378  1.1177
34183SOL    HW2 5443   6.510   1.745   7.719 -1.1480  1.0566  0.6277
34184SOL     OW 5444   5.155   7.620   0.426 -0.2441 -0.3923 -0.1612
34184SOL    HW1 5445   5.220   7.558   0.395 -0.3872 -0.0615 -1.1549
34184SOL    HW2 5446   5.074   7.568   0.433 -0.0786 -0.5988  0.2073
34185SOL     OW 5447  10.431   4.401   7.891 -0.5429 -0.5589 -0.0326
34185SOL    HW1 5448  10.521   4.429   7.877 -0.5539 -0.7773 -0.5548
34185SOL    HW2 5449  10.378   4.478   7.870 -0.5831 -0.9893 -1.6456
34186SOL     OW 5450   8.695  10.007   7.665 -0.3039  0.1352  0.3339
34186SOL    HW1 5451   8.769   9.966   7.709 -0.0772  1.2725  1.0383
34186SOL    HW2 5452   8.705  10.101   7.681 -2.2069  0.2914  0.9751
34187SOL     OW 5453   8.715   5.450   9.223 -0.3193 -0.2375 -0.2494
34187SOL    HW1 5454   8.662   5.456   9.302  0.5632  0.2694  0.3240
34187SOL    HW2 5455   8.759   5.535   9.218 -0.1506 -0.3679 -1.1353
34188SOL     OW 5456   9.910   8.093   9.148 -0.0589  0.0056 -0.4225
34188SOL    HW1 5457   9.833   8.129   9.105  0.5803  1.0786 -0.7108
34188SOL    HW2 5458   9.886   8.003   9.171 -1.8061  0.6782  0.5441
34189SOL     OW 5459   4.784   0.802   4.380  0.3898 -0.1404 -0.0295
34189SOL    HW1 5460   4.719   0.741   4.415  0.1165  0.4958  0.6056
34189SOL    HW2 5461   4.868   0.762   4.400  0.2097 -0.5556 -0.0874
34190SOL     OW 5462   1.914   7.397   7.411  0.4158  0.2493  0.0230
34190SOL    HW1 5463   1.901   7.309   7.446 -0.4427 -0.5034 -2.0845
34190SOL    HW2 5464   1.879   7.455   7.479 -1.3793 -1.1591  0.3763
34191SOL     OW 5465   7.511   1.082   5.629 -0.4359 -0.1807  0.0996
34191SOL    HW1 5466   7.482   1.157   5.680  0.3014  0.9324 -1.0446
34191SOL    HW2 5467   7.448   1.013   5.650 -0.7051  0.5141  1.7397
34192SOL     OW 5468   7.683   0.680   2.342 -0.2218 -0.4311  0.1950
34192SOL    HW1 5469   7.739   0.630   2.283 -0.0202  0.6225 -0.5501
34192SOL    HW2 5470   7.601   0.690   2.294 -0.2635 -0.0769  0.3322
34193SOL     OW 5471   8.704   6.000   7.976 -0.4004  0.7004 -0.5505
34193SOL    HW1 5472   8.690   6.036   8.063  0.0804 -0.5683  0.0746
34193SOL    HW2 5473   8.797   6.016   7.957  0.0446 -0.8806  0.0961
34194SOL     OW 5474   9.841   5.144   8.250 -0.2960  0.6881 -0.1705
34194SOL    HW1 5475   9.783   5.211   8.213 -2.2465 -0.5181  0.5643
34194SOL    HW2 5476   9.929   5.170   8.222 -1.0102  3.3531 -0.2060
34195SOL     OW 5477   9.952   5.779   2.521 -0.0389  0.3576  0.6221
34195SOL    HW1 5478  10.002   5.860   2.516  0.6090 -0.1002 -0.4799
34195SOL    HW2 5479   9.861   5.807   2.527  0.3026  1.1979  2.5716
34196SOL     OW 5480   9.179   2.263   2.016 -0.3021  0.2124  0.9012
34196SOL    HW1 5481   9.242   2.194   1.997  0.2623  0.6001  1.3036
34196SOL    HW2 5482   9.135   2.281   1.933 -0.5810 -0.7454  0.8371
34197SOL     OW 5483   4.449   2.993   1.798  0.2440  0.4206  0.1231
34197SOL    HW1 5484   4.504   2.916   1.811  0.2972  0.3114 -0.6872
34197SOL    HW2 5485   4.363   2.957   1.775 -0.0438  0.5962  0.8975
34198SOL     OW 5486   1.655   1.584   9.846 -0.2821 -0.0063  0.0380
34198SOL    HW1 5487   1.685   1.582   9.936 -0.3355  2.0699  0.1566
34198SOL    HW2 5488   1.560   1.571   9.852 -0.2627 -0.0407  0.2612
34199SOL     OW 5489   0.607   7.603   5.461  0.5380 -0.1307  0.4458
34199SOL    HW1 5490   0.659   7.535   5.504 -0.1096 -0.2896  0.9931
34199SOL    HW2 5491   0.596   7.571   5.372  3.6787  1.1738 -0.5550
34200SOL     OW 5492   3.028   0.415   9.961 -0.0814 -0.2482  0.2854
34200SOL    HW1 5493   3.121   0.394   9.952 -0.4218 -1.4411 -0.7291
34200SOL    HW2 5494   2.985   0.330   9.970 -1.0140  0.3287  1.5572
34201SOL     OW 5495   8.555   4.575   7.889 -0.2753  0.8743  0.4672
34201SOL    HW1 5496   8.618   4.591   7.960  0.3757  0.0929  0.0762
34201SOL    HW2 5497   8.606   4.586   7.809  0.1990 -2.6534  0.1147
34202SOL     OW 5498   7.577  10.723   4.137  0.4138  0.0150 -0.0633
34202SOL    HW1 5499   7.619  10.697   4.218 -1.9827  1.3999  1.7551
34202SOL    HW2 5500   7.605  10.814   4.122  0.4382 -0.0625 -0.5175
34203SOL     OW 5501   4.713   7.893   5.931 -0.4400 -0.7251  0.0120
34203SOL    HW1 5502   4.804   7.919   5.920 -0.2531 -1.7385 -1.0041
34203SOL    HW2 5503   4.666   7.975   5.946  0.0587  0.3335 -3.4263
34204SOL     OW 5504   3.912   8.358   3.846 -0.2241 -0.1506 -0.1599
34204SOL    HW1 5505   3.880   8.424   3.784  0.2572  0.4054  0.1678
34204SOL    HW2 5506   3.919   8.405   3.929  1.0553 -0.3546 -0.1361
34205SOL     OW 5507   5.743   6.072   9.027 -0.1032 -0.2188  0.6658
34205SOL    HW1 5508   5.701   6.079   9.114 -2.3451 -1.1752 -0.2540
34205SOL    HW2 5509   5.708   5.991   8.991  0.4467  0.3891 -1.3205
34206SOL     OW 5510   3.859   5.052   6.255  0.0881  0.2757 -0.1190
34206SOL    HW1 5511   3.918   5.126   6.270  1.3142 -0.6136 -0.4299
34206SOL    HW2 5512   3.849   5.011   6.341  1.9646 -1.0307 -0.4621
34207SOL     OW 5513   1.661   6.019   2.846  0.6619 -0.2600  0.0429
34207SOL    HW1 5514   1.568   6.008   2.865  0.8787 -2.7253  0.0195
34207SOL    HW2 5515   1.687   6.095   2.898 -1.0452 -0.4373  1.2501
34208SOL     OW 5516   7.014   9.328   5.423  0.0477  0.3216 -0.4713
34208SOL    HW1 5517   6.948   9.279   5.472  0.6311 -0.8282 -0.7969
34208SOL    HW2 5518   7.097   9.294   5.456  0.4638  0.9334 -0.8759
34209SOL     OW 5519   2.028   9.162   7.455 -0.3944  0.1260 -0.3974
34209SOL    HW1 5520   2.118   9.157   7.489 -0.9104  0.1749  1.0311
34209SOL    HW2 5521   2.029   9.238   7.397  0.1341  1.0669  0.7914
34210SOL     OW 5522   3.756   1.313   3.424  0.0596 -0.4573  0.1748
34210SOL    HW1 5523   3.851   1.305   3.431 -0.0461 -1.0543  1.0856
34210SOL    HW2 5524   3.731   1.364   3.501 -0.6069 -2.5175  1.3775
34211SOL     OW 5525   5.911   2.794   4.032  0.6439  0.7691  0.1149
34211SOL    HW1 5526   5.868   2.859   3.976 -0.5152 -0.3980 -0.4004
34211SOL    HW2 5527   5.990   2.771   3.984 -0.6263 -0.6518 -1.4299
34212SOL     OW 5528   4.693   3.879   8.085  0.0542  0.3869  0.4446
34212SOL    HW1 5529   4.704   3.852   7.994  0.6309  1.5898  0.1271
34212SOL    HW2 5530   4.782   3.902   8.114  0.0496 -1.0053  1.6650
34213SOL     OW 5531   1.777   1.813   3.459  0.2577  0.0078  0.4886
34213SOL    HW1 5532   1.727   1.858   3.527 -0.4464 -0.5549  0.3517
34213SOL    HW2 5533   1.733   1.835   3.377 -0.2469 -1.1170  0.4441
34214SOL     OW 5534   8.489   2.765   6.283  0.1549  0.3431 -0.1508
34214SOL    HW1 5535   8.554   2.695   6.292  1.1951  1.1894 -0.8522
34214SOL    HW2 5536   8.450   2.750   6.197 -0.6814 -0.2222  0.3092
34215SOL     OW 5537   2.156   9.713   5.077 -0.0414  0.2421  0.1162
34215SOL    HW1 5538   2.135   9.635   5.128  1.9642 -0.5542 -0.1658
34215SOL    HW2 5539   2.074   9.761   5.070 -1.3910 -1.9686  0.0924
34216SOL     OW 5540   8.805  10.020   7.007 -0.2782  0.3015 -0.4767
34216SOL    HW1 5541   8.829   9.933   7.037  0.1781 -0.2758 -2.3916
34216SOL    HW2 5542   8.722  10.007   6.961  0.8166  0.4561 -2.5824
34217SOL     OW 5543   0.564  10.602   9.634  0.0535  0.2054  0.0257
34217SOL    HW1 5544   0.499  10.668   9.657 -0.1659  0.2068 -0.5912
34217SOL    HW2 5545   0.520  10.518   9.649 -1.1318  0.1438 -3.0213
34218SOL     OW 5546   3.916   3.749   8.528 -0.1031 -0.2685 -0.0027
34218SOL    HW1 5547   3.887   3.840   8.522  0.5798  0.0355  1.1128
34218SOL    HW2 5548   3.955   3.741   8.615  0.3692 -1.4776 -0.2973
34219SOL     OW 5549   9.995   6.151   1.896  0.4322 -0.1905 -0.5721
34219SOL    HW1 5550  10.080   6.106   1.898  0.2848 -0.6194 -2.2574
34219SOL    HW2 5551   9.973   6.155   1.803 -3.7179 -4.5941 -0.1666
34220SOL     OW 5552   8.530   3.401   7.841 -0.3298  0.6929  0.3374
34220SOL    HW1 5553   8.508   3.489   7.809 -2.5242 -0.2704 -1.0685
34220SOL    HW2 5554   8.623   3.392   7.823  0.2861  3.1621  1.7146
34221SOL     OW 5555   1.440   5.034   1.672  0.3125  0.0359 -0.7141
34221SOL    HW1 5556   1.469   5.117   1.634 -0.8397  0.6522 -0.2901
34221SOL    HW2 5557   1.347   5.046   1.687  0.0642 -1.4643 -0.9365
34222SOL     OW 5558   7.218   4.352   1.977  0.2879 -0.0258  0.0194
34222SOL    HW1 5559   7.179   4.329   1.893 -0.7808 -1.8323  0.9347
34222SOL    HW2 5560   7.258   4.438   1.963 -0.3651 -0.0205 -2.1441
34223SOL     OW 5561   1.342   7.858   4.284  0.1495 -0.1775  0.3908
34223SOL    HW1 5562   1.285   7.901   4.348  0.5901  0.1447  0.5726
34223SOL    HW2 5563   1.336   7.912   4.205  0.8716  0.3541  0.6883
34224SOL     OW 5564  10.074  10.256   8.103 -0.8481 -0.2473 -0.1317
34224SOL    HW1 5565  10.134  10.190   8.068  0.3908  1.0302 -0.5242
34224SOL    HW2 5566  10.048  10.222   8.189 -0.0049 -1.1126 -0.2013
34225SOL     OW 5567   2.831   7.328   5.053 -0.1759  0.1858  0.6307
34225SOL    HW1 5568   2.736   7.324   5.063 -0.3842 -2.5018 -1.1851
34225SOL    HW2 5569   2.855   7.241   5.020  2.8879  0.8904  0.6987
34226SOL     OW 5570   1.822   0.134   9.073 -0.1231  0.3856  0.2813
34226SOL    HW1 5571   1.914   0.133   9.099 -0.0077  0.8263 -0.1037
34226SOL    HW2 5572   1.821   0.182   8.991 -0.4489 -1.1524 -0.6573
34227SOL     OW 5573   4.382   5.604   4.617  0.1620 -0.1657  0.0938
34227SOL    HW1 5574   4.464   5.628   4.573 -0.0334 -1.7699 -1.2456
34227SOL    HW2 5575   4.315   5.651   4.568  0.1745  0.1776  0.4053
34228SOL     OW 5576   7.598   5.645  10.244 -0.2820 -0.3216 -0.1695
34228SOL    HW1 5577   7.565   5.576  10.186 -0.1853 -0.4561 -0.0657
34228SOL    HW2 5578   7.617   5.719  10.185 -0.3050 -0.4131 -0.2928
34229SOL     OW 5579   4.333   0.578   9.691 -0.2676 -0.7966 -0.5736
34229SOL    HW1 5580   4.295   0.490   9.693  0.8797 -1.3159  1.9896
34229SOL    HW2 5581   4.421   0.565   9.656  0.5499 -1.0447  1.4147
34230SOL     OW 5582   4.201   8.955   3.554  1.1034  0.2750 -0.1091
34230SOL    HW1 5583   4.229   9.042   3.581  0.7194  0.3612  0.0129
34230SOL    HW2 5584   4.141   8.970   3.481 -0.4005  0.2309  1.0675
34231SOL     OW 5585   6.737   1.937   5.810  0.1242  0.0947  0.3172
34231SOL    HW1 5586   6.710   1.950   5.901 -0.0523  0.1698  0.2541
34231SOL    HW2 5587   6.770   2.022   5.782 -0.6717  0.3132  0.0262
34232SOL     OW 5588   9.946   8.636   6.537  0.4591  0.0469 -0.1922
34232SOL    HW1 5589   9.898   8.619   6.618  0.0757  1.1829 -0.1595
34232SOL    HW2 5590  10.024   8.581   6.543 -0.3441 -1.0880  0.2141
34233SOL     OW 5591   2.967   4.270   4.534  0.0039 -0.3917 -0.0530
34233SOL    HW1 5592   2.892   4.311   4.491  0.5352  1.0376  0.3171
34233SOL    HW2 5593   3.043   4.312   4.494  0.5386 -0.1702  1.1416
34234SOL     OW 5594   2.001   3.997   6.718 -0.5346 -0.3965  0.0314
34234SOL    HW1 5595   2.018   4.091   6.725  1.4937 -0.6972 -0.4250
34234SOL    HW2 5596   1.975   3.971   6.807  0.9085  0.2553  0.6812
34235SOL     OW 5597   8.333   0.465   8.589  0.1107 -0.7209  0.1739
34235SOL    HW1 5598   8.327   0.561   8.593 -1.9244 -0.8323  0.4160
34235SOL    HW2 5599   8.343   0.438   8.680  0.6153 -0.7693  0.1112
34236SOL     OW 5600   8.494   0.176   5.408  0.5165  0.3084  0.8280
34236SOL    HW1 5601   8.531   0.220   5.331  0.3774 -0.7866  0.1003
34236SOL    HW2 5602   8.473   0.088   5.376  1.7600 -0.6274  2.4885
34237SOL     OW 5603   4.818   0.483   4.448  0.2890  0.5455 -0.2039
34237SOL    HW1 5604   4.897   0.457   4.400  0.9097  0.1490  0.9890
34237SOL    HW2 5605   4.753   0.418   4.424  0.9938 -0.4640  0.5132
34238SOL     OW 5606   1.161   4.024   3.718 -0.5194  0.5848  0.3023
34238SOL    HW1 5607   1.168   4.002   3.625  1.5009 -0.9026  0.7286
34238SOL    HW2 5608   1.099   3.960   3.753  0.0932 -0.0274  0.2865
34239SOL     OW 5609   9.897   7.884   7.611 -0.1577 -0.1303  0.6915
34239SOL    HW1 5610   9.948   7.804   7.623 -1.7858 -0.8954  3.4137
34239SOL    HW2 5611   9.812   7.864   7.649 -0.2577  3.2912  2.6849
34240SOL     OW 5612   5.501   0.300   6.327  0.1883 -0.0242 -0.2581
34240SOL    HW1 5613   5.545   0.216   6.339  2.3847  0.8961 -1.1708
34240SOL    HW2 5614   5.495   0.337   6.416 -0.3854 -0.9343  0.0895
34241SOL     OW 5615   0.750   7.312   1.111  0.0795 -0.3535  0.6314
34241SOL    HW1 5616   0.671   7.259   1.127 -0.6349  0.6277  0.4388
34241SOL    HW2 5617   0.756   7.318   1.016  0.1495 -0.0767  0.6534
34242SOL     OW 5618   7.508   0.312   6.122 -0.3626  0.1235  0.0247
34242SOL    HW1 5619   7.427   0.321   6.173 -0.4801 -1.1517  0.0807
34242SOL    HW2 5620   7.541   0.225   6.144  0.0111 -0.1398 -1.4688
34243SOL     OW 5621   5.356   7.570   6.561 -0.7883 -0.5007  0.6718
34243SOL    HW1 5622   5.452   7.565   6.561 -0.7765 -1.2004 -1.2281
34243SOL    HW2 5623   5.328   7.479   6.571 -1.1825 -0.6261 -1.2158
34244SOL     OW 5624   3.603   7.964   9.700 -0.1977  0.1936  0.5801
34244SOL    HW1 5625   3.518   7.920   9.698  0.0368 -0.2631  0.2585
34244SOL    HW2 5626   3.595   8.035   9.636 -0.6017  0.6639  1.1512
34245SOL     OW 5627   3.129   2.856   4.718  0.0105  0.4421 -0.1474
34245SOL    HW1 5628   3.113   2.833   4.809 -1.5817 -0.3046 -0.5737
34245SOL    HW2 5629   3.155   2.773   4.677  3.8485  1.3167  0.1797
34246SOL     OW 5630   4.490   5.582   1.848 -0.1938 -0.6306 -0.0015
34246SOL    HW1 5631   4.546   5.596   1.771 -0.8083 -0.4263 -0.4174
34246SOL    HW2 5632   4.430   5.512   1.822 -0.8482 -0.0946  0.0411
34247SOL     OW 5633   2.464   9.645   2.188  0.1308  0.1431  0.0738
34247SOL    HW1 5634   2.555   9.624   2.164  0.1991 -0.3486  0.7369
34247SOL    HW2 5635   2.412   9.613   2.115  0.3516 -1.1457  0.4670
34248SOL     OW 5636   5.971   5.585   1.367 -0.0445 -0.4250 -0.2771
34248SOL    HW1 5637   6.014   5.668   1.345  0.7307 -0.8359 -0.3609
34248SOL    HW2 5638   5.905   5.608   1.432 -1.3031  0.5809 -1.8405
34249SOL     OW 5639   9.093   7.146  10.393  0.3678  0.4696 -0.1181
34249SOL    HW1 5640   9.108   7.240  10.398  2.8229  0.1358 -0.0255
34249SOL    HW2 5641   9.001   7.135  10.417  0.6535  2.6218  2.3956
34250SOL     OW 5642   4.573   5.851   8.119  0.2049  1.3469 -0.0316
34250SOL    HW1 5643   4.502   5.870   8.181  0.1487 -0.8254  0.6570
34250SOL    HW2 5644   4.648   5.829   8.175  0.1752 -0.5547 -0.6677
34251SOL     OW 5645   1.914   9.429   1.329  0.5337  0.2126 -0.2751
34251SOL    HW1 5646   1.837   9.372   1.335  1.3209 -0.7460  1.0630
34251SOL    HW2 5647   1.977   9.391   1.389  2.2829  0.6875 -1.7328
34252SOL     OW 5648  10.006   1.183   6.001 -0.6018 -0.3721  0.3081
34252SOL    HW1 5649  10.021   1.269   5.961  0.3492 -0.7042 -0.0637
34252SOL    HW2 5650   9.954   1.136   5.936 -0.9376 -0.1612  0.4190
34253SOL     OW 5651   6.023   3.360   4.111 -0.5750 -0.5426 -0.1173
34253SOL    HW1 5652   6.049   3.269   4.124  0.8543 -0.0361  0.8305
34253SOL    HW2 5653   6.056   3.406   4.189 -3.2441  0.4117  0.5543
34254SOL     OW 5654   7.420   5.383   9.415  0.1523  0.0940 -0.5304
34254SOL    HW1 5655   7.369   5.327   9.473 -1.1003  1.7902  0.0896
34254SOL    HW2 5656   7.362   5.401   9.341  1.0212 -0.4529 -1.3761
34255SOL     OW 5657   8.064   8.940   9.997 -0.1080 -0.0060  0.5940
34255SOL    HW1 5658   8.000   8.981  10.056 -2.2379 -2.5808  0.2496
34255SOL    HW2 5659   8.075   9.003   9.926 -1.1020  1.1515  1.4296
34256SOL     OW 5660  10.444   0.630   9.002 -0.5897  0.1562 -0.6201
34256SOL    HW1 5661  10.421   0.583   8.922 -0.2035  0.2445 -0.7880
34256SOL    HW2 5662  10.399   0.714   8.996 -0.1322  0.3816 -1.0070
34257SOL     OW 5663   3.619   5.462   9.210 -0.3472 -0.0997  0.3701
34257SOL    HW1 5664   3.528   5.441   9.230 -0.7809  0.4655 -0.9336
34257SOL    HW2 5665   3.662   5.462   9.296 -1.6147 -0.1236  1.0362
34258SOL     OW 5666   8.671   2.568   6.227 -0.2625 -0.0270 -0.3089
34258SOL    HW1 5667   8.763   2.597   6.226  1.3943 -4.4163  0.3681
34258SOL    HW2 5668   8.664   2.508   6.153 -2.5947  0.0924 -0.2518
34259SOL     OW 5669   9.543   0.710   1.087 -0.0464  0.3555 -0.0498
34259SOL    HW1 5670   9.497   0.786   1.122 -1.3772 -0.1558 -0.6411
34259SOL    HW2 5671   9.549   0.649   1.160  0.7167  0.8643  0.3307
34260SOL     OW 5672   4.338  10.714   4.116 -0.1831 -0.3844  0.1211
34260SOL    HW1 5673   4.387  10.783   4.073 -0.2496 -0.3968  0.0240
34260SOL    HW2 5674   4.403  10.666   4.167 -0.2427  0.1357  0.7011
34261SOL     OW 5675   0.881   4.323   8.709 -0.3942 -0.0828  0.2619
34261SOL    HW1 5676   0.847   4.247   8.662  1.8543 -2.1265  1.6642
34261SOL    HW2 5677   0.972   4.300   8.729  0.3283  2.9196  0.9705
34262SOL     OW 5678   4.275   6.942   5.902 -0.0567 -0.2614 -0.2553
34262SOL    HW1 5679   4.321   6.874   5.853 -0.8898  0.7481 -2.6050
34262SOL    HW2 5680   4.239   6.897   5.978  2.6899 -1.5856  0.3857
34263SOL     OW 5681   0.189   3.652   9.829  0.3622 -0.5201  0.4268
34263SOL    HW1 5682   0.118   3.716   9.820 -0.2202 -1.1762  0.3525
34263SOL    HW2 5683   0.193   3.634   9.923 -0.6472 -1.6784  0.2736
34264SOL     OW 5684  10.587   8.982   8.501  0.4740  0.5670 -0.2712
34264SOL    HW1 5685  10.682   8.975   8.509  0.4543  1.0221  0.3881
34264SOL    HW2 5686  10.553   8.920   8.566  0.3150  0.3782 -0.5299
34265SOL     OW 5687   6.297   0.309   6.744  0.0009 -0.1048 -0.6307
34265SOL    HW1 5688   6.232   0.258   6.793  0.5033 -0.0365  0.1270
34265SOL    HW2 5689   6.380   0.267   6.766  0.3411  0.5899 -0.5991
34266SOL     OW 5690   9.715   9.786   3.004 -0.0593  0.4811  0.4303
34266SOL    HW1 5691   9.622   9.799   3.022 -0.2505 -1.4665  1.1111
34266SOL    HW2 5692   9.748   9.741   3.082  1.5275  1.3646  0.2994
34267SOL     OW 5693   0.964   7.125   4.959 -0.5257 -0.3511 -0.1371
34267SOL    HW1 5694   0.938   7.217   4.963  0.0744 -0.1904  0.3063
34267SOL    HW2 5695   1.018   7.119   4.880 -0.6130 -0.3364 -0.1982
34268SOL     OW 5696   6.163   0.617   1.994 -0.3304 -0.6457 -0.5653
34268SOL    HW1 5697   6.246   0.658   1.969 -1.8403  2.6853 -0.7152
34268SOL    HW2 5698   6.103   0.639   1.923 -2.1935  0.2602  1.1672
34269SOL     OW 5699   8.873   2.192   6.462 -0.3202  0.2218 -0.1970
34269SOL    HW1 5700   8.920   2.129   6.407 -2.3518 -1.7858  0.2281
34269SOL    HW2 5701   8.860   2.268   6.405  0.1060 -0.6907 -1.5564
34270SOL     OW 5702   2.170   3.271   2.161 -0.1532 -0.5527  0.1565
34270SOL    HW1 5703   2.143   3.301   2.248 -0.1371  2.6351 -0.8176
34270SOL    HW2 5704   2.261   3.243   2.172 -0.2291 -0.4182  1.2116
34271SOL     OW 5705   4.594   0.314   7.226  0.6317  0.6490 -0.2487
34271SOL    HW1 5706   4.558   0.238   7.180  0.6009  0.0937  0.6584
34271SOL    HW2 5707   4.524   0.379   7.225  0.0994  0.0919  0.2912
34272SOL     OW 5708   9.908   0.440   1.397 -0.0543  0.1540  0.1610
34272SOL    HW1 5709   9.845   0.440   1.325 -1.2317 -0.8429  1.1376
34272SOL    HW2 5710   9.969   0.370   1.376 -0.1897  0.1001 -0.0539
34273SOL     OW 5711   5.019   1.159   1.174 -0.0673 -0.3572  0.4580
34273SOL    HW1 5712   4.928   1.158   1.143 -0.0463 -1.3755  0.3918
34273SOL    HW2 5713   5.014   1.201   1.259 -0.8193 -1.5438  1.0381
34274SOL     OW 5714   3.600   0.687   4.335  0.4669 -0.1096  0.1960
34274SOL    HW1 5715   3.648   0.701   4.417  0.6804  1.8203 -0.2083
34274SOL    HW2 5716   3.638   0.751   4.275 -0.0449 -1.1440 -1.2708
34275SOL     OW 5717   3.597   6.350   2.251  0.4981  0.0093  0.0774
34275SOL    HW1 5718   3.519   6.403   2.235  1.3665  1.3207 -0.0154
34275SOL    HW2 5719   3.564   6.268   2.288 -1.0385 -0.2037 -1.6247
34276SOL     OW 5720   2.942   0.956   4.517 -0.1979  0.2146  0.6803
34276SOL    HW1 5721   2.923   0.932   4.427 -0.7455 -0.5531  0.9919
34276SOL    HW2 5722   3.006   1.027   4.510  0.9365 -0.8560 -0.2714
34277SOL     OW 5723   4.512   5.726   9.962  0.3264  0.2526 -0.5779
34277SOL    HW1 5724   4.562   5.705  10.040 -0.1461  1.3906  0.0547
34277SOL    HW2 5725   4.439   5.664   9.962 -0.4304  1.1083  0.6403
34278SOL     OW 5726   3.878   0.682   9.303  0.0678  0.2133  0.9790
34278SOL    HW1 5727   3.885   0.614   9.236 -2.9807  0.0044  0.7250
34278SOL    HW2 5728   3.884   0.764   9.255 -2.1488  0.0643  0.3721
34279SOL     OW 5729   0.139   9.642   4.232  0.1811 -0.6127  0.1117
34279SOL    HW1 5730   0.154   9.614   4.322 -0.5963  0.9303  0.7728
34279SOL    HW2 5731   0.047   9.671   4.232  1.0783  2.6808 -0.1876
34280SOL     OW 5732   3.741   6.491   5.500 -0.4450 -0.2347 -0.4235
34280SOL    HW1 5733   3.657   6.450   5.518 -1.6260  2.0481 -0.3774
34280SOL    HW2 5734   3.722   6.557   5.433  0.9766  1.4284  0.7269
34281SOL     OW 5735   8.898   9.570   8.878  0.1012  0.8430 -0.3738
34281SOL    HW1 5736   8.897   9.655   8.920 -0.7492  0.5083  0.3119
34281SOL    HW2 5737   8.991   9.550   8.866  0.3056  2.0904 -1.0442
34282SOL     OW 5738   4.398   9.259   9.838  0.5608  0.6373 -0.2673
34282SOL    HW1 5739   4.350   9.187   9.798 -0.9106  1.2096  0.3425
34282SOL    HW2 5740   4.469   9.217   9.886  0.2879 -0.3272 -0.6772
34283SOL     OW 5741   5.898   1.220   7.373 -0.3824 -0.1594  0.0098
34283SOL    HW1 5742   5.950   1.297   7.394  0.2110  0.0544 -1.9807
34283SOL    HW2 5743   5.867   1.187   7.457  1.3130  0.8798  1.0895
34284SOL     OW 5744   6.856   3.973   0.084  0.1006 -0.0433  0.1295
34284SOL    HW1 5745   6.788   3.996   0.147 -1.9796  2.8503 -2.8321
34284SOL    HW2 5746   6.934   3.956   0.138 -1.6578  1.4910  3.4677
34285SOL     OW 5747   9.892   5.460   5.009 -0.4323  0.4619 -0.6714
34285SOL    HW1 5748   9.924   5.374   5.039  0.4601  0.1286 -2.4058
34285SOL    HW2 5749   9.928   5.522   5.072  0.1176 -0.3242 -0.1876
34286SOL     OW 5750   8.822   4.410   0.805 -0.2283 -0.0506 -0.0851
34286SOL    HW1 5751   8.777   4.332   0.838  0.9507 -0.3389  0.9116
34286SOL    HW2 5752   8.763   4.482   0.827 -0.5670 -0.4937  0.5039
34287SOL     OW 5753   9.036   6.684   8.500 -0.0056  0.0220  0.0036
34287SOL    HW1 5754   8.965   6.717   8.555  0.9772  0.5220  1.0016
34287SOL    HW2 5755   9.064   6.761   8.450 -1.5475 -0.6332 -2.0001
34288SOL     OW 5756   2.722   3.505   4.269  0.2510  0.6621  0.2975
34288SOL    HW1 5757   2.806   3.472   4.300 -0.3648 -0.2971  1.0075
34288SOL    HW2 5758   2.658   3.472   4.332 -0.7408  0.8126 -0.5895
34289SOL     OW 5759   1.798   9.819   7.536  0.4048 -0.6636  0.1566
34289SOL    HW1 5760   1.873   9.875   7.520  0.5336 -0.1220  2.2558
34289SOL    HW2 5761   1.797   9.757   7.463  1.7307  0.5184 -0.9048
34290SOL     OW 5762   7.898   3.424   7.307  0.3195 -0.3643  0.1387
34290SOL    HW1 5763   7.882   3.334   7.276  0.3301  0.2367 -1.7047
34290SOL    HW2 5764   7.852   3.479   7.245 -0.5808  0.9071  1.8643
34291SOL     OW 5765   3.186   2.340   7.486 -0.2994  0.3831  0.3363
34291SOL    HW1 5766   3.156   2.423   7.452  0.2139  0.3793 -0.1436
34291SOL    HW2 5767   3.132   2.274   7.443 -0.1669  0.4224  0.1122
34292SOL     OW 5768   8.805  10.314   3.990 -0.3699 -0.2751 -0.4667
34292SOL    HW1 5769   8.837  10.249   3.927  0.0827 -0.9472  0.4333
34292SOL    HW2 5770   8.711  10.322   3.971 -0.4939 -1.4281 -0.3914
34293SOL     OW 5771   7.003   3.756   7.064 -0.1463  0.3266 -0.2347
34293SOL    HW1 5772   6.913   3.761   7.096  0.2990  0.0527  1.1106
34293SOL    HW2 5773   7.057   3.750   7.143  1.0769  0.6888 -1.0057
34294SOL     OW 5774   5.644   7.572  10.732 -0.3008  0.1298 -0.1844
34294SOL    HW1 5775   5.583   7.502  10.706 -1.3616  1.1948 -0.6675
34294SOL    HW2 5776   5.657   7.624  10.653  0.1163  0.7421  0.2708
34295SOL     OW 5777   9.952   0.416   7.982  0.0662 -0.2619 -0.1271
34295SOL    HW1 5778   9.962   0.338   8.036  2.4566  0.1731  0.1829
34295SOL    HW2 5779   9.925   0.484   8.043  1.1909 -0.1368  0.2533
34296SOL     OW 5780   6.308   0.855   0.541 -0.4446  0.1683  0.0194
34296SOL    HW1 5781   6.246   0.831   0.611 -1.1436  0.1972 -0.5764
34296SOL    HW2 5782   6.341   0.941   0.568  0.1177 -0.3053  0.8594
34297SOL     OW 5783   9.686   3.685   7.770  0.8082 -0.0686 -0.7188
34297SOL    HW1 5784   9.629   3.625   7.819  0.4451 -1.2046 -2.4417
34297SOL    HW2 5785   9.683   3.652   7.680  3.2011  0.5945 -1.1065
34298SOL     OW 5786   3.110   8.177   1.628  0.3137  0.6401  0.7232
34298SOL    HW1 5787   3.047   8.105   1.634 -0.9666  1.5278 -0.9633
34298SOL    HW2 5788   3.193   8.140   1.656 -0.8579 -0.7151  2.6085
34299SOL     OW 5789   4.709   6.811   1.162 -0.2711 -0.3482  0.3472
34299SOL    HW1 5790   4.749   6.750   1.100  1.7093  0.0344  1.1793
34299SOL    HW2 5791   4.695   6.891   1.111  0.6337 -0.2870  0.1762
34300SOL     OW 5792   1.563   9.618   7.429 -0.1186 -0.2135 -0.3379
34300SOL    HW1 5793   1.487   9.586   7.477  0.4081 -2.0022 -0.6183
34300SOL    HW2 5794   1.625   9.646   7.496 -1.1220  1.5410 -0.1175
34301SOL     OW 5795   2.589   8.984   7.105  0.1827  0.3714  0.2137
34301SOL    HW1 5796   2.554   8.976   7.194 -0.7596 -0.6902 -0.2126
34301SOL    HW2 5797   2.601   8.893   7.076 -0.1565  0.6725 -0.9616
34302SOL     OW 5798   0.104   8.603   9.093  0.5021 -0.4198 -0.0427
34302SOL    HW1 5799   0.089   8.694   9.120  1.0638  0.0768 -1.3222
34302SOL    HW2 5800   0.193   8.584   9.122  0.8521 -0.1225 -0.9155
34303SOL     OW 5801   1.017   2.405   5.373 -0.0266  0.5625  0.5167
34303SOL    HW1 5802   1.026   2.476   5.309  0.7070  0.4515  0.4895
34303SOL    HW2 5803   0.960   2.442   5.441 -0.8205  0.6767 -0.1950
34304SOL     OW 5804   8.866   2.534   9.521  0.0422  0.0119 -0.0276
34304SOL    HW1 5805   8.781   2.573   9.499 -0.0795 -0.2530 -0.0328
34304SOL    HW2 5806   8.844   2.462   9.580  0.0694 -1.4151 -1.6964
34305SOL     OW 5807   9.219   2.575   0.914  0.1692  0.3610  0.0216
34305SOL    HW1 5808   9.179   2.524   0.985 -0.8075 -0.2168 -0.9048
34305SOL    HW2 5809   9.307   2.539   0.906  0.3251  0.4976  0.9969
34306SOL     OW 5810   3.065   5.687   2.866 -0.1170 -0.0898  0.0762
34306SOL    HW1 5811   2.982   5.706   2.910 -0.4571  0.4483 -0.7785
34306SOL    HW2 5812   3.129   5.681   2.937 -0.8859 -0.5491  0.7457
34307SOL     OW 5813   6.748   7.696   6.822  0.3438 -0.3946 -0.0429
34307SOL    HW1 5814   6.732   7.746   6.742  0.3517 -0.4599 -0.0853
34307SOL    HW2 5815   6.797   7.756   6.878  0.5098 -0.4178 -0.1639
34308SOL     OW 5816   3.004   5.645   7.302 -0.0608 -0.0364  0.2275
34308SOL    HW1 5817   2.976   5.697   7.378 -0.4598 -0.6457  0.5016
34308SOL    HW2 5818   2.964   5.559   7.316 -0.6513  0.0286 -0.9946
34309SOL     OW 5819   0.884   4.936   4.214  0.0190  0.0231 -0.1025
34309SOL    HW1 5820   0.954   4.928   4.149 -1.0504  0.7507 -1.4090
34309SOL    HW2 5821   0.925   4.980   4.288  0.8522  0.9020 -1.0468
34310SOL     OW 5822   5.541   7.872   6.660 -0.0342  0.0319  0.8241
34310SOL    HW1 5823   5.528   7.785   6.698 -0.5387  0.2950  1.2539
34310SOL    HW2 5824   5.453   7.909   6.652  0.1391  0.3203  0.2044
34311SOL     OW 5825  10.233   9.894   9.964 -0.4082 -0.3292  0.1328
34311SOL    HW1 5826  10.269   9.952   9.898  1.1336  0.2099  1.3790
34311SOL    HW2 5827  10.207   9.952  10.036 -1.8548 -0.9114  0.1158
34312SOL     OW 5828   0.822   1.541   8.635 -0.1963  0.7832  0.5648
34312SOL    HW1 5829   0.804   1.476   8.703  0.0093 -1.2485 -1.2145
34312SOL    HW2 5830   0.906   1.579   8.660  0.7389 -1.1860  0.5540
34313SOL     OW 5831  10.016   4.531   3.894  0.2249  0.4223  0.3092
34313SOL    HW1 5832  10.041   4.568   3.978  1.0714 -2.1277  1.2745
34313SOL    HW2 5833  10.064   4.448   3.889 -3.6604 -2.0430 -0.3110
34314SOL     OW 5834   8.265   8.703   5.455  0.2292 -0.0676  0.8419
34314SOL    HW1 5835   8.221   8.785   5.476 -1.4045 -0.9535  1.0547
34314SOL    HW2 5836   8.358   8.720   5.472 -0.0190  1.8366  0.4803
34315SOL     OW 5837   1.808   7.180   9.368 -0.2892 -0.0494  0.4493
34315SOL    HW1 5838   1.766   7.224   9.294 -1.6964  1.4308  2.0245
34315SOL    HW2 5839   1.898   7.165   9.340 -0.8850  0.1148 -1.6759
34316SOL     OW 5840   4.843   0.214  10.698  0.1026  0.0294 -0.0936
34316SOL    HW1 5841   4.930   0.247  10.720  0.0740 -1.1840  2.1344
34316SOL    HW2 5842   4.860   0.142  10.637  0.5284  0.7136 -0.8029
34317SOL     OW 5843   6.131   2.837   3.825  0.2607  0.1018  0.1054
34317SOL    HW1 5844   6.226   2.842   3.812  0.2354 -2.3593 -1.7586
34317SOL    HW2 5845   6.096   2.824   3.737 -1.7487 -0.0526  0.8769
34318SOL     OW 5846   9.574   7.527   3.351 -0.2042 -0.5377  0.0262
34318SOL    HW1 5847   9.514   7.596   3.379 -0.9654 -1.4376  0.6703
34318SOL    HW2 5848   9.638   7.520   3.422  1.0015  0.7369 -0.8603
34319SOL     OW 5849  10.768  10.685   5.963  0.1255 -0.2152  0.4465
34319SOL    HW1 5850  10.773  10.616   5.898  2.0212  1.2958 -1.1482
34319SOL    HW2 5851  10.837  10.747   5.938 -1.8179  2.5467  1.4293
34320SOL     OW 5852   9.517   4.209   7.264 -0.1710  1.1013 -0.3264
34320SOL    HW1 5853   9.577   4.281   7.283  1.8801 -0.7419  0.6242
34320SOL    HW2 5854   9.439   4.229   7.316 -0.6233  3.7042 -1.8227
34321SOL     OW 5855   3.929  10.036   5.649  0.0792  0.2216 -0.1210
34321SOL    HW1 5856   3.944  10.075   5.562  0.1732 -1.4216 -0.8854
34321SOL    HW2 5857   4.016  10.036   5.690 -0.0288  1.3262  0.1319
34322SOL     OW 5858   2.563   1.642   7.115  0.3323  0.2738  0.6266
34322SOL    HW1 5859   2.575   1.547   7.125  2.2098  0.3204 -0.5216
34322SOL    HW2 5860   2.532   1.672   7.200 -1.2915 -1.4894  0.7134
34323SOL     OW 5861  10.265   4.516   6.983 -0.2716 -0.2369 -0.4241
34323SOL    HW1 5862  10.354   4.495   6.954 -0.7113 -0.8141 -1.4368
34323SOL    HW2 5863  10.243   4.446   7.044  0.4543  0.6735  0.9417
34324SOL     OW 5864   9.622   6.739   5.204 -0.7065  0.0499 -0.2934
34324SOL    HW1 5865   9.588   6.812   5.256  0.5053  0.8916 -0.6249
34324SOL    HW2 5866   9.617   6.770   5.114  1.0187  0.2712 -0.3448
34325SOL     OW 5867   7.704   5.368   3.048  0.2064 -0.5621  0.5228
34325SOL    HW1 5868   7.692   5.456   3.013  2.0444 -0.2441  0.5954
34325SOL    HW2 5869   7.751   5.320   2.980 -0.4305 -1.3921  0.6396
34326SOL     OW 5870   1.063  10.474   3.567  0.1898 -0.2078 -0.3045
34326SOL    HW1 5871   0.992  10.536   3.581 -0.7851 -1.1229 -1.0656
34326SOL    HW2 5872   1.049  10.441   3.479  1.5669 -0.4095 -0.4677
34327SOL     OW 5873   4.812   3.410   9.351  0.4844  0.3402 -0.1580
34327SOL    HW1 5874   4.809   3.322   9.388  0.1976 -0.2263 -1.4691
34327SOL    HW2 5875   4.758   3.404   9.271 -0.2962  1.9382  0.2164
34328SOL     OW 5876   3.419   9.029  10.251 -0.4011 -0.0747  0.5588
34328SOL    HW1 5877   3.483   9.033  10.180  0.8013 -0.0231  1.5952
34328SOL    HW2 5878   3.347   9.084  10.222 -0.6322 -1.2822 -1.2575
34329SOL     OW 5879   4.841   8.890   5.499  0.1286  0.5472  0.1965
34329SOL    HW1 5880   4.746   8.906   5.501 -0.4969 -2.4988  0.3849
34329SOL    HW2 5881   4.867   8.894   5.591 -0.4217 -1.1449  0.4782
34330SOL     OW 5882   6.319  10.298   2.384  0.5892  0.1354  0.2220
34330SOL    HW1 5883   6.391  10.242   2.412  0.0976 -0.4547  0.3329
34330SOL    HW2 5884   6.359  10.361   2.324  1.1435 -0.3689  0.0534
34331SOL     OW 5885  10.574   3.803   4.920  0.4442 -0.0384 -0.0542
34331SOL    HW1 5886  10.600   3.896   4.918  0.3546 -0.0014  0.5466
34331SOL    HW2 5887  10.546   3.788   5.010  2.0438 -1.0918  0.3075
34332SOL     OW 5888   5.257   8.780   8.423  0.4994  0.6498  0.1811
34332SOL    HW1 5889   5.182   8.741   8.468 -0.1629  1.4853 -0.1804
34332SOL    HW2 5890   5.277   8.717   8.353  0.1931  0.3818  0.3278
34333SOL     OW 5891   0.483   4.919   9.593 -0.4702 -0.2977  0.2662
34333SOL    HW1 5892   0.510   4.999   9.638  0.0333 -0.5415  0.4125
34333SOL    HW2 5893   0.392   4.934   9.568 -0.3170  0.4010  0.1069
34334SOL     OW 5894   2.488  10.352   8.599  0.4114 -0.0147  0.1244
34334SOL    HW1 5895   2.405  10.307   8.584 -0.1633  0.8202  0.6538
34334SOL    HW2 5896   2.516  10.324   8.686  0.3694  0.1608  0.1965
34335SOL     OW 5897   5.672   8.192   3.284  0.0493  0.5772 -0.3221
34335SOL    HW1 5898   5.753   8.188   3.334 -0.6550 -2.4191  0.7414
34335SOL    HW2 5899   5.701   8.209   3.194  2.1436 -2.3517 -0.3557
34336SOL     OW 5900   0.777   2.205   5.446  0.2716 -0.3098 -0.6282
34336SOL    HW1 5901   0.800   2.296   5.467 -0.3046 -0.7651  2.5705
34336SOL    HW2 5902   0.751   2.207   5.354 -1.6790  3.2010 -0.1827
34337SOL     OW 5903   3.617   2.755   9.044  0.5178 -0.6150  0.0367
34337SOL    HW1 5904   3.679   2.682   9.040 -0.1632 -1.1348 -3.5038
34337SOL    HW2 5905   3.664   2.828   9.004  0.7536  0.6650  2.4620
34338SOL     OW 5906   5.575   8.497   9.292 -0.0569 -0.5021  0.4254
34338SOL    HW1 5907   5.579   8.470   9.384 -1.5043  0.4260  0.7978
34338SOL    HW2 5908   5.620   8.582   9.290  1.2808 -1.1896 -0.0418
34339SOL     OW 5909   1.835   7.718   8.902 -0.0776  0.1800 -0.0838
34339SOL    HW1 5910   1.805   7.788   8.960 -1.1097 -0.8373  0.6466
34339SOL    HW2 5911   1.847   7.642   8.959  0.4145 -0.4187 -0.9537
34340SOL     OW 5912   2.674   5.556   6.337 -0.0282  0.0245  0.0266
34340SOL    HW1 5913   2.684   5.474   6.386 -0.3496  0.4926  0.9000
34340SOL    HW2 5914   2.656   5.528   6.247  1.6797 -0.8537 -0.0785
34341SOL     OW 5915   9.369   9.281   2.766  0.2224 -0.6853 -0.3995
34341SOL    HW1 5916   9.445   9.337   2.773 -0.7567  0.6625 -0.1654
34341SOL    HW2 5917   9.405   9.192   2.755  1.8196  0.0976 -2.0740
34342SOL     OW 5918   7.738   6.095   1.565  0.2112  0.7851  0.1227
34342SOL    HW1 5919   7.729   6.021   1.626  1.8565  2.6032  2.7626
34342SOL    HW2 5920   7.810   6.070   1.507  0.3625  0.0589  0.6112
34343SOL     OW 5921   3.020   7.321   4.656 -0.2013 -0.3046  0.6712
34343SOL    HW1 5922   3.055   7.242   4.699 -1.2244 -0.2830  1.5977
34343SOL    HW2 5923   3.041   7.392   4.717  0.3711  0.0842  0.0249
34344SOL     OW 5924   8.161   1.644   1.508 -0.4357 -0.1113  0.5659
34344SOL    HW1 5925   8.230   1.598   1.460 -0.6376 -0.5445  0.6843
34344SOL    HW2 5926   8.108   1.686   1.440  0.5423  1.1158  0.5120
34345SOL     OW 5927   8.979   3.800   9.300  0.8764  0.2007  0.4982
34345SOL    HW1 5928   8.917   3.731   9.278 -0.6101  1.4570  0.5315
34345SOL    HW2 5929   9.058   3.779   9.249  0.5000 -1.5211  0.5646
34346SOL     OW 5930   7.797   2.211   3.826  0.3686 -0.6068  0.3946
34346SOL    HW1 5931   7.802   2.251   3.913 -0.2442  0.1995  0.0712
34346SOL    HW2 5932   7.840   2.273   3.768 -0.7911 -0.2756 -0.1497
34347SOL     OW 5933   8.386   9.118   7.591 -0.0096  0.2668  0.2744
34347SOL    HW1 5934   8.327   9.055   7.631  2.4723 -2.1277  0.4402
34347SOL    HW2 5935   8.377   9.103   7.497  0.4026 -0.1659  0.3037
34348SOL     OW 5936   2.062   4.785   4.494  0.0984  0.4898  0.5786
34348SOL    HW1 5937   2.095   4.830   4.417  2.1285  1.0405  1.7002
34348SOL    HW2 5938   1.967   4.786   4.484  0.2870 -1.2995 -2.9025
34349SOL     OW 5939   6.656   4.302   1.634 -0.1155  0.1971  0.6851
34349SOL    HW1 5940   6.738   4.256   1.648  0.0477  0.2490 -0.0562
34349SOL    HW2 5941   6.675   4.364   1.563 -1.1507 -0.7648 -0.4776
34350SOL     OW 5942   8.314   3.773   6.972  0.4564  0.3024 -0.2311
34350SOL    HW1 5943   8.374   3.741   7.040 -0.3060 -0.3028  0.1668
34350SOL    HW2 5944   8.370   3.825   6.915  0.9959  1.4019  1.2313
34351SOL     OW 5945   3.722   5.988   4.600 -0.0778 -1.1166  0.2244
34351SOL    HW1 5946   3.634   5.996   4.636 -0.2175  0.0284 -0.3095
34351SOL    HW2 5947   3.765   6.071   4.621  0.1463 -0.7889 -1.3531
34352SOL     OW 5948   6.291   5.266   1.052 -0.0130 -0.3534 -0.4760
34352SOL    HW1 5949   6.259   5.261   0.962  2.3033 -1.1184 -1.3306
34352SOL    HW2 5950   6.338   5.350   1.056 -0.8078  0.0642  0.2918
34353SOL     OW 5951   6.956  10.147   7.349 -0.1811 -0.6987 -0.1936
34353SOL    HW1 5952   6.896  10.121   7.280 -1.1097  0.2023  0.2385
34353SOL    HW2 5953   6.971  10.240   7.334  2.4237 -1.2137 -1.2443
34354SOL     OW 5954   0.745   7.882   3.377  0.0334 -0.2482  0.2673
34354SOL    HW1 5955   0.797   7.927   3.311 -0.4958 -0.5787 -0.3851
34354SOL    HW2 5956   0.754   7.936   3.455 -0.4105  0.8773 -0.4385
34355SOL     OW 5957   9.067   1.115   4.969  0.0308 -0.3830  0.3236
34355SOL    HW1 5958   9.104   1.191   5.015  0.4060 -0.2529 -0.1778
34355SOL    HW2 5959   9.122   1.042   4.996  2.2377  0.1779 -2.1949
34356SOL     OW 5960  10.508   0.348   7.266 -0.0516  0.5752  0.1318
34356SOL    HW1 5961  10.530   0.434   7.230  2.1115 -0.0659 -0.1877
34356SOL    HW2 5962  10.572   0.289   7.228 -2.0581 -1.3955 -0.3957
34357SOL     OW 5963   2.943   2.506   1.291  0.1721  0.2292  0.1281
34357SOL    HW1 5964   2.961   2.542   1.204  1.9217 -1.0492 -0.0941
34357SOL    HW2 5965   2.941   2.582   1.349 -2.1517  1.2306 -1.1438
34358SOL     OW 5966   1.089   1.561   4.345  0.1402  0.9219 -0.1533
34358SOL    HW1 5967   1.053   1.475   4.368  0.4024 -0.1052 -3.2089
34358SOL    HW2 5968   1.023   1.601   4.290  1.0941  1.6004 -0.8269
34359SOL     OW 5969   8.003   8.810   9.094  0.5256 -0.1489 -0.0061
34359SOL    HW1 5970   8.022   8.722   9.063  0.9927 -0.6273  1.5411
34359SOL    HW2 5971   7.919   8.802   9.139  0.3311  0.3032 -0.2816
34360SOL     OW 5972   1.774   6.885   0.381  0.6360  0.1477 -0.0318
34360SOL    HW1 5973   1.811   6.846   0.461  0.0037 -0.2852  0.0583
34360SOL    HW2 5974   1.716   6.817   0.346  0.9804  0.3086 -0.9095
34361SOL     OW 5975   7.294   7.511   9.020 -0.3251 -0.2577 -0.1427
34361SOL    HW1 5976   7.229   7.511   8.949 -1.1727  0.6546  0.6036
34361SOL    HW2 5977   7.373   7.548   8.980 -0.7745  0.2026 -0.6322
34362SOL     OW 5978   1.346   5.657  10.470 -0.1171 -0.7548  0.3123
34362SOL    HW1 5979   1.410   5.725  10.449 -1.9273  0.9307 -0.0150
34362SOL    HW2 5980   1.359   5.590  10.402 -1.1629  1.3300 -2.1109
34363SOL     OW 5981   3.130   0.672   2.340  0.8086  0.0149  0.8667
34363SOL    HW1 5982   3.164   0.610   2.275  0.2508 -0.8585  1.3898
34363SOL    HW2 5983   3.111   0.752   2.290  1.0874 -0.3935  0.0986
34364SOL     OW 5984   3.280   5.125   6.882 -0.3838 -0.6005 -0.4600
34364SOL    HW1 5985   3.353   5.142   6.821  1.3087 -1.3358  1.2385
34364SOL    HW2 5986   3.220   5.198   6.869  1.2712  0.7370 -1.0736
34365SOL     OW 5987   6.731   8.975   0.989 -0.1833  0.4408 -0.0841
34365SOL    HW1 5988   6.645   8.935   1.006 -0.9251  1.7765 -0.5482
34365SOL    HW2 5989   6.744   8.964   0.895 -0.4359  1.3522 -0.2308
34366SOL     OW 5990   6.197   3.008   1.303 -0.8744 -0.5043 -0.9153
34366SOL    HW1 5991   6.236   2.951   1.370  0.5853  0.9356 -0.4738
34366SOL    HW2 5992   6.137   3.064   1.351 -3.1033 -2.2245 -1.4947
34367SOL     OW 5993   5.102   6.296  10.305  0.0998 -0.1682 -0.5936
34367SOL    HW1 5994   5.082   6.213  10.261  0.6529  0.7211 -2.6451
34367SOL    HW2 5995   5.194   6.312  10.284 -0.0529  1.0721 -0.3712
34368SOL     OW 5996   2.118   7.457   6.493 -0.1920 -0.1900  0.4035
34368SOL    HW1 5997   2.184   7.526   6.506 -0.6527  0.1988  0.7294
34368SOL    HW2 5998   2.150   7.406   6.418 -0.3101  0.9551 -0.4598
34369SOL     OW 5999   2.717   5.333   6.445 -0.5796 -0.1175  0.8138
34369SOL    HW1 6000   2.675   5.256   6.483 -0.2376  0.4954  2.5426
34369SOL    HW2 6001   2.811   5.316   6.454 -0.4752 -0.3239 -0.5714
34370SOL     OW 6002   4.259   9.789   8.699 -0.3015  0.0424  0.4026
34370SOL    HW1 6003   4.201   9.716   8.679 -0.2570  0.4825 -1.4690
34370SOL    HW2 6004   4.344   9.763   8.665  0.1983  0.1595  1.5188
34371SOL     OW 6005   5.725   1.475   8.803  0.3561  0.0625 -0.1915
34371SOL    HW1 6006   5.680   1.399   8.767  0.9301 -0.8932  1.0710
34371SOL    HW2 6007   5.717   1.466   8.898  0.9400  1.2673 -0.0066
34372SOL     OW 6008   5.325   4.915   7.283  0.2015 -0.2594  0.4538
34372SOL    HW1 6009   5.344   4.927   7.376 -0.7262 -0.6670  0.7117
34372SOL    HW2 6010   5.229   4.919   7.278  0.2774  2.2432 -0.8348
34373SOL     OW 6011   9.810   0.072   1.759  0.0759 -0.7408  0.2674
34373SOL    HW1 6012   9.865   0.042   1.687  2.1045  0.3274  1.2871
34373SOL    HW2 6013   9.811   0.000   1.822 -1.0490 -1.3592 -0.4013
34374SOL     OW 6014   8.948   1.675   7.433  0.3942  0.0175 -0.1993
34374SOL    HW1 6015   9.000   1.596   7.445 -0.1864 -0.3000  0.2728
34374SOL    HW2 6016   8.864   1.643   7.399  0.9800  0.6331 -2.4012
34375SOL     OW 6017   7.368   7.564   6.022 -0.2058 -0.4155  0.3987
34375SOL    HW1 6018   7.377   7.527   6.109 -1.7622 -0.5837  0.5150
34375SOL    HW2 6019   7.346   7.490   5.966 -0.0958 -0.1712  0.0253
34376SOL     OW 6020   2.086   4.205   2.172 -0.2835 -0.0877  0.6175
34376SOL    HW1 6021   2.146   4.132   2.157  0.1412  0.0079  1.7559
34376SOL    HW2 6022   2.016   4.193   2.107  0.1280 -1.1213  0.3522
34377SOL     OW 6023   6.343   4.715  10.586  0.2126  0.3931 -0.2941
34377SOL    HW1 6024   6.289   4.767  10.645 -0.1964 -0.0749 -0.2509
34377SOL    HW2 6025   6.408   4.776  10.552  1.4079  0.3556  1.7840
34378SOL     OW 6026   6.636   3.233   2.412  0.2237  0.4638  0.3373
34378SOL    HW1 6027   6.678   3.263   2.332  1.8132 -0.3081  0.8256
34378SOL    HW2 6028   6.547   3.210   2.386  1.3849 -2.1320 -1.8008
34379SOL     OW 6029   8.981   3.854   7.291 -0.1496  0.0770 -0.2362
34379SOL    HW1 6030   8.964   3.777   7.345  0.0901  0.5491  0.5190
34379SOL    HW2 6031   9.071   3.841   7.260 -0.6643 -0.7630 -1.5014
34380SOL     OW 6032   7.631   3.742   1.442  0.0768 -0.2348 -0.3928
34380SOL    HW1 6033   7.675   3.821   1.413 -1.5505  0.7562 -0.2710
34380SOL    HW2 6034   7.623   3.752   1.537 -0.0870 -0.5763 -0.3675
34381SOL     OW 6035   5.332   4.527   1.827 -0.1806  0.1704  0.3128
34381SOL    HW1 6036   5.407   4.547   1.771 -0.6678  0.8561 -0.0980
34381SOL    HW2 6037   5.310   4.437   1.806 -0.2363  0.3575 -0.4520
34382SOL     OW 6038   6.164   5.735   6.003  0.3970 -0.0490  0.4489
34382SOL    HW1 6039   6.245   5.683   5.999  0.4960  0.1586 -0.3464
34382SOL    HW2 6040   6.142   5.751   5.912  0.7291  1.8827  0.6735
34383SOL     OW 6041   9.011   4.651   7.667  0.1723  0.2169  0.0690
34383SOL    HW1 6042   9.041   4.572   7.623 -1.4024 -0.5062  0.2011
34383SOL    HW2 6043   9.089   4.689   7.707  0.8901 -1.5181  0.3634
34384SOL     OW 6044   8.346   6.211   5.157  0.2125 -0.2187 -0.3932
34384SOL    HW1 6045   8.254   6.192   5.177  0.3660  1.2094  1.9600
34384SOL    HW2 6046   8.394   6.133   5.185 -0.1048 -0.2446  0.0821
34385SOL     OW 6047   5.901  10.744   6.499 -0.3426 -0.3997  0.7297
34385SOL    HW1 6048   5.848  10.818   6.529 -0.6048 -1.1315  2.1437
34385SOL    HW2 6049   5.903  10.684   6.574  1.4754 -0.9452  0.2901
34386SOL     OW 6050  10.495   5.917   3.063  0.3883  0.0763 -0.2511
34386SOL    HW1 6051  10.555   5.986   3.035 -0.4824  0.6110 -0.8583
34386SOL    HW2 6052  10.551   5.841   3.076  1.5454  1.1438  1.5102
34387SOL     OW 6053   1.885   3.341   6.034  0.2959 -0.2073 -0.1588
34387SOL    HW1 6054   1.853   3.431   6.023 -0.8416 -0.5879 -0.1388
34387SOL    HW2 6055   1.899   3.333   6.129 -0.5995 -0.3532 -0.0251
34388SOL     OW 6056   1.983   8.780   8.900  0.3234 -0.0257  0.2462
34388SOL    HW1 6057   2.067   8.736   8.884  0.6717  0.4295  0.7789
34388SOL    HW2 6058   1.957   8.813   8.814  2.0837  2.2616  0.5001
34389SOL     OW 6059   7.461   7.872   9.194 -0.0655 -0.5404 -0.2676
34389SOL    HW1 6060   7.548   7.895   9.163  0.3544  0.9135  1.7789
34389SOL    HW2 6061   7.469   7.782   9.224  0.9943 -0.1364  0.7206
34390SOL     OW 6062   9.963   1.875   6.468  0.2275 -0.0681  0.1463
34390SOL    HW1 6063   9.882   1.824   6.460 -0.3148  0.9008 -0.8605
34390SOL    HW2 6064  10.024   1.816   6.510 -0.9011 -0.9514  0.6085
34391SOL     OW 6065   2.466   2.301   2.888  0.3731  0.3754  0.0516
34391SOL    HW1 6066   2.508   2.240   2.827 -0.0654  0.1790 -0.0588
34391SOL    HW2 6067   2.465   2.384   2.841 -0.7301  0.0304 -0.5585
34392SOL     OW 6068   8.476   6.623   2.442 -0.3269 -0.1817  0.0885
34392SOL    HW1 6069   8.483   6.680   2.518 -0.6127 -1.7534  1.3482
34392SOL    HW2 6070   8.542   6.656   2.381  1.0808  0.1156  1.6932
34393SOL     OW 6071   0.327   4.421  10.773  0.6758  0.9747 -0.1209
34393SOL    HW1 6072   0.247   4.374  10.796  1.4416  0.4672  1.6719
34393SOL    HW2 6073   0.340   4.484  10.844  1.6821  1.2763 -0.5469
34394SOL     OW 6074   5.575   8.401   3.486  0.3161 -0.9899  0.3566
34394SOL    HW1 6075   5.583   8.487   3.446  0.4904 -0.6918  1.0206
34394SOL    HW2 6076   5.605   8.340   3.418 -0.8629 -0.6379 -0.5267
34395SOL     OW 6077   7.332   9.630  10.002 -0.1430 -0.3411 -0.0693
34395SOL    HW1 6078   7.339   9.590  10.089  1.3915 -1.3677 -0.6210
34395SOL    HW2 6079   7.239   9.649   9.992 -0.1470  1.6280  2.5685
34396SOL     OW 6080   2.102   8.728  10.043  0.2984  0.6190  0.1837
34396SOL    HW1 6081   2.093   8.809   9.993  0.8233  0.7658  0.3193
34396SOL    HW2 6082   2.129   8.757  10.131 -2.5197  0.5102  1.1682
34397SOL     OW 6083   3.946   1.322   7.333 -0.3889  0.4478  0.5595
34397SOL    HW1 6084   4.013   1.258   7.357  0.4946  1.1572  0.0836
34397SOL    HW2 6085   3.870   1.298   7.385  0.1305 -0.5914  0.8677
34398SOL     OW 6086   2.281   5.978   5.620  0.1557 -0.1082 -0.1909
34398SOL    HW1 6087   2.372   6.002   5.605 -0.5669  1.9605 -1.5734
34398SOL    HW2 6088   2.233   6.018   5.549 -1.8829 -1.0724  0.5654
34399SOL     OW 6089   1.125   8.173   6.987  1.1115 -0.3788 -0.1055
34399SOL    HW1 6090   1.170   8.090   6.972  1.8155  0.3620 -2.4272
34399SOL    HW2 6091   1.190   8.229   7.031  2.0031  0.1590 -2.0092
34400SOL     OW 6092   3.519   7.310   9.281  0.3542  0.0149 -0.0031
34400SOL    HW1 6093   3.565   7.394   9.291 -0.3343  0.3431  0.5068
34400SOL    HW2 6094   3.558   7.270   9.204  1.5985  0.2186  0.4993
34401SOL     OW 6095   4.255   5.532   1.632  0.0501  0.2023 -0.2463
34401SOL    HW1 6096   4.164   5.506   1.646 -0.0780  1.2934  1.2577
34401SOL    HW2 6097   4.306   5.454   1.656 -0.4001  0.5540  2.2038
34402SOL     OW 6098   3.415   4.266   9.551 -0.5694 -0.6378 -0.3848
34402SOL    HW1 6099   3.423   4.171   9.551 -0.4902 -0.6350  0.0774
34402SOL    HW2 6100   3.495   4.297   9.593 -0.3181 -0.3372 -1.0654
34403SOL     OW 6101   5.281   1.239   0.680  0.0222  0.2087  0.1700
34403SOL    HW1 6102   5.376   1.239   0.693  0.0457  1.8323  0.2136
34403SOL    HW2 6103   5.247   1.293   0.752 -0.9725 -0.6347  0.3571
34404SOL     OW 6104   5.335   2.499   9.139  0.5142 -0.6865 -0.2035
34404SOL    HW1 6105   5.310   2.580   9.094 -0.1822 -0.0818  1.2000
34404SOL    HW2 6106   5.413   2.522   9.189 -0.3596 -0.5129  1.1291
34405SOL     OW 6107   3.399   6.605   1.425  0.1403 -0.3921 -0.0461
34405SOL    HW1 6108   3.397   6.511   1.408  2.6726 -0.3195 -1.2718
34405SOL    HW2 6109   3.445   6.613   1.509  1.2227 -0.2543 -0.6273
34406SOL     OW 6110   0.184   0.535   4.637  0.0330  0.0543  0.0378
34406SOL    HW1 6111   0.196   0.556   4.545 -0.5470  0.7438  0.1070
34406SOL    HW2 6112   0.173   0.620   4.680  1.0894 -0.1991  0.8713
34407SOL     OW 6113  10.348   1.559   1.870  0.0259  0.2736  0.0670
34407SOL    HW1 6114  10.279   1.618   1.840  0.0573  0.1620 -0.2289
34407SOL    HW2 6115  10.305   1.473   1.876  0.0583  0.2662  0.1950
34408SOL     OW 6116   3.323   5.177   0.903 -0.0468  0.0487  0.1583
34408SOL    HW1 6117   3.282   5.244   0.958 -0.5239 -0.5517  0.5444
34408SOL    HW2 6118   3.397   5.146   0.955  1.1496  1.3555 -0.6671
34409SOL     OW 6119   9.900   6.376   8.541 -0.2713  0.4266 -0.2856
34409SOL    HW1 6120   9.995   6.374   8.532 -0.2262  2.0214 -0.2991
34409SOL    HW2 6121   9.880   6.465   8.568 -1.6963 -0.1406  0.6300
34410SOL     OW 6122   8.125   9.847   5.213 -0.2402 -0.2638  0.1462
34410SOL    HW1 6123   8.155   9.932   5.247 -0.2677 -0.6822  1.2554
34410SOL    HW2 6124   8.072   9.869   5.137  1.1471  0.6182 -0.6155
34411SOL     OW 6125   7.151   9.595   7.381 -0.2798  0.0308 -0.0383
34411SOL    HW1 6126   7.141   9.682   7.420  1.0958 -0.3136  1.1753
34411SOL    HW2 6127   7.163   9.612   7.288 -0.8689  1.0695  0.0514
34412SOL     OW 6128   7.730   5.225   8.379 -0.1404 -0.2593  0.6048
34412SOL    HW1 6129   7.713   5.294   8.443  0.3451 -1.1816  1.7743
34412SOL    HW2 6130   7.699   5.260   8.296 -2.7382  0.1668  1.6831
34413SOL     OW 6131   5.776   9.475   6.645  0.0120 -0.1022  0.2113
34413SOL    HW1 6132   5.693   9.449   6.604 -0.5899  0.5635  0.9613
34413SOL    HW2 6133   5.750   9.514   6.728  1.0542  0.5452  0.2535
34414SOL     OW 6134   8.807   0.612   7.284 -0.2573  0.2833  0.4052
34414SOL    HW1 6135   8.728   0.561   7.302 -0.7809  1.3572  1.3224
34414SOL    HW2 6136   8.879   0.549   7.286 -0.9900 -0.5572  0.5156
34415SOL     OW 6137   3.038   3.786   4.087  0.1696  0.1515 -0.2240
34415SOL    HW1 6138   2.971   3.791   4.155 -1.8596 -0.2479 -2.0841
34415SOL    HW2 6139   3.025   3.700   4.046  1.9820 -0.0304 -0.5139
34416SOL     OW 6140   5.345   9.230   6.913 -0.0136 -0.0168 -0.2197
34416SOL    HW1 6141   5.360   9.310   6.963  3.3471 -1.2835  1.1180
34416SOL    HW2 6142   5.263   9.195   6.947 -0.2430  1.5700  0.9610
34417SOL     OW 6143   7.537   9.383   2.658 -0.0326  0.4434 -0.5227
34417SOL    HW1 6144   7.575   9.304   2.695  1.6058  1.2662 -0.3172
34417SOL    HW2 6145   7.443   9.370   2.662  0.2011 -1.5236 -0.5966
34418SOL     OW 6146   2.991   0.239   1.024 -0.0492  0.4329  0.2722
34418SOL    HW1 6147   3.023   0.218   0.936 -0.1468  1.8259 -0.1149
34418SOL    HW2 6148   3.054   0.302   1.059 -1.5290  2.1461  0.0328
34419SOL     OW 6149   4.594   0.666   1.349  0.3546  0.2375 -0.3066
34419SOL    HW1 6150   4.665   0.646   1.289  0.0450  0.3425 -0.7119
34419SOL    HW2 6151   4.519   0.685   1.293  0.2860  1.1914  0.0984
34420SOL     OW 6152   3.842   8.616   2.023 -0.5332 -0.3646 -0.5787
34420SOL    HW1 6153   3.879   8.627   1.935  1.4536 -2.2543 -0.0766
34420SOL    HW2 6154   3.769   8.555   2.010 -1.1847  0.5120 -1.1014
34421SOL     OW 6155   7.268   5.513   9.661  0.2079 -0.1430  0.2126
34421SOL    HW1 6156   7.334   5.573   9.695 -0.4115  0.3049  0.6619
34421SOL    HW2 6157   7.269   5.439   9.721 -0.4082  0.3357  0.8255
34422SOL     OW 6158   1.109   9.324   6.631  0.0839 -0.2956 -0.0667
34422SOL    HW1 6159   1.177   9.346   6.568  0.1907 -0.3322  0.0350
34422SOL    HW2 6160   1.149   9.258   6.688  0.7958  1.3618  1.4649
34423SOL     OW 6161   9.150   7.220   9.597 -0.2830 -0.0294 -0.1422
34423SOL    HW1 6162   9.196   7.269   9.665  1.2940 -0.4918 -0.8172
34423SOL    HW2 6163   9.104   7.286   9.546  3.1086  1.1204 -2.0347
34424SOL     OW 6164   5.162   4.489   6.364  0.5068  0.0109  0.3523
34424SOL    HW1 6165   5.099   4.433   6.319  0.8635 -0.5461  0.5369
34424SOL    HW2 6166   5.150   4.576   6.324  1.0102 -0.5260 -1.0228
34425SOL     OW 6167   5.708   3.868   6.090  0.3864 -0.0151 -0.1755
34425SOL    HW1 6168   5.730   3.782   6.124  2.4003  0.3299 -0.4741
34425SOL    HW2 6169   5.718   3.927   6.165  0.4015  0.1402 -0.2985
34426SOL     OW 6170   0.092   2.554   4.780  0.5906 -0.0248  0.5011
34426SOL    HW1 6171   0.042   2.557   4.698  2.1190  0.2396 -0.4576
34426SOL    HW2 6172   0.028   2.577   4.847  0.1035  4.0960 -1.0338
34427SOL     OW 6173   0.919   4.743   7.906 -0.3000  0.0184 -0.5842
34427SOL    HW1 6174   0.883   4.672   7.854 -2.6754 -1.1303  2.3517
34427SOL    HW2 6175   0.911   4.821   7.851 -3.5930 -0.9297 -1.6271
34428SOL     OW 6176   6.187   4.503   5.874  0.5505 -0.1280 -0.7575
34428SOL    HW1 6177   6.094   4.482   5.887  0.4631  0.4365 -0.4195
34428SOL    HW2 6178   6.188   4.597   5.854  1.1695  0.2831  0.9945
34429SOL     OW 6179   4.043   6.067  10.063  0.0139  0.5459  0.1600
34429SOL    HW1 6180   4.014   6.128  10.132 -0.2291  0.6383 -0.0224
34429SOL    HW2 6181   3.985   6.085   9.990  1.5518  1.8674 -0.8022
34430SOL     OW 6182   0.780   8.087   7.885  0.0489  0.3945  0.0053
34430SOL    HW1 6183   0.729   8.014   7.918  0.3286 -0.7349 -1.9002
34430SOL    HW2 6184   0.730   8.165   7.910 -2.1944 -0.6164 -1.0428
34431SOL     OW 6185   7.075   8.067   3.428 -0.2055 -0.2697 -0.2440
34431SOL    HW1 6186   7.056   8.070   3.522 -0.2707  0.1081 -0.2688
34431SOL    HW2 6187   7.038   7.984   3.399  0.6328 -0.8188  0.2383
34432SOL     OW 6188  10.327   2.689   6.693  0.3411  0.5065 -0.1750
34432SOL    HW1 6189  10.279   2.739   6.626  1.4845  1.2393 -0.4794
34432SOL    HW2 6190  10.386   2.754   6.733  2.5814 -0.7471 -1.2416
34433SOL     OW 6191   5.270   7.460   3.977  1.1620  0.8797  0.6357
34433SOL    HW1 6192   5.335   7.476   4.045  1.4557  1.5016  0.2093
34433SOL    HW2 6193   5.320   7.422   3.905  1.5830  3.8170 -0.7448
34434SOL     OW 6194   1.416   8.680   7.663 -0.2513 -0.1022  0.5402
34434SOL    HW1 6195   1.478   8.628   7.714 -1.7071  0.0238  2.5568
34434SOL    HW2 6196   1.350   8.708   7.726 -1.7268  0.7863 -1.2856
34435SOL     OW 6197   3.240   0.227   0.863 -0.6284 -0.1899 -0.1367
34435SOL    HW1 6198   3.186   0.149   0.876  1.4091 -1.5509  0.7763
34435SOL    HW2 6199   3.321   0.207   0.911  1.0828  1.3055 -2.2409
34436SOL     OW 6200   6.500   5.279   0.046  0.6580 -0.1500 -0.1511
34436SOL    HW1 6201   6.430   5.309   0.104  1.4876  2.4879 -0.3690
34436SOL    HW2 6202   6.580   5.287   0.099  1.2533  0.9560 -1.1520
34437SOL     OW 6203   6.391   9.840   7.092  0.0832 -0.1012  0.0175
34437SOL    HW1 6204   6.331   9.819   7.021 -0.5010 -2.5981  1.1221
34437SOL    HW2 6205   6.472   9.795   7.070  1.6943  3.1986 -1.4318
34438SOL     OW 6206   0.213   0.377   4.156 -0.1324  0.0783 -0.4656
34438SOL    HW1 6207   0.180   0.412   4.073  1.8577 -0.2680 -1.4962
34438SOL    HW2 6208   0.140   0.384   4.216 -1.8455 -0.1674 -2.3989
34439SOL     OW 6209   5.342   1.744  10.647 -0.0629 -0.1917 -0.4722
34439SOL    HW1 6210   5.412   1.753  10.583 -0.1368  0.3637 -0.4863
34439SOL    HW2 6211   5.280   1.683  10.608 -0.8094  1.1969 -1.5803
34440SOL     OW 6212  10.553   5.486   7.383 -0.2222  0.1329 -0.0540
34440SOL    HW1 6213  10.644   5.499   7.357  0.2413 -1.4742  0.6698
34440SOL    HW2 6214  10.556   5.475   7.478 -1.2642  0.7369  0.0621
34441SOL     OW 6215  10.159   2.416   2.532 -0.2665  0.0161 -0.1227
34441SOL    HW1 6216  10.169   2.450   2.443  0.5461 -0.9702 -0.4386
34441SOL    HW2 6217  10.067   2.429   2.553 -0.5382 -0.0092 -1.2346
34442SOL     OW 6218   4.204   8.981   4.852 -0.0922 -0.1399 -0.4222
34442SOL    HW1 6219   4.187   9.075   4.863 -0.5159  0.0043 -2.0544
34442SOL    HW2 6220   4.283   8.965   4.903  1.5855  1.7022 -2.2374
34443SOL     OW 6221   3.158   8.345   6.105  0.3207  0.0059  0.3808
34443SOL    HW1 6222   3.105   8.320   6.030 -0.7316  2.8828  0.0407
34443SOL    HW2 6223   3.220   8.410   6.071 -1.9924  3.5325  2.2816
34444SOL     OW 6224   9.535  10.638   6.757  0.1798 -0.1739  0.1817
34444SOL    HW1 6225   9.559  10.711   6.814  1.3088 -1.1359  0.9912
34444SOL    HW2 6226   9.604  10.636   6.691 -1.3827  1.2493 -1.6012
34445SOL     OW 6227   2.011   1.637   3.431  0.1016 -0.1514 -0.5573
34445SOL    HW1 6228   1.936   1.696   3.423  0.1567  0.1550  0.9435
34445SOL    HW2 6229   2.076   1.672   3.370  0.2318  1.5203  0.4770
34446SOL     OW 6230   4.459   1.795   5.461 -0.8403  0.0384  0.0548
34446SOL    HW1 6231   4.391   1.858   5.438 -1.5432 -1.4980 -2.4086
34446SOL    HW2 6232   4.536   1.824   5.411 -0.5794  0.0261  0.4414
34447SOL     OW 6233   7.934   1.023   4.707  0.3300  0.4200 -0.2400
34447SOL    HW1 6234   7.905   1.111   4.683 -0.6203  0.6439  1.5267
34447SOL    HW2 6235   7.942   1.026   4.802 -0.2965 -1.5665 -0.0724
34448SOL     OW 6236   3.131  10.673   8.262 -0.4701 -0.1109  0.3182
34448SOL    HW1 6237   3.202  10.626   8.217 -0.2315 -0.7037  1.2609
34448SOL    HW2 6238   3.176  10.738   8.316 -0.8813  2.9519 -2.7281
34449SOL     OW 6239   7.253   4.206   3.467  0.0067  0.0529  0.1455
34449SOL    HW1 6240   7.332   4.154   3.450  0.7785  1.3875 -0.5174
34449SOL    HW2 6241   7.189   4.143   3.499  2.1931 -0.6883  3.5414
34450SOL     OW 6242   0.684   0.124   1.283  0.0513 -0.2282  0.4357
34450SOL    HW1 6243   0.681   0.038   1.325  0.6253 -0.6888 -0.4406
34450SOL    HW2 6244   0.594   0.141   1.258 -0.2221 -0.1575  1.4167
34451SOL     OW 6245   3.624   2.546   6.698  0.0090  0.3975  0.7120
34451SOL    HW1 6246   3.584   2.608   6.759 -1.3028 -0.5827  0.8771
34451SOL    HW2 6247   3.685   2.496   6.751  0.3861  0.9161  0.7748
34452SOL     OW 6248  10.729   4.854   5.830 -0.2805  0.2803 -0.0548
34452SOL    HW1 6249  10.741   4.903   5.912  1.5204  0.6722 -0.4948
34452SOL    HW2 6250  10.680   4.914   5.774  1.1181  1.2928 -0.2725
34453SOL     OW 6251   6.689   6.253   0.758 -0.8494  0.1146  0.3579
34453SOL    HW1 6252   6.661   6.301   0.680  0.0609  0.6479  0.3475
34453SOL    HW2 6253   6.608   6.215   0.792 -1.3579  0.3922 -0.4906
34454SOL     OW 6254   3.773   7.194   9.874  0.3211 -0.2641  0.6436
34454SOL    HW1 6255   3.763   7.276   9.825 -0.9977 -0.1738  1.0312
34454SOL    HW2 6256   3.867   7.179   9.876  0.4638  0.1297 -1.2512
34455SOL     OW 6257   1.286   3.228   7.062  0.2124 -0.2244 -0.4665
34455SOL    HW1 6258   1.244   3.219   6.976 -3.3970 -1.8114  1.2660
34455SOL    HW2 6259   1.263   3.316   7.091  0.6511 -0.0208 -0.7268
34456SOL     OW 6260   3.880   2.715   4.756 -0.1460 -0.5279 -0.3305
34456SOL    HW1 6261   3.785   2.708   4.754 -0.3497  1.0186  1.2253
34456SOL    HW2 6262   3.906   2.671   4.837  0.5543 -1.4310 -1.0169
34457SOL     OW 6263   8.074   2.874   5.733  0.4128  0.4709 -0.3778
34457SOL    HW1 6264   8.136   2.853   5.664  1.5921 -0.2400  0.8383
34457SOL    HW2 6265   8.067   2.970   5.731  1.1489  0.5204 -0.8718
34458SOL     OW 6266   1.439   1.403   8.272  0.7790  0.2514  0.1415
34458SOL    HW1 6267   1.419   1.488   8.232  1.7043  0.1116 -0.6697
34458SOL    HW2 6268   1.378   1.342   8.230 -1.4799  0.8290  2.3688
34459SOL     OW 6269   8.115   2.274   5.642  0.1810  0.0101  0.2399
34459SOL    HW1 6270   8.057   2.334   5.594  3.0129  3.7689  1.0605
34459SOL    HW2 6271   8.173   2.238   5.575 -0.0437  0.0481  0.0236
34460SOL     OW 6272   4.016   1.661   8.935  0.3416  0.0855  0.0140
34460SOL    HW1 6273   3.955   1.629   8.868 -0.3666  0.3026  0.5422
34460SOL    HW2 6274   4.070   1.725   8.889  1.0588 -1.0489 -0.7838
34461SOL     OW 6275   1.964   6.435   8.320  1.0988 -0.0928 -0.2374
34461SOL    HW1 6276   2.000   6.487   8.392  0.5577  2.4387 -1.6608
34461SOL    HW2 6277   2.014   6.462   8.243 -1.0043  0.4115 -1.5216
34462SOL     OW 6278   7.098   4.038   0.221  0.2331 -0.1550 -0.2047
34462SOL    HW1 6279   7.048   4.119   0.235  0.4591 -0.0242 -0.1604
34462SOL    HW2 6280   7.110   4.002   0.309 -3.6117 -2.5210 -0.4108
34463SOL     OW 6281   6.877   1.005   6.098 -0.2159  0.3889  0.3863
34463SOL    HW1 6282   6.788   1.037   6.108  0.5121  2.9065 -0.4480
34463SOL    HW2 6283   6.901   1.026   6.007  1.5780  0.8786  0.9122
34464SOL     OW 6284   1.192   3.441   5.132 -0.9065  0.0943  0.0719
34464SOL    HW1 6285   1.187   3.347   5.144 -0.2926  0.3393  2.6272
34464SOL    HW2 6286   1.104   3.473   5.154 -1.3789  0.1112 -1.6318
34465SOL     OW 6287   8.455   7.872   7.131 -0.1881  0.3429  0.3309
34465SOL    HW1 6288   8.392   7.928   7.178 -1.3673 -0.1758 -0.5892
34465SOL    HW2 6289   8.407   7.843   7.053  0.6757 -1.3054  0.3830
34466SOL     OW 6290  10.102   4.102   6.216  0.1959  0.2904 -0.0624
34466SOL    HW1 6291  10.125   4.158   6.142  1.6847 -0.9108 -0.5573
34466SOL    HW2 6292  10.153   4.137   6.290 -0.5368  0.8885  0.1689
34467SOL     OW 6293   8.897   4.568   1.367 -0.2654  0.1111 -0.2779
34467SOL    HW1 6294   8.860   4.639   1.420 -1.1198 -0.8371  0.4371
34467SOL    HW2 6295   8.822   4.531   1.320  0.0218 -0.8252 -0.0315
34468SOL     OW 6296   5.856   3.016   8.678  0.4313  0.1840  0.4294
34468SOL    HW1 6297   5.940   2.994   8.718  0.4412  0.4990  0.5851
34468SOL    HW2 6298   5.837   3.104   8.709 -0.8010 -0.5095  1.7823
34469SOL     OW 6299   9.988   9.290   9.869 -0.0076  0.6047 -0.1085
34469SOL    HW1 6300  10.071   9.334   9.889  0.8251 -1.2234  0.7370
34469SOL    HW2 6301   9.932   9.310   9.944  0.8596 -0.8641  0.9826
34470SOL     OW 6302   1.285   6.296   0.543  0.3877 -0.3339 -0.9740
34470SOL    HW1 6303   1.251   6.209   0.563  0.3607 -0.2131 -0.4850
34470SOL    HW2 6304   1.215   6.356   0.570 -0.0114 -0.1983 -2.2232
34471SOL     OW 6305   4.923   6.621   5.910 -0.1861 -0.4981  0.2940
34471SOL    HW1 6306   4.905   6.574   5.829  0.9175 -0.2769 -0.1070
34471SOL    HW2 6307   4.890   6.710   5.894  2.0863  0.2310 -0.8651
34472SOL     OW 6308   7.414   9.693   4.069  0.1804 -0.1923  0.4680
34472SOL    HW1 6309   7.409   9.601   4.094 -0.9734 -0.1945  0.2787
34472SOL    HW2 6310   7.482   9.730   4.126  0.1807 -1.0131  1.0107
34473SOL     OW 6311   1.012   7.989   5.663 -0.0342  0.1095 -0.2259
34473SOL    HW1 6312   0.965   7.906   5.652 -0.3814  0.3435 -0.5349
34473SOL    HW2 6313   0.964   8.034   5.733  0.1246  0.0690 -0.0914
34474SOL     OW 6314   8.025   3.443   8.771  0.5659  0.3992 -0.1050
34474SOL    HW1 6315   8.074   3.483   8.844 -1.2405 -0.7828  1.8705
34474SOL    HW2 6316   8.083   3.375   8.738  1.0763  0.3606  0.8261
34475SOL     OW 6317   2.188   4.291   5.810 -1.1015 -0.3359  0.0589
34475SOL    HW1 6318   2.203   4.381   5.781  1.1686 -1.1019 -1.4320
34475SOL    HW2 6319   2.126   4.255   5.747 -1.2003 -0.1229  0.0347
34476SOL     OW 6320   6.516   8.623   4.462  0.5474 -0.6824 -0.2029
34476SOL    HW1 6321   6.427   8.619   4.495  1.1233  0.8557  1.7120
34476SOL    HW2 6322   6.534   8.535   4.429 -2.2094 -0.5939 -2.2416
34477SOL     OW 6323   5.454   9.497   3.604 -0.0118 -0.3311 -0.2839
34477SOL    HW1 6324   5.471   9.579   3.650  0.8984  0.1176 -1.3691
34477SOL    HW2 6325   5.362   9.478   3.621  0.0851  0.2688  0.9930
34478SOL     OW 6326   4.503   7.969   7.252 -0.3441  0.1436 -0.2117
34478SOL    HW1 6327   4.428   7.911   7.249 -0.5814  0.4950 -1.2926
34478SOL    HW2 6328   4.488   8.024   7.329  0.4764 -1.9623  1.5685
34479SOL     OW 6329  10.326   2.709   7.404  0.2696 -0.1599  0.2301
34479SOL    HW1 6330  10.284   2.677   7.484  0.1533 -1.8339 -0.4714
34479SOL    HW2 6331  10.290   2.655   7.334  1.4900  0.2650 -0.7601
34480SOL     OW 6332   7.437   5.946   1.648 -0.2646 -0.2257  0.0696
34480SOL    HW1 6333   7.438   5.864   1.598 -1.6705 -0.0603 -0.2960
34480SOL    HW2 6334   7.423   6.014   1.582  2.7028  0.5650  0.1300
34481SOL     OW 6335   9.717   2.813   6.321  0.0898  0.2941 -0.0916
34481SOL    HW1 6336   9.752   2.811   6.232 -1.2166  0.4715 -0.6443
34481SOL    HW2 6337   9.754   2.892   6.360 -1.9210  2.1599 -1.6692
34482SOL     OW 6338   8.999   7.853   7.284 -0.4451 -0.6615 -0.7450
34482SOL    HW1 6339   8.972   7.833   7.373 -1.6465  2.6728 -0.1981
34482SOL    HW2 6340   8.921   7.836   7.231 -0.6179 -0.0560 -0.6942
34483SOL     OW 6341   2.372   4.062   4.698 -0.1954 -0.2141 -0.1970
34483SOL    HW1 6342   2.366   4.026   4.610  0.4094  0.1127 -0.3793
34483SOL    HW2 6343   2.357   4.156   4.687 -2.0879 -0.4201  0.3144
34484SOL     OW 6344   6.694  10.500   0.477  0.2241 -0.1979 -0.1389
34484SOL    HW1 6345   6.778  10.546   0.479  0.5703 -0.8481  1.0972
34484SOL    HW2 6346   6.635  10.561   0.433  0.5622  1.6290  1.7778
34485SOL     OW 6347   2.143  10.427   5.389  0.4282  0.4591  0.7021
34485SOL    HW1 6348   2.066  10.370   5.384  0.7600  0.0984 -0.6675
34485SOL    HW2 6349   2.108  10.516   5.380  0.1153  0.3409  0.7325
34486SOL     OW 6350  10.687   0.572   8.714 -0.0247 -0.1647 -0.2163
34486SOL    HW1 6351  10.729   0.515   8.649 -0.3682 -0.6330 -0.0351
34486SOL    HW2 6352  10.758   0.602   8.770  0.0005 -1.5524  0.5521
34487SOL     OW 6353   3.089   4.904  10.026 -0.6525  0.1239  0.4074
34487SOL    HW1 6354   3.028   4.951   9.970 -0.0550 -0.6077 -0.9013
34487SOL    HW2 6355   3.051   4.816  10.033  0.9134 -0.8080 -1.6496
34488SOL     OW 6356   0.897  10.722   4.313  0.2004 -0.2214  0.7203
34488SOL    HW1 6357   0.964  10.661   4.282  0.5847  0.0832  0.9403
34488SOL    HW2 6358   0.874  10.773   4.236 -1.8486 -2.1730 -0.0821
34489SOL     OW 6359   7.913   1.126   9.018 -0.1654  0.4584 -0.5278
34489SOL    HW1 6360   7.931   1.032   9.018  1.4710  0.6928  1.8088
34489SOL    HW2 6361   7.854   1.139   9.092  2.0143  1.5720  1.1282
34490SOL     OW 6362   9.912   5.598   5.731 -0.2831 -0.2813 -0.3077
34490SOL    HW1 6363  10.004   5.624   5.726 -0.2592  0.1660  1.5140
34490SOL    HW2 6364   9.914   5.502   5.723  0.1300 -0.1614 -2.0263
34491SOL     OW 6365  10.160   4.385   6.500  0.5527  0.5209  0.2955
34491SOL    HW1 6366  10.162   4.455   6.565  0.2810 -0.2947  1.2010
34491SOL    HW2 6367  10.077   4.398   6.455  0.0655  0.2390  1.0887
34492SOL     OW 6368   5.682   2.983   0.004 -0.0434  0.3310  0.4238
34492SOL    HW1 6369   5.731   3.061   0.030  0.8372 -0.3766  0.9933
34492SOL    HW2 6370   5.688   2.982  -0.091  1.0414  0.2895  0.4768
34493SOL     OW 6371   1.771   8.913   0.137  0.0469  0.4935  0.3366
34493SOL    HW1 6372   1.702   8.872   0.189  0.1509  0.0889  0.1603
34493SOL    HW2 6373   1.736   8.999   0.113  0.0376  0.7346  1.1653
34494SOL     OW 6374   5.151   2.200   4.487  0.3383  0.2056 -0.2920
34494SOL    HW1 6375   5.155   2.239   4.400 -0.6422 -0.1051 -0.4921
34494SOL    HW2 6376   5.238   2.215   4.525  1.1024 -0.4947 -1.6846
34495SOL     OW 6377   7.043   1.638   9.984  0.3992 -0.5073  0.0448
34495SOL    HW1 6378   6.992   1.558   9.969 -0.3473 -0.2959  1.3406
34495SOL    HW2 6379   6.979   1.701  10.017  0.9123  0.7526 -1.2413
34496SOL     OW 6380   4.674   5.124   1.682 -0.1518  0.7385  0.2201
34496SOL    HW1 6381   4.622   5.054   1.722 -0.1103  0.8365  0.4478
34496SOL    HW2 6382   4.681   5.100   1.590 -0.1509  0.4504  0.2964
34497SOL     OW 6383   1.330   3.185   2.783  0.2934  0.2982  0.1666
34497SOL    HW1 6384   1.295   3.246   2.718  0.6710  2.2632  1.6725
34497SOL    HW2 6385   1.327   3.100   2.741 -1.0156  1.2269 -1.7894
34498SOL     OW 6386   8.372   3.972   8.886 -0.3213  0.1981  0.4429
34498SOL    HW1 6387   8.390   3.923   8.806 -1.3238  0.3915  0.0992
34498SOL    HW2 6388   8.373   4.063   8.859  1.2124  0.3868  1.0232
34499SOL     OW 6389   3.848   7.482   7.338  0.1030  0.9040 -0.0377
34499SOL    HW1 6390   3.903   7.498   7.415 -2.5542  0.1845  2.1924
34499SOL    HW2 6391   3.828   7.570   7.304  1.1664  1.2447  0.1904
34500SOL     OW 6392   0.139   3.262   3.729  0.0542 -0.2705  0.6925
34500SOL    HW1 6393   0.093   3.265   3.646  1.3156  0.1541 -0.0221
34500SOL    HW2 6394   0.202   3.190   3.718  2.7060  2.0005 -0.1275
34501SOL     OW 6395   1.182   4.251   4.093 -0.1110  0.2067  0.2593
34501SOL    HW1 6396   1.254   4.277   4.036  0.8756  1.1731  1.8640
34501SOL    HW2 6397   1.210   4.168   4.131 -0.4659 -0.0999 -0.1408
34502SOL     OW 6398   8.337   0.757   0.709 -0.3814  0.1918 -0.0225
34502SOL    HW1 6399   8.294   0.782   0.627 -1.3915  0.7896  0.6599
34502SOL    HW2 6400   8.430   0.771   0.693 -0.5749  0.3974 -1.0346
34503SOL     OW 6401   9.726   6.727   6.749 -0.3852  0.1932 -0.0379
34503SOL    HW1 6402   9.656   6.678   6.706 -0.1741 -0.1743  0.0401
34503SOL    HW2 6403   9.690   6.815   6.759 -0.6069  0.1637 -0.5522
34504SOL     OW 6404   5.137   6.594   6.611  0.5327 -0.2616 -0.1303
34504SOL    HW1 6405   5.076   6.651   6.657  0.3042 -0.4928 -0.1454
34504SOL    HW2 6406   5.218   6.645   6.605  0.0146  0.4735 -1.0800
34505SOL     OW 6407   0.410   5.009   2.263  0.1931 -0.3202  0.1347
34505SOL    HW1 6408   0.330   5.031   2.216  1.6015 -1.0129 -2.8168
34505SOL    HW2 6409   0.475   5.072   2.231  1.7438 -2.1728 -0.5659
34506SOL     OW 6410   6.515   3.570   7.929 -0.3722  0.0457 -0.7333
34506SOL    HW1 6411   6.540   3.649   7.881 -1.0576  0.9675  0.3725
34506SOL    HW2 6412   6.488   3.602   8.015 -2.1881 -1.2323 -0.7849
34507SOL     OW 6413   5.267   2.225   2.416 -0.0424 -0.1916 -0.0071
34507SOL    HW1 6414   5.338   2.282   2.386 -0.8225 -0.0966 -1.8255
34507SOL    HW2 6415   5.263   2.156   2.350 -0.6278 -1.0901  0.9359
34508SOL     OW 6416   4.105   0.639   1.457  0.3876 -0.0615 -0.1040
34508SOL    HW1 6417   4.136   0.729   1.470  0.3461 -0.1058  0.3053
34508SOL    HW2 6418   4.129   0.593   1.537 -0.8819 -0.0587  0.2929
34509SOL     OW 6419   3.018  10.089  10.550  0.2254  0.0901  0.5401
34509SOL    HW1 6420   3.102  10.059  10.585  0.1926  0.2075  0.7175
34509SOL    HW2 6421   2.953  10.058  10.613  0.3325  2.0804  1.7101
34510SOL     OW 6422   8.599   9.429   0.335  0.3739  0.4693 -0.3296
34510SOL    HW1 6423   8.547   9.479   0.271  2.3198  0.7656 -1.7969
34510SOL    HW2 6424   8.542   9.358   0.363 -1.4513  1.8368 -0.4287
34511SOL     OW 6425   9.275   9.749   3.813 -0.2169  0.3503  0.0995
34511SOL    HW1 6426   9.357   9.700   3.806  0.6521  1.6396  0.8789
34511SOL    HW2 6427   9.286   9.824   3.755 -1.1140  0.2032 -0.2775
34512SOL     OW 6428  10.617   1.282   3.661  0.1625 -0.5986 -0.1844
34512SOL    HW1 6429  10.583   1.362   3.621  0.7369 -0.3740 -0.2269
34512SOL    HW2 6430  10.539   1.228   3.676 -0.1291 -0.4344 -1.0469
34513SOL     OW 6431   7.301   9.436   9.110 -0.4357  0.2167 -0.5602
34513SOL    HW1 6432   7.312   9.531   9.109 -0.4693  0.2372  0.1202
34513SOL    HW2 6433   7.293   9.411   9.018 -0.1686  0.8403 -0.7551
34514SOL     OW 6434  10.730   3.489   1.103 -0.1238 -0.0869  0.0011
34514SOL    HW1 6435  10.776   3.567   1.136 -1.0631  0.3410  0.3387
34514SOL    HW2 6436  10.799   3.436   1.063  0.2421  2.0251 -2.4611
34515SOL     OW 6437   1.842   8.882   1.901 -0.3223 -0.8708 -0.2225
34515SOL    HW1 6438   1.782   8.807   1.898  1.6323 -2.5485  0.5472
34515SOL    HW2 6439   1.928   8.845   1.881  0.6086  1.3260 -0.5546
34516SOL     OW 6440   3.638  10.429   5.187 -0.7672 -0.3190  0.2912
34516SOL    HW1 6441   3.668  10.340   5.164 -2.5874 -0.5672 -1.3637
34516SOL    HW2 6442   3.548  10.417   5.218 -1.5686  1.0537 -1.3346
34517SOL     OW 6443   6.690   8.942   2.032 -0.0426 -0.0779  0.2622
34517SOL    HW1 6444   6.733   8.857   2.046  0.1246  0.1245  1.0614
34517SOL    HW2 6445   6.650   8.962   2.117 -0.8257  0.2340 -0.1749
34518SOL     OW 6446   3.673  10.386   5.941  0.4238 -0.0416  0.1080
34518SOL    HW1 6447   3.686  10.437   5.861 -1.4554 -1.8119 -1.4367
34518SOL    HW2 6448   3.650  10.451   6.007  0.1830  1.3139 -1.2491
34519SOL     OW 6449   8.254   9.770   0.032 -0.3397 -0.2768 -0.5155
34519SOL    HW1 6450   8.254   9.808  -0.056 -2.0921  1.1947  0.0532
34519SOL    HW2 6451   8.284   9.680   0.020  3.3771  0.9548 -2.0509
34520SOL     OW 6452   7.939   1.298   5.112 -0.4100 -0.1014 -0.0798
34520SOL    HW1 6453   7.875   1.363   5.083  0.2063  0.7172  0.3608
34520SOL    HW2 6454   7.908   1.270   5.198  0.0675  0.6331  0.3333
34521SOL     OW 6455   0.314   9.565   1.340 -0.4898 -0.1279 -0.2633
34521SOL    HW1 6456   0.307   9.624   1.416 -0.4914 -0.1052 -0.2814
34521SOL    HW2 6457   0.402   9.581   1.306 -0.4703 -0.1760 -0.2360
34522SOL     OW 6458   0.343   1.901   9.208  0.1609 -0.4404 -0.2970
34522SOL    HW1 6459   0.427   1.920   9.250 -0.8504  0.8177  1.2287
34522SOL    HW2 6460   0.281   1.960   9.249 -1.2353 -0.3455 -2.3898
34523SOL     OW 6461   3.189   5.200   9.498  0.4892  0.3797  0.9784
34523SOL    HW1 6462   3.137   5.120   9.507  1.5924 -0.3910  0.8327
34523SOL    HW2 6463   3.280   5.169   9.500  0.9430  1.4023 -1.2628
34524SOL     OW 6464   4.803   2.055   8.190  0.5968 -0.1280 -0.0500
34524SOL    HW1 6465   4.733   2.025   8.132 -0.2105 -0.6849  1.1617
34524SOL    HW2 6466   4.800   2.150   8.182  0.1261 -0.1708 -0.4955
34525SOL     OW 6467   8.174  10.301   1.670 -0.2423  0.2830  0.1882
34525SOL    HW1 6468   8.090  10.264   1.640 -0.0312 -1.0216  1.1174
34525SOL    HW2 6469   8.149  10.363   1.739 -0.4278 -0.4189  0.7617
34526SOL     OW 6470   0.256   6.744   2.083 -0.4071  0.0222 -0.1633
34526SOL    HW1 6471   0.204   6.685   2.138  1.8389 -3.7016 -1.6706
34526SOL    HW2 6472   0.243   6.712   1.994  0.7534  2.0253 -1.1283
34527SOL     OW 6473   5.095   7.988   8.841  0.4254  0.7767 -0.0547
34527SOL    HW1 6474   5.012   8.031   8.823  0.7105  0.9820 -0.9396
34527SOL    HW2 6475   5.083   7.946   8.926 -0.4612  1.0919 -0.0190
34528SOL     OW 6476   1.410   1.532   0.262 -0.0295  0.0796 -0.3438
34528SOL    HW1 6477   1.503   1.541   0.239  0.3438 -0.1535  0.9908
34528SOL    HW2 6478   1.387   1.443   0.236  0.6915 -0.5718  1.0916
34529SOL     OW 6479   7.447   7.728   0.830  0.3294  0.3797 -0.1468
34529SOL    HW1 6480   7.473   7.804   0.883 -0.3378  1.1228 -0.8599
34529SOL    HW2 6481   7.375   7.688   0.879  0.8781  0.0192  0.3800
34530SOL     OW 6482   7.081  10.292   4.717  0.5365  0.2531 -0.1726
34530SOL    HW1 6483   7.017  10.228   4.685 -0.3019  0.6910  0.5866
34530SOL    HW2 6484   7.050  10.376   4.684  0.8004  0.4479  0.0708
34531SOL     OW 6485   7.487   2.527   0.443  0.1307 -0.1287  0.6078
34531SOL    HW1 6486   7.519   2.450   0.396  0.6495 -0.6111  1.7242
34531SOL    HW2 6487   7.474   2.593   0.374  0.8059 -0.8320 -0.2226
34532SOL     OW 6488   4.410   9.043   8.722 -0.2477 -0.1075  0.0872
34532SOL    HW1 6489   4.469   8.976   8.758 -0.8947  0.2215  1.8660
34532SOL    HW2 6490   4.324   9.001   8.722 -0.4213  0.2504 -0.1621
34533SOL     OW 6491   1.299   2.534   2.752 -0.0089  0.5100 -0.1420
34533SOL    HW1 6492   1.366   2.483   2.705 -0.4027 -1.0277  0.8744
34533SOL    HW2 6493   1.216   2.500   2.718 -0.2844 -0.0617  1.0640
34534SOL     OW 6494   3.516  10.733   9.526 -0.2063 -0.4181  0.4132
34534SOL    HW1 6495   3.534  10.694   9.611 -0.0604  0.1111  0.6281
34534SOL    HW2 6496   3.592  10.789   9.508 -1.7299  2.1622  1.5102
34535SOL     OW 6497  10.097   7.470   9.859  0.0422 -0.2722  0.0269
34535SOL    HW1 6498  10.067   7.464   9.949  2.7406 -0.2101  1.0244
34535SOL    HW2 6499  10.104   7.379   9.829  1.6864 -0.4680  0.8748
34536SOL     OW 6500   6.408   4.220   7.446  0.0396 -0.1704  0.9835
34536SOL    HW1 6501   6.332   4.277   7.456  0.2369  0.6001 -1.2446
34536SOL    HW2 6502   6.464   4.241   7.521 -0.6965  1.2743  1.1655
34537SOL     OW 6503  10.452   2.017   8.644  0.2287  0.5916  0.4398
34537SOL    HW1 6504  10.454   2.023   8.740  1.8622 -2.8491  0.8033
34537SOL    HW2 6505  10.544   2.025   8.618  0.2594 -1.7396 -0.4114
34538SOL     OW 6506   5.052   1.370   1.882  0.6920  0.0348 -0.0072
34538SOL    HW1 6507   5.144   1.395   1.876  1.3601 -1.6275  2.2635
34538SOL    HW2 6508   5.009   1.448   1.917  1.1377  0.9102 -1.3246
34539SOL     OW 6509   2.472   2.258   5.792  0.9116 -0.1852  0.2212
34539SOL    HW1 6510   2.460   2.337   5.739  0.1796  0.2052  0.9451
34539SOL    HW2 6511   2.550   2.277   5.845  0.0513  0.5655  1.2598
34540SOL     OW 6512   6.479   4.154   2.644 -0.2679  0.1217 -0.1351
34540SOL    HW1 6513   6.565   4.135   2.682 -0.6484  0.1616  0.7732
34540SOL    HW2 6514   6.431   4.072   2.653 -0.2253  0.0008 -0.9479
34541SOL     OW 6515   9.456   4.330   4.894  0.2764  0.2887 -0.1195
34541SOL    HW1 6516   9.381   4.364   4.846  1.1964  0.6645 -1.3453
34541SOL    HW2 6517   9.462   4.386   4.972 -1.1830 -0.2792  0.4260
34542SOL     OW 6518   4.719   4.024   9.083  0.0367  0.4860  0.5215
34542SOL    HW1 6519   4.703   3.931   9.099  0.8682 -0.2037 -2.1634
34542SOL    HW2 6520   4.803   4.041   9.125  0.4793 -0.2981 -0.0347
34543SOL     OW 6521   8.144   7.089   6.915 -0.4821  0.1826 -0.0310
34543SOL    HW1 6522   8.096   7.085   6.833 -0.7075 -0.8046  0.1306
34543SOL    HW2 6523   8.092   7.037   6.976 -0.5973  1.3462  0.8930
34544SOL     OW 6524   5.945  10.476   0.659  0.0788 -0.3933  0.2187
34544SOL    HW1 6525   5.921  10.516   0.743 -0.5014 -0.2310 -0.0217
34544SOL    HW2 6526   5.874  10.415   0.640 -0.6714  0.8069 -0.9767
34545SOL     OW 6527   0.659   2.478   4.313 -0.0437  0.2305 -0.1444
34545SOL    HW1 6528   0.631   2.387   4.319  2.1337 -0.4391  0.8928
34545SOL    HW2 6529   0.699   2.497   4.398  0.4346  1.8418 -0.6873
34546SOL     OW 6530   3.141  10.270   9.758  0.0898  0.0696 -0.3446
34546SOL    HW1 6531   3.217  10.322   9.785 -0.6932  0.5641  0.9855
34546SOL    HW2 6532   3.067  10.314   9.799 -0.8721 -0.6935 -1.2263
34547SOL     OW 6533   3.586   3.249   8.490 -0.0838  0.0238 -0.2462
34547SOL    HW1 6534   3.633   3.169   8.468  1.8469  0.7741  0.8636
34547SOL    HW2 6535   3.549   3.279   8.407 -1.5129 -2.3529 -0.5625
34548SOL     OW 6536   4.782   4.699   4.664 -0.1369 -0.0477 -0.4137
34548SOL    HW1 6537   4.798   4.746   4.745 -2.1828  0.0888 -0.0522
34548SOL    HW2 6538   4.752   4.612   4.692  0.2264 -0.3942 -1.0542
34549SOL     OW 6539   8.325   7.918   4.210 -0.3069 -0.4839 -0.2622
34549SOL    HW1 6540   8.345   7.832   4.173 -0.0973 -0.7229  0.3746
34549SOL    HW2 6541   8.242   7.943   4.171  0.0029 -0.6362 -1.0254
34550SOL     OW 6542   5.662   2.513  10.652 -0.4507  0.0121 -0.6573
34550SOL    HW1 6543   5.724   2.571  10.695 -0.1154  0.6003 -1.8998
34550SOL    HW2 6544   5.675   2.428  10.694  0.3820  0.3972 -0.1171
34551SOL     OW 6545   7.096   2.073   4.402  0.4224 -0.0302  0.2818
34551SOL    HW1 6546   7.008   2.040   4.418 -0.2102  0.6619 -1.5544
34551SOL    HW2 6547   7.153   2.012   4.449 -0.9017 -1.6893 -0.1699
34552SOL     OW 6548   7.131   5.524  10.450 -0.6252  0.8054 -0.4009
34552SOL    HW1 6549   7.186   5.594  10.413 -0.2982  1.5746  1.4032
34552SOL    HW2 6550   7.142   5.450  10.390  1.0394  1.4908 -1.0047
34553SOL     OW 6551   0.669   7.722   7.599 -0.3749  0.3440  0.1241
34553SOL    HW1 6552   0.578   7.692   7.606 -0.7975  1.6856  0.6008
34553SOL    HW2 6553   0.662   7.812   7.567  0.8304  0.1856 -0.6138
34554SOL     OW 6554   4.732   8.806   6.515 -0.0907 -0.5525  0.0624
34554SOL    HW1 6555   4.685   8.878   6.473  0.0927 -0.5479 -0.1375
34554SOL    HW2 6556   4.740   8.739   6.447  0.4103 -0.4522  0.0149
34555SOL     OW 6557   9.873   9.290   6.559  0.2239 -0.0490  0.4374
34555SOL    HW1 6558   9.914   9.203   6.555  0.0425 -0.1189  0.0670
34555SOL    HW2 6559   9.939   9.344   6.603  1.4566  0.2264 -1.5965
34556SOL     OW 6560   1.835   4.881   0.119 -0.1028 -0.1327 -0.3372
34556SOL    HW1 6561   1.830   4.787   0.133  0.5168 -0.0430  0.5981
34556SOL    HW2 6562   1.862   4.891   0.028  0.4327 -0.8674 -0.2629
34557SOL     OW 6563   4.141   4.250   4.781 -0.0619  0.5918 -0.2550
34557SOL    HW1 6564   4.103   4.191   4.846 -0.2589 -0.2194 -1.0909
34557SOL    HW2 6565   4.087   4.329   4.787  1.1766  1.3758  1.9864
34558SOL     OW 6566   4.005   1.066   6.443 -0.4249 -0.7648  0.2970
34558SOL    HW1 6567   3.973   1.038   6.357 -0.1900  0.0444 -0.0606
34558SOL    HW2 6568   3.936   1.123   6.477 -0.6128 -1.2448  0.7514
34559SOL     OW 6569   7.771   0.489   7.856 -0.0089  0.2804  0.8172
34559SOL    HW1 6570   7.686   0.511   7.894 -0.5115 -0.8221  0.3656
34559SOL    HW2 6571   7.803   0.416   7.908  0.5146  0.4766  0.7765
34560SOL     OW 6572   8.517   0.721   6.312  0.5705 -0.4625 -0.2046
34560SOL    HW1 6573   8.469   0.769   6.244  1.1099 -0.1247 -0.3484
34560SOL    HW2 6574   8.470   0.742   6.393  0.4642 -0.1352 -0.3462
34561SOL     OW 6575   7.108   9.878   7.166 -0.3639 -0.0217 -0.3771
34561SOL    HW1 6576   7.079   9.792   7.136 -0.3077 -0.9017  1.8640
34561SOL    HW2 6577   7.037   9.938   7.140 -0.7066 -0.8437 -1.3878
34562SOL     OW 6578   1.948   0.336   6.479  0.5838 -0.6228  0.1313
34562SOL    HW1 6579   1.860   0.301   6.464 -0.0730  1.2345 -0.6640
34562SOL    HW2 6580   1.982   0.352   6.391  1.0324  0.2578  0.4601
34563SOL     OW 6581   1.119   7.784  10.761  0.9357  0.3968 -0.0116
34563SOL    HW1 6582   1.184   7.785  10.831  0.5692 -1.8392  0.4363
34563SOL    HW2 6583   1.036   7.800  10.805  1.0184  2.1986 -0.4375
34564SOL     OW 6584   8.398   2.235  10.487 -0.2782  0.1896  0.5635
34564SOL    HW1 6585   8.443   2.266  10.409 -0.1927  2.5728  1.4741
34564SOL    HW2 6586   8.318   2.194  10.454 -0.0717  0.8239 -0.7998
34565SOL     OW 6587   7.813   9.284   2.078 -0.1323 -0.0971  0.0064
34565SOL    HW1 6588   7.750   9.214   2.060 -0.1542 -0.0291 -0.1914
34565SOL    HW2 6589   7.817   9.289   2.173 -4.1917  3.2330  0.2815
34566SOL     OW 6590  10.588   7.300   1.149 -0.0672  0.2916 -0.3378
34566SOL    HW1 6591  10.681   7.319   1.163  0.1978 -1.0328 -0.1287
34566SOL    HW2 6592  10.544   7.384   1.158  1.3146  1.3284 -2.3931
34567SOL     OW 6593   2.586   6.721   0.145 -0.3539 -0.9208  0.1392
34567SOL    HW1 6594   2.599   6.811   0.174  0.1483 -0.6665 -0.8330
34567SOL    HW2 6595   2.531   6.682   0.213 -0.7859  0.1796  0.4479
34568SOL     OW 6596   0.760   3.741  10.300 -0.2775  0.3109 -0.0992
34568SOL    HW1 6597   0.704   3.725  10.224 -0.5498 -2.5742  0.5760
34568SOL    HW2 6598   0.816   3.663  10.305 -0.5560  0.1761  2.8370
34569SOL     OW 6599  10.187   7.328   1.237 -0.2718  0.1891  0.2596
34569SOL    HW1 6600  10.202   7.345   1.144  1.3085  0.6001  0.5642
34569SOL    HW2 6601  10.236   7.397   1.282 -1.3893  0.2665  1.4059
34570SOL     OW 6602   0.550   4.197   5.373 -0.0759 -0.2458  0.5135
34570SOL    HW1 6603   0.470   4.157   5.337 -0.2339 -0.9428  1.6011
34570SOL    HW2 6604   0.519   4.258   5.440  0.0499  2.9923 -2.0934
34571SOL     OW 6605   8.993   7.532   5.637 -0.3587 -0.2699 -0.0628
34571SOL    HW1 6606   9.035   7.516   5.722  1.0193  0.2181 -0.6265
34571SOL    HW2 6607   8.902   7.504   5.650  0.4746 -3.0107  0.7325
34572SOL     OW 6608   6.418   2.201   1.353 -0.5192 -0.5473 -0.0689
34572SOL    HW1 6609   6.474   2.165   1.284  0.1053  0.1619  0.0541
34572SOL    HW2 6610   6.401   2.291   1.326 -0.0496 -0.1799  0.8337
34573SOL     OW 6611   6.642   5.002   4.686  0.1001 -0.0470  0.3745
34573SOL    HW1 6612   6.655   5.079   4.632  1.4517 -0.2043  0.4476
34573SOL    HW2 6613   6.598   4.939   4.629 -2.7546  1.3646  0.8455
34574SOL     OW 6614   9.119  10.434   2.367 -0.1944 -0.5645 -0.0445
34574SOL    HW1 6615   9.130  10.344   2.336  1.0015 -0.6016  0.4369
34574SOL    HW2 6616   9.079  10.480   2.293  0.4140 -1.1949 -0.7852
34575SOL     OW 6617   0.761   0.261   6.722  0.3411 -0.0583  0.8075
34575SOL    HW1 6618   0.833   0.277   6.661  0.2083  1.6025  1.0410
34575SOL    HW2 6619   0.692   0.222   6.667  0.4139  0.9252 -0.0109
34576SOL     OW 6620   6.823   2.461  10.507 -0.0326 -0.1307  0.2513
34576SOL    HW1 6621   6.786   2.535  10.459  1.2991  0.4384  0.0508
34576SOL    HW2 6622   6.864   2.406  10.440 -3.6859 -2.8479 -0.0703
34577SOL     OW 6623   3.353   3.877   0.463  0.2650  0.1140 -0.1577
34577SOL    HW1 6624   3.334   3.919   0.548 -0.5242 -2.3875  0.9952
34577SOL    HW2 6625   3.267   3.860   0.426  0.5908  0.2011 -0.9613
34578SOL     OW 6626   6.083   0.500   6.440 -0.2161  0.1767 -0.0453
34578SOL    HW1 6627   6.100   0.588   6.473 -0.9818 -0.4100  2.1069
34578SOL    HW2 6628   6.170   0.465   6.421  0.5175  0.0709  2.9296
34579SOL     OW 6629   1.795   2.868   6.736  0.3735 -0.3949  0.2886
34579SOL    HW1 6630   1.747   2.798   6.780  0.1952 -1.5654 -1.6489
34579SOL    HW2 6631   1.872   2.825   6.700  0.5736  0.5299 -0.4243
34580SOL     OW 6632   9.501   2.049  10.677  0.9332  0.6436  0.1018
34580SOL    HW1 6633   9.548   2.075  10.756  2.1997  0.0415 -0.4318
34580SOL    HW2 6634   9.563   1.995  10.628  0.2116  1.0889 -1.3639
34581SOL     OW 6635   7.600   0.459   2.507  0.4628 -0.1738  0.3950
34581SOL    HW1 6636   7.622   0.549   2.483  1.8437 -0.2208  1.3841
34581SOL    HW2 6637   7.659   0.405   2.455 -1.1393 -0.6227 -1.0740
34582SOL     OW 6638   2.078   2.681   0.220  0.3013 -0.0481  0.4862
34582SOL    HW1 6639   2.164   2.724   0.226 -0.4580  1.7598 -0.5557
34582SOL    HW2 6640   2.026   2.723   0.289 -0.0614 -0.2967  0.3628
34583SOL     OW 6641   2.347   8.791   8.981 -0.3944  0.4950  0.3978
34583SOL    HW1 6642   2.388   8.733   9.045 -0.8070 -0.6250 -0.3145
34583SOL    HW2 6643   2.291   8.849   9.033  0.5435  0.7268  1.1860
34584SOL     OW 6644   7.371   6.413   6.067 -0.2073  0.1644  0.2539
34584SOL    HW1 6645   7.378   6.504   6.094 -0.8425  0.1437  0.4890
34584SOL    HW2 6646   7.455   6.395   6.024  0.2173  0.6344  0.8706
34585SOL     OW 6647   5.203   0.200   3.471 -0.0029 -0.3483 -0.4259
34585SOL    HW1 6648   5.109   0.206   3.488  0.0013 -1.4179  0.0638
34585SOL    HW2 6649   5.231   0.121   3.517  1.2656  0.3040 -0.0295
34586SOL     OW 6650   8.959   5.340   2.571  0.0325  0.3373  0.5300
34586SOL    HW1 6651   8.870   5.309   2.554 -0.1213  0.6012  0.8507
34586SOL    HW2 6652   8.964   5.425   2.528  1.1830 -1.0625 -2.3645
34587SOL     OW 6653   3.026   5.267  10.494  0.1162 -0.7265  0.2519
34587SOL    HW1 6654   3.029   5.362  10.477  0.4097 -0.7755  0.0177
34587SOL    HW2 6655   3.022   5.227  10.407  1.2784 -0.9633  0.2894
34588SOL     OW 6656   2.860   3.560   3.157 -0.0791  0.6284 -0.3766
34588SOL    HW1 6657   2.926   3.490   3.154  0.7547  1.3665  0.2502
34588SOL    HW2 6658   2.778   3.516   3.133 -0.0278 -1.0977  2.1571
34589SOL     OW 6659   7.625   2.161   4.863  0.1354  0.0403  0.1870
34589SOL    HW1 6660   7.635   2.069   4.837 -2.6293 -0.5982  1.0191
34589SOL    HW2 6661   7.655   2.211   4.787 -1.3253 -1.6205 -1.5887
34590SOL     OW 6662   7.157   6.159   1.771 -0.2632 -0.0822 -0.0673
34590SOL    HW1 6663   7.158   6.143   1.865  3.2202  0.6698  0.1643
34590SOL    HW2 6664   7.067   6.185   1.752 -1.2821 -1.0579  2.8583
34591SOL     OW 6665   1.965   6.104   4.943  0.3235 -1.0155  0.3426
34591SOL    HW1 6666   1.893   6.164   4.963  1.0496  0.4669 -1.2381
34591SOL    HW2 6667   2.032   6.124   5.009  0.9470  0.6699 -0.7436
34592SOL     OW 6668   9.399   1.160   5.974 -0.0576 -0.3534  0.5395
34592SOL    HW1 6669   9.457   1.214   6.026 -1.3322 -0.0950  1.7548
34592SOL    HW2 6670   9.320   1.151   6.027 -0.8334 -1.3427 -0.7088
34593SOL     OW 6671   9.329  10.414   5.458  0.0899 -0.4160  0.3919
34593SOL    HW1 6672   9.282  10.488   5.421  2.3058  1.3348  0.8850
34593SOL    HW2 6673   9.352  10.359   5.383  1.6498  1.3754 -0.5241
34594SOL     OW 6674   0.785   3.625   8.997  0.1334 -0.8893 -0.0662
34594SOL    HW1 6675   0.707   3.572   8.982  0.4947 -1.3619 -0.3250
34594SOL    HW2 6676   0.760   3.713   8.970  0.4049 -1.4811 -2.4803
34595SOL     OW 6677   5.051   7.857   9.363 -0.0457  0.2528  0.1214
34595SOL    HW1 6678   5.002   7.787   9.407 -0.6651 -0.2548 -1.3279
34595SOL    HW2 6679   5.142   7.830   9.370 -0.2713 -0.6261 -0.2979
34596SOL     OW 6680   1.382   7.819   7.608  0.7424 -0.4896 -0.1536
34596SOL    HW1 6681   1.402   7.726   7.615  2.8382 -0.1554 -0.8577
34596SOL    HW2 6682   1.345   7.843   7.693  1.7084 -1.6268  0.6153
34597SOL     OW 6683   2.286   0.994   6.269 -0.4646 -0.0045 -0.3808
34597SOL    HW1 6684   2.330   0.930   6.213 -0.0092  0.2813 -0.3530
34597SOL    HW2 6685   2.299   1.078   6.226  0.2024  0.2672  0.3277
34598SOL     OW 6686   5.264   9.517   8.795 -0.1318  0.0287 -0.4098
34598SOL    HW1 6687   5.171   9.497   8.801 -0.1682  0.5199  0.9646
34598SOL    HW2 6688   5.269   9.612   8.797  0.4190 -0.0019 -0.0911
34599SOL     OW 6689   8.277   5.171   5.989 -0.0196  0.1371 -0.3812
34599SOL    HW1 6690   8.196   5.154   5.941 -1.0716 -1.9700  1.8755
34599SOL    HW2 6691   8.267   5.260   6.023 -1.0621  0.1707 -0.7608
34600SOL     OW 6692  10.424   0.794   1.166 -0.1021  0.0962  0.0749
34600SOL    HW1 6693  10.471   0.711   1.178  1.2193  0.6272 -1.1699
34600SOL    HW2 6694  10.405   0.824   1.255  2.0584 -0.0805  0.6352
34601SOL     OW 6695   7.349   1.648   3.134 -0.7091  0.0046  0.1683
34601SOL    HW1 6696   7.345   1.629   3.227 -1.8440 -1.0494 -0.0749
34601SOL    HW2 6697   7.441   1.639   3.111 -0.4270  0.2461  1.1729
34602SOL     OW 6698   3.332   4.014   9.734  0.0301 -0.0968 -0.3956
34602SOL    HW1 6699   3.424   4.034   9.720  0.3781 -0.4836  1.1441
34602SOL    HW2 6700   3.333   3.943   9.798 -1.3585  1.0797  1.0156
34603SOL     OW 6701   9.054  10.013   5.617  0.4491 -0.1887  0.2621
34603SOL    HW1 6702   9.080  10.069   5.544 -0.1711  0.2333  0.3513
34603SOL    HW2 6703   9.106  10.044   5.691  1.7813 -1.2428 -0.1992
34604SOL     OW 6704   7.136   2.178   7.668 -0.4977  0.1857  0.5165
34604SOL    HW1 6705   7.058   2.126   7.686 -0.6182  0.2860  0.2848
34604SOL    HW2 6706   7.204   2.141   7.725 -0.6953  0.0532  0.6645
34605SOL     OW 6707   5.297   5.030   2.824 -0.3017  0.8248  0.4399
34605SOL    HW1 6708   5.280   5.120   2.795  1.0143  0.9198 -0.0996
34605SOL    HW2 6709   5.360   5.039   2.895  0.2968  0.3016 -0.0155
34606SOL     OW 6710   9.044   4.530   3.992 -0.6421  0.4795  0.2419
34606SOL    HW1 6711   9.047   4.437   3.972 -1.3473 -0.1546  2.7763
34606SOL    HW2 6712   8.989   4.568   3.923 -2.1226 -1.3599  0.3368
34607SOL     OW 6713  10.759   0.520   4.330  0.2815  0.4408 -0.0847
34607SOL    HW1 6714  10.737   0.547   4.241  0.1850 -1.4054 -0.6807
34607SOL    HW2 6715  10.847   0.554   4.345  0.9156 -0.4934 -1.4961
34608SOL     OW 6716   6.806   3.922   5.925  0.3559 -0.0515  0.7074
34608SOL    HW1 6717   6.773   3.988   5.986 -0.9046  0.8086 -0.8138
34608SOL    HW2 6718   6.740   3.852   5.927  0.2159  0.0597  0.2395
34609SOL     OW 6719   2.998   8.054   1.128 -0.0358 -0.5182 -0.1820
34609SOL    HW1 6720   3.025   8.136   1.169  0.7899 -1.8930  2.2169
34609SOL    HW2 6721   2.912   8.073   1.090 -1.3486  0.6751  3.0689
34610SOL     OW 6722   0.737   8.122   8.422 -0.0122  0.3231 -0.1527
34610SOL    HW1 6723   0.753   8.081   8.337 -1.2045 -1.3718  0.3765
34610SOL    HW2 6724   0.692   8.054   8.473  0.5625  1.3229  1.7999
34611SOL     OW 6725   0.468   6.590   7.026  0.0364  0.1363  0.1623
34611SOL    HW1 6726   0.384   6.548   7.012  0.3285 -0.4396  0.0969
34611SOL    HW2 6727   0.458   6.677   6.988 -0.8027  0.3830  0.9287
34612SOL     OW 6728   5.063   3.618   2.723  0.0304  0.0039 -0.2556
34612SOL    HW1 6729   5.029   3.568   2.797 -1.0315  0.6561 -0.2987
34612SOL    HW2 6730   5.015   3.585   2.647  1.7718 -1.3443 -0.8672
34613SOL     OW 6731   9.547   5.233   3.113  0.0493  0.3893 -0.5240
34613SOL    HW1 6732   9.624   5.278   3.078 -0.2999  0.3351 -1.3663
34613SOL    HW2 6733   9.474   5.291   3.091 -0.3136 -0.2265 -0.9580
34614SOL     OW 6734   1.033   1.141   0.459 -0.2297  0.8008 -0.0579
34614SOL    HW1 6735   1.090   1.105   0.391 -0.6633 -0.3686  0.1637
34614SOL    HW2 6736   1.053   1.234   0.461 -0.8917  1.0730 -2.4640
34615SOL     OW 6737   5.115   6.424  10.784  0.3042 -0.5627 -0.2208
34615SOL    HW1 6738   5.121   6.335  10.818  1.0662  0.0722  1.4535
34615SOL    HW2 6739   5.195   6.437  10.734  1.3037 -0.1437  1.3990
34616SOL     OW 6740   4.095   4.516   6.223  0.3374  0.0429 -0.0641
34616SOL    HW1 6741   4.131   4.599   6.191  0.3849  0.4853  1.0795
34616SOL    HW2 6742   4.009   4.510   6.181 -0.4278  1.5630  1.1661
34617SOL     OW 6743   0.889   6.606  10.225  0.1049  0.2210  0.8543
34617SOL    HW1 6744   0.904   6.516  10.255  0.7013 -0.8474 -2.2661
34617SOL    HW2 6745   0.812   6.601  10.170 -0.2602  1.8096  1.1700
34618SOL     OW 6746   9.934   5.109   0.562 -0.0117 -0.5791 -0.1216
34618SOL    HW1 6747   9.975   5.107   0.649 -1.1895 -0.1896  0.4604
34618SOL    HW2 6748   9.922   5.202   0.543  0.9897 -0.6245 -1.0913
34619SOL     OW 6749   2.883   2.775  10.290 -0.0753 -0.2998 -0.8421
34619SOL    HW1 6750   2.854   2.862  10.260 -0.6374 -0.1245  0.1527
34619SOL    HW2 6751   2.805   2.738  10.331  0.9832  0.0679  1.6977
34620SOL     OW 6752   5.403   1.791   0.589 -0.7742  0.0037  0.1560
34620SOL    HW1 6753   5.376   1.703   0.614  1.2712 -0.9797 -0.8655
34620SOL    HW2 6754   5.378   1.800   0.497 -2.7675  1.3054  0.7543
34621SOL     OW 6755   2.035   7.868   6.865 -1.0349 -0.1929 -0.6462
34621SOL    HW1 6756   2.041   7.829   6.778 -0.8488  0.6372 -1.0178
34621SOL    HW2 6757   2.116   7.842   6.909  0.2774  1.7661 -1.7532
34622SOL     OW 6758   7.405   5.425   7.769 -0.0919 -0.2703  0.4352
34622SOL    HW1 6759   7.331   5.464   7.722  1.5473  2.2146 -0.3029
34622SOL    HW2 6760   7.393   5.453   7.860  0.5433  1.2724  0.0836
34623SOL     OW 6761   1.782   4.244   7.629  0.2817 -0.5803 -0.0715
34623SOL    HW1 6762   1.827   4.167   7.663 -2.2014 -2.7363 -1.3604
34623SOL    HW2 6763   1.773   4.227   7.535 -2.4677  0.0977  0.0015
34624SOL     OW 6764   6.517   0.040  10.250  0.5760  0.5073 -0.5251
34624SOL    HW1 6765   6.501   0.068  10.159 -1.0916 -0.2055 -0.4875
34624SOL    HW2 6766   6.476  -0.047  10.255 -1.1020  1.3434  1.4199
34625SOL     OW 6767   3.508   3.608   0.450  0.2413  0.1890 -0.2922
34625SOL    HW1 6768   3.433   3.659   0.418 -0.8576 -2.5883 -2.5928
34625SOL    HW2 6769   3.545   3.568   0.372  3.3986  0.3634  0.9557
34626SOL     OW 6770   2.634   4.147   4.423  0.3439  0.1245 -0.1614
34626SOL    HW1 6771   2.685   4.066   4.419 -0.1189 -0.1238 -2.5278
34626SOL    HW2 6772   2.672   4.203   4.356 -0.5986  1.0938  0.0846
34627SOL     OW 6773   7.908   7.455   8.715 -1.1030  0.1166  0.1246
34627SOL    HW1 6774   7.896   7.411   8.631 -0.6325 -0.1155  0.1748
34627SOL    HW2 6775   7.944   7.541   8.692  1.3568 -0.8213  0.1794
34628SOL     OW 6776   2.049   5.714   6.249  0.3075  0.5258 -0.0186
34628SOL    HW1 6777   2.003   5.634   6.222  0.9388 -0.6007  2.0348
34628SOL    HW2 6778   2.091   5.746   6.169  0.0671 -1.2175 -0.8887
34629SOL     OW 6779   4.534   6.935   5.670 -0.3530 -0.4427  0.0757
34629SOL    HW1 6780   4.539   6.927   5.575 -0.5344  0.6640 -0.0410
34629SOL    HW2 6781   4.461   6.879   5.695 -0.8178 -0.1227 -0.5384
34630SOL     OW 6782   6.295   9.880  10.776 -0.0311 -0.1327  0.2913
34630SOL    HW1 6783   6.226   9.813  10.783 -0.5951  0.5484  1.5251
34630SOL    HW2 6784   6.364   9.849  10.835 -0.2674  0.3281  0.8183
34631SOL     OW 6785   0.757   3.142   8.509 -0.1545  0.3810 -0.1850
34631SOL    HW1 6786   0.730   3.223   8.552 -1.6932 -0.3229  0.2615
34631SOL    HW2 6787   0.766   3.166   8.417  0.2047  1.2215  0.0515
34632SOL     OW 6788   8.994  10.468   9.089  0.1119 -0.4271 -0.1224
34632SOL    HW1 6789   9.025  10.513   9.010  1.3183  1.6837  1.4452
34632SOL    HW2 6790   8.938  10.533   9.132  1.7684 -0.3823  2.1409
34633SOL     OW 6791   7.960   6.977   8.444 -0.2606  1.1072  0.3171
34633SOL    HW1 6792   7.880   6.925   8.444 -0.4220  1.3266 -0.7974
34633SOL    HW2 6793   7.996   6.966   8.355  1.3075  0.4653  0.9907
34634SOL     OW 6794   7.717   9.396   5.919  0.0206 -0.3572  0.4895
34634SOL    HW1 6795   7.746   9.310   5.949  0.4403 -0.0671  0.9415
34634SOL    HW2 6796   7.706   9.447   5.999 -1.5275 -0.3763  0.3111
34635SOL     OW 6797   1.114  10.233   3.935 -0.4249 -0.1776 -0.6054
34635SOL    HW1 6798   1.110  10.143   3.969 -0.0319 -0.5378 -1.4746
34635SOL    HW2 6799   1.049  10.281   3.987  1.3699 -0.2495  1.8900
34636SOL     OW 6800  10.705   3.192   7.886 -0.2558  0.1810 -0.3239
34636SOL    HW1 6801  10.628   3.249   7.884 -1.6142 -1.5869 -0.5527
34636SOL    HW2 6802  10.772   3.244   7.932 -1.6138  1.6968  0.0395
34637SOL     OW 6803   4.841   7.861   3.969 -0.3786 -0.4069  0.4555
34637SOL    HW1 6804   4.786   7.849   4.047  0.1211  1.5420  1.1701
34637SOL    HW2 6805   4.924   7.820   3.992 -0.7548 -1.2889  0.2837
34638SOL     OW 6806  10.636  10.523   2.671  0.0114 -0.2992 -0.3481
34638SOL    HW1 6807  10.608  10.596   2.727  1.5582 -0.0929  0.1949
34638SOL    HW2 6808  10.567  10.517   2.605  0.8010  3.0733 -1.7091
34639SOL     OW 6809   2.493   3.960   2.338 -0.3145 -0.2665  0.3023
34639SOL    HW1 6810   2.403   3.973   2.308 -0.4676 -1.5284  0.1591
34639SOL    HW2 6811   2.501   3.865   2.348  0.3942 -0.0426  2.2228
34640SOL     OW 6812   5.207   5.030   9.581  0.3609 -0.1615  0.4131
34640SOL    HW1 6813   5.130   5.006   9.529 -0.4210 -0.5113  1.6717
34640SOL    HW2 6814   5.235   5.114   9.545 -1.3723  0.5826  0.6792
34641SOL     OW 6815   0.709   0.853   3.782 -0.6073  0.8555  0.5767
34641SOL    HW1 6816   0.756   0.793   3.840 -0.6673  0.3129  0.0727
34641SOL    HW2 6817   0.720   0.816   3.694 -1.3904  1.0939  0.3640
34642SOL     OW 6818   1.704   2.477   8.220  0.2490  0.0794 -0.1258
34642SOL    HW1 6819   1.638   2.503   8.156  1.6116  0.6900 -1.3263
34642SOL    HW2 6820   1.675   2.517   8.302 -0.9331  0.2076 -0.5819
34643SOL     OW 6821   4.613   5.959   4.745 -0.2887  0.5665  0.0250
34643SOL    HW1 6822   4.599   5.987   4.655 -1.6235  3.0042  0.8815
34643SOL    HW2 6823   4.674   6.023   4.781 -0.5212  0.2113  1.0951
34644SOL     OW 6824   9.956   0.000   5.334 -0.1774  0.0623  0.9154
34644SOL    HW1 6825  10.011   0.012   5.411  0.0022 -1.3757  1.0385
34644SOL    HW2 6826   9.870   0.032   5.360  0.0349  0.1606  1.5028
34645SOL     OW 6827   7.243   7.907   7.908 -0.3198 -0.3213  0.0451
34645SOL    HW1 6828   7.288   7.893   7.824 -0.9544  0.5966 -0.4714
34645SOL    HW2 6829   7.225   7.819   7.940  0.1469 -0.6903 -0.6673
34646SOL     OW 6830   4.164   8.610   3.817  0.4349 -0.2888  0.0257
34646SOL    HW1 6831   4.236   8.652   3.771 -0.1899 -0.0184 -0.7294
34646SOL    HW2 6832   4.085   8.648   3.779 -0.1105 -0.0195  1.3523
34647SOL     OW 6833   1.436   0.444   6.073 -0.9325 -0.0032  0.8738
34647SOL    HW1 6834   1.355   0.490   6.094 -1.1993  0.4072 -0.8373
34647SOL    HW2 6835   1.416   0.396   5.992  0.9545  1.4834 -0.5983
34648SOL     OW 6836   7.048   2.455  10.683  0.9154  0.7155 -0.8150
34648SOL    HW1 6837   6.977   2.465  10.619  1.0265  1.7446 -0.7991
34648SOL    HW2 6838   7.124   2.431  10.630  0.9605  1.3657 -1.0571
34649SOL     OW 6839   1.518   5.338  10.793 -0.0764 -0.5222 -0.1408
34649SOL    HW1 6840   1.450   5.360  10.857 -0.7581 -0.2598 -0.9331
34649SOL    HW2 6841   1.475   5.349  10.708  0.5461 -1.6913 -0.6364
34650SOL     OW 6842   5.583  10.395   3.142 -0.0694 -0.1360  0.2551
34650SOL    HW1 6843   5.615  10.484   3.162 -1.5680  0.7574 -1.0782
34650SOL    HW2 6844   5.552  10.362   3.226 -1.9259  1.6912  0.3911
34651SOL     OW 6845  10.474   2.260   7.224  0.2860 -0.4290 -0.3187
34651SOL    HW1 6846  10.422   2.206   7.283 -0.1352  0.0005 -0.2863
34651SOL    HW2 6847  10.506   2.332   7.279 -0.4663  0.2102 -0.6925
34652SOL     OW 6848   4.183   9.386   6.701  0.1318  0.5891 -0.2415
34652SOL    HW1 6849   4.134   9.405   6.781 -0.5750 -1.3762 -0.1681
34652SOL    HW2 6850   4.118   9.387   6.631  0.3242 -0.1152 -0.4343
34653SOL     OW 6851   2.383   2.676   3.424 -0.5190  0.0572  0.2831
34653SOL    HW1 6852   2.384   2.590   3.382 -0.0413 -1.1199  2.5378
34653SOL    HW2 6853   2.425   2.662   3.508 -0.0861  2.6190  0.5792
34654SOL     OW 6854   9.514  10.543  10.361 -0.2946  0.5615 -0.5761
34654SOL    HW1 6855   9.518  10.535  10.456  0.2578  0.8936 -0.5685
34654SOL    HW2 6856   9.556  10.463  10.329  0.6794  1.0459 -0.5287
34655SOL     OW 6857   7.724   7.990   3.074  0.2413 -0.2922  0.2458
34655SOL    HW1 6858   7.747   7.974   3.165  1.6272  0.9536  0.1596
34655SOL    HW2 6859   7.778   8.065   3.048 -1.2292  0.3514 -1.1584
34656SOL     OW 6860   0.282   6.154   6.091  0.4490  0.0740  0.3245
34656SOL    HW1 6861   0.230   6.226   6.053  1.7544  0.9374  0.1129
34656SOL    HW2 6862   0.373   6.184   6.084  0.8291  0.3597  4.2597
34657SOL     OW 6863   3.156   7.879   8.936 -0.1197  0.2674  0.4225
34657SOL    HW1 6864   3.151   7.869   8.841 -0.5504  0.3000  0.4413
34657SOL    HW2 6865   3.115   7.964   8.954  0.1435  0.3559  0.6192
34658SOL     OW 6866   8.694   3.770   8.615  0.2082  0.4738 -0.4836
34658SOL    HW1 6867   8.782   3.747   8.585  0.4801  0.8673 -0.0039
34658SOL    HW2 6868   8.673   3.851   8.568  0.1227  0.4105 -0.5556
34659SOL     OW 6869   4.311   2.139   4.443  0.0400  0.2480 -0.5446
34659SOL    HW1 6870   4.313   2.098   4.356  0.5922 -0.1316 -0.3606
34659SOL    HW2 6871   4.389   2.195   4.444 -0.1024  0.4433 -0.3819
34660SOL     OW 6872  10.703   4.279   9.475 -0.6023 -0.1216 -0.0382
34660SOL    HW1 6873  10.763   4.206   9.459 -0.7250 -0.1963 -0.1626
34660SOL    HW2 6874  10.658   4.255   9.556 -0.8945 -0.3543 -0.2655
34661SOL     OW 6875   8.430   7.010   1.326 -0.3120 -0.1111  0.0663
34661SOL    HW1 6876   8.348   7.021   1.374 -0.4854 -4.5865  1.2432
34661SOL    HW2 6877   8.497   7.007   1.395  0.1740 -1.0950 -0.4284
34662SOL     OW 6878   0.413   0.356   8.989 -0.5066 -0.2572  0.1224
34662SOL    HW1 6879   0.473   0.361   8.915 -1.5484 -0.0419 -0.7350
34662SOL    HW2 6880   0.381   0.265   8.987 -2.6123  0.4324 -1.4359
34663SOL     OW 6881   0.038   0.040   7.495 -0.2738  0.0832 -0.1616
34663SOL    HW1 6882   0.032   0.136   7.494  1.2993  0.2038 -1.3894
34663SOL    HW2 6883  -0.030   0.012   7.434 -0.0024  0.4876 -0.6633
34664SOL     OW 6884   6.076   8.226   2.246  0.3353  0.0133 -0.1805
34664SOL    HW1 6885   6.054   8.153   2.188 -0.7914  0.1619  0.0280
34664SOL    HW2 6886   6.081   8.187   2.333  0.5899  0.0324 -0.1885
34665SOL     OW 6887   9.627   6.579   4.176 -0.1536 -0.5550  0.1390
34665SOL    HW1 6888   9.669   6.660   4.147 -1.5228  0.4432  0.8249
34665SOL    HW2 6889   9.696   6.532   4.223  0.7483  0.0537 -0.5488
34666SOL     OW 6890   3.352   7.428   9.457 -0.3190 -0.4243  0.1268
34666SOL    HW1 6891   3.442   7.407   9.432  0.2658 -1.6215  2.8007
34666SOL    HW2 6892   3.299   7.403   9.381  1.3604 -2.4472 -0.4678
34667SOL     OW 6893   6.139   7.016  10.209 -0.1782 -0.4138  0.1214
34667SOL    HW1 6894   6.056   7.056  10.180 -0.3942 -0.1812  1.0378
34667SOL    HW2 6895   6.112   6.937  10.256 -0.0932  1.1056  2.8994
34668SOL     OW 6896  10.788   8.492   2.536 -0.1603  0.0297 -0.3378
34668SOL    HW1 6897  10.860   8.466   2.595 -1.1164 -0.2256  0.7568
34668SOL    HW2 6898  10.830   8.547   2.470  1.1205 -0.4858  0.0188
34669SOL     OW 6899   1.991   7.019   1.129 -0.0864  0.1215  0.2383
34669SOL    HW1 6900   1.974   7.077   1.055 -1.1056  0.6156  0.8413
34669SOL    HW2 6901   2.003   6.933   1.089 -1.5893  0.1894 -0.4506
34670SOL     OW 6902   1.933   5.891  10.610  0.1237 -1.2099  0.5082
34670SOL    HW1 6903   1.938   5.796  10.594 -1.2035 -1.7552  2.8584
34670SOL    HW2 6904   2.016   5.912  10.654  1.2884 -0.8304 -1.7587
34671SOL     OW 6905   6.333   0.050   0.459  0.9061 -0.2750 -0.3073
34671SOL    HW1 6906   6.251   0.031   0.413  1.3995 -0.4494 -1.1418
34671SOL    HW2 6907   6.329  -0.002   0.539  0.3061 -0.4614 -0.4566
34672SOL     OW 6908   9.972   3.949   0.513 -0.1201  0.5250  0.8483
34672SOL    HW1 6909   9.889   3.920   0.551  0.4113 -3.8818 -0.7299
34672SOL    HW2 6910  10.032   3.951   0.588 -1.0913  1.4312  1.6360
34673SOL     OW 6911   7.033   5.694   2.515  0.4668  1.1010  0.5635
34673SOL    HW1 6912   6.997   5.777   2.545  0.6847  1.5401 -0.3609
34673SOL    HW2 6913   6.956   5.644   2.485  0.2666  0.7160  1.6868
34674SOL     OW 6914  10.122   9.170   1.162 -0.2316  0.1040 -0.4732
34674SOL    HW1 6915  10.168   9.216   1.232  0.9964 -2.3502  0.4628
34674SOL    HW2 6916  10.030   9.191   1.176  0.2538  2.2702 -0.1795
34675SOL     OW 6917  10.358   6.049   5.544 -0.3561  0.0147  0.1890
34675SOL    HW1 6918  10.286   6.093   5.588 -1.3605 -1.6782  0.3056
34675SOL    HW2 6919  10.419   6.026   5.614  1.3311  3.0242 -0.0631
34676SOL     OW 6920   4.122   5.267   8.175 -0.3744  0.0860  0.1000
34676SOL    HW1 6921   4.058   5.214   8.128  0.4829 -0.7232 -0.1892
34676SOL    HW2 6922   4.173   5.309   8.106  0.3260 -0.4155  0.3026
34677SOL     OW 6923   7.975   3.747   3.188  0.2428  0.4445 -0.4407
34677SOL    HW1 6924   7.986   3.652   3.180  0.8059  0.5952 -1.8225
34677SOL    HW2 6925   7.918   3.759   3.264  0.8386 -0.9547  0.2544
34678SOL     OW 6926   2.542   0.268   5.132  0.0974 -0.7416 -0.9811
34678SOL    HW1 6927   2.513   0.183   5.163 -0.9116  0.2768  1.1024
34678SOL    HW2 6928   2.637   0.259   5.121  0.1697 -1.8304  0.3297
34679SOL     OW 6929   8.527   8.820   8.634  0.0214  1.0139  0.7748
34679SOL    HW1 6930   8.477   8.860   8.563  1.5401  1.4711 -0.0803
34679SOL    HW2 6931   8.460   8.780   8.690 -1.3859  2.6857  0.3961
34680SOL     OW 6932   6.441   1.751   0.764  0.4250  0.1604  0.1636
34680SOL    HW1 6933   6.405   1.716   0.846 -0.3210  0.0886 -0.1878
34680SOL    HW2 6934   6.407   1.693   0.696  1.2982  0.0278 -0.1784
34681SOL     OW 6935   0.995   6.256   5.318  0.9017 -0.3209 -0.1460
34681SOL    HW1 6936   1.084   6.252   5.352  0.5119 -0.8913  0.8554
34681SOL    HW2 6937   0.940   6.225   5.390 -0.3053  1.8225 -0.0617
34682SOL     OW 6938   6.461   4.763   4.704 -0.0758  0.3362 -0.1313
34682SOL    HW1 6939   6.539   4.738   4.755  0.4783 -0.4324 -1.3040
34682SOL    HW2 6940   6.408   4.683   4.703 -0.8188  0.8083  0.5115
34683SOL     OW 6941   9.292   9.070   7.221  0.1791 -0.2207 -0.0553
34683SOL    HW1 6942   9.368   9.073   7.162  0.6300 -0.8149  0.4879
34683SOL    HW2 6943   9.222   9.032   7.167 -0.7167  3.2008 -1.5978
34684SOL     OW 6944   6.670   0.014   5.386 -0.2486  1.1001  0.2838
34684SOL    HW1 6945   6.600  -0.051   5.392 -0.0018  0.6606 -1.2369
34684SOL    HW2 6946   6.668   0.059   5.471 -2.3578  1.0831  0.3065
34685SOL     OW 6947   4.579   5.583   0.080  0.4641 -0.0829 -0.0587
34685SOL    HW1 6948   4.503   5.524   0.085  1.4094 -1.5436 -1.7185
34685SOL    HW2 6949   4.653   5.525   0.062  1.8741  1.3931  0.6872
34686SOL     OW 6950   0.095   6.313   2.847  0.2988  0.0319  0.0392
34686SOL    HW1 6951   0.174   6.275   2.884  1.3341  1.8579 -0.1672
34686SOL    HW2 6952   0.127   6.370   2.777 -1.3144 -0.2173 -0.9527
34687SOL     OW 6953   1.511   0.696   7.697  0.8044 -0.1437  0.6163
34687SOL    HW1 6954   1.599   0.725   7.674  1.3827 -2.0652  0.1790
34687SOL    HW2 6955   1.522   0.604   7.722 -1.0387 -0.3567  0.7849
34688SOL     OW 6956   1.383  10.232   4.087 -0.9047 -0.3550 -0.0762
34688SOL    HW1 6957   1.333  10.153   4.105 -1.1065 -0.5590 -1.4041
34688SOL    HW2 6958   1.356  10.257   3.998 -1.1625  1.4394  0.4666
34689SOL     OW 6959   2.659   3.759  10.257  0.6524 -0.4744  0.3710
34689SOL    HW1 6960   2.640   3.761  10.351 -0.6050 -0.4964  0.1455
34689SOL    HW2 6961   2.665   3.851  10.231 -1.7228 -0.3574  0.0119
34690SOL     OW 6962   5.246   2.839   2.213 -0.3328 -0.3477 -0.5408
34690SOL    HW1 6963   5.264   2.749   2.241 -0.4094 -0.2003 -0.0096
34690SOL    HW2 6964   5.325   2.865   2.165  0.0566 -0.3968  0.0588
34691SOL     OW 6965   6.673   7.763   5.434 -0.1585  0.0481  0.7683
34691SOL    HW1 6966   6.613   7.702   5.478  1.4791 -2.9744 -0.8859
34691SOL    HW2 6967   6.636   7.849   5.453 -4.3316 -1.5094  0.8895
34692SOL     OW 6968   5.329   6.765   8.504  0.0031  0.8384  0.0119
34692SOL    HW1 6969   5.263   6.764   8.573 -0.3975 -1.5637 -0.2983
34692SOL    HW2 6970   5.297   6.830   8.441 -2.1107 -0.2220 -0.0990
34693SOL     OW 6971   4.291   4.559   1.305  0.0363 -0.1165 -0.0447
34693SOL    HW1 6972   4.359   4.519   1.250  0.6591 -0.7372  1.1566
34693SOL    HW2 6973   4.330   4.566   1.392 -1.6180 -1.0288  0.8255
34694SOL     OW 6974   6.334   5.405   5.794 -0.3186 -0.5455 -0.0566
34694SOL    HW1 6975   6.254   5.379   5.840 -0.4054  1.4110  0.9925
34694SOL    HW2 6976   6.302   5.446   5.714 -0.2646 -1.5447 -0.6046
34695SOL     OW 6977   7.952   0.402   4.628 -0.3979 -0.4470  0.0396
34695SOL    HW1 6978   7.979   0.327   4.574 -1.4194 -0.9314  0.1595
34695SOL    HW2 6979   7.866   0.376   4.662 -0.3054  0.3597  0.9235
34696SOL     OW 6980  10.108   5.395   9.484  0.0323 -0.2882  0.3928
34696SOL    HW1 6981  10.083   5.303   9.482  1.7284 -0.8971  2.9760
34696SOL    HW2 6982  10.065   5.431   9.562 -0.9681  1.2790 -0.8101
34697SOL     OW 6983   5.838   3.644   3.456 -0.1740  0.0259 -0.3602
34697SOL    HW1 6984   5.828   3.602   3.541  0.9964 -1.5201 -0.9440
34697SOL    HW2 6985   5.757   3.694   3.444 -0.6239 -0.2364  1.3628
34698SOL     OW 6986   7.642   5.017   7.121  0.6386  0.3862  0.2042
34698SOL    HW1 6987   7.653   5.052   7.209  1.4025  0.4325  0.0969
34698SOL    HW2 6988   7.616   5.092   7.068 -1.2660  0.0945  0.6456
34699SOL     OW 6989   3.003   8.094   9.601  0.0734 -0.0133 -0.5748
34699SOL    HW1 6990   3.048   8.011   9.615  1.3652  0.6679 -0.4985
34699SOL    HW2 6991   3.002   8.106   9.506 -1.1631 -0.6444 -0.6655
34700SOL     OW 6992   4.513   8.915   8.326 -0.2436 -0.0365  0.3493
34700SOL    HW1 6993   4.475   8.839   8.282  0.5267  0.7280 -1.7579
34700SOL    HW2 6994   4.606   8.894   8.335  0.2004  1.0671 -1.2908
34701SOL     OW 6995   7.699  10.122   9.517  0.4935 -0.2512  0.3763
34701SOL    HW1 6996   7.737  10.190   9.461  0.6438 -0.1348  0.6183
34701SOL    HW2 6997   7.630  10.083   9.463  1.0138 -0.5286 -0.0915
34702SOL     OW 6998   8.834   4.882  10.751 -0.5257 -0.3108  0.2320
34702SOL    HW1 6999   8.883   4.801  10.736 -0.2078  0.1235 -1.2309
34702SOL    HW2 7000   8.876   4.947  10.695 -2.3286  0.2606 -0.5331
34703SOL     OW 7001   5.206   3.211   3.131  0.3886 -0.7055  0.1921
34703SOL    HW1 7002   5.119   3.178   3.154 -0.0960 -0.1515 -0.8122
34703SOL    HW2 7003   5.263   3.134   3.137 -0.4710 -1.4355 -0.7544
34704SOL     OW 7004   7.628   1.121   8.608  0.4799  1.1405  0.1757
34704SOL    HW1 7005   7.719   1.121   8.639  0.2420  0.3858  0.9148
34704SOL    HW2 7006   7.581   1.175   8.671  0.8036  3.6152 -1.5551
34705SOL     OW 7007   8.591   0.169   5.640 -0.3350 -0.6145  0.3554
34705SOL    HW1 7008   8.536   0.155   5.563  0.7261  0.7233 -0.6881
34705SOL    HW2 7009   8.530   0.169   5.713 -1.2877 -2.5890 -0.3872
34706SOL     OW 7010   4.005   5.069   1.203  0.2968  0.1220 -0.5387
34706SOL    HW1 7011   4.036   5.009   1.271 -2.3082  1.7965  2.4158
34706SOL    HW2 7012   4.085   5.102   1.162  2.1417 -0.1822  2.5118
34707SOL     OW 7013   6.122   8.775   3.642  0.1735  0.0020  0.0857
34707SOL    HW1 7014   6.046   8.727   3.674  0.2479 -0.9074 -1.0197
34707SOL    HW2 7015   6.196   8.718   3.663  0.5124  0.6731  0.7495
34708SOL     OW 7016  10.767   3.220   8.656 -0.6575  0.0505  0.0591
34708SOL    HW1 7017  10.734   3.310   8.657  0.2814  0.4615 -1.6205
34708SOL    HW2 7018  10.701   3.171   8.606 -0.9709 -0.1243  0.6340
34709SOL     OW 7019   3.202   9.862   8.314 -0.0568  0.2047  0.9770
34709SOL    HW1 7020   3.288   9.835   8.347  0.5358 -0.0387 -0.6856
34709SOL    HW2 7021   3.141   9.803   8.357  1.0088 -2.4336 -0.8752
34710SOL     OW 7022   9.228   5.730  10.595  0.5440 -0.5920 -0.1213
34710SOL    HW1 7023   9.133   5.739  10.584  0.6932  1.2004 -0.1921
34710SOL    HW2 7024   9.240   5.715  10.688  0.1405 -2.0360 -0.2746
34711SOL     OW 7025   0.484   1.436   9.651  0.0159 -0.5152 -0.3018
34711SOL    HW1 7026   0.435   1.399   9.578 -0.3078 -0.4037 -0.1453
34711SOL    HW2 7027   0.425   1.426   9.726 -0.1089  0.3588 -0.2670
34712SOL     OW 7028   0.400   6.501   1.333 -0.2026  0.4172 -0.1153
34712SOL    HW1 7029   0.324   6.506   1.392  0.0980  2.4887  0.1882
34712SOL    HW2 7030   0.428   6.592   1.324  2.6610 -0.3311  0.3122
34713SOL     OW 7031   6.572   4.996   5.366 -0.0769 -0.4556 -0.8858
34713SOL    HW1 7032   6.664   4.972   5.350  0.8062 -0.3212  2.9695
34713SOL    HW2 7033   6.574   5.091   5.375 -0.3713 -0.5395  0.1616
34714SOL     OW 7034   6.445   0.687   0.843  0.2984  0.3274  0.1027
34714SOL    HW1 7035   6.434   0.776   0.877  0.3148  0.1174  0.6591
34714SOL    HW2 7036   6.440   0.631   0.920 -0.2995 -0.2068 -0.3108
34715SOL     OW 7037   6.492  10.514   9.389 -0.5493  0.0158 -0.0510
34715SOL    HW1 7038   6.554  10.442   9.398  1.5676  1.6927 -0.3296
34715SOL    HW2 7039   6.524  10.564   9.314 -0.8352  2.2547  1.2369
34716SOL     OW 7040   7.963   9.052   2.911 -0.8600 -0.3697  0.0162
34716SOL    HW1 7041   7.951   8.958   2.923  1.1009 -0.7133 -0.3745
34716SOL    HW2 7042   7.954   9.089   2.999 -1.1211 -0.9826  0.2525
34717SOL     OW 7043   2.789   9.160   1.014  0.3405  0.0329  0.1482
34717SOL    HW1 7044   2.819   9.076   0.982 -1.1992 -0.4131 -0.2430
34717SOL    HW2 7045   2.718   9.138   1.075  0.0617  1.0260  0.2004
34718SOL     OW 7046   8.788   7.768   6.942 -0.2634  0.8279 -0.1400
34718SOL    HW1 7047   8.764   7.807   7.026 -1.2355 -0.7595  0.3784
34718SOL    HW2 7048   8.739   7.817   6.877  0.3676  1.9674  0.2164
34719SOL     OW 7049   1.571   2.482   5.818  0.0947 -0.1671  0.1288
34719SOL    HW1 7050   1.578   2.524   5.904  0.6373 -0.4482  0.2292
34719SOL    HW2 7051   1.517   2.542   5.766  2.1891  1.5309 -0.2473
34720SOL     OW 7052   1.329   9.438   8.115  0.2558  0.0496 -0.5009
34720SOL    HW1 7053   1.418   9.422   8.083  0.7067 -1.6797  1.4104
34720SOL    HW2 7054   1.278   9.364   8.083  0.6022 -1.4325  2.1161
34721SOL     OW 7055   3.416   8.718   6.709 -0.7203  0.5762  0.0144
34721SOL    HW1 7056   3.401   8.731   6.802 -2.0429  2.4841 -0.3954
34721SOL    HW2 7057   3.490   8.775   6.688  1.4782 -1.9666  0.3330
34722SOL     OW 7058   1.432   3.826   6.445  0.0962 -0.3681  0.5707
34722SOL    HW1 7059   1.512   3.802   6.399 -2.3880 -0.1556 -4.5755
34722SOL    HW2 7060   1.423   3.920   6.431 -1.6229 -0.5912 -0.1452
34723SOL     OW 7061   5.921   0.300   6.229  0.6199 -0.4591  0.0826
34723SOL    HW1 7062   5.931   0.206   6.242  0.1226 -0.5569 -0.2517
34723SOL    HW2 7063   5.922   0.312   6.134  2.3826  0.0643  0.1270
34724SOL     OW 7064   1.346   2.700   2.975  0.0786  0.0854 -0.6446
34724SOL    HW1 7065   1.308   2.781   2.940  0.3707  0.3336 -0.3864
34724SOL    HW2 7066   1.342   2.639   2.901 -0.9497  0.0607 -0.5912
34725SOL     OW 7067   9.260   0.194  10.231  0.4757 -0.1737  0.4341
34725SOL    HW1 7068   9.248   0.100  10.215  0.4202 -0.0605 -0.2202
34725SOL    HW2 7069   9.353   0.209  10.212 -0.0342  0.3665 -2.0395
34726SOL     OW 7070   4.105   2.038   1.534 -0.1372 -0.1283  0.3995
34726SOL    HW1 7071   4.077   2.114   1.483 -2.6614 -0.9389  0.4821
34726SOL    HW2 7072   4.119   1.970   1.469 -1.8383 -0.7121  0.6007
34727SOL     OW 7073   8.196   4.809   8.015  0.2926  0.1187  0.8826
34727SOL    HW1 7074   8.253   4.752   7.963  1.8280  0.7642  1.7987
34727SOL    HW2 7075   8.118   4.757   8.030  0.8796 -1.0348  0.1031
34728SOL     OW 7076   7.317   0.446   9.011  0.1352 -0.2955  0.2501
34728SOL    HW1 7077   7.248   0.384   8.984 -0.8628  0.6538  0.5251
34728SOL    HW2 7078   7.356   0.474   8.929 -1.4059  0.9098 -0.1271
34729SOL     OW 7079   4.545   9.089  10.010  0.2614  0.3634 -0.0087
34729SOL    HW1 7080   4.547   9.137  10.092  1.4195  0.5212 -0.1154
34729SOL    HW2 7081   4.481   9.019  10.024  0.7884  0.0971  1.2004
34730SOL     OW 7082   4.148   0.106   9.911 -0.1781 -0.1021  0.4194
34730SOL    HW1 7083   4.109   0.033   9.863 -1.4937  0.5078  0.5226
34730SOL    HW2 7084   4.114   0.097  10.000  1.0701 -0.3665  0.8946
34731SOL     OW 7085   3.470   8.211   3.439  0.0837  0.1847  0.3981
34731SOL    HW1 7086   3.391   8.206   3.493 -2.1589  0.5025 -2.6076
34731SOL    HW2 7087   3.504   8.299   3.455 -0.0998  0.0336  1.7604
34732SOL     OW 7088   8.065   8.453   2.450 -0.1547 -0.1160 -0.2121
34732SOL    HW1 7089   7.971   8.472   2.445 -0.2736 -0.4266  0.5834
34732SOL    HW2 7090   8.086   8.413   2.366 -0.5016  0.9277 -0.8080
34733SOL     OW 7091   6.356   9.853   2.362 -0.1981  0.7578 -0.3819
34733SOL    HW1 7092   6.271   9.866   2.319 -0.3359  0.1123 -0.3113
34733SOL    HW2 7093   6.339   9.789   2.431  0.5266 -0.1063 -0.9780
34734SOL     OW 7094  10.641  10.400   7.578  0.0378  0.1198  0.2442
34734SOL    HW1 7095  10.649  10.335   7.508 -4.2621 -0.7532  0.2649
34734SOL    HW2 7096  10.659  10.351   7.658 -2.5715 -1.1002  0.2073
34735SOL     OW 7097   1.211   4.795   5.503  0.1793  0.1401 -1.0111
34735SOL    HW1 7098   1.173   4.854   5.568  0.7855 -0.1705 -0.3637
34735SOL    HW2 7099   1.137   4.771   5.447 -0.6352 -0.5697  0.3073
34736SOL     OW 7100   3.560   8.775   1.648  0.6462  0.3672 -0.5981
34736SOL    HW1 7101   3.504   8.831   1.594 -0.3009 -0.4971 -0.5457
34736SOL    HW2 7102   3.531   8.792   1.738  0.2218 -0.3501 -0.5998
34737SOL     OW 7103   0.657   2.773   5.081 -0.2941 -0.0924 -0.0031
34737SOL    HW1 7104   0.578   2.773   5.136 -0.4687 -1.4035 -0.2370
34737SOL    HW2 7105   0.724   2.812   5.137 -1.2192  1.6113  0.0013
34738SOL     OW 7106   2.743   1.579   5.127  0.6444  0.2471 -0.0646
34738SOL    HW1 7107   2.777   1.627   5.203  2.0456  0.4320 -0.7790
34738SOL    HW2 7108   2.821   1.540   5.087  0.0813  1.1306 -2.1017
34739SOL     OW 7109   2.578   7.129   7.434  0.0852 -0.4574  0.1277
34739SOL    HW1 7110   2.542   7.216   7.416 -0.7940 -1.2846 -2.6696
34739SOL    HW2 7111   2.671   7.145   7.449 -0.2486  1.0589  0.7901
34740SOL     OW 7112   2.377   4.466  10.524  0.0487  0.4054  0.3115
34740SOL    HW1 7113   2.283   4.459  10.509 -0.2053  1.0367  1.5203
34740SOL    HW2 7114   2.394   4.559  10.535  0.7447  0.2595  0.5691
34741SOL     OW 7115   1.172   9.462   3.018 -0.8646  0.3074  0.0295
34741SOL    HW1 7116   1.090   9.441   3.062 -0.4385  1.9302  1.7380
34741SOL    HW2 7117   1.156   9.549   2.980  0.7975  1.9095  2.6713
34742SOL     OW 7118   5.944   2.832   0.483 -0.1641 -0.2811  0.6613
34742SOL    HW1 7119   5.880   2.889   0.439 -0.8571 -1.4819  0.0607
34742SOL    HW2 7120   6.027   2.878   0.472 -0.5562  0.1742 -0.6464
34743SOL     OW 7121   1.427   1.673   2.293 -0.2302 -0.5095  0.1557
34743SOL    HW1 7122   1.372   1.675   2.371 -0.7022  0.0827 -0.1885
34743SOL    HW2 7123   1.420   1.582   2.261 -2.4566 -0.0451 -0.8870
34744SOL     OW 7124   2.177   4.237   3.031 -0.1036 -0.1282 -0.1097
34744SOL    HW1 7125   2.224   4.160   2.996  2.3584  1.0599  0.4010
34744SOL    HW2 7126   2.229   4.312   3.002 -2.2890  1.3910 -0.3448
34745SOL     OW 7127   2.947   9.548   9.184 -0.1841 -0.3773  0.3853
34745SOL    HW1 7128   3.015   9.505   9.235 -1.1241  0.2538  2.2433
34745SOL    HW2 7129   2.891   9.591   9.249 -0.6221  1.6661 -1.2326
34746SOL     OW 7130   0.579   8.231   4.555  0.4780 -0.2467 -0.6365
34746SOL    HW1 7131   0.583   8.321   4.521  0.2312  0.0854  0.2043
34746SOL    HW2 7132   0.662   8.218   4.600 -0.3000  0.2955  1.0260
34747SOL     OW 7133   0.788   5.613   3.142  0.1137  0.4029  0.2032
34747SOL    HW1 7134   0.739   5.673   3.198 -0.1619 -0.0424  0.4539
34747SOL    HW2 7135   0.740   5.612   3.060 -0.7154 -0.5392  0.6653
34748SOL     OW 7136   0.743   6.332   7.399 -0.2090  0.0551 -0.1141
34748SOL    HW1 7137   0.811   6.328   7.331  0.4866  3.5157  0.2056
34748SOL    HW2 7138   0.681   6.397   7.367 -0.7382  0.5563  1.8213
34749SOL     OW 7139   9.584   6.633   9.189 -0.0870  0.5477 -0.1078
34749SOL    HW1 7140   9.554   6.709   9.138  0.0409  0.3846 -0.4341
34749SOL    HW2 7141   9.504   6.590   9.218 -0.1921 -0.0555 -1.2241
34750SOL     OW 7142   1.512  10.792   9.026  0.2621  0.0387 -0.3689
34750SOL    HW1 7143   1.501  10.780   8.932  0.0957 -1.1732 -0.2094
34750SOL    HW2 7144   1.444  10.738   9.065  0.4853  0.3413  0.4567
34751SOL     OW 7145   5.612   6.448  10.172  0.4963  0.1064  0.5563
34751SOL    HW1 7146   5.630   6.538  10.199  0.5511 -0.3419  2.1087
34751SOL    HW2 7147   5.693   6.418  10.131  0.8176  0.4497  0.9344
34752SOL     OW 7148   3.138   2.633  10.779  0.2956 -0.1304 -0.5014
34752SOL    HW1 7149   3.059   2.620  10.727 -0.3563  1.4064  0.0774
34752SOL    HW2 7150   3.121   2.712  10.830  1.9097 -0.2023  0.1947
34753SOL     OW 7151  10.222   8.024   5.510 -0.5690  0.3638 -0.3013
34753SOL    HW1 7152  10.238   8.115   5.534 -3.5032  0.7880  0.4421
34753SOL    HW2 7153  10.207   8.026   5.416  0.9748  0.3144 -0.5858
34754SOL     OW 7154   7.211   4.296   7.515  0.3667  0.1293 -0.6140
34754SOL    HW1 7155   7.265   4.367   7.550  0.8098 -0.1565 -0.7160
34754SOL    HW2 7156   7.148   4.277   7.585  0.1805  0.6879 -0.6254
34755SOL     OW 7157   8.248   2.910   8.361 -0.0058 -0.1854 -0.9891
34755SOL    HW1 7158   8.280   2.997   8.388  1.4973 -0.9878 -0.0366
34755SOL    HW2 7159   8.188   2.928   8.289  0.0698  1.6688 -0.6423
34756SOL     OW 7160   2.668   3.391   2.003  0.2981  0.1928 -0.0350
34756SOL    HW1 7161   2.623   3.308   2.019 -0.8140  0.6846 -0.5515
34756SOL    HW2 7162   2.638   3.418   1.916  1.2162  0.7815 -0.1850
34757SOL     OW 7163   8.975   2.851   1.874 -0.0463  0.5412  0.4709
34757SOL    HW1 7164   9.046   2.850   1.810 -0.3332 -0.9702  0.1381
34757SOL    HW2 7165   9.007   2.799   1.947 -0.6495  0.1936  0.4950
34758SOL     OW 7166   9.344   0.444   1.252  0.3580  0.5473 -0.2969
34758SOL    HW1 7167   9.355   0.390   1.173 -0.3122 -0.9801  0.6100
34758SOL    HW2 7168   9.426   0.493   1.258  0.3148  0.9035 -2.0884
34759SOL     OW 7169   9.775   0.641   8.959 -0.1135  0.0207  0.1257
34759SOL    HW1 7170   9.846   0.598   9.007 -1.1849  0.0110  1.7826
34759SOL    HW2 7171   9.777   0.732   8.989 -0.0895  0.2820 -0.6672
34760SOL     OW 7172   6.423   4.498   9.372 -0.0435 -0.0502  0.0932
34760SOL    HW1 7173   6.368   4.515   9.448 -1.4500 -0.4332 -0.8086
34760SOL    HW2 7174   6.456   4.409   9.386  1.1565  0.5061  1.0810
34761SOL     OW 7175   2.085   0.333   2.987 -0.1580 -0.0530 -0.4778
34761SOL    HW1 7176   2.091   0.293   2.901 -3.1550 -1.0895 -0.3074
34761SOL    HW2 7177   2.124   0.420   2.976 -2.2100  0.6188 -3.4435
34762SOL     OW 7178   2.527   2.804   6.262 -0.4477 -1.0610 -0.3738
34762SOL    HW1 7179   2.478   2.741   6.209 -1.3968 -0.7297  0.0866
34762SOL    HW2 7180   2.481   2.806   6.346  0.4661 -0.8667  0.1407
34763SOL     OW 7181   3.200   0.988   3.201  0.2812  0.0022  0.3548
34763SOL    HW1 7182   3.153   1.071   3.192  2.7194  1.3770 -0.3081
34763SOL    HW2 7183   3.151   0.941   3.268 -0.4155  2.5290  1.7543
34764SOL     OW 7184   5.687  10.412   0.610 -0.1357  0.2676  0.1414
34764SOL    HW1 7185   5.631  10.459   0.672  1.3399 -0.1903  1.8958
34764SOL    HW2 7186   5.664  10.320   0.620  0.6483  0.1147  0.5885
34765SOL     OW 7187   3.954   9.374   0.966  0.1136  0.2643 -0.6905
34765SOL    HW1 7188   3.970   9.281   0.954  1.9779  0.6326 -1.3570
34765SOL    HW2 7189   3.903   9.380   1.047  1.2423 -1.2311  0.1751
34766SOL     OW 7190   6.500   4.941   1.830  0.1049  0.0447 -0.4820
34766SOL    HW1 7191   6.552   4.885   1.772 -1.1291 -1.9407  0.2303
34766SOL    HW2 7192   6.515   4.904   1.917 -1.1478  0.5125 -0.0577
34767SOL     OW 7193   5.678   2.066   8.913 -0.2583 -0.0186 -0.3598
34767SOL    HW1 7194   5.764   2.104   8.895  0.2738 -0.4724  1.0494
34767SOL    HW2 7195   5.626   2.138   8.946  0.4028 -0.2255  1.2363
34768SOL     OW 7196   2.579   4.892   2.169  0.6454  0.0125 -0.7351
34768SOL    HW1 7197   2.489   4.907   2.198  0.6157  2.4383 -1.8248
34768SOL    HW2 7198   2.633   4.936   2.234  1.0781 -1.2528 -0.2022
34769SOL     OW 7199   7.654   9.253   3.548  0.2801 -0.5009 -0.7253
34769SOL    HW1 7200   7.612   9.322   3.599  0.2003 -1.0767  0.0228
34769SOL    HW2 7201   7.673   9.293   3.464 -0.1828  0.2903 -0.4681
34770SOL     OW 7202   2.071   1.488   7.828 -0.1606  0.6885  0.3064
34770SOL    HW1 7203   2.124   1.564   7.805  1.0492  0.2769  1.5580
34770SOL    HW2 7204   2.067   1.489   7.924 -1.6076  0.1443  0.2848
34771SOL     OW 7205   4.370   1.043   0.112  1.1246 -0.5362 -0.3091
34771SOL    HW1 7206   4.438   0.979   0.090 -0.4541 -2.4149 -0.0832
34771SOL    HW2 7207   4.290   1.007   0.074  0.1591  1.3914 -0.2332
34772SOL     OW 7208   8.642   4.581   6.974  0.2173 -0.1654  0.0585
34772SOL    HW1 7209   8.581   4.656   6.979  0.6274  0.2855 -1.3310
34772SOL    HW2 7210   8.677   4.574   7.063 -0.4122  0.7989  0.4084
34773SOL     OW 7211   3.867   5.014   6.543 -0.5033  0.7619  0.2884
34773SOL    HW1 7212   3.888   4.920   6.547 -3.8116 -0.2079 -1.1413
34773SOL    HW2 7213   3.909   5.051   6.620  1.8126 -1.6484  0.3516
34774SOL     OW 7214   5.299   2.758   7.258 -0.3329 -0.2709 -0.1010
34774SOL    HW1 7215   5.231   2.696   7.232 -0.8025  0.2641 -0.1914
34774SOL    HW2 7216   5.283   2.834   7.202  0.7165 -0.3601 -0.5464
34775SOL     OW 7217   9.786   7.546   2.779  0.3560 -0.5776  0.2285
34775SOL    HW1 7218   9.730   7.606   2.830 -0.1301 -1.5773  0.8956
34775SOL    HW2 7219   9.745   7.460   2.790 -0.7963 -0.6123 -3.2765
34776SOL     OW 7220   8.521   0.715   4.711  0.4400  0.0709  0.4233
34776SOL    HW1 7221   8.523   0.620   4.700 -0.1844  0.2975 -2.3496
34776SOL    HW2 7222   8.614   0.741   4.715  0.7805 -0.4121 -2.4099
34777SOL     OW 7223   3.668   2.077   2.674 -0.3965 -0.0169 -0.3283
34777SOL    HW1 7224   3.683   2.170   2.690  0.1844 -0.5138  2.5047
34777SOL    HW2 7225   3.576   2.063   2.698 -0.2196 -0.3267  0.1904
34778SOL     OW 7226   6.276   6.302   8.307 -0.1576  0.6592 -0.0362
34778SOL    HW1 7227   6.364   6.266   8.302 -0.3385  0.3076 -0.9035
34778SOL    HW2 7228   6.223   6.232   8.346 -0.2565  0.4592 -0.5189
34779SOL     OW 7229  10.134   6.109   2.431 -0.3080  0.0786  0.3955
34779SOL    HW1 7230  10.198   6.167   2.389 -0.2004 -0.4309 -0.1456
34779SOL    HW2 7231  10.188   6.048   2.482 -0.4137  0.3367  0.8193
34780SOL     OW 7232   8.535   2.469   7.382 -0.1740 -0.3983  0.1871
34780SOL    HW1 7233   8.582   2.550   7.400 -0.5237 -0.3216  0.7738
34780SOL    HW2 7234   8.510   2.436   7.468 -0.6554 -0.7563 -0.0855
34781SOL     OW 7235   3.876   3.299   7.149 -0.4249 -0.0312  0.1483
34781SOL    HW1 7236   3.914   3.227   7.098 -1.9571  0.3690 -1.6469
34781SOL    HW2 7237   3.904   3.378   7.103  0.2481  0.4929  1.4176
34782SOL     OW 7238   2.258   9.004   5.500  0.6635  0.2011 -0.0138
34782SOL    HW1 7239   2.240   9.095   5.478  0.4054  0.9087  2.7514
34782SOL    HW2 7240   2.350   9.004   5.526  0.9495 -0.5754 -0.9664
34783SOL     OW 7241   5.126   0.485   5.512  0.0467 -0.2465  0.1201
34783SOL    HW1 7242   5.119   0.419   5.581  1.9500 -0.4374  0.1632
34783SOL    HW2 7243   5.106   0.437   5.431 -2.0404 -0.0534  0.4580
34784SOL     OW 7244   1.487   3.042   1.321 -0.0587  0.3601 -0.0954
34784SOL    HW1 7245   1.430   3.103   1.274  0.6854  1.5900  0.5364
34784SOL    HW2 7246   1.483   2.961   1.270 -2.3048  0.4151 -0.0858
34785SOL     OW 7247   4.129   9.244   4.148 -0.2316 -0.3991  0.0398
34785SOL    HW1 7248   4.129   9.149   4.139  0.8217 -0.3351 -0.9681
34785SOL    HW2 7249   4.219   9.270   4.127 -0.7705  0.9027 -0.7838
34786SOL     OW 7250   1.241   3.687   4.654  0.2692  0.5903  0.1331
34786SOL    HW1 7251   1.295   3.766   4.659  0.2337  0.5424  1.8543
34786SOL    HW2 7252   1.302   3.619   4.625  0.9362  0.7329  1.1443
34787SOL     OW 7253   6.044   6.367   3.344  0.2918 -0.1403  0.3770
34787SOL    HW1 7254   6.038   6.311   3.421 -0.3618 -0.9664 -0.2593
34787SOL    HW2 7255   5.996   6.446   3.368  0.3109 -0.2844  0.9029
34788SOL     OW 7256   6.407   0.167   1.493 -0.0325 -0.0419  0.1221
34788SOL    HW1 7257   6.453   0.191   1.412 -0.4352 -0.3734 -0.2114
34788SOL    HW2 7258   6.412   0.246   1.547  1.8251 -0.3758  0.5279
34789SOL     OW 7259   5.326   9.848   4.599  0.3231  0.0516  0.3236
34789SOL    HW1 7260   5.278   9.766   4.616  0.1199 -0.0599 -0.7250
34789SOL    HW2 7261   5.268   9.917   4.631  0.0518 -0.1603  0.2906
34790SOL     OW 7262   9.629   7.837   4.620 -0.0579  0.5292 -0.3827
34790SOL    HW1 7263   9.656   7.760   4.570 -0.4338  2.1986 -3.4069
34790SOL    HW2 7264   9.711   7.873   4.653  0.7478  1.3332 -2.9786
34791SOL     OW 7265   8.398   1.299   9.987 -0.5193 -0.3826  0.4094
34791SOL    HW1 7266   8.448   1.258   9.916 -0.9335 -0.7392  0.3150
34791SOL    HW2 7267   8.380   1.227  10.047 -0.3981 -0.1323  0.7441
34792SOL     OW 7268   0.559   0.654   0.567  0.1118  0.0178  0.1087
34792SOL    HW1 7269   0.575   0.580   0.625  0.6211  0.6724  0.8118
34792SOL    HW2 7270   0.464   0.653   0.553  0.1994 -1.2144 -0.5065
34793SOL     OW 7271   1.258   6.905   7.300  0.1329  0.6453 -0.0410
34793SOL    HW1 7272   1.277   6.933   7.390 -0.2769  0.8692 -0.0218
34793SOL    HW2 7273   1.332   6.849   7.276  0.6652  1.2624  0.1381
34794SOL     OW 7274   7.814   8.065   8.727 -0.5207 -0.1111  0.3957
34794SOL    HW1 7275   7.890   8.032   8.775 -1.5687 -0.3349  1.9640
34794SOL    HW2 7276   7.847   8.083   8.639  0.9266 -1.8857  0.5230
34795SOL     OW 7277   2.630   0.554  10.488 -0.0724  0.3959  0.3344
34795SOL    HW1 7278   2.679   0.476  10.514 -0.1883  0.2313  0.0611
34795SOL    HW2 7279   2.686   0.628  10.511 -0.6000  0.3117  2.0710
34796SOL     OW 7280   8.791   9.555   1.508 -0.1020 -0.3238  0.0021
34796SOL    HW1 7281   8.838   9.493   1.452  0.5861  0.2493 -0.0732
34796SOL    HW2 7282   8.798   9.639   1.463 -2.6469 -0.4952 -0.8396
34797SOL     OW 7283   3.623   6.624  10.374  0.0104  0.2112  0.2999
34797SOL    HW1 7284   3.529   6.630  10.387  0.1543 -0.0355  1.6842
34797SOL    HW2 7285   3.659   6.620  10.463  1.4027  1.2966 -0.1736
34798SOL     OW 7286   2.721   7.870   0.075  0.0820 -0.0555 -0.3191
34798SOL    HW1 7287   2.646   7.841   0.022 -0.1054 -0.2441  0.0444
34798SOL    HW2 7288   2.797   7.859   0.017  0.1221 -2.0095  0.0292
34799SOL     OW 7289   5.906   6.390   5.124  0.2712  0.1152  0.4766
34799SOL    HW1 7290   5.931   6.421   5.036  1.2947 -3.0989 -0.4859
34799SOL    HW2 7291   5.833   6.330   5.108 -0.1247  0.1483  1.9914
34800SOL     OW 7292   0.926   6.864   9.987  0.3467  0.0606 -0.0258
34800SOL    HW1 7293   1.008   6.819   9.967  0.7339 -0.5406  2.5325
34800SOL    HW2 7294   0.952   6.949  10.022  0.0758 -0.6888  2.2256
34801SOL     OW 7295   6.814   1.122   1.686  0.2006 -0.4987  0.2452
34801SOL    HW1 7296   6.749   1.174   1.734  0.4154  0.1785 -0.1755
34801SOL    HW2 7297   6.882   1.186   1.662  0.3074 -0.9097 -0.5734
34802SOL     OW 7298   0.416   2.843   1.106 -0.4152  0.2945 -0.7356
34802SOL    HW1 7299   0.500   2.822   1.146 -0.7546  0.1737 -0.0885
34802SOL    HW2 7300   0.382   2.758   1.077 -0.4192  0.3164 -0.7945
34803SOL     OW 7301   5.497   4.215   7.604 -0.4616 -0.2132 -0.0274
34803SOL    HW1 7302   5.421   4.263   7.637 -1.0504 -2.0191  1.4320
34803SOL    HW2 7303   5.570   4.245   7.657 -0.6064 -0.0957  0.1058
34804SOL     OW 7304   4.861   3.081   9.974  0.2205 -0.0227  0.5126
34804SOL    HW1 7305   4.808   3.138  10.030  2.0735  2.6245 -0.2329
34804SOL    HW2 7306   4.948   3.081  10.014  0.8801 -0.3005 -0.8490
34805SOL     OW 7307   0.241   8.997   1.660 -0.3882  0.2819 -0.4080
34805SOL    HW1 7308   0.214   9.043   1.580 -0.7623  0.0479 -0.4211
34805SOL    HW2 7309   0.322   9.040   1.687 -1.1057  1.4237 -0.0205
34806SOL     OW 7310   8.097   4.478   0.053  0.7752  0.1885  0.7144
34806SOL    HW1 7311   8.163   4.476  -0.016  0.7933  0.2175  0.7306
34806SOL    HW2 7312   8.065   4.568   0.053  0.6025  0.1300  0.5808
34807SOL     OW 7313   5.425   8.921   9.791  0.3262 -0.7365 -0.3801
34807SOL    HW1 7314   5.366   8.970   9.734  0.0227  0.7168  1.1055
34807SOL    HW2 7315   5.368   8.855   9.833 -0.3114  0.6185  1.0013
34808SOL     OW 7316  10.658   2.860   3.808 -0.6993  0.1251 -0.0123
34808SOL    HW1 7317  10.708   2.876   3.728 -1.2474 -0.4922 -0.4835
34808SOL    HW2 7318  10.606   2.782   3.789 -1.4859  0.4786  0.6449
34809SOL     OW 7319   8.190   2.561   4.628 -0.8892 -0.0643 -0.6412
34809SOL    HW1 7320   8.135   2.630   4.664 -0.1102  0.6122 -0.6977
34809SOL    HW2 7321   8.215   2.509   4.704 -1.4848 -0.2930 -0.5977
34810SOL     OW 7322   0.408  10.484   3.982  0.5625 -0.1535 -0.2156
34810SOL    HW1 7323   0.473  10.552   3.963 -0.6956  1.1008 -0.2236
34810SOL    HW2 7324   0.370  10.510   4.066  1.9597 -2.3929  1.2039
34811SOL     OW 7325   6.147   2.878  10.595  0.3833  0.5009 -0.1840
34811SOL    HW1 7326   6.117   2.954  10.544  0.9895 -0.1504 -1.5557
34811SOL    HW2 7327   6.177   2.916  10.678  1.4251  1.8839 -1.1498
34812SOL     OW 7328   2.549   2.076   1.360  0.1627  0.3109 -0.1575
34812SOL    HW1 7329   2.566   2.150   1.302  1.1345 -0.9659 -1.5889
34812SOL    HW2 7330   2.586   2.000   1.313  2.9145 -0.5268  2.9986
34813SOL     OW 7331   5.662   5.576   5.452 -0.5098 -0.0274  0.3750
34813SOL    HW1 7332   5.598   5.620   5.395 -0.0594  0.7650  0.4605
34813SOL    HW2 7333   5.747   5.609   5.421 -0.2294 -0.0270  1.1404
34814SOL     OW 7334   4.442   9.482   4.352 -0.0118 -0.1970 -0.2168
34814SOL    HW1 7335   4.442   9.450   4.262 -1.4278 -1.1338  0.0896
34814SOL    HW2 7336   4.519   9.441   4.392  0.3522 -0.1547 -0.8585
34815SOL     OW 7337   7.843   2.540   1.444 -0.3277 -0.3160 -0.2985
34815SOL    HW1 7338   7.755   2.576   1.455 -0.1062  0.5240 -1.0702
34815SOL    HW2 7339   7.892   2.611   1.403  0.7534 -0.7252  0.2672
34816SOL     OW 7340   6.698   6.635   9.100 -0.1098 -0.4326  0.0017
34816SOL    HW1 7341   6.690   6.693   9.175  1.7753 -0.4077  0.2359
34816SOL    HW2 7342   6.638   6.671   9.035 -0.6542  0.4217  0.9471
34817SOL     OW 7343   3.149   6.880   8.300 -0.7980  0.5638  0.1486
34817SOL    HW1 7344   3.058   6.896   8.272 -1.1516 -0.2245  0.8053
34817SOL    HW2 7345   3.200   6.886   8.219 -1.6565 -0.5715 -0.5067
34818SOL     OW 7346   3.953   9.268   6.537  0.5730  0.2062 -0.6317
34818SOL    HW1 7347   3.955   9.363   6.526  1.6973  0.2824  0.0503
34818SOL    HW2 7348   3.978   9.233   6.452 -2.6800  0.3931 -1.7927
34819SOL     OW 7349   6.953   8.797  10.762  0.3624 -0.4588 -0.1244
34819SOL    HW1 7350   7.023   8.734  10.747 -1.5342 -2.3394 -1.6728
34819SOL    HW2 7351   6.885   8.772  10.700 -1.3643  1.7995  0.7380
34820SOL     OW 7352   0.992   0.911   3.532 -0.0493 -0.3624 -0.0629
34820SOL    HW1 7353   0.917   0.860   3.563 -1.0077  0.7419 -0.4981
34820SOL    HW2 7354   0.988   0.993   3.582  0.2603  0.1235 -0.8126
34821SOL     OW 7355   3.386   8.699  10.736  0.3824 -0.1140  0.2344
34821SOL    HW1 7356   3.467   8.747  10.751 -0.4317  1.7042 -0.8250
34821SOL    HW2 7357   3.411   8.627  10.677  1.3207  0.0471  0.4204
34822SOL     OW 7358  10.323   4.337   3.697 -0.3840  0.1433  0.4234
34822SOL    HW1 7359  10.229   4.318   3.700 -0.1698 -0.7527  2.3969
34822SOL    HW2 7360  10.365   4.252   3.690  0.3157  0.5599 -0.8372
34823SOL     OW 7361   8.255   8.599   0.117  0.0315  0.4477 -0.3406
34823SOL    HW1 7362   8.325   8.557   0.167 -0.8041  0.3037  0.7585
34823SOL    HW2 7363   8.300   8.645   0.046  1.3315  1.2303  0.9427
34824SOL     OW 7364   2.813   4.330   7.448  0.1169  0.8573 -0.0620
34824SOL    HW1 7365   2.824   4.414   7.404  0.9713  0.7345 -0.0936
34824SOL    HW2 7366   2.847   4.266   7.386  0.2222  0.5645  0.2932
34825SOL     OW 7367   1.384   6.671   9.206  0.1255 -0.1953  0.0177
34825SOL    HW1 7368   1.463   6.618   9.215 -0.9367 -1.7872  0.3649
34825SOL    HW2 7369   1.396   6.718   9.123  1.1729 -0.8610 -0.2227
34826SOL     OW 7370  10.184   8.391   5.397  0.0258  0.1810 -0.0703
34826SOL    HW1 7371  10.134   8.466   5.432 -1.4153 -0.8004  0.0859
34826SOL    HW2 7372  10.245   8.430   5.334 -1.6556  1.3808 -1.0538
34827SOL     OW 7373   8.199  10.259   9.172 -0.2536  0.1167  0.1497
34827SOL    HW1 7374   8.284  10.271   9.214 -1.3159  1.3922  2.0662
34827SOL    HW2 7375   8.210  10.298   9.085  1.1526  0.0971  0.2904
34828SOL     OW 7376  10.643   9.812   8.516 -0.1600  0.2488  0.1781
34828SOL    HW1 7377  10.710   9.759   8.558  0.5038  0.9056 -0.0284
34828SOL    HW2 7378  10.627   9.768   8.432  0.6473  0.5490 -0.1510
34829SOL     OW 7379   4.634   9.620   9.716 -0.2250 -0.1974 -0.6736
34829SOL    HW1 7380   4.681   9.569   9.650  0.0835  2.3571 -2.6083
34829SOL    HW2 7381   4.547   9.580   9.721  0.1623 -1.2074 -1.7120
34830SOL     OW 7382   6.129  10.458   4.870  0.4957  0.3995  0.0533
34830SOL    HW1 7383   6.039  10.471   4.900  0.1748 -0.3661 -0.5363
34830SOL    HW2 7384   6.181  10.461   4.950 -0.3083 -1.3166  0.6938
34831SOL     OW 7385   8.121   5.761   6.625  0.4480 -0.1997  0.6890
34831SOL    HW1 7386   8.182   5.688   6.618 -0.8302 -1.1566 -1.3051
34831SOL    HW2 7387   8.050   5.739   6.566 -1.1804  1.5464  1.8782
34832SOL     OW 7388   2.420   4.120   6.344  0.0327  1.0176 -0.1631
34832SOL    HW1 7389   2.349   4.142   6.405 -1.1051  0.7916 -1.3539
34832SOL    HW2 7390   2.393   4.037   6.305  0.4261  1.4594 -1.4136
34833SOL     OW 7391   5.546   9.584   0.062  0.1873 -0.4043 -0.7895
34833SOL    HW1 7392   5.471   9.599   0.120  0.4552 -1.4827 -0.1329
34833SOL    HW2 7393   5.564   9.669   0.023  0.6343  0.6264  1.4968
34834SOL     OW 7394   9.810   4.635   9.919 -0.7615 -0.0119  0.7656
34834SOL    HW1 7395   9.848   4.630  10.007  1.0293  0.8469  0.0943
34834SOL    HW2 7396   9.886   4.642   9.861 -1.9083 -0.6387 -0.8699
34835SOL     OW 7397   3.053   8.289  10.308 -1.3171  0.2638  0.3534
34835SOL    HW1 7398   3.069   8.357  10.374 -0.9988 -1.3672  2.0422
34835SOL    HW2 7399   2.964   8.259  10.324 -1.8066  0.9027 -1.0152
34836SOL     OW 7400   8.451   6.480   5.229  0.1798  0.0314 -0.1495
34836SOL    HW1 7401   8.417   6.524   5.307 -0.4483 -0.9440  0.1494
34836SOL    HW2 7402   8.462   6.389   5.255 -2.7480 -0.9984 -1.9203
34837SOL     OW 7403   4.897   2.250   5.734 -0.7742 -0.3249  0.2125
34837SOL    HW1 7404   4.931   2.334   5.704  0.2215 -0.0970  1.8327
34837SOL    HW2 7405   4.968   2.188   5.720 -0.7582 -0.4644  0.8447
34838SOL     OW 7406   8.100   3.807  10.277  0.1467  0.2702  0.0906
34838SOL    HW1 7407   8.036   3.761  10.223  0.9946 -0.6560 -0.1611
34838SOL    HW2 7408   8.099   3.897  10.245 -0.8271  0.2111 -0.0813
34839SOL     OW 7409   3.519   3.581   1.260  0.0233 -0.0604 -0.8162
34839SOL    HW1 7410   3.463   3.506   1.238 -0.2626 -0.5524  1.2916
34839SOL    HW2 7411   3.530   3.575   1.355  0.6514  2.1472 -0.6906
34840SOL     OW 7412   9.256   5.957   3.570  0.0577  0.3047 -0.1718
34840SOL    HW1 7413   9.174   6.001   3.548 -0.1292 -0.0272 -0.1472
34840SOL    HW2 7414   9.238   5.917   3.655  0.0142 -0.3620 -0.4922
34841SOL     OW 7415   1.751   9.236   1.241 -0.5732  0.5389 -0.0046
34841SOL    HW1 7416   1.781   9.181   1.313  0.8235  1.8804  0.5059
34841SOL    HW2 7417   1.656   9.238   1.250 -0.5784 -0.9612  0.5381
34842SOL     OW 7418   2.448   9.858   6.871  0.5561  0.5329  0.6107
34842SOL    HW1 7419   2.497   9.781   6.900 -0.6047 -0.2013  0.7162
34842SOL    HW2 7420   2.445   9.850   6.776 -1.4021 -0.7800  0.7260
34843SOL     OW 7421   8.030  10.657   8.044  0.0676  0.6414 -0.0931
34843SOL    HW1 7422   7.955  10.636   8.099  0.5064 -0.2575  0.1808
34843SOL    HW2 7423   8.078  10.723   8.093  0.8249 -0.6397  0.9714
34844SOL     OW 7424   2.220   6.168   7.495 -0.2905  0.2873 -0.2449
34844SOL    HW1 7425   2.248   6.193   7.407  0.7913 -0.0668 -0.0214
34844SOL    HW2 7426   2.145   6.224   7.514 -1.8962 -1.0769 -2.2127
34845SOL     OW 7427   3.883   6.574   7.076  0.3618 -0.9895  0.0009
34845SOL    HW1 7428   3.851   6.569   7.166  0.4705  0.8159  0.1626
34845SOL    HW2 7429   3.965   6.623   7.082 -1.4170  2.4697 -1.4525
34846SOL     OW 7430   6.722   1.664   7.929  0.2861  0.3393  0.1493
34846SOL    HW1 7431   6.739   1.651   7.836  0.7760  0.7533  0.1736
34846SOL    HW2 7432   6.680   1.583   7.958 -0.3662  0.4181 -0.5426
34847SOL     OW 7433   7.571   4.327   3.461 -0.4691 -0.1164  0.0807
34847SOL    HW1 7434   7.658   4.369   3.460 -1.3369  1.7898 -0.3639
34847SOL    HW2 7435   7.511   4.399   3.482 -2.0444 -1.1925 -0.6093
34848SOL     OW 7436   7.290   7.019   0.807 -0.4555  0.4038 -0.2778
34848SOL    HW1 7437   7.292   7.107   0.845  2.8708  1.0098 -1.5463
34848SOL    HW2 7438   7.373   6.979   0.833 -0.7907 -1.4139 -1.7837
34849SOL     OW 7439   5.435   4.930   4.939 -0.3959 -0.2213  0.5238
34849SOL    HW1 7440   5.404   4.980   5.015 -1.6787  0.0952 -0.1795
34849SOL    HW2 7441   5.508   4.878   4.973 -0.5339  0.3930  1.8229
34850SOL     OW 7442   9.430   4.370   0.867 -0.3747 -0.1921 -0.1492
34850SOL    HW1 7443   9.511   4.348   0.913 -0.1500 -1.4177 -1.0617
34850SOL    HW2 7444   9.379   4.289   0.869 -1.1639  0.2862 -0.4231
34851SOL     OW 7445   0.187   8.557   2.329  0.1249  0.3639  0.6163
34851SOL    HW1 7446   0.282   8.548   2.326  0.1553  0.3732  1.3263
34851SOL    HW2 7447   0.169   8.640   2.286  0.2656 -0.5083 -1.2703
34852SOL     OW 7448   7.655   9.827   6.103 -0.1845  0.5534  0.3573
34852SOL    HW1 7449   7.636   9.850   6.012 -0.6532 -0.1926  0.2618
34852SOL    HW2 7450   7.573   9.843   6.150  0.5648  2.7829  1.0436
34853SOL     OW 7451   7.621   0.232  10.041  0.5331  0.2256 -0.0735
34853SOL    HW1 7452   7.700   0.177  10.042  0.0385 -0.4852  1.0183
34853SOL    HW2 7453   7.580   0.213   9.956  0.4098 -1.0544  0.2500
34854SOL     OW 7454   2.972   1.713  10.182  0.3660  0.1069  0.3126
34854SOL    HW1 7455   2.887   1.744  10.212 -0.1565  0.4253 -1.3920
34854SOL    HW2 7456   2.952   1.648  10.115  1.4851 -1.0023  1.0011
34855SOL     OW 7457   5.163   8.453   9.695  0.5389  1.2360 -0.0208
34855SOL    HW1 7458   5.227   8.387   9.722  0.4328  0.9779 -0.3958
34855SOL    HW2 7459   5.185   8.473   9.604 -1.1556 -0.3910 -0.8702
34856SOL     OW 7460   3.735   5.506   0.526  1.0792  0.1865 -0.3112
34856SOL    HW1 7461   3.690   5.571   0.472  0.9756  0.7134  0.3932
34856SOL    HW2 7462   3.667   5.441   0.548  0.5730  1.0841  0.9145
34857SOL     OW 7463   8.862   2.012   8.141 -0.4602  0.5928 -0.1666
34857SOL    HW1 7464   8.867   1.923   8.109 -1.7986  0.4236  0.0282
34857SOL    HW2 7465   8.808   2.058   8.077  0.1648  1.2591 -0.2362
34858SOL     OW 7466   7.697   4.705   5.199  0.3246 -0.4331 -0.6622
34858SOL    HW1 7467   7.753   4.641   5.244  2.2528  0.0039 -2.3191
34858SOL    HW2 7468   7.750   4.784   5.195 -1.5378  0.9182  0.1705
34859SOL     OW 7469   6.757   5.406   0.857  0.1170  0.0824 -0.1599
34859SOL    HW1 7470   6.849   5.432   0.850  0.1520  1.2122  2.9314
34859SOL    HW2 7471   6.760   5.319   0.896 -0.1344 -0.4148 -1.2340
34860SOL     OW 7472   9.834   7.975   4.706 -0.1749  0.3479  0.1259
34860SOL    HW1 7473   9.905   8.030   4.672 -0.4760  0.3636 -0.4939
34860SOL    HW2 7474   9.757   8.032   4.705 -0.0355  0.5892  1.5863
34861SOL     OW 7475   6.228   1.572   5.445  0.3768  0.3878 -0.2060
34861SOL    HW1 7476   6.320   1.580   5.423  0.2943  0.4819 -0.5204
34861SOL    HW2 7477   6.184   1.638   5.391 -0.0139 -0.4592 -0.9533
34862SOL     OW 7478   4.229   7.676   7.883  0.6010  0.2945  0.1274
34862SOL    HW1 7479   4.213   7.740   7.953  2.2757  0.0912  0.7583
34862SOL    HW2 7480   4.316   7.640   7.904  0.7315 -0.4433 -1.5613
34863SOL     OW 7481  10.794   9.310   0.395 -0.0747  0.7675  0.5497
34863SOL    HW1 7482  10.714   9.261   0.412 -0.8762  1.8874  0.1510
34863SOL    HW2 7483  10.790   9.384   0.456 -0.9125  2.5090 -1.4848
34864SOL     OW 7484   9.484   0.759   5.622  0.0759  0.3530 -0.3827
34864SOL    HW1 7485   9.452   0.670   5.609 -1.5361  0.9203 -0.6747
34864SOL    HW2 7486   9.405   0.813   5.615  1.3949  2.1280 -3.5277
34865SOL     OW 7487   5.841   3.166   4.968 -0.2606  0.0545 -0.0863
34865SOL    HW1 7488   5.835   3.074   4.994 -1.2630 -0.6655 -2.5651
34865SOL    HW2 7489   5.935   3.182   4.961  0.0144 -0.1046  2.3503
34866SOL     OW 7490   6.899  10.374   1.156  0.1084 -0.2681 -0.3029
34866SOL    HW1 7491   6.973  10.338   1.204 -0.0565 -1.3251 -0.8031
34866SOL    HW2 7492   6.921  10.357   1.064 -0.9356 -0.9937 -0.4335
34867SOL     OW 7493   2.135   3.483   7.469 -0.3470 -0.9810 -0.2575
34867SOL    HW1 7494   2.047   3.452   7.452 -0.1344 -0.5809 -2.2577
34867SOL    HW2 7495   2.175   3.493   7.383  0.7514  1.4898  0.4525
34868SOL     OW 7496   6.144   3.410   3.884  0.3222 -0.5758 -0.4767
34868SOL    HW1 7497   6.128   3.323   3.847 -1.0601 -0.5637  0.0182
34868SOL    HW2 7498   6.111   3.404   3.974  0.7652  0.2864 -0.2443
34869SOL     OW 7499   6.180   8.157   5.766 -0.2295 -0.0418  0.2516
34869SOL    HW1 7500   6.141   8.070   5.762 -0.4117  0.0611 -0.2599
34869SOL    HW2 7501   6.178   8.180   5.859 -1.8961  0.1793  0.1860
34870SOL     OW 7502   9.887   3.353   5.696 -0.1277 -0.0677  0.1550
34870SOL    HW1 7503   9.890   3.278   5.755 -2.3048 -0.7205 -0.4778
34870SOL    HW2 7504   9.797   3.354   5.662  0.5139  1.3849 -1.7151
34871SOL     OW 7505   8.447   9.129   2.073  0.3288 -0.2383  0.3258
34871SOL    HW1 7506   8.353   9.145   2.064  0.6215  0.4428 -2.5394
34871SOL    HW2 7507   8.483   9.214   2.100  0.1876 -0.4338  1.1688
34872SOL     OW 7508   5.705   8.342   8.077 -0.7394  0.5937 -0.1859
34872SOL    HW1 7509   5.745   8.319   7.993 -3.7201  1.7091 -2.0689
34872SOL    HW2 7510   5.751   8.287   8.141  1.0270 -1.0025 -2.6376
34873SOL     OW 7511   4.566   7.733   5.793 -0.3214 -0.0355 -0.0570
34873SOL    HW1 7512   4.634   7.719   5.727  0.0748  1.0923  0.1000
34873SOL    HW2 7513   4.603   7.798   5.853 -1.2165 -0.0241  0.5077
34874SOL     OW 7514   0.776   6.495   9.083 -0.2969 -0.2060  0.2093
34874SOL    HW1 7515   0.742   6.585   9.086 -1.2738 -0.4864 -1.2383
34874SOL    HW2 7516   0.870   6.506   9.068 -0.5714  0.6119 -1.1795
34875SOL     OW 7517  10.599   9.488   5.960 -0.6828 -0.1376  0.2878
34875SOL    HW1 7518  10.657   9.551   6.002 -1.1662  0.8855 -0.5177
34875SOL    HW2 7519  10.549   9.540   5.896 -0.6714 -1.4413 -0.8367
34876SOL     OW 7520   1.334   6.797   9.638 -0.3650 -0.6732 -0.1224
34876SOL    HW1 7521   1.272   6.842   9.695  0.8151  0.9810 -0.0681
34876SOL    HW2 7522   1.402   6.765   9.697 -0.7719 -1.8770 -0.2639
34877SOL     OW 7523   8.502   5.090   0.278 -0.3819  0.8023 -0.2333
34877SOL    HW1 7524   8.431   5.068   0.340 -2.2180 -0.2350 -2.5471
34877SOL    HW2 7525   8.457   5.125   0.202  1.6535  0.5229 -1.6431
34878SOL     OW 7526   6.759   8.248   4.915 -0.1735 -0.0409 -0.1113
34878SOL    HW1 7527   6.784   8.156   4.907  1.0585  0.2989 -0.4175
34878SOL    HW2 7528   6.835   8.290   4.954 -0.5830  0.9180 -0.3176
34879SOL     OW 7529   9.452  10.652   7.097  0.0603  0.0100 -0.3005
34879SOL    HW1 7530   9.469  10.561   7.124 -1.1793  0.6684  3.2432
34879SOL    HW2 7531   9.525  10.702   7.134 -0.5338  0.7237 -0.0731
34880SOL     OW 7532   9.890   3.539   6.168 -0.5872  0.1679 -0.5313
34880SOL    HW1 7533   9.922   3.482   6.099 -2.1243 -0.5055 -0.7293
34880SOL    HW2 7534   9.969   3.563   6.217 -0.0093 -4.3658  1.3018
34881SOL     OW 7535   0.280   9.963  10.597 -0.7648 -0.3860 -0.7633
34881SOL    HW1 7536   0.256   9.878  10.558 -0.8405 -0.8162  0.1949
34881SOL    HW2 7537   0.348   9.997  10.540 -0.9179 -0.9759 -1.3116
34882SOL     OW 7538   4.487   6.354   9.741  0.2163 -0.0285  0.1388
34882SOL    HW1 7539   4.536   6.273   9.746  0.9009 -0.1083 -4.2811
34882SOL    HW2 7540   4.550   6.422   9.764  0.0711 -0.5412  2.2588
34883SOL     OW 7541   7.550   3.917   4.778 -0.6860 -0.2430 -0.4776
34883SOL    HW1 7542   7.597   3.861   4.840  2.2411  0.3998 -1.9153
34883SOL    HW2 7543   7.458   3.903   4.797  0.0491 -1.3283  2.8470
34884SOL     OW 7544   4.759   8.283   8.414 -0.6583 -0.0744 -0.2112
34884SOL    HW1 7545   4.711   8.345   8.469 -0.4922  0.3745 -0.5668
34884SOL    HW2 7546   4.836   8.332   8.386  0.2325 -0.9164  0.6929
34885SOL     OW 7547   1.853   3.728   0.477  0.5035 -0.0445 -0.9690
34885SOL    HW1 7548   1.853   3.660   0.544 -0.9037  0.0845 -0.8083
34885SOL    HW2 7549   1.863   3.681   0.395 -1.2684 -0.5603 -0.9226
34886SOL     OW 7550   9.068   0.279  10.426  0.1639  0.4461  0.0941
34886SOL    HW1 7551   9.113   0.363  10.437  2.5517 -0.6334 -0.6035
34886SOL    HW2 7552   9.111   0.239  10.350  0.2723 -2.0925  1.3891
34887SOL     OW 7553   1.265  10.007   5.055  0.4916  0.3905 -0.7145
34887SOL    HW1 7554   1.350  10.033   5.091 -0.5558  0.5113  1.9021
34887SOL    HW2 7555   1.263   9.912   5.065 -0.2315  0.5197  0.7523
34888SOL     OW 7556   2.196   8.520   7.546 -0.4916  0.2737  0.2330
34888SOL    HW1 7557   2.106   8.533   7.517 -0.6176  0.0692  0.5275
34888SOL    HW2 7558   2.248   8.575   7.488 -0.8470  0.7292  0.3453
34889SOL     OW 7559   0.271   9.496   3.042  0.1282 -0.2554 -0.5170
34889SOL    HW1 7560   0.220   9.524   3.118 -0.9002 -0.6085 -1.0571
34889SOL    HW2 7561   0.305   9.410   3.066  0.0198 -0.2514 -0.3506
34890SOL     OW 7562   7.040   4.233   0.902  0.3312 -0.3629  0.1574
34890SOL    HW1 7563   7.089   4.159   0.866  0.5553  0.1680 -0.6423
34890SOL    HW2 7564   7.093   4.310   0.880 -1.1019  0.2837 -1.2101
34891SOL     OW 7565   2.377  10.021   4.108  0.6805  0.1110 -0.1586
34891SOL    HW1 7566   2.322  10.068   4.171  0.4844 -0.3043 -0.0191
34891SOL    HW2 7567   2.318   9.958   4.067  1.2818 -1.0666  0.7269
34892SOL     OW 7568   1.108   8.130   0.178  0.2043  0.1807 -0.7204
34892SOL    HW1 7569   1.016   8.104   0.167  0.0802 -0.4111  1.2782
34892SOL    HW2 7570   1.105   8.196   0.247  1.3704 -0.6293  0.1322
34893SOL     OW 7571   9.721   5.907   5.310  0.3946 -0.5907 -0.7141
34893SOL    HW1 7572   9.692   5.944   5.393 -0.2995  0.8591 -1.5542
34893SOL    HW2 7573   9.746   5.817   5.330 -2.8692 -1.3399  0.4467
34894SOL     OW 7574   0.242   6.735   9.539 -0.4258  0.9054  0.3356
34894SOL    HW1 7575   0.231   6.824   9.572 -0.6160  1.0924 -0.2158
34894SOL    HW2 7576   0.198   6.736   9.454  0.8241  0.6779 -0.3244
34895SOL     OW 7577   5.464   5.524   8.166 -0.2909  0.3481  0.2549
34895SOL    HW1 7578   5.465   5.547   8.072 -0.7887 -0.0297  0.1553
34895SOL    HW2 7579   5.554   5.497   8.185 -0.1426  0.6072 -0.0714
34896SOL     OW 7580   8.872   5.851   7.542 -0.1710  0.1118 -0.2225
34896SOL    HW1 7581   8.915   5.776   7.583 -1.8188  0.2539  1.9475
34896SOL    HW2 7582   8.782   5.822   7.527 -0.4969  1.2360 -0.5433
34897SOL     OW 7583   3.525   1.912   7.619 -0.5742 -0.2969  0.1061
34897SOL    HW1 7584   3.498   1.837   7.671 -0.5580  0.6191  1.4814
34897SOL    HW2 7585   3.443   1.947   7.583 -0.7684 -0.0951  0.7184
34898SOL     OW 7586   9.356   7.102   7.211  0.1904 -0.1876  0.3318
34898SOL    HW1 7587   9.363   7.012   7.181  1.2185 -0.2595  0.7501
34898SOL    HW2 7588   9.301   7.098   7.289 -1.3877 -0.1734 -0.7241
34899SOL     OW 7589   1.857   1.483   8.226 -0.4916 -0.1713  0.1469
34899SOL    HW1 7590   1.787   1.440   8.177  0.0434  0.9148 -1.6613
34899SOL    HW2 7591   1.817   1.562   8.262 -0.0328  1.0040 -1.7615
34900SOL     OW 7592   3.141   2.600   9.728 -0.5299  0.1228 -0.5192
34900SOL    HW1 7593   3.099   2.570   9.808  1.2648 -0.7181  0.1554
34900SOL    HW2 7594   3.068   2.628   9.671 -1.9657 -1.2717  0.5591
34901SOL     OW 7595   3.182   8.198   9.347  1.0734  0.3540 -0.0124
34901SOL    HW1 7596   3.105   8.148   9.320  1.7141 -0.4605 -0.3927
34901SOL    HW2 7597   3.174   8.282   9.303 -0.7213  1.1524  1.6951
34902SOL     OW 7598  10.292   6.143  10.232 -0.0743  0.3470  0.0873
34902SOL    HW1 7599  10.335   6.059  10.217 -0.5705  0.5245 -3.0618
34902SOL    HW2 7600  10.200   6.126  10.211 -0.1921  1.6166 -0.5013
34903SOL     OW 7601   4.859   0.597   9.310  0.2072 -0.0132 -0.4622
34903SOL    HW1 7602   4.879   0.661   9.242  0.1482 -0.2141 -0.6726
34903SOL    HW2 7603   4.764   0.600   9.320  0.3459  1.2574  0.8493
34904SOL     OW 7604   4.969   4.618   6.739  0.1695 -0.2389  0.5249
34904SOL    HW1 7605   4.875   4.611   6.721 -0.1175  1.4280  1.2114
34904SOL    HW2 7606   4.998   4.689   6.681  0.4594  1.0238  2.1667
34905SOL     OW 7607  10.267  10.059   3.017  0.2679 -0.0519 -0.1920
34905SOL    HW1 7608  10.207  10.053   3.091  0.0602 -1.9469 -0.4571
34905SOL    HW2 7609  10.217  10.024   2.942  1.2854 -0.5677 -0.6582
34906SOL     OW 7610   2.111   9.053   4.009 -0.6700  0.3466  0.2839
34906SOL    HW1 7611   2.196   9.084   3.979  0.1994 -0.3508  1.9552
34906SOL    HW2 7612   2.099   8.969   3.965 -0.7129  0.6291 -0.2645
34907SOL     OW 7613   7.925   0.946   5.770 -0.0020 -0.4805  0.0670
34907SOL    HW1 7614   7.867   0.870   5.775  0.6120 -0.9186  0.7703
34907SOL    HW2 7615   8.013   0.909   5.762  0.1825  0.1732 -1.2400
34908SOL     OW 7616   4.290   2.065   4.115  0.2223 -0.1966 -0.1331
34908SOL    HW1 7617   4.343   2.040   4.040  0.4178  0.7732 -0.3332
34908SOL    HW2 7618   4.220   2.119   4.079  1.6392  2.2930  0.5632
34909SOL     OW 7619   0.179   1.241  10.510 -0.0002 -0.0577 -1.0355
34909SOL    HW1 7620   0.087   1.220  10.527 -0.0381 -0.0159 -1.1835
34909SOL    HW2 7621   0.212   1.272  10.594 -0.0384 -0.3682 -0.9036
34910SOL     OW 7622   7.740   3.686   7.225  0.2202  0.2570  0.2423
34910SOL    HW1 7623   7.757   3.686   7.131  0.6635  0.5820  0.3145
34910SOL    HW2 7624   7.756   3.777   7.252  0.1631  0.1512  0.6411
34911SOL     OW 7625   5.843   7.093   6.664 -0.2452  0.1076  0.2986
34911SOL    HW1 7626   5.811   7.084   6.754  0.8778 -1.9003  0.5392
34911SOL    HW2 7627   5.764   7.084   6.610 -1.0777  2.1660  1.0209
34912SOL     OW 7628   8.691   8.158   7.066  0.4892 -0.0075  0.3143
34912SOL    HW1 7629   8.704   8.066   7.091 -1.1947 -0.1196  0.8775
34912SOL    HW2 7630   8.606   8.159   7.022  0.6492  1.2372 -0.0016
34913SOL     OW 7631   0.311   9.745   9.185 -0.7895  0.2066 -0.1533
34913SOL    HW1 7632   0.390   9.773   9.138 -0.0148 -2.2823 -0.4812
34913SOL    HW2 7633   0.333   9.759   9.277 -0.9292  1.7519 -0.3227
34914SOL     OW 7634   1.890   8.328   5.154 -0.0672 -0.0045 -0.4223
34914SOL    HW1 7635   1.868   8.416   5.126  0.3886 -0.0132 -0.8242
34914SOL    HW2 7636   1.870   8.326   5.248 -0.2548  0.4616 -0.4527
34915SOL     OW 7637   4.425   1.549   9.241 -0.4878  0.1333 -0.2966
34915SOL    HW1 7638   4.365   1.519   9.172  0.8065  0.8112 -1.7752
34915SOL    HW2 7639   4.431   1.644   9.228 -1.1414  0.4751  1.5501
34916SOL     OW 7640   5.043   0.710   6.921 -0.2168  0.3920  0.1479
34916SOL    HW1 7641   5.017   0.684   6.833 -1.5256  1.8736  0.0544
34916SOL    HW2 7642   5.030   0.632   6.974  1.6151 -0.8561 -1.1148
34917SOL     OW 7643   4.775   3.758   7.064  0.1724  0.2219  0.3616
34917SOL    HW1 7644   4.866   3.778   7.044 -0.3144  0.6627 -1.6305
34917SOL    HW2 7645   4.740   3.837   7.105  0.4746  0.3310  0.4044
34918SOL     OW 7646   5.104   1.035  10.189 -0.3600 -0.0408  0.1115
34918SOL    HW1 7647   5.172   1.011  10.252  1.8459 -0.8218 -2.3832
34918SOL    HW2 7648   5.068   0.951  10.159  1.5914 -0.0414 -2.6108
34919SOL     OW 7649   4.025   7.798   5.043 -0.2928  0.1617 -0.5451
34919SOL    HW1 7650   4.043   7.827   4.954 -0.2974  4.3900  0.5977
34919SOL    HW2 7651   4.095   7.837   5.095 -0.4658 -1.9180  1.3970
34920SOL     OW 7652   4.770   9.149   0.942 -0.1894  0.1521 -0.5295
34920SOL    HW1 7653   4.759   9.243   0.957 -1.9239 -0.1677  0.4221
34920SOL    HW2 7654   4.742   9.135   0.852  1.5645  0.7446 -1.2043
34921SOL     OW 7655   8.444   8.106   1.437  0.5302 -0.6169 -0.8206
34921SOL    HW1 7656   8.495   8.153   1.503  1.3076 -2.1427 -0.2850
34921SOL    HW2 7657   8.386   8.049   1.488 -1.2295  0.5293 -1.4324
34922SOL     OW 7658   1.277   4.156   4.914  0.3526  0.0632  0.1504
34922SOL    HW1 7659   1.296   4.234   4.965 -2.4872  0.3001  1.0133
34922SOL    HW2 7660   1.265   4.086   4.979  1.9251 -0.9302 -0.5555
34923SOL     OW 7661   2.232   0.176   7.509  0.0543  0.7431 -0.5110
34923SOL    HW1 7662   2.280   0.116   7.452 -1.9687 -1.1042 -0.3644
34923SOL    HW2 7663   2.275   0.168   7.594  2.1211  2.3861 -1.2737
34924SOL     OW 7664   2.853   3.276   2.307  0.0243  0.1572  0.0557
34924SOL    HW1 7665   2.896   3.191   2.320 -1.9447 -0.9755 -0.4313
34924SOL    HW2 7666   2.912   3.324   2.250  0.2063 -1.7303 -1.4484
34925SOL     OW 7667   0.852   7.819   0.842  0.2258 -0.3732  0.2725
34925SOL    HW1 7668   0.852   7.872   0.921  1.7891  0.3053 -0.1505
34925SOL    HW2 7669   0.910   7.746   0.862  1.5568  0.4023 -0.5909
34926SOL     OW 7670   2.358   0.234   8.556 -0.0046  0.1627  0.2245
34926SOL    HW1 7671   2.442   0.230   8.602  0.5597  0.2638 -0.7430
34926SOL    HW2 7672   2.383   0.241   8.463 -1.0795  0.6243 -0.0454
34927SOL     OW 7673   2.061   2.488   6.730 -0.0370  0.1999 -0.0416
34927SOL    HW1 7674   2.075   2.434   6.652  2.1413  0.6011  0.0059
34927SOL    HW2 7675   1.991   2.443   6.778  0.7045 -1.7658 -0.7144
34928SOL     OW 7676   6.944   5.920   4.532 -0.1636 -0.0071 -0.1211
34928SOL    HW1 7677   7.024   5.932   4.583  0.7428 -1.1247 -1.2200
34928SOL    HW2 7678   6.878   5.895   4.597  0.0308  2.1032  0.9641
34929SOL     OW 7679   9.028   4.489   2.147 -0.5345 -0.0542 -0.2246
34929SOL    HW1 7680   9.007   4.397   2.166  0.7148 -0.3755 -0.2993
34929SOL    HW2 7681   9.070   4.487   2.061  0.0195  0.5093  0.0270
34930SOL     OW 7682   7.565   7.588   5.828  0.0563 -0.0458 -0.1004
34930SOL    HW1 7683   7.515   7.570   5.908  1.3453  1.5833  1.1646
34930SOL    HW2 7684   7.541   7.677   5.804  0.9053  0.0696 -0.5711
34931SOL     OW 7685   6.515   0.536   3.867 -0.0095 -0.4328 -0.2603
34931SOL    HW1 7686   6.528   0.513   3.775  0.1405  0.9845 -0.6171
34931SOL    HW2 7687   6.593   0.586   3.891 -1.1742  1.4320 -0.1310
34932SOL     OW 7688   0.450   0.685   4.899 -0.1892 -0.9862 -0.6768
34932SOL    HW1 7689   0.403   0.629   4.962  1.0091 -1.5647 -0.2463
34932SOL    HW2 7690   0.524   0.720   4.950  0.3091 -0.7708 -1.5331
34933SOL     OW 7691   9.542   5.722   7.105  0.3614  0.5970  0.4532
34933SOL    HW1 7692   9.483   5.765   7.044 -1.1993 -0.4178  1.1674
34933SOL    HW2 7693   9.598   5.792   7.138 -2.0336  2.1292  1.5205
34934SOL     OW 7694   6.876   1.232   6.464  0.2251  0.1126 -0.0296
34934SOL    HW1 7695   6.848   1.270   6.547 -0.1145  0.0191 -0.1024
34934SOL    HW2 7696   6.833   1.286   6.397 -2.0142 -1.6925 -0.1387
34935SOL     OW 7697   8.999   3.235   8.599 -0.5340 -0.3667  0.3421
34935SOL    HW1 7698   8.956   3.280   8.526  0.1362 -0.2185  0.0315
34935SOL    HW2 7699   8.943   3.254   8.674 -1.3572 -0.7014 -0.1627
34936SOL     OW 7700   2.768   2.697   4.514 -0.2797  0.1416  0.4956
34936SOL    HW1 7701   2.675   2.716   4.499  0.2510  1.0954 -2.0715
34936SOL    HW2 7702   2.801   2.775   4.559 -0.6218 -0.0624  1.1218
34937SOL     OW 7703   2.864   7.531   5.621 -0.2861  0.2140 -0.4280
34937SOL    HW1 7704   2.870   7.437   5.602  4.2262  0.2499 -0.4317
34937SOL    HW2 7705   2.873   7.537   5.716  0.4747  0.6011 -0.5112
34938SOL     OW 7706   3.052   1.225   9.285  0.0196  0.3247  0.0560
34938SOL    HW1 7707   3.053   1.139   9.327 -2.0293  0.4197  0.4009
34938SOL    HW2 7708   3.010   1.210   9.200  0.9051  0.7678 -0.4783
34939SOL     OW 7709   4.952   0.153   9.654  0.0177  0.3398 -0.1206
34939SOL    HW1 7710   4.869   0.145   9.606 -0.5181 -1.3809  0.9997
34939SOL    HW2 7711   4.933   0.119   9.741  1.3882  1.9036  0.8497
34940SOL     OW 7712   2.812   3.740   1.007 -0.3361 -0.9761 -0.3185
34940SOL    HW1 7713   2.888   3.688   1.031 -0.3902 -0.9725 -0.1387
34940SOL    HW2 7714   2.836   3.780   0.923  0.4110  0.1122  0.3785
34941SOL     OW 7715   3.776   5.133   7.672  0.1521  0.2761 -0.3822
34941SOL    HW1 7716   3.823   5.216   7.680  0.7194  0.0501 -1.2532
34941SOL    HW2 7717   3.685   5.159   7.659 -0.0453  0.7161  1.4727
34942SOL     OW 7718   9.300   8.960   9.182 -0.5795 -0.4579  0.3212
34942SOL    HW1 7719   9.380   8.989   9.227 -0.3467 -0.7534  0.0977
34942SOL    HW2 7720   9.294   9.018   9.106 -0.6790 -0.3143  0.4380
34943SOL     OW 7721   8.320   3.612   5.734  0.5804  0.6449  0.1111
34943SOL    HW1 7722   8.361   3.526   5.746 -1.5869 -0.4372  0.4368
34943SOL    HW2 7723   8.266   3.602   5.656 -2.0039  0.6413  1.7587
34944SOL     OW 7724   3.705  10.380   4.107 -0.2376 -0.4735  0.0818
34944SOL    HW1 7725   3.726  10.358   4.198 -1.0099  0.4051  0.4896
34944SOL    HW2 7726   3.657  10.304   4.074 -0.8390 -0.3804  0.7267
34945SOL     OW 7727   8.412   4.673   3.000 -0.2062  0.0286 -0.0032
34945SOL    HW1 7728   8.456   4.590   2.981  0.3533  0.6012 -1.3335
34945SOL    HW2 7729   8.397   4.671   3.094  0.0425 -1.4599  0.0278
34946SOL     OW 7730  10.085   6.961  10.516  0.5384  0.8069  0.4722
34946SOL    HW1 7731  10.034   6.931  10.591  0.2549 -0.8538 -0.3315
34946SOL    HW2 7732  10.091   6.884  10.459  2.7315  1.3421 -0.1182
34947SOL     OW 7733   0.807   8.532   3.784 -0.7755  0.3371  0.2045
34947SOL    HW1 7734   0.762   8.589   3.722 -0.8103  1.4238  1.1970
34947SOL    HW2 7735   0.791   8.572   3.869  2.1933  0.9140  0.6018
34948SOL     OW 7736  10.547   7.939   4.622 -0.0892 -0.4718  0.2272
34948SOL    HW1 7737  10.532   7.951   4.716  0.8428 -0.4146  0.3758
34948SOL    HW2 7738  10.522   8.023   4.583  2.8716  0.8270  0.8417
34949SOL     OW 7739   4.872   4.111   8.673 -0.2483  0.1659  0.0851
34949SOL    HW1 7740   4.789   4.066   8.684 -1.8773  2.6782 -1.1144
34949SOL    HW2 7741   4.911   4.072   8.595 -0.8220 -0.2551  0.0063
34950SOL     OW 7742   2.738   3.273   7.087  0.4105 -0.3537 -0.0843
34950SOL    HW1 7743   2.713   3.181   7.078  0.5747 -0.3912 -0.1757
34950SOL    HW2 7744   2.659   3.317   7.115  0.0717 -0.3592 -0.9875
34951SOL     OW 7745   7.396   8.880  10.647 -0.2132 -0.3563 -0.0602
34951SOL    HW1 7746   7.432   8.932  10.576 -1.0583  0.9006  0.3857
34951SOL    HW2 7747   7.316   8.842  10.611 -1.6233  1.7337  0.6731
34952SOL     OW 7748   0.741   5.723   6.982  0.2787 -0.7006 -0.2309
34952SOL    HW1 7749   0.721   5.781   7.056  0.0012 -0.5333 -0.4361
34952SOL    HW2 7750   0.697   5.641   7.003  1.7229 -1.2846  0.6822
34953SOL     OW 7751   1.631   8.152  10.054 -0.2165  0.1186  0.6053
34953SOL    HW1 7752   1.658   8.223  10.112 -1.1239  0.7588  0.2772
34953SOL    HW2 7753   1.577   8.196   9.988 -2.0321 -1.0843  1.2363
34954SOL     OW 7754   9.515   9.106   0.368  1.2465 -0.7010 -0.5935
34954SOL    HW1 7755   9.491   9.188   0.412 -0.0770 -0.6536 -1.3253
34954SOL    HW2 7756   9.563   9.134   0.291 -1.0539 -0.3985 -2.0288
34955SOL     OW 7757   2.038   7.332  10.285 -0.5445  0.0189  0.2504
34955SOL    HW1 7758   2.062   7.285  10.205  0.0944  0.8193 -0.0447
34955SOL    HW2 7759   2.066   7.274  10.356  0.1210 -0.1051 -0.1068
34956SOL     OW 7760   6.588   8.736   6.097 -0.4915 -0.1442 -0.2848
34956SOL    HW1 7761   6.543   8.779   6.169  0.6098 -0.3790  0.5760
34956SOL    HW2 7762   6.645   8.804   6.061 -0.8744 -0.0903 -0.7972
34957SOL     OW 7763   6.753   3.663   3.417  0.1813  0.0963  0.0691
34957SOL    HW1 7764   6.805   3.737   3.386 -0.3172  0.4906  0.1486
34957SOL    HW2 7765   6.662   3.693   3.408 -0.0136 -0.3895  0.3993
34958SOL     OW 7766   9.826   5.302  10.412 -0.8064  0.0874 -0.1776
34958SOL    HW1 7767   9.816   5.228  10.472 -0.7981  0.5778  0.4396
34958SOL    HW2 7768   9.740   5.345  10.414 -0.8931 -0.0580 -0.7414
34959SOL     OW 7769   0.266   5.901   7.107  0.8591  0.1671  0.1253
34959SOL    HW1 7770   0.316   5.821   7.125  1.4246  0.3713 -0.4829
34959SOL    HW2 7771   0.284   5.957   7.182  0.0680 -0.4535  0.7907
34960SOL     OW 7772   1.171   0.911   6.611  0.2913 -0.2596 -0.0342
34960SOL    HW1 7773   1.110   0.944   6.677  0.5253  0.8805 -0.3560
34960SOL    HW2 7774   1.254   0.953   6.632  0.4627 -0.1933 -0.8100
34961SOL     OW 7775   9.291   4.667   2.154  0.8203 -0.5022 -0.3414
34961SOL    HW1 7776   9.358   4.602   2.175  0.3658 -1.5511 -1.9526
34961SOL    HW2 7777   9.209   4.627   2.182  0.6552 -0.0762 -0.2043
34962SOL     OW 7778   4.267   3.785   0.677  0.3750 -0.3472 -0.5724
34962SOL    HW1 7779   4.238   3.841   0.749 -1.0191 -1.1696 -0.4784
34962SOL    HW2 7780   4.246   3.835   0.598 -0.0202 -0.3509 -0.4685
34963SOL     OW 7781   5.950   0.006   9.840 -0.0783 -0.3842 -0.1806
34963SOL    HW1 7782   5.872   0.003   9.784 -0.2538  1.9102 -0.1858
34963SOL    HW2 7783   5.946  -0.073   9.893 -2.4628 -0.2833 -0.1279
34964SOL     OW 7784   0.176   4.744   9.277 -0.2260  0.0451 -0.2532
34964SOL    HW1 7785   0.246   4.722   9.339  0.1227 -0.0352 -0.6696
34964SOL    HW2 7786   0.100   4.762   9.332  0.0048 -0.3022  0.1862
34965SOL     OW 7787   6.844   1.925   3.599 -0.0847 -0.0268 -0.2377
34965SOL    HW1 7788   6.776   1.991   3.594 -0.6352 -0.5042  0.7194
34965SOL    HW2 7789   6.803   1.845   3.564  0.1752 -0.1736 -0.2154
34966SOL     OW 7790   3.668   1.603   1.625  0.6086 -0.7295 -0.0352
34966SOL    HW1 7791   3.733   1.537   1.598  0.4516 -0.9556  0.1349
34966SOL    HW2 7792   3.586   1.554   1.629  0.2347 -0.2404 -1.2185
34967SOL     OW 7793   7.432  10.317   9.455 -0.1770 -0.0245  0.3323
34967SOL    HW1 7794   7.506  10.263   9.481 -1.7543 -2.6969 -0.3116
34967SOL    HW2 7795   7.429  10.309   9.360 -0.7802  0.7842  0.2699
34968SOL     OW 7796   7.805   8.271   5.163 -0.3898  0.2496  0.2129
34968SOL    HW1 7797   7.898   8.292   5.174 -0.0411 -1.0760 -0.0173
34968SOL    HW2 7798   7.769   8.276   5.252  0.2310 -0.6223  0.5308
34969SOL     OW 7799   4.519   4.632   9.619 -0.6447  0.6908 -0.4019
34969SOL    HW1 7800   4.530   4.694   9.547 -1.3877 -0.6084 -1.6874
34969SOL    HW2 7801   4.606   4.622   9.656 -0.4694  2.2985 -0.3024
34970SOL     OW 7802   3.415   8.979   6.097  0.0025  0.1255 -0.0122
34970SOL    HW1 7803   3.349   8.909   6.091  0.4633 -0.3587  0.4807
34970SOL    HW2 7804   3.445   8.991   6.007  0.5474 -0.9335  0.0033
34971SOL     OW 7805   3.348   5.806   1.749  0.4167 -0.3316  0.1188
34971SOL    HW1 7806   3.282   5.846   1.693  3.2662  3.1081 -1.1724
34971SOL    HW2 7807   3.321   5.830   1.838 -2.3588 -2.9991  0.1634
34972SOL     OW 7808   2.052   1.170   0.792 -0.0039  0.3867 -0.1494
34972SOL    HW1 7809   2.007   1.176   0.876  0.2519 -1.1403  0.1368
34972SOL    HW2 7810   2.126   1.110   0.809 -0.4148 -0.6004 -1.6401
34973SOL     OW 7811   3.023   5.623  10.129  0.2794  0.2728 -0.6178
34973SOL    HW1 7812   3.105   5.574  10.119 -0.3920 -0.7559 -1.3195
34973SOL    HW2 7813   3.047   5.701  10.178  0.9287 -2.1475  3.3653
34974SOL     OW 7814   7.395   8.900   5.218  0.4256  0.3505  0.0616
34974SOL    HW1 7815   7.457   8.892   5.290  0.8812  1.3211 -0.2097
34974SOL    HW2 7816   7.367   8.810   5.201  2.0086 -0.1619 -0.0232
34975SOL     OW 7817   2.740   8.718   5.408  0.3543 -0.2585 -0.2237
34975SOL    HW1 7818   2.703   8.702   5.495  0.7250  1.4290  0.2870
34975SOL    HW2 7819   2.668   8.703   5.348 -0.0975 -0.7784  0.4411
34976SOL     OW 7820   8.159   6.660   8.755 -0.0102 -0.1231 -0.2821
34976SOL    HW1 7821   8.144   6.600   8.682 -0.2047 -0.9318  0.3988
34976SOL    HW2 7822   8.118   6.742   8.728  1.6890  0.2421 -1.9286
34977SOL     OW 7823   7.379   2.129   4.087 -0.0122 -0.8391 -0.2275
34977SOL    HW1 7824   7.403   2.098   4.000  0.9738  0.6618 -0.5248
34977SOL    HW2 7825   7.286   2.151   4.080  0.1640 -0.3176 -1.0298
34978SOL     OW 7826   2.145   9.125   8.675 -0.5368 -0.2567 -0.5125
34978SOL    HW1 7827   2.181   9.179   8.746  0.3001 -0.8871 -0.4458
34978SOL    HW2 7828   2.213   9.125   8.608 -0.4573 -1.3538 -0.4443
34979SOL     OW 7829   5.521   9.786  10.479 -0.0257  0.1538  0.3618
34979SOL    HW1 7830   5.464   9.771  10.405 -0.2049  2.2183  0.0081
34979SOL    HW2 7831   5.472   9.755  10.555 -1.8885  2.2634  0.1201
34980SOL     OW 7832   7.812   2.330   4.089  0.1306  0.0266  0.5813
34980SOL    HW1 7833   7.902   2.315   4.061 -0.7922 -0.1230 -2.7550
34980SOL    HW2 7834   7.810   2.421   4.117  0.7165  1.1175 -2.5350
34981SOL     OW 7835   0.536   5.418   6.763 -0.0180 -0.1971  0.6208
34981SOL    HW1 7836   0.584   5.373   6.832 -0.3107 -1.6251 -0.0697
34981SOL    HW2 7837   0.448   5.430   6.799  0.3209  0.7245  1.1716
34982SOL     OW 7838   9.466   1.004   3.409  0.4601  0.3163 -0.2011
34982SOL    HW1 7839   9.446   1.060   3.484  1.5172  0.6746 -0.1735
34982SOL    HW2 7840   9.408   0.928   3.420 -0.6622  1.1751  0.0086
34983SOL     OW 7841   2.796   9.155   7.839  0.2542  0.7387 -1.1103
34983SOL    HW1 7842   2.752   9.137   7.757 -2.2054 -1.9146  0.5929
34983SOL    HW2 7843   2.824   9.069   7.871  3.2613  1.8978 -0.1642
34984SOL     OW 7844   8.585   5.721   5.005 -0.0584 -0.1806 -0.3765
34984SOL    HW1 7845   8.525   5.686   5.070 -0.7238 -0.2075 -0.9921
34984SOL    HW2 7846   8.603   5.811   5.034  1.9620 -1.0626  1.4274
34985SOL     OW 7847   6.935   7.737   5.017  0.2894  0.0841 -0.4525
34985SOL    HW1 7848   7.026   7.762   5.004  0.8230 -1.0157  0.8782
34985SOL    HW2 7849   6.913   7.772   5.104  0.5883 -2.5698  0.7982
34986SOL     OW 7850   4.041   2.982   5.804 -0.0811  0.0281  0.2649
34986SOL    HW1 7851   4.004   3.054   5.855  0.9686  0.6409  0.1915
34986SOL    HW2 7852   4.034   2.906   5.861  0.1558  0.5002  0.9417
34987SOL     OW 7853   2.553   4.408   7.274  0.1387  0.1365  0.3511
34987SOL    HW1 7854   2.518   4.339   7.331 -0.3964  0.2659  0.1819
34987SOL    HW2 7855   2.606   4.462   7.333  1.1867 -0.8514  0.3308
34988SOL     OW 7856   4.536   2.749   6.578 -0.4385  0.2983 -0.1554
34988SOL    HW1 7857   4.607   2.737   6.515 -0.1992 -0.3316  0.2271
34988SOL    HW2 7858   4.459   2.712   6.535 -0.0312 -1.2469  0.3791
34989SOL     OW 7859   9.285   9.729   0.305 -0.3984 -0.0365 -0.4714
34989SOL    HW1 7860   9.228   9.739   0.229  0.0449  0.0019 -0.8008
34989SOL    HW2 7861   9.224   9.725   0.379 -0.7914  1.0802 -0.7069
34990SOL     OW 7862   8.783   6.862   3.008  0.0307  0.2273 -0.3153
34990SOL    HW1 7863   8.701   6.813   3.004 -0.2306  0.7099 -1.2100
34990SOL    HW2 7864   8.852   6.795   3.012 -0.4030 -0.1766  0.4029
34991SOL     OW 7865  10.535   3.244   4.312  0.0948  0.3042 -0.4431
34991SOL    HW1 7866  10.586   3.217   4.388 -2.0582  1.2604  1.4727
34991SOL    HW2 7867  10.500   3.162   4.276  1.4162 -0.1883 -0.6549
34992SOL     OW 7868   4.819   8.692   0.864  0.2185  0.2197 -0.5182
34992SOL    HW1 7869   4.771   8.707   0.783  2.2204  1.4157 -1.5670
34992SOL    HW2 7870   4.795   8.765   0.921 -2.0091 -1.1768  0.4744
34993SOL     OW 7871  10.401   5.280   2.138 -0.4473 -0.3273 -0.1311
34993SOL    HW1 7872  10.396   5.375   2.123  1.8291 -0.4090 -1.9398
34993SOL    HW2 7873  10.401   5.242   2.050  2.7122 -1.6582  0.3185
34994SOL     OW 7874   0.894   2.692   2.509 -0.2213  0.0606  0.0365
34994SOL    HW1 7875   0.938   2.770   2.476  0.3750  1.1096  2.9941
34994SOL    HW2 7876   0.962   2.626   2.517  0.7214  1.2121  3.1569
34995SOL     OW 7877   9.012   6.531   6.253 -0.2039  0.3982  0.1190
34995SOL    HW1 7878   8.942   6.585   6.216 -1.2893  0.1385  1.7305
34995SOL    HW2 7879   8.968   6.454   6.287  1.1937 -0.9620 -1.0374
34996SOL     OW 7880   9.234   8.504   7.720 -0.4575 -0.4206 -0.0774
34996SOL    HW1 7881   9.320   8.473   7.692 -0.7896 -1.0787 -0.4104
34996SOL    HW2 7882   9.209   8.569   7.654 -0.9983 -1.5654 -1.0548
34997SOL     OW 7883   9.971   0.154   5.623 -0.1132  0.4356 -0.3639
34997SOL    HW1 7884   9.932   0.239   5.603 -1.7201  0.3668  2.0061
34997SOL    HW2 7885   9.901   0.105   5.666  1.4397 -1.2581  0.3945
34998SOL     OW 7886   8.606   0.777   3.553  0.2402  0.0354  0.1516
34998SOL    HW1 7887   8.585   0.815   3.468  1.7667 -0.5516 -0.5212
34998SOL    HW2 7888   8.601   0.683   3.539  1.3758 -0.0875  0.4487
34999SOL     OW 7889   1.484   9.866   3.521  0.1178 -0.1705  0.1942
34999SOL    HW1 7890   1.553   9.919   3.483 -0.4441  1.3460  1.2057
34999SOL    HW2 7891   1.530   9.801   3.575  0.7755  0.7280  0.7392
35000SOL     OW 7892   2.058   4.572   5.651  0.2332 -0.3613 -0.3251
35000SOL    HW1 7893   2.084   4.610   5.735 -1.5405  0.9805 -0.3107
35000SOL    HW2 7894   2.136   4.527   5.619  1.7764  1.4005  0.7683
35001SOL     OW 7895   0.496   1.148   4.140 -0.0150 -0.3221 -0.0367
35001SOL    HW1 7896   0.554   1.087   4.095 -1.0123 -0.5731 -1.0144
35001SOL    HW2 7897   0.520   1.234   4.106  0.5255 -0.2947  0.3956
35002SOL     OW 7898   6.908   1.406  10.256  0.1552  0.0352  0.3564
35002SOL    HW1 7899   6.967   1.331  10.266  1.4959  1.1162  0.7686
35002SOL    HW2 7900   6.885   1.405  10.163  1.1139 -0.1944  0.1130
35003SOL     OW 7901  10.530   7.282   0.848 -0.6139 -0.0890  0.2520
35003SOL    HW1 7902  10.552   7.250   0.936 -0.2639  0.4939  0.3844
35003SOL    HW2 7903  10.580   7.363   0.839 -1.3012  0.2929 -0.1675
35004SOL     OW 7904   1.954   9.518   2.211  0.3398  0.4877 -0.1473
35004SOL    HW1 7905   1.922   9.455   2.276 -1.3952  0.2252 -1.1906
35004SOL    HW2 7906   2.030   9.477   2.172  0.6682  0.1145  0.8464
35005SOL     OW 7907   0.670   9.077   4.602  0.8662 -0.5496  0.3584
35005SOL    HW1 7908   0.642   9.145   4.540 -1.1149 -1.8956 -0.3193
35005SOL    HW2 7909   0.619   9.094   4.681  1.6609 -0.2298  0.8108
35006SOL     OW 7910   7.080   9.395   1.200 -0.5003 -0.2868 -0.4323
35006SOL    HW1 7911   7.026   9.411   1.123 -0.8217  0.4596 -0.0648
35006SOL    HW2 7912   7.098   9.301   1.198 -0.5500 -0.2830 -1.3783
35007SOL     OW 7913   6.650   0.418  10.781 -0.0418 -0.1864  0.3519
35007SOL    HW1 7914   6.646   0.361  10.858 -0.1935 -0.6923 -0.0267
35007SOL    HW2 7915   6.743   0.433  10.767 -0.0604  2.0269  2.1712
35008SOL     OW 7916   9.998   0.690   2.057 -0.4306  0.8105 -1.4355
35008SOL    HW1 7917   9.981   0.731   2.142 -0.2911  2.0291 -1.9750
35008SOL    HW2 7918  10.091   0.670   2.059 -0.7037 -0.4504 -0.7680
35009SOL     OW 7919   2.285   8.599   7.810  0.3708  0.1606 -0.6621
35009SOL    HW1 7920   2.239   8.562   7.736 -2.3398  0.2851  0.8532
35009SOL    HW2 7921   2.300   8.525   7.869  1.2131  0.3199 -0.6499
35010SOL     OW 7922   9.707   9.887   4.815  0.0065 -0.7873  0.3939
35010SOL    HW1 7923   9.627   9.890   4.764 -0.6370  1.3690  1.4088
35010SOL    HW2 7924   9.761   9.822   4.771 -2.0241 -1.8248 -0.6990
35011SOL     OW 7925   2.105   5.797   5.948 -0.0841 -0.4661 -0.4272
35011SOL    HW1 7926   2.165   5.742   5.898  1.8525 -0.1421  1.3568
35011SOL    HW2 7927   2.150   5.881   5.954 -0.8432 -0.1182  0.7285
35012SOL     OW 7928   1.663   5.355   7.481  0.1021  0.4038  0.3803
35012SOL    HW1 7929   1.589   5.400   7.440 -0.5942 -1.0116  0.0021
35012SOL    HW2 7930   1.627   5.320   7.562  1.1171  2.0274  1.5840
35013SOL     OW 7931   1.427   3.249   7.338 -0.3463  0.3109  0.0575
35013SOL    HW1 7932   1.341   3.288   7.325  0.8843  3.8243  1.4279
35013SOL    HW2 7933   1.448   3.268   7.430  1.9543 -0.3014 -0.2816
35014SOL     OW 7934   5.782   7.442   9.489  0.5740 -0.4431  0.3670
35014SOL    HW1 7935   5.844   7.514   9.479 -0.8392  0.9893  1.2963
35014SOL    HW2 7936   5.767   7.410   9.400  3.7595 -1.9043  0.2554
35015SOL     OW 7937   9.115   9.237   8.808  0.0735 -0.4981  0.0545
35015SOL    HW1 7938   9.119   9.310   8.746 -0.5726 -1.4302 -1.1278
35015SOL    HW2 7939   9.026   9.204   8.801  0.2603 -1.2013  0.8157
35016SOL     OW 7940   5.362   3.784   5.052  0.2290 -0.0212 -0.5090
35016SOL    HW1 7941   5.353   3.729   5.130 -0.7643 -3.3564 -2.7365
35016SOL    HW2 7942   5.455   3.782   5.032  0.3915  0.2625  0.2179
35017SOL     OW 7943   3.543   6.419   7.774  0.0566  0.6425  0.1683
35017SOL    HW1 7944   3.507   6.491   7.722 -1.6983  1.0808  1.9016
35017SOL    HW2 7945   3.467   6.371   7.806  1.1028 -0.1319  1.6180
35018SOL     OW 7946   7.832   5.343   7.503 -0.3697 -0.1227  0.7906
35018SOL    HW1 7947   7.771   5.384   7.565 -0.5621 -1.0202  1.2213
35018SOL    HW2 7948   7.899   5.303   7.559  0.5961  0.7962  0.3243
35019SOL     OW 7949   2.367   7.960   5.293  0.0628  0.0747  0.4191
35019SOL    HW1 7950   2.288   7.907   5.287  0.6594 -0.7243 -0.8244
35019SOL    HW2 7951   2.335   8.050   5.290 -0.7961 -0.2379 -0.5896
35020SOL     OW 7952  10.111   2.204   6.227 -0.2249 -0.3676 -0.1428
35020SOL    HW1 7953  10.107   2.156   6.310  1.5660 -0.5180 -0.1183
35020SOL    HW2 7954  10.052   2.155   6.169 -1.7759 -0.0509  1.1143
35021SOL     OW 7955   9.047   2.354   9.411 -0.0993 -0.2401  0.0061
35021SOL    HW1 7956   9.058   2.332   9.504  0.3830 -1.1455 -0.2571
35021SOL    HW2 7957   8.979   2.422   9.411 -1.3949 -1.4635  0.8851
35022SOL     OW 7958   9.497  10.260   0.583 -0.4175  0.3475  0.2157
35022SOL    HW1 7959   9.451  10.188   0.627 -0.7961  0.5942  0.2240
35022SOL    HW2 7960   9.580  10.221   0.556 -0.8796 -0.2916 -0.3571
35023SOL     OW 7961   7.756   5.320   8.128 -0.4493  0.5593  0.3528
35023SOL    HW1 7962   7.797   5.260   8.065 -0.0115  0.5393  0.6515
35023SOL    HW2 7963   7.768   5.407   8.090 -1.0858  0.4693 -0.0820
35024SOL     OW 7964   1.648   9.590   3.415 -0.5121  0.0407 -0.2907
35024SOL    HW1 7965   1.646   9.617   3.507  0.5889  1.1687 -0.5765
35024SOL    HW2 7966   1.659   9.495   3.419  2.3821  0.3053  0.8072
35025SOL     OW 7967   7.007   8.271  10.255 -0.6054  0.8164  0.1129
35025SOL    HW1 7968   7.056   8.190  10.245  0.3318  1.2133  1.3118
35025SOL    HW2 7969   7.020   8.318  10.172 -1.1429 -0.2243 -0.5780
35026SOL     OW 7970   5.707   5.827   2.509  1.3280  0.2039  0.1185
35026SOL    HW1 7971   5.623   5.833   2.463  0.0377 -0.2375  2.2138
35026SOL    HW2 7972   5.766   5.786   2.447 -0.3298 -0.4661 -1.1013
35027SOL     OW 7973   8.585   5.041   9.431 -0.1471 -0.4616 -0.0013
35027SOL    HW1 7974   8.631   5.067   9.351  0.3103  0.0334  0.4119
35027SOL    HW2 7975   8.532   5.117   9.455  0.9744  0.0252  1.0512
35028SOL     OW 7976   3.834   3.191   5.166 -0.6067  0.4069  0.4020
35028SOL    HW1 7977   3.781   3.153   5.096  0.2865  1.1716 -0.7404
35028SOL    HW2 7978   3.825   3.285   5.153  0.5651  0.5499  0.5211
35029SOL     OW 7979   4.577   6.144  10.520  0.0627 -0.4667  0.5881
35029SOL    HW1 7980   4.648   6.113  10.464 -1.9090 -2.4962 -0.9344
35029SOL    HW2 7981   4.532   6.210  10.468  0.9172  1.0172  1.6561
35030SOL     OW 7982   3.726   8.506   3.656  0.0419  0.0663  0.0114
35030SOL    HW1 7983   3.680   8.488   3.574 -0.0771  2.8164 -0.6490
35030SOL    HW2 7984   3.667   8.475   3.724 -1.1602  0.2562 -0.9010
35031SOL     OW 7985   2.972   9.460   4.383  0.2233  0.9771 -0.1746
35031SOL    HW1 7986   2.975   9.486   4.475 -4.5291 -1.0288  0.8430
35031SOL    HW2 7987   2.975   9.364   4.385 -1.7364  0.8128 -1.8617
35032SOL     OW 7988  10.641   8.763   5.897  0.5320  0.3218  0.1601
35032SOL    HW1 7989  10.703   8.702   5.857 -0.0973 -1.2258  1.4543
35032SOL    HW2 7990  10.657   8.757   5.991 -2.7192 -1.5778  0.7494
35033SOL     OW 7991   2.068   6.105   7.184  0.4925  0.0318 -0.1145
35033SOL    HW1 7992   2.015   6.037   7.143  0.5129  1.0926 -2.0046
35033SOL    HW2 7993   2.157   6.090   7.150  0.8344  0.0258  0.7551
35034SOL     OW 7994   8.639   3.966   4.517  0.3505 -0.2099  0.3389
35034SOL    HW1 7995   8.579   3.943   4.447 -0.4496  1.2216  0.5175
35034SOL    HW2 7996   8.583   4.003   4.586  1.3122  0.1776  0.9367
35035SOL     OW 7997   5.938   2.618   8.361 -0.0122 -0.1161 -0.1035
35035SOL    HW1 7998   5.857   2.649   8.321 -0.5931 -0.6006  0.6547
35035SOL    HW2 7999   5.996   2.598   8.287 -1.0469 -0.9800 -0.7072
35036SOL     OW 8000   7.621   9.118   3.061  0.1908 -0.0176 -0.4082
35036SOL    HW1 8001   7.604   9.024   3.052  0.0984 -0.0710  0.2958
35036SOL    HW2 8002   7.618   9.151   2.971  1.1768 -0.8477 -0.7801
35037SOL     OW 8003  10.464   0.546   9.754  0.1940 -0.1618  0.7194
35037SOL    HW1 8004  10.466   0.471   9.696 -1.4222  0.4143 -0.1551
35037SOL    HW2 8005  10.430   0.512   9.837 -1.9169 -0.2120 -0.0925
35038SOL     OW 8006   8.929   5.288   5.992 -0.3775 -0.1971 -0.2129
35038SOL    HW1 8007   8.987   5.286   6.068 -0.7194 -1.0713  0.0442
35038SOL    HW2 8008   8.983   5.318   5.920 -0.2579  1.5112  0.5456
35039SOL     OW 8009   7.352  10.196   4.869  0.0927  0.1232 -0.0635
35039SOL    HW1 8010   7.312  10.172   4.953  0.8195  1.3753  0.6682
35039SOL    HW2 8011   7.277  10.216   4.812 -0.3923  1.7183  1.0582
35040SOL     OW 8012   5.913   6.842   7.568 -0.0342 -0.1872 -0.1698
35040SOL    HW1 8013   5.847   6.910   7.562  0.1448 -0.1221 -1.8256
35040SOL    HW2 8014   5.932   6.835   7.662 -1.2944  0.8165  0.1879
35041SOL     OW 8015   9.414   2.711   5.490 -0.4807  0.2274 -0.1679
35041SOL    HW1 8016   9.433   2.739   5.401 -1.5057 -2.2355 -1.2379
35041SOL    HW2 8017   9.477   2.758   5.544  1.8323 -0.0681 -2.4531
35042SOL     OW 8018   4.859   1.586   5.893  0.3246 -0.2444  0.1411
35042SOL    HW1 8019   4.789   1.609   5.954  0.3491  0.0608  0.0555
35042SOL    HW2 8020   4.939   1.617   5.936  0.2306  1.0861 -0.5797
35043SOL     OW 8021   8.284   0.254   3.514  0.2421 -0.0965  0.5389
35043SOL    HW1 8022   8.298   0.176   3.568  0.2362  1.0708  2.3074
35043SOL    HW2 8023   8.235   0.222   3.438  0.8278 -1.9160  0.8829
35044SOL     OW 8024   8.987   4.060   8.245  0.0067  0.3626  0.1730
35044SOL    HW1 8025   8.922   4.000   8.282 -0.1599  0.5375  0.1702
35044SOL    HW2 8026   9.070   4.034   8.284 -0.4713  1.9591  2.4488
35045SOL     OW 8027   4.711   8.192   6.492 -0.1040 -0.3993 -0.1359
35045SOL    HW1 8028   4.651   8.237   6.551  0.6703  1.9104 -0.9845
35045SOL    HW2 8029   4.798   8.207   6.530  0.1183 -2.2846  0.1976
35046SOL     OW 8030   8.076   1.764   7.608  0.6852  0.5099  0.7656
35046SOL    HW1 8031   8.070   1.824   7.534  0.5035 -0.8497 -0.3643
35046SOL    HW2 8032   8.063   1.677   7.570  0.6028 -0.2351  2.3926
35047SOL     OW 8033  10.319  10.231   4.171  0.1234  0.3395 -0.1477
35047SOL    HW1 8034  10.405  10.254   4.204 -0.5915  0.9993  1.3643
35047SOL    HW2 8035  10.323  10.137   4.154  0.9587  0.2658  0.4493
35048SOL     OW 8036   8.980   7.443   7.528  0.2382 -0.1697  0.0871
35048SOL    HW1 8037   8.979   7.348   7.533  0.6059 -0.3189 -1.7262
35048SOL    HW2 8038   9.025   7.462   7.445 -1.0273  1.5371 -0.2757
35049SOL     OW 8039  10.657   0.144   7.168 -0.4044  0.2762  0.5413
35049SOL    HW1 8040  10.677   0.152   7.075  1.2881  0.5006  0.8989
35049SOL    HW2 8041  10.653   0.049   7.183 -1.6915  0.2346  0.0647
35050SOL     OW 8042   0.522   0.680   7.061 -0.0827 -0.4337 -0.3120
35050SOL    HW1 8043   0.529   0.665   7.156  1.2451  1.6004 -0.0152
35050SOL    HW2 8044   0.429   0.698   7.047 -0.3357 -0.9706  0.5792
35051SOL     OW 8045   0.446   9.117   1.805  0.3531 -0.3356 -0.2087
35051SOL    HW1 8046   0.453   9.138   1.898 -2.7075 -0.6535  0.2041
35051SOL    HW2 8047   0.502   9.182   1.761 -0.7825  2.0554  1.6555
35052SOL     OW 8048   7.820   1.122   7.154 -0.5954  0.3495  0.1253
35052SOL    HW1 8049   7.872   1.192   7.116 -1.0295 -0.0929 -1.3831
35052SOL    HW2 8050   7.729   1.150   7.141 -0.7717 -0.4273 -0.4381
35053SOL     OW 8051   4.527   1.726  10.102  0.3422 -0.3660 -0.0212
35053SOL    HW1 8052   4.528   1.782  10.180  0.3989  1.7674 -1.4576
35053SOL    HW2 8053   4.524   1.637  10.136  0.6176  0.4816  2.4071
35054SOL     OW 8054   9.117   0.536   5.426  0.1188  0.0129  0.2415
35054SOL    HW1 8055   9.084   0.449   5.404 -1.1216  0.3225  0.7931
35054SOL    HW2 8056   9.103   0.588   5.347  1.0781 -0.3250 -0.1697
35055SOL     OW 8057   9.235   9.819  10.651  0.2069  0.1089 -0.1972
35055SOL    HW1 8058   9.320   9.819  10.607  0.1817 -0.2405 -0.2481
35055SOL    HW2 8059   9.216   9.726  10.665 -0.3489  0.1739 -0.5349
35056SOL     OW 8060   6.256   4.712   5.710  0.1644 -0.1466  0.4404
35056SOL    HW1 8061   6.260   4.769   5.633 -1.3798 -1.2576 -0.5407
35056SOL    HW2 8062   6.347   4.699   5.735  0.7698 -0.1819 -1.5683
35057SOL     OW 8063  10.486   8.343   3.401 -0.3251 -0.0217 -0.1233
35057SOL    HW1 8064  10.495   8.306   3.313 -1.0197  1.6298 -0.9425
35057SOL    HW2 8065  10.395   8.327   3.425 -0.1129 -0.5480  0.3354
35058SOL     OW 8066   9.816   8.393   0.051  0.6268  0.0024  0.2200
35058SOL    HW1 8067   9.853   8.468   0.004  0.5464  1.1231  1.8798
35058SOL    HW2 8068   9.731   8.379   0.010  1.4499 -0.4892 -1.4168
35059SOL     OW 8069   2.752   2.878   9.504 -0.4532 -0.4623 -0.2390
35059SOL    HW1 8070   2.766   2.932   9.582  1.7201  1.3279 -1.7278
35059SOL    HW2 8071   2.699   2.805   9.535 -0.0868  0.3974  2.8046
35060SOL     OW 8072   4.954  10.618   4.895 -0.1867 -0.2464 -0.0445
35060SOL    HW1 8073   4.946  10.529   4.861 -0.8883 -0.1443 -0.1600
35060SOL    HW2 8074   5.028  10.614   4.955 -0.4367 -1.0024  0.2268
35061SOL     OW 8075   4.216   5.738   8.636  0.2061 -0.3177  0.2373
35061SOL    HW1 8076   4.156   5.776   8.571  0.5330 -1.5075 -0.8146
35061SOL    HW2 8077   4.163   5.730   8.715 -0.7596 -0.4621 -0.3956
35062SOL     OW 8078   7.255   9.372  10.289  0.3249  0.2400  0.1176
35062SOL    HW1 8079   7.322   9.310  10.316 -0.2104 -0.4222 -0.0511
35062SOL    HW2 8080   7.186   9.364  10.354 -1.2422 -1.8033 -1.6508
35063SOL     OW 8081   9.849   9.178   1.187  0.1587 -0.0355  0.7285
35063SOL    HW1 8082   9.824   9.133   1.106 -1.5935 -0.7298  1.5856
35063SOL    HW2 8083   9.766   9.186   1.235  0.8005  2.1785  1.5738
35064SOL     OW 8084   6.246   0.729   4.838 -0.1016 -0.0435  0.8940
35064SOL    HW1 8085   6.196   0.806   4.812 -0.4574 -0.6682 -0.2964
35064SOL    HW2 8086   6.181   0.666   4.868  0.0374 -0.5562  0.1251
35065SOL     OW 8087   0.906   4.734   7.130 -0.2806  0.6788 -0.4423
35065SOL    HW1 8088   0.910   4.723   7.225  0.0012  0.4303 -0.4828
35065SOL    HW2 8089   0.990   4.702   7.098 -0.0450  1.5547 -0.7019
35066SOL     OW 8090   3.401   9.621   2.581  0.2630  0.0203  0.5104
35066SOL    HW1 8091   3.473   9.567   2.551 -0.1106 -0.4265  0.4036
35066SOL    HW2 8092   3.341   9.625   2.506 -0.6018 -0.9783  1.1161
35067SOL     OW 8093   2.794   4.763   5.844  0.3003  0.2578 -0.4162
35067SOL    HW1 8094   2.741   4.780   5.923  0.4354 -0.6736 -0.1055
35067SOL    HW2 8095   2.777   4.838   5.787  0.4547  1.1183  0.6327
35068SOL     OW 8096   4.117   1.290   8.693 -0.0286  0.4294 -0.1998
35068SOL    HW1 8097   4.147   1.201   8.675 -1.0499 -0.3079  1.4364
35068SOL    HW2 8098   4.195   1.336   8.724  0.2340 -0.3135  0.2668
35069SOL     OW 8099   1.125   8.800   3.887 -0.2476  0.2794  0.4721
35069SOL    HW1 8100   1.091   8.884   3.917 -1.0319  0.8084 -1.6845
35069SOL    HW2 8101   1.076   8.781   3.807  1.1856 -1.3473 -0.1013
35070SOL     OW 8102   5.434   4.372   3.790 -0.0105  0.1230  0.1453
35070SOL    HW1 8103   5.390   4.287   3.795  0.1856  0.0133  0.0110
35070SOL    HW2 8104   5.461   4.380   3.698  0.7267 -0.0577  0.3323
35071SOL     OW 8105   3.361   3.193   3.306 -0.6679 -0.5709  0.1118
35071SOL    HW1 8106   3.381   3.110   3.263  1.3450 -1.2385  2.1213
35071SOL    HW2 8107   3.396   3.260   3.248  0.3240 -1.3094 -0.1583
35072SOL     OW 8108   8.389   3.587   4.782 -0.0503 -0.3685 -0.4378
35072SOL    HW1 8109   8.294   3.591   4.780 -0.0439 -0.2214 -0.4621
35072SOL    HW2 8110   8.413   3.532   4.708 -0.0975 -0.0529 -0.6923
35073SOL     OW 8111   3.622   9.940   5.324 -0.0187 -0.4490  0.4873
35073SOL    HW1 8112   3.573   9.963   5.245  0.6495 -1.8346 -0.3579
35073SOL    HW2 8113   3.562   9.885   5.375 -0.6659  0.9258  1.2638
35074SOL     OW 8114   7.291   7.175   6.760  0.0253 -0.8155 -0.1889
35074SOL    HW1 8115   7.381   7.184   6.793  0.2408 -0.3739 -0.8820
35074SOL    HW2 8116   7.289   7.227   6.680 -1.2150  0.2600  0.4993
35075SOL     OW 8117   8.676   0.239   6.341 -0.2600 -0.2002  0.1794
35075SOL    HW1 8118   8.658   0.332   6.334  0.0634 -0.1503 -0.0142
35075SOL    HW2 8119   8.633   0.199   6.266  0.1038 -0.1304 -0.0680
35076SOL     OW 8120  10.503   8.043   6.832 -0.3859 -0.1609  0.5233
35076SOL    HW1 8121  10.438   8.078   6.772 -0.2519 -0.8775 -0.0587
35076SOL    HW2 8122  10.454   8.028   6.913 -0.8742 -0.3694  0.1987
35077SOL     OW 8123   3.942   4.017   6.685  0.2016  0.2018  0.0260
35077SOL    HW1 8124   3.864   4.033   6.631  1.1225 -0.8084 -1.7020
35077SOL    HW2 8125   3.977   4.105   6.702 -2.4836  0.8906  2.8177
35078SOL     OW 8126   6.507   9.993   5.698  0.2863  0.1841  0.1446
35078SOL    HW1 8127   6.513  10.064   5.761  0.2731  0.0858  0.2569
35078SOL    HW2 8128   6.596   9.957   5.693  0.0809 -0.4640  0.8704
35079SOL     OW 8129   1.596   5.466   8.940  0.1909 -0.0779  0.8502
35079SOL    HW1 8130   1.621   5.556   8.959 -0.0974  0.5622 -1.5059
35079SOL    HW2 8131   1.507   5.458   8.976 -0.2914  1.0164 -0.0405
35080SOL     OW 8132   7.304   9.979   5.128  0.4695  0.2280  0.1893
35080SOL    HW1 8133   7.215   9.981   5.093  0.3795 -2.1867  0.0649
35080SOL    HW2 8134   7.318   9.887   5.151  3.4351  0.2393 -1.1165
35081SOL     OW 8135   0.861   8.746  10.774  0.4349  0.1029  0.0643
35081SOL    HW1 8136   0.936   8.771  10.719  1.3224  2.1992  2.0716
35081SOL    HW2 8137   0.801   8.820  10.768  0.6660  0.5064  2.0340
35082SOL     OW 8138   9.960   4.730   6.739 -0.3341  0.5900 -0.6696
35082SOL    HW1 8139   9.892   4.776   6.691 -0.6602 -0.0195 -0.8045
35082SOL    HW2 8140   9.953   4.639   6.710  1.0177  0.6385 -1.2564
35083SOL     OW 8141   2.209   5.611   6.451 -0.2770  0.7598  0.0317
35083SOL    HW1 8142   2.216   5.529   6.499  0.7029  0.0750 -1.2271
35083SOL    HW2 8143   2.145   5.593   6.381  2.0754  0.0648 -2.0788
35084SOL     OW 8144  10.683   9.708   4.280 -0.1497 -0.2997 -0.0095
35084SOL    HW1 8145  10.659   9.796   4.310  0.0728 -0.3173  0.2169
35084SOL    HW2 8146  10.621   9.650   4.322 -1.3100 -0.1145 -1.3741
35085SOL     OW 8147   9.588   2.122  10.239  0.4658 -0.2023  0.7883
35085SOL    HW1 8148   9.599   2.052  10.303  1.5662  1.1280  2.1109
35085SOL    HW2 8149   9.675   2.163  10.232 -0.0812  0.8780 -0.1321
35086SOL     OW 8150   5.809   6.277   4.831 -0.1188  0.3263 -0.1263
35086SOL    HW1 8151   5.748   6.210   4.862 -1.2966  0.5976 -1.7073
35086SOL    HW2 8152   5.885   6.229   4.799  0.0374 -0.0873  0.8425
35087SOL     OW 8153   0.539   2.111   6.857 -0.1655  0.3374 -0.1049
35087SOL    HW1 8154   0.587   2.032   6.834 -1.8006 -0.2913 -1.6339
35087SOL    HW2 8155   0.605   2.172   6.889  1.1873 -1.5017  0.7371
35088SOL     OW 8156   3.329   0.129   3.084  0.0389  0.6070 -0.0785
35088SOL    HW1 8157   3.293   0.198   3.029 -3.8439  0.5003  1.9995
35088SOL    HW2 8158   3.288   0.048   3.053  1.3907 -0.2011  0.1178
35089SOL     OW 8159   1.693   7.741   7.016  0.6421  0.4965  0.2758
35089SOL    HW1 8160   1.698   7.691   6.935  0.0319  1.4012 -0.3426
35089SOL    HW2 8161   1.780   7.781   7.025  0.6800  0.4697  0.0194
35090SOL     OW 8162   0.343   5.927  10.775 -0.0497 -0.2541 -0.4017
35090SOL    HW1 8163   0.262   5.973  10.750  0.7418  0.9139 -0.9355
35090SOL    HW2 8164   0.404   5.997  10.798 -0.0737 -1.1937  2.9748
35091SOL     OW 8165   7.882   1.879   5.851 -0.5472  0.3088  0.0711
35091SOL    HW1 8166   7.853   1.961   5.892 -0.0344  1.5789 -1.9559
35091SOL    HW2 8167   7.859   1.889   5.759  0.5939 -1.3466 -0.4337
35092SOL     OW 8168   7.374   0.884   0.275  0.5306  0.2517 -0.0994
35092SOL    HW1 8169   7.379   0.799   0.319 -0.1265 -0.3318 -1.1114
35092SOL    HW2 8170   7.427   0.943   0.329 -1.1020 -0.1602  2.1076
35093SOL     OW 8171   2.031   1.316   9.242 -0.1850  0.4268 -0.2188
35093SOL    HW1 8172   1.956   1.360   9.202 -1.7826 -1.0119  1.0091
35093SOL    HW2 8173   2.035   1.231   9.198  1.1060  0.7028 -0.6588
35094SOL     OW 8174   2.647   3.898   0.553  0.4275  0.0221 -0.0679
35094SOL    HW1 8175   2.595   3.978   0.564  1.2942  0.6533 -0.4890
35094SOL    HW2 8176   2.596   3.831   0.599 -0.8343  0.5833 -0.5939
35095SOL     OW 8177   7.598   7.141   4.524 -0.1918 -0.2951  0.2593
35095SOL    HW1 8178   7.641   7.227   4.522 -0.4363 -0.1710  0.3555
35095SOL    HW2 8179   7.658   7.084   4.476  0.9990 -0.5504  1.9670
35096SOL     OW 8180   4.993   0.260   5.638  0.6073 -0.1181 -0.1964
35096SOL    HW1 8181   5.007   0.212   5.719 -2.5748 -1.5288 -0.3394
35096SOL    HW2 8182   4.916   0.314   5.655  0.3678  0.1898 -1.9983
35097SOL     OW 8183   6.528   5.672   8.019  0.2714  0.2213 -0.4217
35097SOL    HW1 8184   6.608   5.642   8.063  0.2595 -0.4833 -0.8606
35097SOL    HW2 8185   6.457   5.647   8.079  0.3363  0.2683 -0.3256
35098SOL     OW 8186   3.648   1.502  10.202 -0.2477 -0.2664 -0.2948
35098SOL    HW1 8187   3.568   1.456  10.175 -0.4658 -0.5120  0.7340
35098SOL    HW2 8188   3.697   1.438  10.253  0.2708  0.1159 -0.3001
35099SOL     OW 8189   2.239   6.217   7.788 -0.8324 -0.3310 -0.3462
35099SOL    HW1 8190   2.206   6.305   7.770  0.4651  0.3485  0.4888
35099SOL    HW2 8191   2.319   6.211   7.736  0.0637 -0.3248  0.9936
35100SOL     OW 8192  10.255   3.519   7.047  0.0556  0.4452  0.0201
35100SOL    HW1 8193  10.226   3.432   7.018 -1.3073  0.6768  0.6109
35100SOL    HW2 8194  10.345   3.526   7.013 -0.3666 -0.5304 -1.4393
35101SOL     OW 8195   1.588   3.763  10.381 -0.0137 -0.8057  0.2718
35101SOL    HW1 8196   1.555   3.852  10.397 -0.3054 -0.6417 -1.0813
35101SOL    HW2 8197   1.573   3.749  10.287  1.2962 -1.7651  0.1849
35102SOL     OW 8198   1.065   0.523   8.104 -0.1040  1.1699 -0.7026
35102SOL    HW1 8199   1.013   0.575   8.164 -0.2395 -0.1348  0.3618
35102SOL    HW2 8200   1.150   0.568   8.099 -0.1122  1.3221  0.4333
35103SOL     OW 8201   5.088   2.604   9.805  0.2511 -0.5224  0.2637
35103SOL    HW1 8202   5.134   2.675   9.760 -0.3948  0.4660  1.1169
35103SOL    HW2 8203   5.156   2.538   9.819  1.2633  0.5802  0.8217
35104SOL     OW 8204   3.403   2.440   8.255 -0.0490 -0.5157  0.1662
35104SOL    HW1 8205   3.391   2.346   8.241  3.2123 -0.9869 -0.3052
35104SOL    HW2 8206   3.435   2.473   8.172 -1.3052  1.0925  0.2819
35105SOL     OW 8207   5.120   3.639   6.493  0.1912  0.3516  0.1995
35105SOL    HW1 8208   5.180   3.678   6.557  0.3643  0.7931 -0.2257
35105SOL    HW2 8209   5.110   3.548   6.522 -1.2918  1.0262  2.0057
35106SOL     OW 8210   1.169   8.784   3.486  0.2277 -0.2964 -0.3432
35106SOL    HW1 8211   1.187   8.874   3.458 -2.5999  1.1919  1.9522
35106SOL    HW2 8212   1.253   8.739   3.481  1.5463  2.1821 -2.5208
35107SOL     OW 8213   7.123   1.866  10.503  0.0838  0.1777 -0.0494
35107SOL    HW1 8214   7.170   1.795  10.460 -0.0361  0.0118  0.0915
35107SOL    HW2 8215   7.123   1.843  10.596 -2.1690 -0.9800 -0.2568
35108SOL     OW 8216   5.195   0.052  10.585 -0.2869  0.0713 -0.3079
35108SOL    HW1 8217   5.130  -0.018  10.575 -1.8029  1.0842  1.6641
35108SOL    HW2 8218   5.238   0.033  10.669  0.6559  0.4620 -0.6923
35109SOL     OW 8219   8.110   0.579   3.285 -0.6622  0.3831  0.4973
35109SOL    HW1 8220   8.176   0.569   3.354 -1.3761  0.2915  1.1765
35109SOL    HW2 8221   8.062   0.659   3.309 -0.7407  0.5079 -0.0499
35110SOL     OW 8222   2.083   3.571   6.248  0.0006 -0.3489  0.5992
35110SOL    HW1 8223   2.025   3.540   6.318 -0.3732 -3.7512 -1.0302
35110SOL    HW2 8224   2.029   3.569   6.169  1.6468 -1.3183 -0.5581
35111SOL     OW 8225   9.309   9.029   1.033 -0.0392 -0.2044  0.0697
35111SOL    HW1 8226   9.399   8.999   1.022 -0.0715  0.1627 -1.4283
35111SOL    HW2 8227   9.305   9.064   1.122  1.5656  0.6405 -0.1595
35112SOL     OW 8228   4.996   2.532   7.030  0.4485  0.0421  0.2445
35112SOL    HW1 8229   5.085   2.558   7.006 -0.0360  1.6661  0.0605
35112SOL    HW2 8230   4.951   2.615   7.046 -1.0673 -0.7497  0.2286
35113SOL     OW 8231   5.644   1.152   7.585  0.2573 -0.3268  0.2920
35113SOL    HW1 8232   5.642   1.243   7.613  0.1931 -0.3880  0.4883
35113SOL    HW2 8233   5.574   1.110   7.636  0.9220 -0.6926  0.9116
35114SOL     OW 8234   6.644   8.976  10.470 -0.1094  0.2641  0.2995
35114SOL    HW1 8235   6.651   8.941  10.559 -1.5582  3.1793  1.6867
35114SOL    HW2 8236   6.725   9.026  10.457  0.2298 -0.3896 -0.1751
35115SOL     OW 8237   6.906   4.910   8.211  0.3013 -0.1145  0.2768
35115SOL    HW1 8238   6.840   4.843   8.229  2.0927 -2.2500 -0.5391
35115SOL    HW2 8239   6.859   4.977   8.162 -1.8446 -0.1423  2.1379
35116SOL     OW 8240   5.096   8.374   4.482 -0.0529 -0.0788 -0.0332
35116SOL    HW1 8241   5.167   8.309   4.480 -1.1807 -1.3868  0.2892
35116SOL    HW2 8242   5.030   8.338   4.422  0.3018  2.0753 -1.8471
35117SOL     OW 8243   8.587   8.297   4.079  0.5244 -0.3645  0.0492
35117SOL    HW1 8244   8.571   8.203   4.088  0.0857 -0.6212 -2.5964
35117SOL    HW2 8245   8.589   8.312   3.985 -0.5455  2.4909  0.3836
35118SOL     OW 8246  10.577   8.265   2.745  0.3553  0.0777  0.1423
35118SOL    HW1 8247  10.636   8.254   2.670  1.1077 -0.6105  0.8159
35118SOL    HW2 8248  10.611   8.205   2.811  0.0659  1.1017  1.2636
35119SOL     OW 8249   3.049   4.084   2.780  0.0039  0.1019  0.1660
35119SOL    HW1 8250   2.999   4.098   2.861  0.3621  1.2880  0.1931
35119SOL    HW2 8251   3.032   4.162   2.727 -0.3954 -0.7564 -1.0100
35120SOL     OW 8252   7.452   8.716   9.979  0.3794  0.4771  0.0355
35120SOL    HW1 8253   7.527   8.771  10.001  0.5616 -0.2870  1.4299
35120SOL    HW2 8254   7.389   8.733  10.049 -0.0840 -0.1062 -0.2368
35121SOL     OW 8255   4.238   3.435   7.950 -0.3080  0.0191  0.3419
35121SOL    HW1 8256   4.153   3.407   7.983 -0.7822  1.4565  0.4100
35121SOL    HW2 8257   4.219   3.473   7.864 -0.1719  2.6969  1.4219
35122SOL     OW 8258  10.381  10.267   1.432 -0.4747  0.5983 -0.2475
35122SOL    HW1 8259  10.410  10.187   1.388 -0.7956  0.0747  0.4869
35122SOL    HW2 8260  10.462  10.312   1.455 -0.2951  0.6242 -0.8931
35123SOL     OW 8261   9.966   4.392  10.685 -0.1028 -0.8051  0.1295
35123SOL    HW1 8262   9.881   4.436  10.691  0.7547  1.0684 -0.5712
35123SOL    HW2 8263   9.984   4.363  10.774  0.7167  3.2266  1.4684
35124SOL     OW 8264   4.497   0.153   4.376  0.2924  1.1101  0.3922
35124SOL    HW1 8265   4.448   0.205   4.312  1.2907  2.2974  0.5478
35124SOL    HW2 8266   4.552   0.095   4.323 -1.0879 -0.0992  0.2161
35125SOL     OW 8267   6.546   6.990   3.939  0.3050  0.2283 -0.4562
35125SOL    HW1 8268   6.472   7.049   3.930  0.3104  0.3503  0.2411
35125SOL    HW2 8269   6.507   6.903   3.953  0.2987  0.1997 -0.6438
35126SOL     OW 8270   7.033   2.399   5.407  0.6756 -0.5922  0.0690
35126SOL    HW1 8271   6.956   2.355   5.444  0.8358 -0.0179  1.1143
35126SOL    HW2 8272   7.034   2.372   5.315 -0.1534 -1.4680  0.3027
35127SOL     OW 8273   3.728   4.448   8.846 -0.2229  0.2628 -0.1239
35127SOL    HW1 8274   3.771   4.533   8.860  1.9070 -0.8277  0.4928
35127SOL    HW2 8275   3.789   4.400   8.789 -0.0411 -1.7493  1.6511
35128SOL     OW 8276   6.772   5.470   9.761  0.0625  0.4263 -0.0641
35128SOL    HW1 8277   6.751   5.549   9.811  3.0365  1.1644  0.2236
35128SOL    HW2 8278   6.833   5.501   9.694 -1.5356 -1.0657 -2.3437
35129SOL     OW 8279   6.232   8.832   0.613 -0.2243  0.0080  0.5986
35129SOL    HW1 8280   6.196   8.916   0.584  0.9340  0.8231  1.3940
35129SOL    HW2 8281   6.217   8.832   0.708 -2.2120 -1.7256  0.3547
35130SOL     OW 8282   7.337   5.648   3.244 -0.5619  0.6376 -0.2278
35130SOL    HW1 8283   7.414   5.606   3.206  0.4382  2.1154  0.0850
35130SOL    HW2 8284   7.267   5.630   3.181  0.3509  0.4142 -1.2129
35131SOL     OW 8285   0.237   0.564   7.832 -0.1054  0.1340  0.2170
35131SOL    HW1 8286   0.217   0.471   7.844 -2.3327  0.6064  0.5007
35131SOL    HW2 8287   0.152   0.606   7.817  0.8719  2.1003 -0.2245
35132SOL     OW 8288   8.457   8.227   7.850 -0.1418  0.3814 -0.2706
35132SOL    HW1 8289   8.479   8.243   7.941  0.0903  0.9595 -0.4258
35132SOL    HW2 8290   8.422   8.310   7.818 -1.2296 -0.1134 -0.4171
35133SOL     OW 8291   3.904   9.009   8.522 -0.9576 -0.0613 -0.1336
35133SOL    HW1 8292   3.922   9.036   8.432  0.3638 -1.0116 -0.1865
35133SOL    HW2 8293   3.825   8.956   8.515 -1.1142  0.2366 -0.6697
35134SOL     OW 8294   7.126  10.421   4.936  0.2372  0.4537 -0.3210
35134SOL    HW1 8295   7.040  10.450   4.965 -0.2299  0.2347 -1.4506
35134SOL    HW2 8296   7.109  10.369   4.857  1.2608 -0.9748  0.3584
35135SOL     OW 8297   0.768   8.579   5.150  0.0662 -0.3498  0.0893
35135SOL    HW1 8298   0.816   8.659   5.129 -2.0891  0.8507 -0.5380
35135SOL    HW2 8299   0.797   8.515   5.085 -0.0398  0.7087 -1.0395
35136SOL     OW 8300   5.623   1.183   8.427 -0.6662  0.0507  1.0161
35136SOL    HW1 8301   5.552   1.119   8.433  1.0153 -2.0319  0.2674
35136SOL    HW2 8302   5.661   1.167   8.340  0.1409  1.7500  1.0266
35137SOL     OW 8303   4.473   1.487   2.811 -0.3076  0.5948 -0.1125
35137SOL    HW1 8304   4.538   1.557   2.800 -1.9066  2.3223  0.8241
35137SOL    HW2 8305   4.524   1.406   2.803  1.9789  1.8526  0.5820
35138SOL     OW 8306   9.192   5.580   8.034 -0.4006 -0.3819  0.6394
35138SOL    HW1 8307   9.243   5.632   8.097 -0.7842  0.6144  0.1483
35138SOL    HW2 8308   9.164   5.503   8.083  0.2437 -0.1611  1.3688
35139SOL     OW 8309   0.155   2.139   9.321  0.1039  0.2923 -0.5704
35139SOL    HW1 8310   0.241   2.177   9.339 -0.5157  2.1838 -1.3611
35139SOL    HW2 8311   0.095   2.188   9.377 -0.6274 -0.1830 -0.9235
35140SOL     OW 8312   7.256   8.212   1.621 -0.1992 -0.0890 -0.6394
35140SOL    HW1 8313   7.163   8.189   1.619  0.1005 -1.5864  1.1405
35140SOL    HW2 8314   7.302   8.129   1.632  1.1825  0.8553  1.3870
35141SOL     OW 8315   8.767  10.764  10.298 -0.2072 -0.5404 -0.4827
35141SOL    HW1 8316   8.824  10.785  10.224  0.0202  0.7779  0.0294
35141SOL    HW2 8317   8.791  10.827  10.365  0.3830 -2.4236  1.1584
35142SOL     OW 8318   1.372   0.051   6.696 -0.4534 -0.0033 -0.3149
35142SOL    HW1 8319   1.359  -0.038   6.664 -1.1181  0.3106 -0.9379
35142SOL    HW2 8320   1.300   0.102   6.657 -0.9762  0.5046  1.2625
35143SOL     OW 8321   1.815   1.111   5.065 -0.2771  0.0730 -0.8665
35143SOL    HW1 8322   1.730   1.144   5.094 -1.0469 -1.6693 -0.9937
35143SOL    HW2 8323   1.876   1.136   5.134 -1.0160  0.7327 -0.4373
35144SOL     OW 8324   9.618   2.933   4.558  0.1572  0.2723 -0.3389
35144SOL    HW1 8325   9.644   3.010   4.609 -1.2597 -0.1698  1.1042
35144SOL    HW2 8326   9.598   2.968   4.471 -0.7072  1.5988  0.3620
35145SOL     OW 8327   4.418   0.132   4.891  0.2428  0.0014  0.4441
35145SOL    HW1 8328   4.453   0.189   4.823 -0.1779  0.4156  0.5650
35145SOL    HW2 8329   4.323   0.133   4.876  0.1759 -0.1415  0.8451
35146SOL     OW 8330   3.360   4.532  10.357 -0.4906 -0.1994 -0.3179
35146SOL    HW1 8331   3.273   4.517  10.394 -1.0972  0.2943 -1.4964
35146SOL    HW2 8332   3.349   4.519  10.263  0.7203 -0.1595 -0.4798
35147SOL     OW 8333   2.758   9.389   7.516  0.8457  0.1479  0.1278
35147SOL    HW1 8334   2.717   9.317   7.564  0.2884  0.4721  0.1488
35147SOL    HW2 8335   2.844   9.355   7.491 -0.0737 -1.2185 -1.4421
35148SOL     OW 8336   6.703   1.631   1.889 -0.0024  0.3028 -0.3730
35148SOL    HW1 8337   6.664   1.577   1.957  1.2403  2.0922  1.9207
35148SOL    HW2 8338   6.765   1.573   1.844  1.7178 -0.1981  2.3682
35149SOL     OW 8339   9.700   0.774   9.795 -0.5754 -0.0541  0.3763
35149SOL    HW1 8340   9.749   0.855   9.808  0.7896 -0.7168 -0.3287
35149SOL    HW2 8341   9.726   0.718   9.867  0.2633 -0.6528 -0.3717
35150SOL     OW 8342   7.037   9.285  10.457  0.2880 -0.2225 -0.0751
35150SOL    HW1 8343   7.045   9.193  10.480  1.2235 -0.0506  0.3186
35150SOL    HW2 8344   6.947   9.294  10.425 -0.4279 -0.8884  1.6210
35151SOL     OW 8345   8.675   3.924   7.994  0.5111 -0.0978 -0.0250
35151SOL    HW1 8346   8.683   3.909   8.089  0.6762 -1.3988 -0.2234
35151SOL    HW2 8347   8.763   3.950   7.966  0.4276  0.4335  0.1953
35152SOL     OW 8348   7.292   0.603   5.146 -0.0231 -0.2433 -0.5082
35152SOL    HW1 8349   7.264   0.564   5.063 -1.0511  1.3355 -0.9610
35152SOL    HW2 8350   7.226   0.575   5.209  0.2050 -0.6309 -0.4386
35153SOL     OW 8351   7.529   1.474   2.136 -0.2335  0.0348 -0.1481
35153SOL    HW1 8352   7.546   1.565   2.109 -0.4507 -0.3265 -1.5454
35153SOL    HW2 8353   7.541   1.422   2.057  1.7859 -1.4259  1.0227
35154SOL     OW 8354   9.807   3.352   1.260 -0.4929 -0.5714  0.1455
35154SOL    HW1 8355   9.820   3.337   1.354 -0.1604 -1.8702 -0.0870
35154SOL    HW2 8356   9.894   3.369   1.226 -0.4729 -1.1106 -0.0840
35155SOL     OW 8357   2.748  10.764   6.143 -0.8435  0.0639 -0.2852
35155SOL    HW1 8358   2.653  10.774   6.154 -1.1448 -2.4832  0.0085
35155SOL    HW2 8359   2.759  10.735   6.053 -0.4561 -0.7138  0.0052
35156SOL     OW 8360   1.254   4.795  10.191 -0.1554  1.2594  0.2045
35156SOL    HW1 8361   1.348   4.810  10.176 -0.5046  3.4002 -0.1927
35156SOL    HW2 8362   1.222   4.878  10.227 -2.3633  1.5095 -2.0641
35157SOL     OW 8363   3.216   9.211   0.504  0.1434 -0.1046  0.3695
35157SOL    HW1 8364   3.210   9.231   0.597 -1.2746  1.5900 -0.0191
35157SOL    HW2 8365   3.187   9.292   0.461  1.4524 -0.5929 -1.5610
35158SOL     OW 8366   1.464   7.281   8.980  0.9405  0.3804 -0.2141
35158SOL    HW1 8367   1.404   7.212   9.008 -0.5457  1.7061 -0.0107
35158SOL    HW2 8368   1.476   7.266   8.886 -1.0523  1.0484 -0.6101
35159SOL     OW 8369   2.683   7.616   1.415  0.1409 -0.7688  0.0920
35159SOL    HW1 8370   2.606   7.672   1.422  0.1233 -0.5538 -1.5914
35159SOL    HW2 8371   2.670   7.548   1.482 -1.1374 -0.3125  0.3163
35160SOL     OW 8372   6.968   3.087   6.688  0.7210  0.1694  0.2133
35160SOL    HW1 8373   7.027   3.161   6.698  1.5578 -0.6685  2.0804
35160SOL    HW2 8374   6.890   3.112   6.738  0.8492 -0.0272  0.5192
35161SOL     OW 8375   0.747  10.463   8.155  0.6839  0.5374  0.3629
35161SOL    HW1 8376   0.763  10.462   8.249  2.9384  0.1533  0.0497
35161SOL    HW2 8377   0.835  10.458   8.116 -0.0937  1.8307 -1.7607
35162SOL     OW 8378   5.712   0.724   1.852  0.0408  0.0275 -0.0791
35162SOL    HW1 8379   5.774   0.774   1.905 -0.0666  1.7839 -1.5374
35162SOL    HW2 8380   5.760   0.645   1.827  0.9854  0.4144  0.4763
35163SOL     OW 8381   2.395   4.778   2.556 -0.0397  0.2162  0.3307
35163SOL    HW1 8382   2.469   4.783   2.496 -0.5092 -0.4816 -0.3259
35163SOL    HW2 8383   2.404   4.855   2.612  0.4330  0.8481 -0.5940
35164SOL     OW 8384   8.357   4.724   0.892  0.5553 -0.5684  0.1365
35164SOL    HW1 8385   8.313   4.663   0.832 -1.5569  0.4171  0.5976
35164SOL    HW2 8386   8.337   4.811   0.856  0.3583 -0.0174  1.5325
35165SOL     OW 8387  10.362   7.158   8.092 -0.1201 -0.1314 -0.3669
35165SOL    HW1 8388  10.317   7.208   8.024  0.7152 -0.0628 -0.8873
35165SOL    HW2 8389  10.443   7.208   8.109 -0.5652  0.1530  1.0744
35166SOL     OW 8390   1.596   1.528   4.266  0.4563 -0.0703  0.2023
35166SOL    HW1 8391   1.616   1.442   4.302  2.5170  0.2486 -0.0636
35166SOL    HW2 8392   1.669   1.547   4.207  0.7147  2.3765  1.1859
35167SOL     OW 8393   1.509   1.705   2.872  0.0191 -0.1898 -0.3916
35167SOL    HW1 8394   1.552   1.714   2.787  0.7201 -1.0604 -0.1396
35167SOL    HW2 8395   1.499   1.795   2.903  0.7124  0.0791 -0.9247
35168SOL     OW 8396   3.332   3.649   7.813  0.1829  0.6885 -0.5068
35168SOL    HW1 8397   3.299   3.700   7.738 -1.9896  0.5325  0.2844
35168SOL    HW2 8398   3.401   3.704   7.850  0.9798  0.9839 -2.3149
35169SOL     OW 8399   8.166   9.277   3.870 -0.8774  0.3099 -0.8556
35169SOL    HW1 8400   8.147   9.352   3.813 -0.4527 -0.2814 -1.7924
35169SOL    HW2 8401   8.250   9.298   3.911 -1.1566  0.7100 -0.4737
35170SOL     OW 8402   9.034   6.754   4.220  0.2125  0.1035 -0.2063
35170SOL    HW1 8403   9.091   6.754   4.297 -1.0942  1.4290  0.8051
35170SOL    HW2 8404   9.020   6.847   4.200  2.1742 -0.1073 -3.3807
35171SOL     OW 8405   8.762   6.254   7.648  0.1111 -0.6313  0.6604
35171SOL    HW1 8406   8.796   6.296   7.726 -0.9352 -1.5241  1.6357
35171SOL    HW2 8407   8.819   6.178   7.635  0.4959 -0.2930  0.3409
35172SOL     OW 8408   9.755   7.309   8.581 -0.2229 -0.0571 -0.3244
35172SOL    HW1 8409   9.736   7.218   8.604  0.4922 -0.5729 -1.6655
35172SOL    HW2 8410   9.849   7.317   8.594 -0.5466  1.1018  1.6957
35173SOL     OW 8411   3.792   5.418   4.514 -0.1099 -1.0691  0.2198
35173SOL    HW1 8412   3.746   5.387   4.435  0.6643  1.9857 -1.6081
35173SOL    HW2 8413   3.801   5.512   4.501  0.3145 -0.4565  3.9261
35174SOL     OW 8414   7.196   3.935   7.260 -0.2883  0.6282 -0.0712
35174SOL    HW1 8415   7.193   3.867   7.328  0.0414  1.4209  0.7625
35174SOL    HW2 8416   7.239   3.893   7.186  0.4502  0.0953  0.6427
35175SOL     OW 8417  10.258   5.966   3.519  0.0666 -0.3238  0.4598
35175SOL    HW1 8418  10.337   6.000   3.561 -0.6246  1.5910  0.3227
35175SOL    HW2 8419  10.259   6.004   3.431 -2.0954  1.6471  1.1829
35176SOL     OW 8420   3.244   4.255   6.887  0.0178  0.3611  0.1761
35176SOL    HW1 8421   3.282   4.312   6.819 -0.8316  0.8459  0.1014
35176SOL    HW2 8422   3.306   4.261   6.959  1.5915 -1.1246 -0.9614
35177SOL     OW 8423   3.579   8.193   0.748 -0.1471 -0.1031 -0.0990
35177SOL    HW1 8424   3.567   8.249   0.825 -0.2767  0.2887 -0.3981
35177SOL    HW2 8425   3.490   8.169   0.723 -0.1609  0.5014 -0.6524
35178SOL     OW 8426   5.603  10.773   1.807 -0.2775  0.5067  0.1012
35178SOL    HW1 8427   5.576  10.748   1.895  0.3958  0.6958  0.3673
35178SOL    HW2 8428   5.681  10.827   1.820  0.1969  0.0247 -0.6407
35179SOL     OW 8429   8.439   5.768   5.760  0.1946 -0.5514  0.4312
35179SOL    HW1 8430   8.378   5.701   5.728 -1.8400  0.9475  0.9590
35179SOL    HW2 8431   8.404   5.792   5.846 -0.6426  2.9043 -0.7469
35180SOL     OW 8432   4.117   3.454   3.523  0.0421  0.0752  0.8018
35180SOL    HW1 8433   4.134   3.499   3.606  1.6973  1.5169 -0.2501
35180SOL    HW2 8434   4.024   3.471   3.505  0.1228  1.3305  1.4492
35181SOL     OW 8435   4.066   0.308   5.027  0.1375  0.8012 -0.0959
35181SOL    HW1 8436   3.985   0.275   5.065 -1.0268  0.2658 -2.8573
35181SOL    HW2 8437   4.040   0.348   4.944  2.3314  3.3067  0.2691
35182SOL     OW 8438   8.148   4.252  10.392  0.3891 -0.2648 -0.0840
35182SOL    HW1 8439   8.095   4.331  10.405  0.3981 -0.3090  0.2264
35182SOL    HW2 8440   8.186   4.263  10.305  0.6620  0.2415  0.0905
35183SOL     OW 8441   2.456   1.306   9.244  0.5558 -0.1118  0.0358
35183SOL    HW1 8442   2.494   1.263   9.168  1.1121  1.3798 -0.5771
35183SOL    HW2 8443   2.411   1.237   9.292  0.7666 -1.2006 -1.2961
35184SOL     OW 8444   1.914   3.764   6.892 -0.9422 -0.3170 -0.1841
35184SOL    HW1 8445   1.909   3.722   6.978  2.3991  1.6826  1.1865
35184SOL    HW2 8446   1.854   3.838   6.898 -1.7957 -0.9898 -0.1512
35185SOL     OW 8447   6.810   8.346   3.269 -0.1208  0.4553  0.4629
35185SOL    HW1 8448   6.790   8.287   3.341 -0.0164 -0.9868 -0.6576
35185SOL    HW2 8449   6.724   8.374   3.236 -0.5134 -3.0949 -2.1863
35186SOL     OW 8450   4.237   5.164   0.081 -0.1946 -0.8426 -0.1743
35186SOL    HW1 8451   4.327   5.162   0.049 -0.1639 -1.0008 -0.0754
35186SOL    HW2 8452   4.244   5.188   0.173 -0.3734  1.2243 -0.6406
35187SOL     OW 8453   7.425   2.057   8.812  0.2974 -0.1011  0.3091
35187SOL    HW1 8454   7.470   2.140   8.830 -0.6718 -0.0390  2.8220
35187SOL    HW2 8455   7.436   2.006   8.892 -1.5053 -1.2859 -0.1522
35188SOL     OW 8456   6.511   2.395   9.207  0.4810 -0.2812 -0.7224
35188SOL    HW1 8457   6.604   2.417   9.206  0.4336  0.1426  0.9966
35188SOL    HW2 8458   6.504   2.316   9.154  2.1232 -1.4034  0.6451
35189SOL     OW 8459   1.046   4.100   5.770  0.1340 -0.1628 -0.2218
35189SOL    HW1 8460   1.007   4.154   5.700 -0.5833  0.0269  0.3182
35189SOL    HW2 8461   1.057   4.161   5.843  1.3061 -0.2508 -0.3030
35190SOL     OW 8462   4.186   4.684   7.095 -0.0782  0.2873  0.2977
35190SOL    HW1 8463   4.172   4.778   7.101  0.2003  0.3871 -0.5964
35190SOL    HW2 8464   4.273   4.674   7.056 -0.7240 -0.3292 -1.0516
35191SOL     OW 8465   6.168  10.711   0.692 -0.3726  0.2494  0.5236
35191SOL    HW1 8466   6.101  10.653   0.656  1.7198 -1.6419 -0.5683
35191SOL    HW2 8467   6.186  10.677   0.780 -0.3304  0.3049  0.5371
35192SOL     OW 8468   2.033   7.475   7.996  0.4069 -0.3002 -0.0804
35192SOL    HW1 8469   2.004   7.565   8.015  1.3648  0.1764 -0.7604
35192SOL    HW2 8470   2.119   7.468   8.038  0.5734 -0.7194 -0.4862
35193SOL     OW 8471   6.575   9.880   1.916  0.3384 -0.3193  0.3578
35193SOL    HW1 8472   6.648   9.942   1.918  0.6966 -0.7678  1.3355
35193SOL    HW2 8473   6.609   9.800   1.955 -0.4612 -0.7823  0.1369
35194SOL     OW 8474   4.974   4.969   7.824 -0.2858  0.1704  0.2742
35194SOL    HW1 8475   4.891   5.015   7.834  0.1826  1.0278  0.3454
35194SOL    HW2 8476   4.958   4.882   7.860 -1.8159 -0.4957 -1.8266
35195SOL     OW 8477   1.190   3.898  10.352 -0.7887  0.3512 -0.0957
35195SOL    HW1 8478   1.235   3.945  10.423 -0.2331  1.2869 -1.0428
35195SOL    HW2 8479   1.135   3.834  10.397  0.7808 -0.2063  1.1401
35196SOL     OW 8480   0.132   7.847   5.874 -0.2452  0.3370  0.3598
35196SOL    HW1 8481   0.119   7.913   5.942  0.2776 -0.1362  0.9274
35196SOL    HW2 8482   0.044   7.826   5.844 -0.5565 -0.1410  1.5576
35197SOL     OW 8483   0.016   9.696   0.248 -0.3772  0.4867  0.0189
35197SOL    HW1 8484   0.063   9.613   0.239  1.3173  1.6145 -2.4396
35197SOL    HW2 8485   0.040   9.727   0.336  1.5237 -0.1818 -0.2069
35198SOL     OW 8486   7.627   5.133  10.312 -0.2539 -0.3682  0.6833
35198SOL    HW1 8487   7.668   5.138  10.225 -0.4452 -0.3968  0.5917
35198SOL    HW2 8488   7.552   5.075  10.300 -0.1950 -0.4942  0.9034
35199SOL     OW 8489   4.515   8.057   4.817 -0.0458 -0.4410  0.4793
35199SOL    HW1 8490   4.435   8.005   4.816 -0.6635  0.4454  1.3050
35199SOL    HW2 8491   4.498   8.129   4.757  0.6253 -0.9241 -0.3072
35200SOL     OW 8492   9.750   1.762   2.426  0.4143 -0.0105 -0.3870
35200SOL    HW1 8493   9.813   1.834   2.420 -0.3242  0.6272 -0.8109
35200SOL    HW2 8494   9.695   1.773   2.348 -0.1796 -0.5783 -0.0567
35201SOL     OW 8495   2.810   1.258   5.986  0.3511  0.1120 -0.0285
35201SOL    HW1 8496   2.757   1.292   6.058  0.6179  0.3655  0.0506
35201SOL    HW2 8497   2.845   1.176   6.019  1.1187  0.6154  0.4302
35202SOL     OW 8498   3.563   1.808   3.494  0.1100 -0.3238 -0.0348
35202SOL    HW1 8499   3.650   1.770   3.484 -0.8448 -2.9869  1.1400
35202SOL    HW2 8500   3.505   1.749   3.448 -1.4434 -0.2840  1.7458
35203SOL     OW 8501   4.331   2.677   2.551 -0.3060 -0.3666 -0.4583
35203SOL    HW1 8502   4.252   2.707   2.506  0.2221  0.6543 -0.7391
35203SOL    HW2 8503   4.338   2.732   2.629 -0.2812 -0.9727 -0.0233
35204SOL     OW 8504  10.059   7.467   2.880 -0.0457  0.0599 -0.2977
35204SOL    HW1 8505   9.986   7.523   2.852 -0.2269  0.9308  1.7310
35204SOL    HW2 8506  10.025   7.418   2.954  1.5400  0.8972  1.0684
35205SOL     OW 8507   1.740   5.662   8.081 -0.1399  0.2149 -0.2866
35205SOL    HW1 8508   1.736   5.568   8.097  1.1968  0.1173 -0.3636
35205SOL    HW2 8509   1.721   5.671   7.988  0.1242 -0.0360 -0.3684
35206SOL     OW 8510   9.659   4.461   7.037 -0.1048 -0.3760 -0.1860
35206SOL    HW1 8511   9.660   4.366   7.033  0.1812 -0.3553 -0.6386
35206SOL    HW2 8512   9.658   4.481   7.131 -0.1348 -0.8238 -0.0911
35207SOL     OW 8513   7.363   5.004   6.285 -0.0724 -0.3085 -0.0834
35207SOL    HW1 8514   7.458   5.016   6.287 -0.1397  0.5081 -1.0198
35207SOL    HW2 8515   7.330   5.060   6.356  0.1574 -0.7882  0.4057
35208SOL     OW 8516   6.250   6.820   7.396 -0.2782 -0.1368  0.8088
35208SOL    HW1 8517   6.290   6.849   7.315 -0.3940  0.0222  0.8091
35208SOL    HW2 8518   6.235   6.900   7.446 -0.2510 -0.2296  0.9661
35209SOL     OW 8519   7.708   6.641   5.945 -0.1525  0.0574  0.2904
35209SOL    HW1 8520   7.614   6.640   5.965 -0.0594  1.0587  0.8105
35209SOL    HW2 8521   7.751   6.624   6.028  0.1421  0.1229  0.1528
35210SOL     OW 8522   1.476   6.873  10.736 -0.3788  0.3288  0.4139
35210SOL    HW1 8523   1.537   6.901  10.669  0.5182 -2.4163 -0.0576
35210SOL    HW2 8524   1.458   6.781  10.715 -2.0505  0.0961  2.4849
35211SOL     OW 8525   4.155  10.775   3.569 -0.1510  0.0106 -0.2516
35211SOL    HW1 8526   4.156  10.696   3.515  1.6614 -0.6239  0.6386
35211SOL    HW2 8527   4.151  10.743   3.659 -2.7386  1.0486  0.0991
35212SOL     OW 8528   7.023   2.077   6.355  0.2375 -0.1851 -0.4114
35212SOL    HW1 8529   7.113   2.094   6.328  0.5657 -1.3398 -0.0610
35212SOL    HW2 8530   6.977   2.056   6.274  0.0303  1.3869 -0.7320
35213SOL     OW 8531   4.024   8.342   1.895  0.4184  0.5632 -0.2320
35213SOL    HW1 8532   3.979   8.257   1.896  1.6835 -0.1663 -1.3181
35213SOL    HW2 8533   4.051   8.356   1.986 -0.9678  0.4673  0.2157
35214SOL     OW 8534   0.129   7.195   6.862 -0.4164 -0.8457 -0.5511
35214SOL    HW1 8535   0.195   7.258   6.890 -1.5964 -0.5643  1.8887
35214SOL    HW2 8536   0.163   7.110   6.892 -0.2588 -0.9741 -1.0808
35215SOL     OW 8537   4.540   5.393   9.270  0.5539 -0.1193  0.1132
35215SOL    HW1 8538   4.527   5.398   9.175 -1.3386 -1.9496  0.1899
35215SOL    HW2 8539   4.479   5.325   9.299 -0.3380  1.6971  2.9159
35216SOL     OW 8540  10.400   2.349   9.475 -0.4109 -0.0496 -0.2544
35216SOL    HW1 8541  10.335   2.337   9.405  0.6329 -2.9137 -0.8837
35216SOL    HW2 8542  10.483   2.359   9.429  0.0112  0.2321  0.5583
35217SOL     OW 8543   5.385   5.946   7.047  0.2565 -0.3458 -0.2629
35217SOL    HW1 8544   5.361   5.884   6.978  1.3319 -0.2166 -0.7698
35217SOL    HW2 8545   5.437   6.013   7.003  0.7764 -0.1380  0.6344
35218SOL     OW 8546   4.526   4.242  10.017 -0.2099  0.3233 -0.2417
35218SOL    HW1 8547   4.444   4.229  10.064  0.1518  0.4068  0.4348
35218SOL    HW2 8548   4.530   4.170   9.954 -1.0560  0.6333 -0.6544
35219SOL     OW 8549   5.105   1.047   6.364  0.0610  0.5434  0.2315
35219SOL    HW1 8550   5.153   1.007   6.437  0.2439  1.0696  0.4081
35219SOL    HW2 8551   5.034   0.986   6.345  0.4900  0.0098  0.3198
35220SOL     OW 8552   0.822   7.612   4.231  0.3540 -0.2091 -0.1060
35220SOL    HW1 8553   0.865   7.572   4.307  0.1539 -0.9527 -0.3722
35220SOL    HW2 8554   0.787   7.695   4.264 -0.4011 -0.8720  0.8381
35221SOL     OW 8555   9.344   4.448   6.929 -0.3128  0.8119 -0.2100
35221SOL    HW1 8556   9.436   4.472   6.926  0.5665 -2.0853  0.4268
35221SOL    HW2 8557   9.315   4.448   6.838  0.6509  0.6046 -0.5206
35222SOL     OW 8558   3.647   8.790   6.213  0.0003 -0.1042  0.2796
35222SOL    HW1 8559   3.554   8.791   6.190  0.4586 -0.8784 -1.7821
35222SOL    HW2 8560   3.656   8.857   6.281 -1.8092  1.0065 -0.5101
35223SOL     OW 8561   4.868   7.729   8.669 -0.8825 -0.3629 -0.1635
35223SOL    HW1 8562   4.940   7.681   8.630  2.8261  4.0005  0.4189
35223SOL    HW2 8563   4.873   7.709   8.763  2.0169  2.2144  0.4155
35224SOL     OW 8564   0.695   7.179   0.432 -0.4067  0.8412 -0.2590
35224SOL    HW1 8565   0.629   7.112   0.448  0.3263  0.3083  0.6120
35224SOL    HW2 8566   0.771   7.132   0.398  0.0073  1.2476  0.0697
35225SOL     OW 8567   2.745   6.702   8.382 -0.0679 -0.4970  0.1085
35225SOL    HW1 8568   2.681   6.759   8.425  0.9847  0.8001  0.0275
35225SOL    HW2 8569   2.701   6.672   8.303 -0.1248  1.5560 -0.7090
35226SOL     OW 8570   6.594   3.218   3.609  0.3693 -0.1068 -0.1658
35226SOL    HW1 8571   6.511   3.236   3.652  0.3338 -1.6121  0.4730
35226SOL    HW2 8572   6.605   3.289   3.546 -1.6023 -0.1132 -0.5821
35227SOL     OW 8573   9.393   8.613   2.494 -0.2761  0.8752 -0.3646
35227SOL    HW1 8574   9.466   8.551   2.497 -1.2445 -0.2841 -0.4111
35227SOL    HW2 8575   9.329   8.578   2.555 -1.6535  0.7810 -1.8115
35228SOL     OW 8576   2.139   7.256   8.553  0.8294 -0.5775 -0.7144
35228SOL    HW1 8577   2.151   7.217   8.467 -0.7761  0.4829 -1.4719
35228SOL    HW2 8578   2.081   7.196   8.599  1.3209 -0.9144 -0.5290
35229SOL     OW 8579   9.394  10.012   0.669  0.3317 -0.4430  0.2153
35229SOL    HW1 8580   9.429   9.961   0.742  0.1975 -1.0437 -0.1362
35229SOL    HW2 8581   9.302  10.025   0.692  0.4282 -0.1280  0.4308
35230SOL     OW 8582  10.640   6.389   5.870 -0.1047 -0.4246 -0.2794
35230SOL    HW1 8583  10.683   6.352   5.793 -0.0832  0.5403 -0.7417
35230SOL    HW2 8584  10.547   6.371   5.857 -0.1648  0.2314 -0.8212
35231SOL     OW 8585   2.515   4.922   9.583  0.4784  0.2558  0.7950
35231SOL    HW1 8586   2.455   4.887   9.649  0.2094 -2.0458 -0.5676
35231SOL    HW2 8587   2.517   4.856   9.515  2.8733  1.3012 -0.2638
35232SOL     OW 8588   2.114   9.020   3.145 -0.1326 -0.0506 -0.2372
35232SOL    HW1 8589   2.060   8.948   3.112  0.0761  0.2660 -1.2864
35232SOL    HW2 8590   2.097   9.021   3.239 -1.7151 -0.1547 -0.4983
35233SOL     OW 8591   5.851   2.122   2.860 -0.0973  0.0478 -0.0965
35233SOL    HW1 8592   5.850   2.145   2.767 -2.4698  0.7985  0.0385
35233SOL    HW2 8593   5.773   2.068   2.871 -0.3956  0.7786  1.6387
35234SOL     OW 8594   6.736   0.523   6.860 -0.0322 -0.2747  0.6443
35234SOL    HW1 8595   6.660   0.579   6.869  0.1496  0.1546 -0.3200
35234SOL    HW2 8596   6.794   0.549   6.932 -0.5518 -0.2247  1.0517
35235SOL     OW 8597   0.964   3.345   3.300  0.0910  0.6381  0.3288
35235SOL    HW1 8598   0.970   3.286   3.376  0.4035  1.2943  0.8204
35235SOL    HW2 8599   0.870   3.352   3.283  0.0085 -3.2099 -2.3125
35236SOL     OW 8600   5.202  10.786   1.308 -0.1752 -0.4992  0.3492
35236SOL    HW1 8601   5.122  10.748   1.271 -0.3636  0.4932 -0.3039
35236SOL    HW2 8602   5.176  10.874   1.335  0.8905  0.1653 -0.6885
35237SOL     OW 8603   9.182   6.267   7.940 -0.2083  0.2635  0.1973
35237SOL    HW1 8604   9.193   6.250   7.847  1.0362  0.6929  0.2489
35237SOL    HW2 8605   9.102   6.219   7.964  0.3051 -1.1476 -0.7618
35238SOL     OW 8606   0.991   0.621   9.440  0.1213  0.7041  0.0424
35238SOL    HW1 8607   0.909   0.578   9.413  0.1555 -0.4414  1.6243
35238SOL    HW2 8608   0.965   0.678   9.512  0.8716 -0.7457  1.5362
35239SOL     OW 8609   8.663   0.403   7.406 -0.1729 -0.5463 -0.3239
35239SOL    HW1 8610   8.750   0.389   7.442 -0.3532 -1.3319 -0.1898
35239SOL    HW2 8611   8.624   0.316   7.399 -0.7869 -0.2498 -0.7962
35240SOL     OW 8612   9.946   7.435  10.543 -0.2393 -0.5435  0.0306
35240SOL    HW1 8613   9.854   7.456  10.560 -0.1268 -1.3405  1.8140
35240SOL    HW2 8614   9.944   7.345  10.508 -0.1402 -0.5086 -0.0673
35241SOL     OW 8615   7.001   2.215   9.246  0.2931  0.0506 -1.2522
35241SOL    HW1 8616   7.014   2.182   9.335  0.7133 -1.2916 -1.7927
35241SOL    HW2 8617   7.059   2.162   9.192 -0.2225  0.6115 -2.3828
35242SOL     OW 8618   0.070   7.991   5.096  0.0665  0.1556  0.9417
35242SOL    HW1 8619   0.106   8.056   5.036  0.6194 -0.4115  0.6481
35242SOL    HW2 8620  -0.011   8.031   5.129 -0.4197  0.3592 -0.4277
35243SOL     OW 8621   3.067   2.332   9.636 -0.2270 -0.1045  0.0528
35243SOL    HW1 8622   3.027   2.277   9.704  1.8366  0.0576  1.5220
35243SOL    HW2 8623   3.079   2.417   9.679  1.7595 -0.1994 -0.1973
35244SOL     OW 8624   0.047   4.887   1.538 -0.1489 -0.3594 -0.1363
35244SOL    HW1 8625  -0.000   4.804   1.539  0.3493 -0.6502 -0.3438
35244SOL    HW2 8626   0.045   4.915   1.446  3.9119 -2.6379 -1.1811
35245SOL     OW 8627   6.597   5.987   0.303  0.4457  0.4187 -0.0317
35245SOL    HW1 8628   6.531   5.931   0.343  1.1308 -1.6070 -1.5391
35245SOL    HW2 8629   6.671   5.983   0.363  0.5236 -0.4447 -0.1648
35246SOL     OW 8630   6.504   2.220   5.818 -0.5143 -0.4485  0.2677
35246SOL    HW1 8631   6.482   2.175   5.736  1.3253  1.9445 -1.6791
35246SOL    HW2 8632   6.419   2.246   5.854 -1.3758 -1.7663 -0.7054
35247SOL     OW 8633   2.288   7.478   5.760 -0.3727  0.2965  0.2801
35247SOL    HW1 8634   2.298   7.517   5.674 -0.4379  2.0950  1.0380
35247SOL    HW2 8635   2.253   7.548   5.815  1.6291 -0.1187  2.2728
35248SOL     OW 8636   2.634   5.516   1.136 -0.0849 -0.2595 -0.0829
35248SOL    HW1 8637   2.587   5.434   1.122  0.3105 -0.5359  0.1822
35248SOL    HW2 8638   2.647   5.519   1.231 -1.2636  0.7599  0.0656
35249SOL     OW 8639   8.322   9.082   1.049 -0.3785  0.1480  0.3488
35249SOL    HW1 8640   8.231   9.060   1.029 -0.6213  1.0633  0.3996
35249SOL    HW2 8641   8.339   9.161   0.999  0.3107  0.1343  0.5501
35250SOL     OW 8642   3.221   4.524   6.255  0.1665 -0.1633  0.5485
35250SOL    HW1 8643   3.190   4.544   6.166  0.7713  0.1836  0.4118
35250SOL    HW2 8644   3.144   4.538   6.311 -0.0564  0.2201  0.1545
35251SOL     OW 8645   6.189   7.934   7.242  0.7545 -0.6198 -0.7892
35251SOL    HW1 8646   6.128   7.990   7.195  2.8939  0.7472 -2.0890
35251SOL    HW2 8647   6.202   7.859   7.185  0.7704 -0.5979 -0.8148
35252SOL     OW 8648   4.596   4.553   8.442  0.1344  0.6228 -0.2412
35252SOL    HW1 8649   4.642   4.624   8.488 -0.3673 -0.3533  1.9185
35252SOL    HW2 8650   4.504   4.573   8.455 -0.0319 -0.9493  1.3952
35253SOL     OW 8651   5.867   7.328   1.120 -0.0282  0.7339 -0.0303
35253SOL    HW1 8652   5.771   7.325   1.117 -0.0795  0.6541  1.2398
35253SOL    HW2 8653   5.893   7.357   1.032 -1.1812  0.1077 -0.6057
35254SOL     OW 8654   2.627   0.728   2.651  0.1034  0.0958 -0.4658
35254SOL    HW1 8655   2.653   0.720   2.743 -1.0581 -3.0672 -0.2676
35254SOL    HW2 8656   2.710   0.724   2.603  0.7445  2.0339  0.3926
35255SOL     OW 8657   3.945   4.802   4.631  0.5229 -0.0016 -0.6582
35255SOL    HW1 8658   3.894   4.870   4.588 -0.3477 -0.0465  0.2546
35255SOL    HW2 8659   3.920   4.808   4.724  1.3406 -0.7676 -0.3689
35256SOL     OW 8660   0.412   7.025  10.235  0.3736  0.1171  0.0043
35256SOL    HW1 8661   0.417   7.105  10.183  1.8229 -0.5098 -0.8938
35256SOL    HW2 8662   0.329   6.985  10.210 -1.0246  1.9389  1.4552
35257SOL     OW 8663   7.058   6.219   4.665  0.1275 -0.4525 -0.0192
35257SOL    HW1 8664   7.048   6.150   4.600 -0.4637 -2.1607  1.7918
35257SOL    HW2 8665   7.101   6.177   4.739  0.3753  1.3120  0.8995
35258SOL     OW 8666   6.860   8.587   0.442  0.0482  0.5013  0.0613
35258SOL    HW1 8667   6.856   8.667   0.389  0.8956  0.0819 -0.6496
35258SOL    HW2 8668   6.770   8.575   0.473 -0.8583 -0.0619 -2.5320
35259SOL     OW 8669   5.567   0.431   7.107 -0.1415  0.3734  0.1127
35259SOL    HW1 8670   5.491   0.398   7.156 -0.5700 -0.1079 -0.8567
35259SOL    HW2 8671   5.641   0.414   7.165 -0.8201  1.4510  1.3671
35260SOL     OW 8672   5.545   1.116   0.681 -0.0962  0.6104 -0.1735
35260SOL    HW1 8673   5.537   1.043   0.742  1.0395  1.0694  0.5649
35260SOL    HW2 8674   5.532   1.077   0.594 -1.8851 -0.0298  0.3356
35261SOL     OW 8675   0.285   6.413   0.606  1.1159 -0.2217 -0.1830
35261SOL    HW1 8676   0.350   6.481   0.590  2.2741 -1.1518  0.4377
35261SOL    HW2 8677   0.222   6.454   0.666  0.2674  1.1627 -1.9333
35262SOL     OW 8678   8.789   5.555   2.662 -0.3957 -0.6715 -0.5451
35262SOL    HW1 8679   8.789   5.638   2.710  1.0168  0.0904 -1.7818
35262SOL    HW2 8680   8.749   5.576   2.578 -2.6693 -1.9533  0.1196
35263SOL     OW 8681   7.153   8.286  10.727 -0.2741 -0.0980  0.4185
35263SOL    HW1 8682   7.118   8.332  10.804 -1.6982 -0.9877  0.3491
35263SOL    HW2 8683   7.247   8.279  10.743 -0.5033 -0.0147  1.9441
35264SOL     OW 8684   0.927   9.712   0.379  0.1996 -0.4498  0.3482
35264SOL    HW1 8685   0.994   9.709   0.311 -0.8509 -0.6217 -0.7075
35264SOL    HW2 8686   0.964   9.661   0.451  0.5834 -1.8445 -0.7920
35265SOL     OW 8687   3.972   3.983   9.214 -0.1522 -0.1581  0.6127
35265SOL    HW1 8688   4.061   4.017   9.207 -0.4337  0.2931 -1.3359
35265SOL    HW2 8689   3.983   3.890   9.236  0.9181 -0.5752 -1.4330
35266SOL     OW 8690   9.337   8.476   9.005  0.0718 -0.5317  0.1791
35266SOL    HW1 8691   9.267   8.528   9.046  0.1534  0.0692 -0.4250
35266SOL    HW2 8692   9.402   8.541   8.977 -0.0271 -0.9087 -0.9872
35267SOL     OW 8693   3.856   2.583   7.671 -0.6546  0.1194 -0.3037
35267SOL    HW1 8694   3.802   2.655   7.703 -0.8774  0.4867 -1.4779
35267SOL    HW2 8695   3.928   2.625   7.625 -1.7251 -0.3722 -2.5537
35268SOL     OW 8696  10.139   2.838   9.967  0.1800 -0.4268 -0.4981
35268SOL    HW1 8697  10.221   2.886   9.958 -0.6795  1.0610 -0.7561
35268SOL    HW2 8698  10.086   2.893  10.025 -0.7154 -1.2494 -0.5195
35269SOL     OW 8699   8.479   1.996   1.712  0.1888  0.2860  0.4055
35269SOL    HW1 8700   8.468   1.946   1.631 -0.9791  1.4971 -0.2083
35269SOL    HW2 8701   8.441   1.940   1.780  0.9863 -0.6484  0.1020
35270SOL     OW 8702   8.789   7.489   7.198 -0.4921  0.2722 -0.1691
35270SOL    HW1 8703   8.861   7.454   7.146 -0.6801 -2.0587  0.9928
35270SOL    HW2 8704   8.725   7.417   7.203 -2.7739  2.1192 -0.8355
35271SOL     OW 8705   1.053   8.219   5.224  0.0836 -0.1697 -0.0217
35271SOL    HW1 8706   0.969   8.191   5.260 -0.0682 -1.0107 -0.9962
35271SOL    HW2 8707   1.031   8.261   5.140  0.3934  2.1082  0.9589
35272SOL     OW 8708   4.963   9.230   5.650 -0.1062  0.0702  0.1679
35272SOL    HW1 8709   4.875   9.212   5.682 -0.4074 -0.2287 -0.7767
35272SOL    HW2 8710   4.980   9.321   5.674  0.7105 -0.7992  3.3864
35273SOL     OW 8711   2.847   2.451  10.247 -0.1117 -0.0602  0.1876
35273SOL    HW1 8712   2.848   2.356  10.233 -1.4149 -0.2437  1.0979
35273SOL    HW2 8713   2.924   2.468  10.302 -1.8461 -1.2145  3.2129
35274SOL     OW 8714   8.141   5.514   4.647  0.1646 -0.0342 -0.3019
35274SOL    HW1 8715   8.167   5.523   4.739 -4.0163 -3.1373  1.5195
35274SOL    HW2 8716   8.183   5.432   4.619  0.7071  0.4404 -0.9108
35275SOL     OW 8717   2.807   9.622   8.150  0.3445 -0.6178 -0.0978
35275SOL    HW1 8718   2.843   9.624   8.061  0.3374 -0.3066 -0.0930
35275SOL    HW2 8719   2.720   9.585   8.140 -0.2910  0.9159 -0.4427
35276SOL     OW 8720   3.190   2.101   8.810  0.2133  0.0136  0.2281
35276SOL    HW1 8721   3.193   2.176   8.869  0.7540  0.3899 -0.2633
35276SOL    HW2 8722   3.100   2.100   8.777  0.1291  0.2805  0.4509
35277SOL     OW 8723   7.439   8.963   6.125 -0.1220  0.0673  0.0262
35277SOL    HW1 8724   7.389   8.885   6.099  0.2715 -0.2821  0.2981
35277SOL    HW2 8725   7.531   8.936   6.116  0.0334  0.8830 -1.0410
35278SOL     OW 8726   5.033   9.089   6.526  0.1179 -0.1676  0.8395
35278SOL    HW1 8727   5.075   9.004   6.512 -1.2812 -0.4455 -2.7549
35278SOL    HW2 8728   4.966   9.094   6.458 -1.4507  2.8564  2.4147
35279SOL     OW 8729   6.174   3.897   8.930  0.4090  0.1648  0.0835
35279SOL    HW1 8730   6.127   3.830   8.882  0.5563  2.0836 -3.0475
35279SOL    HW2 8731   6.265   3.867   8.930  0.0775 -0.9024  1.1984
35280SOL     OW 8732  10.451   9.896   3.825  0.0033  0.2784  0.5417
35280SOL    HW1 8733  10.496   9.824   3.870 -0.0887  0.9070  1.6919
35280SOL    HW2 8734  10.521   9.951   3.792  0.0744 -0.0111  0.2084
35281SOL     OW 8735   9.076   8.072   9.593 -0.2173  0.4600  0.0480
35281SOL    HW1 8736   8.981   8.065   9.605 -0.2749  1.1308 -0.0065
35281SOL    HW2 8737   9.109   8.102   9.678 -0.1006  0.6342 -0.0584
35282SOL     OW 8738   5.052   7.836   6.053  0.0294  0.1524  0.2936
35282SOL    HW1 8739   5.078   7.744   6.058 -1.8179 -0.3535  1.8806
35282SOL    HW2 8740   5.098   7.878   6.125 -0.7680  0.0036  0.8983
35283SOL     OW 8741   5.604   6.634   9.413  0.1706  0.1327  0.0843
35283SOL    HW1 8742   5.685   6.623   9.364 -0.4618  0.6993 -1.1240
35283SOL    HW2 8743   5.589   6.729   9.415  0.1228  0.1243  1.3001
35284SOL     OW 8744   1.066   9.466   9.665  0.1851  0.6539  0.2728
35284SOL    HW1 8745   0.971   9.470   9.676  0.1056  0.7710 -0.4072
35284SOL    HW2 8746   1.080   9.485   9.572  0.7163 -1.5556 -0.1542
35285SOL     OW 8747   7.503   6.290   2.447  0.3454 -0.3227 -0.3095
35285SOL    HW1 8748   7.430   6.336   2.405  1.4213  0.9664 -0.8461
35285SOL    HW2 8749   7.469   6.202   2.464 -1.3808  0.2751 -0.3890
35286SOL     OW 8750   2.429   5.218   9.762 -0.2904  0.2635 -0.4163
35286SOL    HW1 8751   2.384   5.138   9.791  0.5877  0.2229  0.9436
35286SOL    HW2 8752   2.412   5.281   9.832  2.3197  0.0251  0.5567
35287SOL     OW 8753   6.923   2.319   6.423  0.0243 -0.3956  0.0274
35287SOL    HW1 8754   6.946   2.231   6.393 -0.9854 -0.2377 -1.3082
35287SOL    HW2 8755   6.947   2.320   6.516  0.5204 -1.9040 -0.0630
35288SOL     OW 8756   5.053   4.011   5.856  0.1211 -0.2340  0.5121
35288SOL    HW1 8757   5.121   3.982   5.795  0.9225  0.1200  1.2191
35288SOL    HW2 8758   5.005   4.078   5.807  2.6534  2.3089  1.1893
35289SOL     OW 8759   5.318   7.409   4.779 -0.3568 -0.2638 -0.2936
35289SOL    HW1 8760   5.290   7.356   4.854 -0.2980 -0.2929 -0.2916
35289SOL    HW2 8761   5.283   7.496   4.797  1.0294  0.1451  0.5880
35290SOL     OW 8762   0.300   1.921   4.895 -0.3060 -0.5522 -0.0927
35290SOL    HW1 8763   0.307   1.830   4.867  0.4355 -0.9144  1.1878
35290SOL    HW2 8764   0.336   1.922   4.983 -0.0605  1.0325 -0.1730
35291SOL     OW 8765   1.045   3.044   9.804  0.0678  0.3028  0.8767
35291SOL    HW1 8766   1.059   3.094   9.723 -0.4532  1.0045  1.2123
35291SOL    HW2 8767   1.037   3.110   9.872  1.3846 -0.3016  1.6622
35292SOL     OW 8768   3.829   5.960   0.267 -0.4262  0.1403 -0.1042
35292SOL    HW1 8769   3.865   5.954   0.178  0.1725 -0.7921  0.1909
35292SOL    HW2 8770   3.840   5.872   0.303 -2.5116 -0.0243  0.1978
35293SOL     OW 8771   5.315   1.899   5.329  0.3453  0.0025  0.2303
35293SOL    HW1 8772   5.235   1.909   5.277  0.9386  0.2883 -0.6552
35293SOL    HW2 8773   5.386   1.899   5.264  1.0202 -1.0406  0.9211
35294SOL     OW 8774   4.260   0.477   5.923  0.2351 -0.0207  0.0030
35294SOL    HW1 8775   4.201   0.546   5.951 -0.1515 -0.7547  1.0890
35294SOL    HW2 8776   4.204   0.414   5.877  0.3009 -0.3238  0.3273
35295SOL     OW 8777   6.632   9.466   5.500  0.2789 -0.3108 -0.3922
35295SOL    HW1 8778   6.612   9.500   5.587 -0.3978 -0.2850 -0.5527
35295SOL    HW2 8779   6.556   9.489   5.447  0.2015 -1.2829 -0.7300
35296SOL     OW 8780   7.009   3.442   6.180  0.4127  0.4221 -0.3164
35296SOL    HW1 8781   7.001   3.391   6.099 -1.1417 -0.2173  0.1966
35296SOL    HW2 8782   7.092   3.413   6.219  0.7569  0.1186 -1.2516
35297SOL     OW 8783   2.275   8.238   9.340  0.5716  0.0431  0.3752
35297SOL    HW1 8784   2.255   8.312   9.283 -2.7051  1.0710  2.5654
35297SOL    HW2 8785   2.208   8.172   9.320  1.4154 -0.9559  0.7316
35298SOL     OW 8786   1.420   4.787   7.635 -0.5189 -0.1779 -0.0316
35298SOL    HW1 8787   1.466   4.750   7.560 -1.4781 -0.1835 -0.6347
35298SOL    HW2 8788   1.368   4.859   7.598  0.7721  1.3297  1.0092
35299SOL     OW 8789   7.516   3.330   8.776 -0.0568  0.0224 -0.3484
35299SOL    HW1 8790   7.567   3.389   8.720 -0.7998  1.5087  0.4609
35299SOL    HW2 8791   7.527   3.365   8.864 -0.8481 -0.8227  0.1048
35300SOL     OW 8792   3.644   9.141   7.193 -0.1221  0.1552 -0.2612
35300SOL    HW1 8793   3.726   9.149   7.241 -1.3406 -0.8260  2.1530
35300SOL    HW2 8794   3.622   9.048   7.199 -1.9441  0.5805  0.1239
35301SOL     OW 8795   5.918   9.263   1.625 -0.4135  0.0912  0.2001
35301SOL    HW1 8796   5.937   9.195   1.559 -0.7630 -0.3475  0.5524
35301SOL    HW2 8797   5.923   9.345   1.575 -3.3864 -0.3612 -1.0246
35302SOL     OW 8798   1.643   9.405   4.426 -0.4538  0.4550 -0.1280
35302SOL    HW1 8799   1.719   9.398   4.368  1.7222  0.2480  2.5220
35302SOL    HW2 8800   1.620   9.315   4.447 -1.0122  0.5286 -0.4223
35303SOL     OW 8801   6.898   1.389   9.364 -0.8540 -0.1733 -0.5742
35303SOL    HW1 8802   6.849   1.471   9.367  0.2644  0.5094  1.6231
35303SOL    HW2 8803   6.911   1.365   9.456 -1.2556 -2.9257 -1.1347
35304SOL     OW 8804   8.375   7.725  10.164  0.8074  0.2680 -0.2318
35304SOL    HW1 8805   8.455   7.674  10.155 -0.6507 -2.0827 -0.7987
35304SOL    HW2 8806   8.341   7.734  10.075  0.5528  1.5077 -0.0422
35305SOL     OW 8807   3.036  10.051   3.672  0.0248 -0.6639 -0.0623
35305SOL    HW1 8808   3.015   9.982   3.735  2.2911 -0.6160  0.8353
35305SOL    HW2 8809   3.112  10.017   3.625  1.1042  1.1158  0.3109
35306SOL     OW 8810   8.197   2.504   2.097 -0.5140  0.7855  0.0170
35306SOL    HW1 8811   8.286   2.498   2.064 -1.2211  0.4143 -1.9370
35306SOL    HW2 8812   8.207   2.536   2.187  1.5706  0.6347 -0.1129
35307SOL     OW 8813   2.898   8.741   0.435  0.7839  0.1156  0.2542
35307SOL    HW1 8814   2.830   8.783   0.382  0.1236 -1.6934 -0.4075
35307SOL    HW2 8815   2.961   8.811   0.451 -0.5226  1.5024 -0.3022
35308SOL     OW 8816   7.950   8.930   0.742  0.0725  0.0304  0.1930
35308SOL    HW1 8817   7.975   8.940   0.650 -0.4146 -2.8339 -0.3544
35308SOL    HW2 8818   7.869   8.978   0.751  1.2455  2.2021 -0.2516
35309SOL     OW 8819   4.079   9.563   6.266 -0.1393 -0.4223  0.3746
35309SOL    HW1 8820   4.110   9.494   6.207  0.1698  0.9684 -1.1809
35309SOL    HW2 8821   4.159   9.611   6.290 -0.4131 -0.2806  1.0327
35310SOL     OW 8822   3.801   2.057   9.252  0.0177  0.2112 -0.5740
35310SOL    HW1 8823   3.890   2.078   9.279 -0.3830  0.6040  0.5030
35310SOL    HW2 8824   3.804   1.964   9.231  0.0063 -0.6376  2.6160
35311SOL     OW 8825  10.750   3.393   6.347  0.0252  0.1906 -0.4738
35311SOL    HW1 8826  10.760   3.447   6.425  0.2796  1.6860 -1.5032
35311SOL    HW2 8827  10.701   3.448   6.286  2.3764  0.2368 -2.4507
35312SOL     OW 8828   1.998   2.227   1.769 -0.2045 -0.2513  0.0513
35312SOL    HW1 8829   1.924   2.206   1.826 -0.0356  0.1886  0.4399
35312SOL    HW2 8830   2.061   2.271   1.827 -0.9157  2.1571 -0.8889
35313SOL     OW 8831   9.167  10.127   2.578 -0.0115  0.6254 -0.6033
35313SOL    HW1 8832   9.157  10.166   2.491  1.0721  1.4702 -0.3737
35313SOL    HW2 8833   9.131  10.192   2.638  1.6012  1.2071 -0.2315
35314SOL     OW 8834  10.188   3.075   0.760 -0.4605  0.1047  0.3609
35314SOL    HW1 8835  10.193   2.991   0.714  0.3416  0.6440 -0.5735
35314SOL    HW2 8836  10.188   3.051   0.853  0.0863 -0.9203  0.1190
35315SOL     OW 8837   3.796   6.733   0.947  0.3160  0.3808  0.1321
35315SOL    HW1 8838   3.746   6.813   0.928 -0.0233  0.1290 -0.0373
35315SOL    HW2 8839   3.732   6.663   0.941  0.0855  0.3010  2.6151
35316SOL     OW 8840   9.099   1.860   6.630  0.3118  0.0921  0.2616
35316SOL    HW1 8841   9.193   1.842   6.620  0.0764 -0.4136 -1.1760
35316SOL    HW2 8842   9.093   1.955   6.620  0.7534  0.2241  1.1462
35317SOL     OW 8843  10.285   9.429   9.151 -0.0156 -0.3026 -0.2178
35317SOL    HW1 8844  10.267   9.350   9.203 -1.2231 -0.1264 -0.3356
35317SOL    HW2 8845  10.376   9.451   9.172  0.2574 -1.5547  0.0355
35318SOL     OW 8846   2.357   5.921  10.407 -0.1434  0.3579 -0.2816
35318SOL    HW1 8847   2.311   5.862  10.346  2.3997  0.6569 -2.6717
35318SOL    HW2 8848   2.390   5.862  10.475 -0.7048 -0.4504 -0.6810
35319SOL     OW 8849   4.175   3.997  10.567 -0.1863 -0.2977 -0.4323
35319SOL    HW1 8850   4.170   3.946  10.486 -1.6048 -1.3067  0.2387
35319SOL    HW2 8851   4.171   4.088  10.538  1.8799 -0.5311 -1.6258
35320SOL     OW 8852   5.800   2.614   0.402 -0.9943 -0.5359  0.0433
35320SOL    HW1 8853   5.856   2.686   0.433  0.1414 -0.9020 -1.0622
35320SOL    HW2 8854   5.839   2.588   0.318 -0.3539 -3.5036  1.1334
35321SOL     OW 8855   0.363   5.973   6.700  0.7112 -0.5870  0.5729
35321SOL    HW1 8856   0.397   5.888   6.729 -1.3260 -1.8358 -0.4511
35321SOL    HW2 8857   0.303   5.999   6.770  0.8573 -0.2936  0.5903
35322SOL     OW 8858   1.252   7.659   4.496  0.0596 -0.2542  0.4079
35322SOL    HW1 8859   1.257   7.656   4.401 -1.6678 -3.1317  0.2924
35322SOL    HW2 8860   1.161   7.684   4.515  0.7404  1.7098  1.3940
35323SOL     OW 8861   5.149   1.314   4.531 -0.0973 -0.3692 -0.3336
35323SOL    HW1 8862   5.133   1.341   4.621 -0.7552  2.2821 -1.1811
35323SOL    HW2 8863   5.243   1.330   4.518  0.0706 -1.0659 -0.0666
35324SOL     OW 8864   3.569   5.278   0.701  0.2821 -0.1234  0.4968
35324SOL    HW1 8865   3.494   5.238   0.746 -0.1258 -0.0596 -0.1129
35324SOL    HW2 8866   3.644   5.258   0.757  0.0265 -1.3794  0.4208
35325SOL     OW 8867   6.626   3.121   7.537 -0.0200  0.1088  0.5836
35325SOL    HW1 8868   6.706   3.172   7.548 -0.8132  1.1773  1.6209
35325SOL    HW2 8869   6.562   3.184   7.503 -0.2871 -0.8621 -0.7675
35326SOL     OW 8870   9.018   7.871  10.434  0.6297  0.2729  0.6807
35326SOL    HW1 8871   9.078   7.810  10.477  2.0418  0.8909 -0.3471
35326SOL    HW2 8872   9.019   7.844  10.342 -0.4671  0.4746  0.5987
35327SOL     OW 8873   5.913   2.866   7.103 -0.1166 -0.0793 -0.2228
35327SOL    HW1 8874   5.861   2.800   7.149 -0.9260 -0.1527 -1.1871
35327SOL    HW2 8875   5.848   2.928   7.069  0.4885  0.2521 -0.7975
35328SOL     OW 8876  10.510   8.300   0.699  0.3552 -0.5610 -0.0666
35328SOL    HW1 8877  10.502   8.395   0.714 -0.0699 -0.3191 -1.6104
35328SOL    HW2 8878  10.424   8.265   0.724 -0.9426  0.0614 -3.1244
35329SOL     OW 8879   5.593   5.180   0.061  0.1436  0.1483  0.2153
35329SOL    HW1 8880   5.667   5.218   0.014 -0.7313  1.3783 -0.2274
35329SOL    HW2 8881   5.519   5.237   0.039 -1.0438 -1.3096  0.2611
35330SOL     OW 8882   8.088   3.833   7.179 -0.6020  0.3296  0.1892
35330SOL    HW1 8883   8.153   3.803   7.115 -1.4954 -0.8789 -0.1759
35330SOL    HW2 8884   8.091   3.767   7.248 -1.3540  0.3187  0.2164
35331SOL     OW 8885   5.452   8.560   6.493  0.8852 -0.1876 -0.2376
35331SOL    HW1 8886   5.379   8.603   6.448  0.2599 -0.3112  0.6281
35331SOL    HW2 8887   5.529   8.583   6.441  0.2911  0.2901 -0.9365
35332SOL     OW 8888   8.193   7.701   5.932 -0.2304  0.3348 -0.2430
35332SOL    HW1 8889   8.134   7.687   5.857  0.0632  0.5241 -0.5125
35332SOL    HW2 8890   8.162   7.640   5.999 -2.4413  2.2141  0.6109
35333SOL     OW 8891   5.002   3.385   1.507 -0.1805  0.7168 -0.0632
35333SOL    HW1 8892   4.988   3.472   1.470  1.1902  1.7850  1.7274
35333SOL    HW2 8893   5.050   3.337   1.440 -0.4877  1.5133 -0.8692
35334SOL     OW 8894   1.366   6.146   7.635 -0.2433 -0.1864  0.1462
35334SOL    HW1 8895   1.309   6.101   7.697  0.1710 -1.3365 -0.2793
35334SOL    HW2 8896   1.310   6.214   7.597 -0.5660  0.3893  1.5853
35335SOL     OW 8897   2.146   0.164   3.644  0.2500 -0.3876  0.4796
35335SOL    HW1 8898   2.221   0.118   3.681  1.4428  0.3080 -0.9611
35335SOL    HW2 8899   2.148   0.143   3.551  2.1939  4.0931 -0.7625
35336SOL     OW 8900   3.357   7.112   4.491 -0.5876 -0.3464  0.4827
35336SOL    HW1 8901   3.354   7.206   4.513 -0.9609 -0.2481  0.0163
35336SOL    HW2 8902   3.414   7.074   4.557 -0.2657  0.2505  0.5520
35337SOL     OW 8903   2.054   2.397   4.945 -0.1060 -0.2353  0.1460
35337SOL    HW1 8904   2.082   2.371   5.033 -0.2394 -0.5791  0.0881
35337SOL    HW2 8905   2.076   2.322   4.889 -0.6140 -0.2849  0.0029
35338SOL     OW 8906   9.127   1.594   8.409 -0.4560  0.2279 -0.2891
35338SOL    HW1 8907   9.166   1.599   8.496  0.2903  1.0744 -0.6524
35338SOL    HW2 8908   9.069   1.670   8.404  0.0273  0.5773 -0.7642
35339SOL     OW 8909  10.706   6.151  10.458  0.9308  0.2189  0.0540
35339SOL    HW1 8910  10.748   6.233  10.433  2.1434  0.1382  1.7308
35339SOL    HW2 8911  10.765   6.083  10.426 -0.1321 -0.0676 -1.4455
35340SOL     OW 8912   7.272   8.142   7.379  0.1085  0.0405 -0.2742
35340SOL    HW1 8913   7.228   8.060   7.358 -0.1556  0.4944 -1.6507
35340SOL    HW2 8914   7.361   8.116   7.403 -0.7774 -0.8600  2.3047
35341SOL     OW 8915   4.875   2.506   8.558 -0.2510  0.4260  0.0231
35341SOL    HW1 8916   4.830   2.429   8.592  1.5201 -0.5031  0.4271
35341SOL    HW2 8917   4.845   2.578   8.613  0.0612 -0.4816  1.4436
35342SOL     OW 8918   3.895   0.858   2.367 -0.0687  0.1809 -0.1563
35342SOL    HW1 8919   3.919   0.817   2.450 -0.9660  0.1844  0.1144
35342SOL    HW2 8920   3.975   0.902   2.337  0.7440 -1.2353 -0.1411
35343SOL     OW 8921   6.725   6.314   9.676  0.6101 -0.1846 -0.3437
35343SOL    HW1 8922   6.634   6.290   9.695  0.2039 -0.5151 -2.4988
35343SOL    HW2 8923   6.739   6.395   9.725 -0.3046 -0.9490  1.2876
35344SOL     OW 8924   2.358   4.219   9.276 -0.1309  0.1406 -0.3989
35344SOL    HW1 8925   2.412   4.218   9.197 -1.7152  0.4908 -1.5274
35344SOL    HW2 8926   2.270   4.196   9.246 -1.0582  1.5313  1.0460
35345SOL     OW 8927   0.262   8.620   5.093 -0.5834  0.2618 -0.2458
35345SOL    HW1 8928   0.341   8.584   5.053 -0.3986  0.6137 -0.1952
35345SOL    HW2 8929   0.202   8.632   5.019 -0.2269  0.9480 -0.4306
35346SOL     OW 8930   4.822   7.095   6.570 -0.0220  0.2204  0.3886
35346SOL    HW1 8931   4.734   7.063   6.593  0.1559 -0.2268  0.4466
35346SOL    HW2 8932   4.838   7.166   6.633  0.4054 -0.9068  1.5923
35347SOL     OW 8933   1.746  10.415   3.573 -0.2311  0.1727 -0.4955
35347SOL    HW1 8934   1.692  10.403   3.495 -1.2258 -0.0272  0.2006
35347SOL    HW2 8935   1.687  10.455   3.637  0.3015 -0.5083  0.4542
35348SOL     OW 8936   6.229   1.115   9.796 -0.7471 -1.0524  0.0909
35348SOL    HW1 8937   6.274   1.152   9.872 -0.1008 -0.1281 -0.7106
35348SOL    HW2 8938   6.206   1.191   9.742 -3.0524 -1.5118  0.3092
35349SOL     OW 8939   9.269   0.394   1.504  0.1557 -0.1742 -0.4018
35349SOL    HW1 8940   9.225   0.309   1.497 -1.3238  0.5086  0.2455
35349SOL    HW2 8941   9.312   0.406   1.419 -0.2128 -1.2457 -0.7557
35350SOL     OW 8942   0.718   5.934   6.448 -0.1111 -0.2346  0.1927
35350SOL    HW1 8943   0.726   5.885   6.366  0.4011  1.8574 -1.0595
35350SOL    HW2 8944   0.626   5.959   6.453  0.1407  0.8528 -0.4877
35351SOL     OW 8945   6.111   8.926  10.524 -0.3159 -0.0605  0.0864
35351SOL    HW1 8946   6.039   8.954  10.468 -0.7798 -1.5475 -0.1188
35351SOL    HW2 8947   6.157   8.859  10.473  2.0018  1.7034 -0.2895
35352SOL     OW 8948   1.865   8.163   3.996 -0.1694  0.1104 -0.9110
35352SOL    HW1 8949   1.941   8.120   3.957 -0.2788 -0.6538 -0.3042
35352SOL    HW2 8950   1.894   8.189   4.083 -0.2536  0.8626 -1.0988
35353SOL     OW 8951   5.715   0.233   8.638 -0.3889 -0.4172  0.4773
35353SOL    HW1 8952   5.634   0.221   8.589 -0.4118  2.3840 -0.3282
35353SOL    HW2 8953   5.687   0.231   8.730 -1.7462  2.1200  0.2069
35354SOL     OW 8954   9.821   9.855   2.620 -0.0376 -0.1148 -0.0795
35354SOL    HW1 8955   9.891   9.906   2.578  0.1332 -0.4747 -0.2385
35354SOL    HW2 8956   9.793   9.909   2.694  0.7435 -0.1785  0.2731
35355SOL     OW 8957   6.153   0.836   5.791 -0.5331  0.6006  0.8291
35355SOL    HW1 8958   6.241   0.858   5.822  0.1718  2.1004 -1.9493
35355SOL    HW2 8959   6.163   0.751   5.748 -0.1454  1.2766 -0.4596
35356SOL     OW 8960   5.933   8.509   0.433 -0.6830  0.3861 -0.4610
35356SOL    HW1 8961   5.846   8.503   0.393 -1.0855 -1.7575  0.5958
35356SOL    HW2 8962   5.916   8.544   0.521 -0.4787  0.1241 -0.3155
35357SOL     OW 8963   9.264   2.123   9.738  0.2185 -0.0029  0.2438
35357SOL    HW1 8964   9.282   2.146   9.647  1.2775 -0.3186  0.3568
35357SOL    HW2 8965   9.342   2.075   9.766 -0.3381 -0.4070  1.1461
35358SOL     OW 8966   6.941   4.245   0.351  0.2056 -0.2856  0.1636
35358SOL    HW1 8967   6.927   4.273   0.441  1.6210  0.4221  0.1897
35358SOL    HW2 8968   6.861   4.271   0.305 -0.1909  0.0701  1.0375
35359SOL     OW 8969   8.786   9.656   6.108 -0.1298 -0.4352  0.4305
35359SOL    HW1 8970   8.814   9.715   6.178  0.2943 -1.1251  0.8515
35359SOL    HW2 8971   8.860   9.598   6.093 -0.3239 -0.4872 -0.3965
35360SOL     OW 8972   7.921   4.392   0.848  0.2364 -0.3164  0.7752
35360SOL    HW1 8973   8.006   4.421   0.880  0.6514 -0.7503  0.1031
35360SOL    HW2 8974   7.867   4.471   0.846  1.0447  0.2337 -0.0896
35361SOL     OW 8975   2.397   9.628   9.535  0.3684 -0.7591 -0.0715
35361SOL    HW1 8976   2.303   9.620   9.521  0.1063 -1.0389  1.6142
35361SOL    HW2 8977   2.428   9.681   9.462 -1.2489  0.1256 -0.1661
35362SOL     OW 8978  10.388   5.776   6.709  0.5058 -0.1170  0.3687
35362SOL    HW1 8979  10.478   5.751   6.688  0.7751  0.0738  1.2819
35362SOL    HW2 8980  10.335   5.729   6.644  1.2383 -0.4651  0.0119
35363SOL     OW 8981   6.142   7.850   3.448 -0.3541  0.2712 -0.0299
35363SOL    HW1 8982   6.202   7.852   3.523 -0.9471  0.0527  0.4586
35363SOL    HW2 8983   6.169   7.924   3.393 -0.3471  0.8524  0.7384
35364SOL     OW 8984   8.503   1.007   0.311 -0.0320  0.2041  0.4100
35364SOL    HW1 8985   8.585   0.958   0.313 -0.3880 -0.4730 -0.8294
35364SOL    HW2 8986   8.509   1.063   0.234 -0.4970  0.5791  0.6360
35365SOL     OW 8987   4.098  10.007   8.675 -0.6279  0.3190 -0.1221
35365SOL    HW1 8988   4.125  10.089   8.717 -1.7845  0.2285  0.8523
35365SOL    HW2 8989   4.174   9.950   8.682 -0.0920  1.0187 -0.0618
35366SOL     OW 8990   1.582   9.976   9.971  0.4808  0.1998  0.2402
35366SOL    HW1 8991   1.654   9.919   9.998  0.4828 -0.0809 -0.3380
35366SOL    HW2 8992   1.535   9.924   9.905  0.1694  0.6619  0.0980
35367SOL     OW 8993   0.685   3.798   4.297 -0.6935 -0.3770  0.0815
35367SOL    HW1 8994   0.631   3.877   4.294 -1.7372 -0.9528  1.9751
35367SOL    HW2 8995   0.730   3.803   4.381  0.6439 -0.9317 -0.5743
35368SOL     OW 8996   8.500   8.403   0.560 -0.5261 -0.2967  0.2777
35368SOL    HW1 8997   8.552   8.323   0.545 -0.1199  0.1550 -0.8009
35368SOL    HW2 8998   8.428   8.374   0.616  0.8816 -0.9422  1.8396
35369SOL     OW 8999   0.240   8.575   8.636  0.1590 -0.2151  0.0361
35369SOL    HW1 9000   0.146   8.561   8.622  0.3279 -1.3228 -0.0141
35369SOL    HW2 9001   0.249   8.582   8.731  0.0289 -0.0653  0.0388
35370SOL     OW 9002   2.050   9.346   8.123  0.3110 -0.3311 -0.8491
35370SOL    HW1 9003   2.080   9.415   8.182  1.8393 -2.0622  0.5229
35370SOL    HW2 9004   2.025   9.274   8.180 -0.5570 -1.2130 -2.2627
35371SOL     OW 9005  10.541   1.047   2.384  0.0077 -0.0478 -0.0064
35371SOL    HW1 9006  10.529   1.083   2.472  0.0612 -1.4168  0.5857
35371SOL    HW2 9007  10.609   0.980   2.395 -0.9057 -1.1530 -0.8073
35372SOL     OW 9008   0.903   7.534   5.872  0.1286 -0.2129  0.1881
35372SOL    HW1 9009   0.879   7.498   5.958  1.5821 -0.7052  0.4223
35372SOL    HW2 9010   0.956   7.611   5.893 -2.5099  1.8646 -0.3143
35373SOL     OW 9011   4.214   5.952   8.082  0.5942  0.0449  0.3036
35373SOL    HW1 9012   4.155   5.905   8.023  1.2065 -0.3375 -0.0222
35373SOL    HW2 9013   4.158   5.987   8.151  0.2264 -2.1067  1.1858
35374SOL     OW 9014   3.842   0.554   3.825 -0.4816  0.7017  0.0125
35374SOL    HW1 9015   3.774   0.498   3.787 -0.0358  1.6593 -2.3801
35374SOL    HW2 9016   3.920   0.499   3.824 -0.7407  0.3116  0.7318
35375SOL     OW 9017  10.091   8.326   0.549  0.3413  1.2082 -0.3696
35375SOL    HW1 9018  10.112   8.244   0.504  0.4519  1.2979 -0.4813
35375SOL    HW2 9019  10.006   8.353   0.512 -0.0546  0.7603  0.1965
35376SOL     OW 9020   5.364  10.501   5.316 -0.6641 -0.2473  0.0931
35376SOL    HW1 9021   5.387  10.573   5.258  0.6253 -0.3252  0.4892
35376SOL    HW2 9022   5.291  10.535   5.368 -1.7030 -0.1062 -1.3946
35377SOL     OW 9023   0.383   6.080   0.304  0.4254 -0.0467 -0.0484
35377SOL    HW1 9024   0.376   6.176   0.298  1.8189  0.1961  1.4585
35377SOL    HW2 9025   0.312   6.055   0.363 -0.2088 -0.0025 -0.7842
35378SOL     OW 9026   5.354   3.623   7.121 -0.4372  0.2000 -0.2823
35378SOL    HW1 9027   5.351   3.574   7.038 -0.9939  0.8697 -0.6645
35378SOL    HW2 9028   5.437   3.596   7.161 -0.6322 -0.8901 -0.5822
35379SOL     OW 9029   2.048   1.491   3.070  0.1356 -0.0808  0.2362
35379SOL    HW1 9030   2.093   1.471   3.152 -0.4300  0.4436  0.6891
35379SOL    HW2 9031   2.035   1.406   3.028 -0.4972 -0.4682  1.1917
35380SOL     OW 9032   6.530   0.875   8.595 -0.0957 -0.3787 -0.7095
35380SOL    HW1 9033   6.491   0.892   8.680 -0.3586  0.3717 -0.9721
35380SOL    HW2 9034   6.571   0.789   8.604 -1.4008 -0.9705 -0.2826
35381SOL     OW 9035   3.919   3.779   0.875  0.5354  0.7210 -0.9505
35381SOL    HW1 9036   3.983   3.780   0.946 -0.3869 -0.2551 -0.0605
35381SOL    HW2 9037   3.878   3.693   0.882 -0.8746  1.3238 -1.4772
35382SOL     OW 9038   0.409   5.232   3.950 -0.4160  0.2590  0.1054
35382SOL    HW1 9039   0.341   5.284   3.907 -1.5276  0.0303  1.4982
35382SOL    HW2 9040   0.473   5.298   3.981 -0.3975  0.5412 -0.5119
35383SOL     OW 9041   7.649   9.740  10.792  0.2579 -0.1789 -0.4533
35383SOL    HW1 9042   7.643   9.836  10.796 -0.6921 -0.2733  0.5846
35383SOL    HW2 9043   7.711   9.717  10.861  0.9504 -0.2905 -1.0942
35384SOL     OW 9044   1.009   4.988   0.933 -0.2503 -0.7408  0.3127
35384SOL    HW1 9045   1.094   5.025   0.911  0.2501 -2.2247 -0.3576
35384SOL    HW2 9046   1.022   4.946   1.018  0.0605 -2.0827 -0.3804
35385SOL     OW 9047   4.771   4.057   5.021  0.5364 -1.1729  0.2044
35385SOL    HW1 9048   4.852   4.031   4.976  0.7302 -2.2789  1.1415
35385SOL    HW2 9049   4.712   4.081   4.950  2.3154  1.7752 -0.4616
35386SOL     OW 9050   5.790   0.074   2.409 -0.1121 -0.5159  0.2111
35386SOL    HW1 9051   5.708   0.030   2.386 -0.8011  0.7577  0.0957
35386SOL    HW2 9052   5.787   0.081   2.504 -0.7493  0.5811  0.1376
35387SOL     OW 9053   5.396   9.581   6.337  0.1299 -0.4148 -0.3500
35387SOL    HW1 9054   5.365   9.585   6.247  1.0376 -2.8113 -0.8325
35387SOL    HW2 9055   5.491   9.578   6.329  0.3245  1.3502  0.8284
35388SOL     OW 9056   7.452   9.692   1.309 -0.3232 -0.2977  0.3451
35388SOL    HW1 9057   7.402   9.639   1.372 -0.1025  0.6948  1.3953
35388SOL    HW2 9058   7.501   9.753   1.364  0.3894  0.1640 -0.7816
35389SOL     OW 9059   2.071   2.231   7.452  0.1168 -0.0694 -0.8944
35389SOL    HW1 9060   2.128   2.295   7.409  0.6765 -0.5554 -0.8825
35389SOL    HW2 9061   2.035   2.278   7.527 -0.2115  0.5217 -1.4040
35390SOL     OW 9062  10.384   7.560   1.753 -0.1937  0.1222  0.2311
35390SOL    HW1 9063  10.444   7.531   1.822  0.0378  0.8046  0.3252
35390SOL    HW2 9064  10.333   7.631   1.793 -0.3935  0.1979 -0.1490
35391SOL     OW 9065   6.785  10.709   4.131 -0.5227  1.1474  0.7200
35391SOL    HW1 9066   6.689  10.706   4.127 -0.4928  1.1924 -0.5058
35391SOL    HW2 9067   6.812  10.740   4.044  0.6118  0.9482  0.9787
35392SOL     OW 9068   5.168   8.240   7.948  0.5607  0.1408 -0.1241
35392SOL    HW1 9069   5.250   8.267   7.990  0.7314 -1.3986  0.6165
35392SOL    HW2 9070   5.121   8.192   8.017  0.6030 -2.0148 -1.5038
35393SOL     OW 9071   9.588   6.597   7.204 -0.8286 -0.1840  0.1327
35393SOL    HW1 9072   9.516   6.553   7.159  0.2382 -1.9043  0.0365
35393SOL    HW2 9073   9.588   6.560   7.292 -1.4603  1.4977  0.8889
35394SOL     OW 9074   4.254   6.046   6.441 -0.0693  0.3600 -0.0609
35394SOL    HW1 9075   4.271   6.039   6.535 -0.1000  0.4475 -0.0485
35394SOL    HW2 9076   4.181   5.987   6.425 -0.2663  0.5763  0.0267
35395SOL     OW 9077   2.538  10.309   0.988  0.1842 -0.0559  0.4102
35395SOL    HW1 9078   2.538  10.224   0.945 -0.4767  0.9542 -1.6968
35395SOL    HW2 9079   2.618  10.352   0.957 -0.9663  1.2020 -0.9939
35396SOL     OW 9080  10.261   4.695   9.970  0.1310 -0.3153 -0.3695
35396SOL    HW1 9081  10.312   4.685   9.890  2.1611  1.0793  0.6674
35396SOL    HW2 9082  10.266   4.609  10.012  1.8439 -0.1732 -0.2084
35397SOL     OW 9083   1.880   3.180   0.277  0.5034 -0.3092 -0.0757
35397SOL    HW1 9084   1.929   3.231   0.213  0.6567 -1.1817 -0.6696
35397SOL    HW2 9085   1.929   3.098   0.284 -1.2670 -1.5387 -1.2681
35398SOL     OW 9086   9.574   8.347   5.895 -0.1617 -0.3134 -0.0151
35398SOL    HW1 9087   9.536   8.371   5.979 -0.3032 -0.4537 -0.0393
35398SOL    HW2 9088   9.666   8.329   5.915  0.3146  1.6710 -0.2359
35399SOL     OW 9089   7.423   0.060   7.862  0.1418  0.1922  0.2656
35399SOL    HW1 9090   7.479  -0.013   7.837 -0.8623 -0.3698 -0.4068
35399SOL    HW2 9091   7.438   0.126   7.795 -2.4417 -1.2580 -1.9318
35400SOL     OW 9092  10.212   9.786   0.159 -0.0427  0.1882 -0.0860
35400SOL    HW1 9093  10.147   9.853   0.138  1.0887  1.8131  1.4006
35400SOL    HW2 9094  10.292   9.834   0.177  0.5200 -1.4393  2.1956
35401SOL     OW 9095   8.000   1.814   7.886  0.0070  0.3473  0.0206
35401SOL    HW1 9096   8.018   1.797   7.794  1.1510  0.3261  0.2350
35401SOL    HW2 9097   8.075   1.866   7.916 -1.2652  2.0079  0.4680
35402SOL     OW 9098   8.663   0.215  10.162  0.2000 -0.2239  0.0856
35402SOL    HW1 9099   8.598   0.222  10.231  2.3190  0.1917  2.1655
35402SOL    HW2 9100   8.665   0.122  10.139 -0.5919 -0.3470  0.5081
35403SOL     OW 9101   9.568   1.333   4.019  0.1171  0.7814  0.2747
35403SOL    HW1 9102   9.586   1.424   3.996  0.9243  0.4601 -0.4059
35403SOL    HW2 9103   9.576   1.331   4.115 -0.6146  1.5678  0.3577
35404SOL     OW 9104   3.297   7.911   5.271 -0.0506 -0.1355  0.5467
35404SOL    HW1 9105   3.368   7.858   5.308 -1.1905 -1.5522  0.7387
35404SOL    HW2 9106   3.273   7.867   5.190  2.2868  2.8302 -2.0443
35405SOL     OW 9107   8.881   6.455  10.251 -0.0198  0.1067  0.4758
35405SOL    HW1 9108   8.804   6.407  10.220 -0.1158  0.9633 -0.6749
35405SOL    HW2 9109   8.954   6.394  10.236 -0.2220  0.0527 -0.3544
35406SOL     OW 9110   5.591   7.848   7.364  0.2795 -0.0591 -0.3740
35406SOL    HW1 9111   5.610   7.879   7.276 -0.1037 -2.0669 -1.2021
35406SOL    HW2 9112   5.517   7.789   7.354 -0.1368  0.1064  1.3940
35407SOL     OW 9113   1.630   3.571   1.274 -0.0069 -0.0346 -0.7539
35407SOL    HW1 9114   1.627   3.523   1.191 -1.4935 -1.4015  0.0419
35407SOL    HW2 9115   1.555   3.631   1.269  0.4078  0.4983 -0.7246
35408SOL     OW 9116   0.830   4.933   6.136 -0.4752 -0.1254 -0.1477
35408SOL    HW1 9117   0.835   4.842   6.107  2.1889 -0.2569  0.4417
35408SOL    HW2 9118   0.893   4.979   6.079 -1.5682  1.3024 -0.2442
35409SOL     OW 9119   8.672   8.870   2.195 -0.9176  0.2209 -0.0318
35409SOL    HW1 9120   8.763   8.894   2.216 -0.3789 -0.7964 -1.0778
35409SOL    HW2 9121   8.620   8.917   2.259  0.4016  0.2352  1.0819
35410SOL     OW 9122   5.468   8.026   3.399  0.0851  0.2245  0.1774
35410SOL    HW1 9123   5.508   7.939   3.406  1.0903  0.7437  1.5566
35410SOL    HW2 9124   5.537   8.081   3.360 -0.5363  0.4089 -0.6805
35411SOL     OW 9125   7.729   4.093   9.687 -0.2161 -1.1307 -0.1111
35411SOL    HW1 9126   7.821   4.104   9.664 -0.2537 -1.1995 -0.2972
35411SOL    HW2 9127   7.728   4.083   9.782 -0.2557  1.6363  0.2888
35412SOL     OW 9128   2.794   8.571   2.520 -0.2953  0.4582  0.2109
35412SOL    HW1 9129   2.720   8.513   2.538 -0.0372  0.2093  0.4906
35412SOL    HW2 9130   2.843   8.527   2.450 -0.6701  0.8605 -0.3143
35413SOL     OW 9131   5.733   2.412   4.652 -0.1482  0.1308  0.0946
35413SOL    HW1 9132   5.759   2.325   4.681 -0.2109 -0.0042 -0.2432
35413SOL    HW2 9133   5.755   2.413   4.558 -0.6562  0.2786 -0.0255
35414SOL     OW 9134   9.799   8.868   8.732  0.2495 -0.4328  0.0772
35414SOL    HW1 9135   9.722   8.925   8.729  0.2600 -0.4400 -1.1157
35414SOL    HW2 9136   9.764   8.780   8.720  0.1782 -0.7884  2.4424
35415SOL     OW 9137   0.462   4.481   8.488 -0.0443 -0.2952 -0.1695
35415SOL    HW1 9138   0.395   4.541   8.520  0.3611  0.5697 -0.8780
35415SOL    HW2 9139   0.544   4.516   8.523  0.2202 -0.3016 -0.7631
35416SOL     OW 9140   2.498   6.801   9.314 -0.3851 -0.0585 -0.2699
35416SOL    HW1 9141   2.495   6.706   9.325 -2.2809  0.0966  1.1456
35416SOL    HW2 9142   2.585   6.826   9.344  0.5706 -1.4238 -1.7518
35417SOL     OW 9143   1.244   0.672   0.765 -0.0804 -0.3459 -0.1439
35417SOL    HW1 9144   1.205   0.760   0.768  0.4045 -0.0501 -1.7283
35417SOL    HW2 9145   1.170   0.613   0.781 -0.2844  0.3390  1.6900
35418SOL     OW 9146   9.710   5.646   4.447  0.0356  0.0014  0.2088
35418SOL    HW1 9147   9.660   5.701   4.386 -0.0063  0.0083  0.2489
35418SOL    HW2 9148   9.677   5.558   4.433 -0.4305  0.0937  0.6754
35419SOL     OW 9149   6.204   4.438   9.984  0.0764 -0.3638 -0.2087
35419SOL    HW1 9150   6.279   4.400  10.031  0.1651 -0.8981 -0.7692
35419SOL    HW2 9151   6.145   4.468  10.054 -0.9450 -3.3461  0.3835
35420SOL     OW 9152   9.686   3.396   7.255 -0.7463 -0.3442  0.0741
35420SOL    HW1 9153   9.718   3.354   7.335 -0.6065 -1.3025 -0.4639
35420SOL    HW2 9154   9.761   3.445   7.221  0.8544 -3.8476 -2.0381
35421SOL     OW 9155   6.931   1.727   5.271  0.1544  0.5528 -0.3320
35421SOL    HW1 9156   6.852   1.676   5.255 -0.2787  1.8580 -2.7348
35421SOL    HW2 9157   6.899   1.807   5.314  0.3891  0.3847  0.1645
35422SOL     OW 9158  10.688   0.639   7.418  0.2494 -0.4472  0.5020
35422SOL    HW1 9159  10.721   0.556   7.453 -0.2839 -0.2910  1.4061
35422SOL    HW2 9160  10.608   0.655   7.467  0.1014  0.3708  0.0027
35423SOL     OW 9161   6.261   9.434   7.325  0.2237  0.5700  0.2599
35423SOL    HW1 9162   6.197   9.383   7.375 -1.0471  0.2258 -1.6347
35423SOL    HW2 9163   6.214   9.462   7.247  2.4110  0.2508 -1.2532
35424SOL     OW 9164   6.371   7.254   2.905 -0.4030 -0.0744  0.1446
35424SOL    HW1 9165   6.356   7.267   2.812 -1.8422  1.5016  0.5409
35424SOL    HW2 9166   6.463   7.277   2.918 -0.1434 -0.4683 -0.8964
35425SOL     OW 9167   6.003   0.457   3.105 -0.2435  0.1621 -0.4022
35425SOL    HW1 9168   6.039   0.381   3.060 -0.4538 -0.4893  0.5053
35425SOL    HW2 9169   6.077   0.492   3.156 -0.4598 -0.1832  0.1554
35426SOL     OW 9170   4.784   7.462   1.091  0.4492 -0.0949  0.1209
35426SOL    HW1 9171   4.805   7.547   1.129  0.8989 -0.0496 -0.2303
35426SOL    HW2 9172   4.689   7.465   1.077  0.8140  1.4989 -2.6240
35427SOL     OW 9173   1.879  10.346  10.113 -0.1375 -0.1016 -0.0197
35427SOL    HW1 9174   1.849  10.296  10.037 -1.2196  1.8270 -0.9279
35427SOL    HW2 9175   1.817  10.419  10.120 -0.5192 -0.5567  3.1556
35428SOL     OW 9176   8.878  10.704   8.588  0.3029  0.4115  0.5458
35428SOL    HW1 9177   8.826  10.668   8.659  0.0986  0.9410  0.6691
35428SOL    HW2 9178   8.843  10.792   8.574  1.4530  0.9682  0.9530
35429SOL     OW 9179   9.625  10.508   4.562 -0.2544  0.3178 -0.3977
35429SOL    HW1 9180   9.652  10.438   4.622 -1.9149 -0.2952 -0.3126
35429SOL    HW2 9181   9.556  10.555   4.609 -0.0382  1.2200 -0.9659
35430SOL     OW 9182   6.399  10.146  10.402  0.2189  0.4486  0.1194
35430SOL    HW1 9183   6.457  10.075  10.429  0.3325 -0.0154 -1.2815
35430SOL    HW2 9184   6.392  10.201  10.480  0.7817 -0.6517  0.9857
35431SOL     OW 9185   7.436   7.641   7.532  0.4446  0.2878  0.0409
35431SOL    HW1 9186   7.491   7.617   7.458  0.9624 -0.2038  0.5729
35431SOL    HW2 9187   7.446   7.569   7.594 -1.4700 -0.2126 -0.1876
35432SOL     OW 9188   2.095   3.077   3.408 -0.0670 -0.0462  0.1001
35432SOL    HW1 9189   2.158   3.077   3.480 -2.2530 -2.0190  2.1476
35432SOL    HW2 9190   2.123   3.003   3.352 -1.0234 -1.5425  1.5213
35433SOL     OW 9191   3.679   4.207   2.117 -0.3895 -0.0793  0.1095
35433SOL    HW1 9192   3.763   4.224   2.160 -1.5210 -0.0465  2.4582
35433SOL    HW2 9193   3.662   4.285   2.065  1.1180 -0.1974 -0.6212
35434SOL     OW 9194   4.980   2.536   5.752  0.2875 -0.0173  0.1281
35434SOL    HW1 9195   4.903   2.542   5.809 -0.8602 -1.1627 -1.2438
35434SOL    HW2 9196   4.981   2.619   5.704 -0.1148 -0.0151  0.1233
35435SOL     OW 9197   4.809   8.110   1.648 -0.3050  0.0575  0.3850
35435SOL    HW1 9198   4.865   8.140   1.576  0.3773 -0.1278  0.8284
35435SOL    HW2 9199   4.856   8.136   1.727 -0.8774 -0.0550  0.7703
35436SOL     OW 9200   9.480   8.199   7.648  0.5306 -0.3072 -0.3349
35436SOL    HW1 9201   9.527   8.120   7.676  0.5955 -0.7265 -1.5769
35436SOL    HW2 9202   9.401   8.166   7.605  0.8426  0.2719 -1.3870
35437SOL     OW 9203  10.600   9.243   0.135  0.2297  0.4409 -0.1916
35437SOL    HW1 9204  10.563   9.162   0.170  1.3686  0.4840  1.1633
35437SOL    HW2 9205  10.677   9.215   0.086  0.4568  0.6751  0.0292
35438SOL     OW 9206   3.258   7.115   4.085 -0.1228  0.2275  0.2023
35438SOL    HW1 9207   3.304   7.051   4.030 -0.7821 -0.6240  0.6105
35438SOL    HW2 9208   3.327   7.158   4.135  0.5341  1.3045 -1.5462
35439SOL     OW 9209   0.659   7.908   2.770 -0.7149 -0.0280  0.7106
35439SOL    HW1 9210   0.728   7.844   2.785 -1.0000 -0.4134  0.4042
35439SOL    HW2 9211   0.624   7.927   2.857 -1.1454 -0.8789  0.7348
35440SOL     OW 9212   2.838   8.403   0.013  0.3221 -0.2604  0.1128
35440SOL    HW1 9213   2.761   8.447   0.050  0.4712 -0.4104  0.6071
35440SOL    HW2 9214   2.840   8.318   0.056 -0.0946 -0.8637 -1.0027
35441SOL     OW 9215   1.830   1.765   5.422  0.5223 -0.6400  0.6040
35441SOL    HW1 9216   1.759   1.747   5.359  1.4777 -0.9441 -0.4268
35441SOL    HW2 9217   1.842   1.682   5.469 -0.2639 -0.3826  1.2820
35442SOL     OW 9218   1.087   5.465   4.753  0.5777  0.0850  0.3062
35442SOL    HW1 9219   1.078   5.470   4.848 -1.4451  0.6840  0.1329
35442SOL    HW2 9220   1.074   5.372   4.732 -0.9940  0.2342  0.4917
35443SOL     OW 9221   5.991   3.957   9.982  0.6110  0.2395  0.0648
35443SOL    HW1 9222   5.926   4.027   9.981 -2.5002 -2.3816 -0.6716
35443SOL    HW2 9223   5.983   3.919  10.070  0.7687 -0.4306 -0.2085
35444SOL     OW 9224   6.937   2.819   0.569 -0.2076 -0.1091  0.9665
35444SOL    HW1 9225   6.857   2.869   0.559 -1.3299 -1.9762 -0.0595
35444SOL    HW2 9226   6.993   2.848   0.497 -0.5146  0.2560  0.8753
35445SOL     OW 9227   9.521   2.617   2.249  0.3667  0.1938 -0.5385
35445SOL    HW1 9228   9.515   2.580   2.161  0.5738 -0.4265 -0.3003
35445SOL    HW2 9229   9.430   2.621   2.279  0.0516  2.6110 -1.6449
35446SOL     OW 9230   5.588   4.145   0.620 -0.3632 -0.4203  0.1675
35446SOL    HW1 9231   5.549   4.214   0.673  3.1168  1.4766  0.5399
35446SOL    HW2 9232   5.527   4.071   0.629 -2.4267  1.3806  2.7305
35447SOL     OW 9233   5.591   7.280   3.358 -0.0901 -0.3910 -0.2663
35447SOL    HW1 9234   5.663   7.293   3.420  0.9012 -2.0722 -0.9879
35447SOL    HW2 9235   5.580   7.366   3.317  0.8428  0.1443  0.5552
35448SOL     OW 9236   0.634   7.027   8.667 -0.3095 -0.2909 -0.6491
35448SOL    HW1 9237   0.563   6.999   8.608  0.7176  0.6406 -2.4275
35448SOL    HW2 9238   0.714   6.994   8.627  0.5757  1.7865 -0.7529
35449SOL     OW 9239   4.913   3.557   9.089  0.2367  0.2593  0.1915
35449SOL    HW1 9240   4.851   3.527   9.155  0.7536 -0.5906  0.3059
35449SOL    HW2 9241   4.999   3.534   9.125  0.6486  1.7687  0.2160
35450SOL     OW 9242   3.286   1.302   9.577 -0.3052  0.4506  0.0636
35450SOL    HW1 9243   3.344   1.359   9.629  0.1332  0.7006 -0.6879
35450SOL    HW2 9244   3.211   1.357   9.557  0.1811  0.8229 -0.7804
35451SOL     OW 9245   6.490   7.714   0.961  0.1263  0.3082 -0.0605
35451SOL    HW1 9246   6.465   7.667   0.882  0.4324  2.2736 -1.3959
35451SOL    HW2 9247   6.539   7.790   0.930  3.0821 -0.4884  2.1554
35452SOL     OW 9248   7.961   7.560   7.568 -0.0266  0.5799 -0.1872
35452SOL    HW1 9249   7.972   7.644   7.612 -0.9785  0.8838 -0.5160
35452SOL    HW2 9250   7.892   7.575   7.504  1.3275  0.1623 -1.8274
35453SOL     OW 9251   3.974   7.997   5.603  0.5388 -0.5788  0.3013
35453SOL    HW1 9252   3.980   8.073   5.661 -0.1390 -0.5126  0.2986
35453SOL    HW2 9253   3.881   7.993   5.580  0.9829  0.1316 -1.7839
35454SOL     OW 9254   0.770   5.824   8.533  0.0786 -0.2493  0.0775
35454SOL    HW1 9255   0.685   5.782   8.544  0.9630 -2.1190  0.1243
35454SOL    HW2 9256   0.827   5.777   8.594  0.9757  1.5556  0.6882
35455SOL     OW 9257   8.625   3.083   8.550 -0.2169 -0.0261  0.4629
35455SOL    HW1 9258   8.605   3.140   8.475 -1.2119  1.3677  1.7396
35455SOL    HW2 9259   8.656   3.143   8.618 -0.7797 -1.0793  1.6757
35456SOL     OW 9260   4.801   2.178   2.550 -0.5311  0.2799 -0.5257
35456SOL    HW1 9261   4.880   2.224   2.523 -0.5770  0.6937  0.0336
35456SOL    HW2 9262   4.812   2.089   2.517  0.6123  0.0638  0.3706
35457SOL     OW 9263   5.236   9.259   9.592 -0.6152  0.4049  0.2495
35457SOL    HW1 9264   5.212   9.276   9.501  0.5390  1.3435  0.0952
35457SOL    HW2 9265   5.331   9.244   9.590 -0.9553 -2.4931  0.9171
35458SOL     OW 9266   2.957  10.281   2.371 -0.5861  0.4531 -0.6027
35458SOL    HW1 9267   3.035  10.327   2.403 -0.6696 -0.0487  0.3520
35458SOL    HW2 9268   2.962  10.289   2.276  0.5417  0.5848 -0.5468
35459SOL     OW 9269   3.820   6.458   0.021 -0.3467  0.7455 -0.3292
35459SOL    HW1 9270   3.746   6.509   0.056 -1.4539  0.8345 -2.6186
35459SOL    HW2 9271   3.799   6.367   0.045 -2.3063  0.5043 -2.5277
35460SOL     OW 9272   0.509   8.845   7.230  0.5328 -0.2282 -0.2352
35460SOL    HW1 9273   0.481   8.763   7.191  1.6755  0.4986 -2.7650
35460SOL    HW2 9274   0.434   8.904   7.218 -0.4587 -0.9265  1.9794
35461SOL     OW 9275   3.214   7.978   1.889 -0.2030  0.3932  0.1527
35461SOL    HW1 9276   3.282   7.957   1.825 -0.5813 -0.6450  0.0680
35461SOL    HW2 9277   3.181   7.893   1.917 -2.3014  0.8485 -0.7043
35462SOL     OW 9278   2.896   7.331   1.152  0.3009 -0.0294 -0.1915
35462SOL    HW1 9279   2.883   7.277   1.230  0.9438 -1.6252 -1.1442
35462SOL    HW2 9280   2.941   7.274   1.090 -2.0228  0.4803 -2.5400
35463SOL     OW 9281   3.697   8.958   2.522  0.4432 -0.2699  0.6064
35463SOL    HW1 9282   3.673   8.930   2.610 -0.0872 -1.4670  0.1017
35463SOL    HW2 9283   3.784   8.996   2.532  2.5852 -4.6799  0.9816
35464SOL     OW 9284   8.221   2.852  10.485  0.4779 -0.6259  0.4124
35464SOL    HW1 9285   8.280   2.926  10.499 -0.0067 -0.5652  2.3467
35464SOL    HW2 9286   8.135   2.884  10.511 -0.1313 -1.2480 -0.7358
35465SOL     OW 9287  10.019   6.992   9.288 -0.2085 -0.4814  0.3640
35465SOL    HW1 9288  10.013   6.897   9.284 -1.0640 -0.3927 -1.0526
35465SOL    HW2 9289   9.933   7.021   9.319  0.3910 -0.1958  1.8429
35466SOL     OW 9290   0.459   5.410   1.481  0.0607  0.6108  0.2231
35466SOL    HW1 9291   0.524   5.477   1.502  0.2063  0.8978 -1.0804
35466SOL    HW2 9292   0.455   5.409   1.385 -1.0189 -0.2121  0.2580
35467SOL     OW 9293   8.611   1.185  10.422  0.0362  0.0880 -0.1955
35467SOL    HW1 9294   8.602   1.265  10.371 -0.2236  0.5593  0.5789
35467SOL    HW2 9295   8.665   1.127  10.367 -1.6942 -0.0990 -1.7792
35468SOL     OW 9296   1.227   3.953   7.808  0.2232 -0.0394 -0.2450
35468SOL    HW1 9297   1.281   4.032   7.797 -0.2759  0.5507  1.2652
35468SOL    HW2 9298   1.143   3.986   7.840 -1.0356 -0.9634 -2.4426
35469SOL     OW 9299   8.381   0.969   4.666 -0.5312 -0.7458  0.1403
35469SOL    HW1 9300   8.424   0.884   4.678 -1.3914 -1.2768 -0.4264
35469SOL    HW2 9301   8.360   0.998   4.755  1.6733 -0.0924  0.4924
35470SOL     OW 9302  10.235   8.672   4.792 -0.0652 -0.7497  0.4546
35470SOL    HW1 9303  10.161   8.730   4.810  0.1954 -1.0054  2.6006
35470SOL    HW2 9304  10.300   8.729   4.749 -0.8312 -0.1136  0.1227
35471SOL     OW 9305   8.688   1.788   6.061  0.3706 -0.8661 -0.0120
35471SOL    HW1 9306   8.708   1.776   6.154  0.2182  1.6896  0.4334
35471SOL    HW2 9307   8.643   1.707   6.035  1.5140 -2.1372  1.7924
35472SOL     OW 9308   0.555  10.182   9.709  0.5995 -0.2312 -0.0626
35472SOL    HW1 9309   0.515  10.243   9.648  1.3847 -1.8624 -2.3487
35472SOL    HW2 9310   0.573  10.234   9.787 -2.3230  1.4700 -0.3670
35473SOL     OW 9311   2.660   7.234  10.036  0.5404  0.8818 -0.2771
35473SOL    HW1 9312   2.630   7.258  10.124 -2.9699  0.5153 -1.2240
35473SOL    HW2 9313   2.644   7.312   9.983  1.9077  0.8463 -0.7810
35474SOL     OW 9314  10.257   1.989   9.484  0.5641 -0.4652 -0.0683
35474SOL    HW1 9315  10.329   1.932   9.456  0.7918  0.2102 -0.8749
35474SOL    HW2 9316  10.244   1.966   9.576  0.9990 -1.4524 -0.2360
35475SOL     OW 9317   7.240   7.091   3.903 -0.5363  0.1672  0.1081
35475SOL    HW1 9318   7.173   7.027   3.924  0.0535  0.1203  2.0419
35475SOL    HW2 9319   7.192   7.168   3.872 -1.3498 -0.5199 -0.3496
35476SOL     OW 9320   2.558   9.226   1.267  0.1486 -0.2131  0.1196
35476SOL    HW1 9321   2.562   9.135   1.239 -0.9493 -0.3349  0.2827
35476SOL    HW2 9322   2.475   9.232   1.315  0.4193  0.7653  0.4955
35477SOL     OW 9323   0.716   2.618   6.846  0.5567 -0.2347  0.5070
35477SOL    HW1 9324   0.738   2.612   6.753  0.0462  0.1044  0.3609
35477SOL    HW2 9325   0.777   2.683   6.881  1.2624 -0.9194  0.5757
35478SOL     OW 9326   2.442   5.161   0.684  0.1866 -0.1228 -0.7190
35478SOL    HW1 9327   2.495   5.218   0.629 -1.3319  2.0880 -0.0319
35478SOL    HW2 9328   2.417   5.216   0.758 -5.1345 -0.0121 -2.1836
35479SOL     OW 9329   2.150   0.116   3.391 -0.1040  0.3399  0.2958
35479SOL    HW1 9330   2.084   0.182   3.411 -1.0823 -0.1137 -1.2148
35479SOL    HW2 9331   2.123   0.080   3.306  1.8494 -0.1788 -0.1602
35480SOL     OW 9332   8.937  10.040   5.061  0.7691  0.3752 -0.2701
35480SOL    HW1 9333   8.951  10.119   5.009  1.7748 -0.1737 -0.8566
35480SOL    HW2 9334   8.857  10.002   5.025  2.0497 -0.6140 -2.2682
35481SOL     OW 9335   9.428   1.165   8.642 -0.2958  0.2263 -0.4817
35481SOL    HW1 9336   9.472   1.169   8.727  1.4206 -0.6706 -1.2764
35481SOL    HW2 9337   9.494   1.131   8.582 -1.9035 -0.6254 -1.8797
35482SOL     OW 9338   6.963  10.042  10.039 -0.2137 -0.2062  0.1929
35482SOL    HW1 9339   6.897   9.993  10.088  0.6247 -0.8392  0.7022
35482SOL    HW2 9340   7.007  10.096  10.105 -0.0331  0.0032 -0.0962
35483SOL     OW 9341   2.571   0.315   5.838 -0.2292  0.3320  0.4949
35483SOL    HW1 9342   2.506   0.384   5.848  1.4762  1.7514  2.6875
35483SOL    HW2 9343   2.553   0.278   5.751 -4.2396  0.2209  1.1574
35484SOL     OW 9344   7.930   5.633   0.764 -0.0564 -0.2075  0.3650
35484SOL    HW1 9345   7.978   5.605   0.842  0.5998  0.6284  0.2716
35484SOL    HW2 9346   7.956   5.569   0.696  0.4253 -0.1390  0.4810
35485SOL     OW 9347   5.767   5.730   6.619 -0.5804  0.0897 -0.3822
35485SOL    HW1 9348   5.806   5.646   6.643 -1.4864 -0.2926 -0.2103
35485SOL    HW2 9349   5.707   5.710   6.547 -2.2052  0.2389  0.8663
35486SOL     OW 9350   1.205   9.348   0.126 -0.3920 -0.2856  0.3490
35486SOL    HW1 9351   1.253   9.428   0.150 -1.5628  0.0612  1.6548
35486SOL    HW2 9352   1.133   9.379   0.071 -1.0862 -0.3672  1.1886
35487SOL     OW 9353   4.362   7.888   4.645 -0.3612  0.0150 -0.4759
35487SOL    HW1 9354   4.372   7.806   4.598 -0.8287 -0.6649  0.5618
35487SOL    HW2 9355   4.357   7.955   4.577  3.7392 -0.3085 -1.3126
35488SOL     OW 9356   3.699   8.836   8.735 -0.2069  0.4848  0.1461
35488SOL    HW1 9357   3.676   8.747   8.761 -3.0934  1.2715  0.6094
35488SOL    HW2 9358   3.649   8.852   8.655  0.5990  1.5531 -0.1719
35489SOL     OW 9359   7.587   9.565   4.761  0.4876 -0.1576  0.3632
35489SOL    HW1 9360   7.580   9.657   4.787  0.1306  0.7061 -2.4874
35489SOL    HW2 9361   7.503   9.526   4.785 -0.4052  0.9729 -0.7889
35490SOL     OW 9362   0.761   3.492   1.797 -0.3193 -0.2031  0.2835
35490SOL    HW1 9363   0.821   3.566   1.803  0.7839 -0.9537 -0.9878
35490SOL    HW2 9364   0.675   3.528   1.819 -0.0848  1.7931 -1.7344
35491SOL     OW 9365   9.535   7.680   4.002  0.5376 -0.1616  0.0695
35491SOL    HW1 9366   9.484   7.602   4.023 -0.1578  0.3170  0.2259
35491SOL    HW2 9367   9.591   7.694   4.077 -1.9400  1.5533  1.7731
35492SOL     OW 9368   5.618   2.581   7.784 -0.3063 -0.9166  0.3938
35492SOL    HW1 9369   5.561   2.522   7.734 -1.3430 -0.1960  0.6976
35492SOL    HW2 9370   5.574   2.592   7.868 -1.6351  2.3430 -0.5277
35493SOL     OW 9371   4.862   5.806   5.698 -0.0756  0.3907 -0.1092
35493SOL    HW1 9372   4.813   5.772   5.773 -0.6435  0.4594 -0.4418
35493SOL    HW2 9373   4.953   5.809   5.728 -0.3082  0.5234  0.6176
35494SOL     OW 9374   1.622   1.950   3.634  0.0671  0.2170  0.3929
35494SOL    HW1 9375   1.537   1.921   3.668  0.5587 -1.0263  0.6113
35494SOL    HW2 9376   1.620   2.045   3.645 -1.4678  0.2691 -0.0171
35495SOL     OW 9377   6.231   8.050   4.095  0.0097  0.3911  0.0718
35495SOL    HW1 9378   6.174   8.125   4.077 -0.2465 -0.3874 -2.7753
35495SOL    HW2 9379   6.183   7.998   4.160  0.1412  2.5353  2.0230
35496SOL     OW 9380   8.090   4.975   3.749 -0.0716 -0.0257  0.6291
35496SOL    HW1 9381   8.118   4.998   3.838  0.7949 -0.2357  0.4156
35496SOL    HW2 9382   8.006   5.020   3.738  0.7387  1.6001  0.8463
35497SOL     OW 9383   7.901   8.940  10.299 -0.4114 -0.2485  0.3794
35497SOL    HW1 9384   7.954   9.018  10.283  0.9243 -1.2592 -0.3840
35497SOL    HW2 9385   7.811   8.969  10.290  0.0812  1.1114 -0.3443
35498SOL     OW 9386   5.211   6.223   4.673 -0.1605 -0.5988  0.2601
35498SOL    HW1 9387   5.194   6.129   4.677  0.5477 -0.7344  0.3831
35498SOL    HW2 9388   5.304   6.230   4.697  0.7257 -0.1844 -2.7822
35499SOL     OW 9389   4.070   7.234   1.150 -0.6260  0.9455 -0.0975
35499SOL    HW1 9390   4.015   7.229   1.072 -3.2305  0.5173  1.6333
35499SOL    HW2 9391   4.128   7.308   1.134 -1.1710  0.9673 -2.3416
35500SOL     OW 9392  10.672   3.569   8.837 -0.0604 -0.2195 -0.3937
35500SOL    HW1 9393  10.766   3.569   8.817 -0.1582 -1.1579 -0.9148
35500SOL    HW2 9394  10.669   3.556   8.932  0.3529  1.9308 -0.0330
35501SOL     OW 9395   6.994   2.577   3.059 -0.5621 -0.4178 -0.3046
35501SOL    HW1 9396   7.088   2.593   3.066 -0.6257 -0.5270  0.9953
35501SOL    HW2 9397   6.957   2.662   3.035 -0.5145  0.6867  3.0445
35502SOL     OW 9398   8.086   0.676   1.343  0.0874 -0.3194 -0.0886
35502SOL    HW1 9399   8.023   0.689   1.273  0.1758  0.4649 -0.0346
35502SOL    HW2 9400   8.042   0.707   1.422  0.9841  1.5443 -0.2554
35503SOL     OW 9401   2.121   4.117   9.685  0.3429 -0.0896  0.8660
35503SOL    HW1 9402   2.187   4.179   9.654 -0.1519  0.4092  0.7771
35503SOL    HW2 9403   2.117   4.049   9.618 -0.2801  0.6556  0.1280
35504SOL     OW 9404   0.628   3.731   5.237  0.4099 -0.2216 -0.5967
35504SOL    HW1 9405   0.570   3.716   5.312  0.1957  0.0156 -0.7152
35504SOL    HW2 9406   0.668   3.816   5.253 -1.7931  1.2231 -2.1247
35505SOL     OW 9407   5.902   1.920   3.982  0.5023 -0.2854  0.2748
35505SOL    HW1 9408   5.882   1.940   3.890  1.0263  1.9886  0.5955
35505SOL    HW2 9409   5.981   1.970   4.001 -0.5994  0.7752  2.4403
35506SOL     OW 9410   3.708   8.509   4.928  0.2266  0.1020  0.1853
35506SOL    HW1 9411   3.617   8.500   4.900  0.7645  0.4077 -1.7876
35506SOL    HW2 9412   3.738   8.591   4.887  0.8316  1.0992  2.4582
35507SOL     OW 9413   3.530   2.699   3.584  0.2404  0.1997  0.2290
35507SOL    HW1 9414   3.539   2.773   3.523  1.2053 -1.6145 -1.9369
35507SOL    HW2 9415   3.617   2.659   3.586 -0.4613 -1.3539  0.7201
35508SOL     OW 9416   9.214   2.809   3.243  0.5154 -0.3008 -0.5248
35508SOL    HW1 9417   9.126   2.815   3.206  0.7640 -0.2156 -1.1208
35508SOL    HW2 9418   9.253   2.894   3.226  0.2686  0.1282  0.9386
35509SOL     OW 9419   2.755   9.269   0.170  0.0605 -0.0762 -0.6372
35509SOL    HW1 9420   2.828   9.291   0.112  0.4556 -0.7078 -0.3946
35509SOL    HW2 9421   2.678   9.305   0.126  0.6246  1.5225 -0.3850
35510SOL     OW 9422   9.331   2.760   6.700 -0.4748 -0.1594 -0.0917
35510SOL    HW1 9423   9.312   2.820   6.627  0.6775  0.0380 -0.2383
35510SOL    HW2 9424   9.369   2.815   6.767  1.2613 -0.8097 -0.4957
35511SOL     OW 9425   9.754   9.323   1.972 -0.0916  0.2402 -0.2032
35511SOL    HW1 9426   9.760   9.363   2.059  0.9722 -1.4734  0.5490
35511SOL    HW2 9427   9.754   9.229   1.988  0.2046 -0.1187 -2.0677
35512SOL     OW 9428   6.019   8.275   5.374 -0.6708  0.1333  0.4401
35512SOL    HW1 9429   6.075   8.300   5.300 -2.3897  0.5892 -0.7535
35512SOL    HW2 9430   6.021   8.180   5.374 -0.0165  0.1421  0.3278
35513SOL     OW 9431   0.548   9.914   0.338  0.6151 -0.0688 -0.2552
35513SOL    HW1 9432   0.516   9.934   0.250 -2.1513  0.0029  0.6588
35513SOL    HW2 9433   0.532   9.994   0.388  0.7179 -0.6071  0.6544
35514SOL     OW 9434   7.397   0.617   7.263 -0.2703  0.6130 -0.1042
35514SOL    HW1 9435   7.385   0.617   7.357  0.1440 -1.4182 -0.0106
35514SOL    HW2 9436   7.445   0.698   7.244 -1.0081  1.4026  1.3079
35515SOL     OW 9437   4.574   8.764   7.243  0.0026 -0.0595  0.4830
35515SOL    HW1 9438   4.479   8.755   7.238 -0.2546  2.2305  0.3264
35515SOL    HW2 9439   4.607   8.720   7.165 -0.9892 -0.1463  0.1077
35516SOL     OW 9440   5.605   9.696   9.153  0.0748 -0.2247  0.0076
35516SOL    HW1 9441   5.521   9.710   9.195  0.3415 -1.1483  0.9192
35516SOL    HW2 9442   5.658   9.771   9.179  0.0552 -0.4991  0.8957
35517SOL     OW 9443   0.852   4.030   6.753  0.4603  0.3737  0.2051
35517SOL    HW1 9444   0.782   3.971   6.727  0.0123  1.2611 -0.6527
35517SOL    HW2 9445   0.933   3.983   6.732  0.1178  0.7039 -2.0270
35518SOL     OW 9446   6.667   3.455   2.572  0.1195  0.6595  0.0603
35518SOL    HW1 9447   6.649   3.376   2.522  1.3365  0.2676  0.2159
35518SOL    HW2 9448   6.580   3.485   2.601 -0.2679 -1.3476  1.1221
35519SOL     OW 9449   5.612  10.754   8.387  0.4034  0.4078 -0.1866
35519SOL    HW1 9450   5.641  10.786   8.302  1.6470 -1.7875 -0.6794
35519SOL    HW2 9451   5.694  10.744   8.437 -0.0238 -0.8832  0.2910
35520SOL     OW 9452   4.478   7.308   1.546 -0.6735 -0.5108 -0.3774
35520SOL    HW1 9453   4.538   7.322   1.619  0.3204  0.0632 -1.2768
35520SOL    HW2 9454   4.422   7.236   1.575 -0.7453  0.1343  1.2124
35521SOL     OW 9455   2.144   7.712   6.189  0.8849  0.2030 -0.1206
35521SOL    HW1 9456   2.053   7.684   6.182  0.7082  1.1571 -2.2673
35521SOL    HW2 9457   2.140   7.808   6.191  1.8499  0.2723 -0.8101
35522SOL     OW 9458   6.939   4.516   4.034 -0.4344 -0.3932  0.1808
35522SOL    HW1 9459   6.919   4.497   3.943 -1.9952  0.0842  0.3917
35522SOL    HW2 9460   7.031   4.542   4.033  0.0755 -2.1084 -0.9667
35523SOL     OW 9461   0.856   2.719   3.515 -0.0136 -0.3437 -0.3423
35523SOL    HW1 9462   0.903   2.678   3.587  0.9473  0.2354 -0.6232
35523SOL    HW2 9463   0.764   2.703   3.534  0.2602 -0.8102  0.6372
35524SOL     OW 9464   0.675   6.883  10.269  0.1394 -0.0343 -0.4580
35524SOL    HW1 9465   0.691   6.805  10.216 -2.7685 -1.0144 -0.0467
35524SOL    HW2 9466   0.606   6.930  10.222  0.2963  1.1292  0.4461
35525SOL     OW 9467   8.159  10.565   2.451  0.3668  0.0411  0.0004
35525SOL    HW1 9468   8.127  10.542   2.538  0.3406 -1.9793 -0.5086
35525SOL    HW2 9469   8.254  10.556   2.457  0.3266 -0.6407 -0.3126
35526SOL     OW 9470  10.441   0.335   5.287  0.5394  0.1129 -0.0260
35526SOL    HW1 9471  10.535   0.352   5.299  0.7364 -0.6632 -0.3752
35526SOL    HW2 9472  10.418   0.277   5.359  0.0699  1.1694  0.6845
35527SOL     OW 9473   5.264   4.603   6.610 -0.2803  0.5370  0.4015
35527SOL    HW1 9474   5.188   4.625   6.663  0.2602  0.0032  1.4351
35527SOL    HW2 9475   5.230   4.591   6.521 -1.1761  1.5862  0.5907
35528SOL     OW 9476   8.194  10.297   5.850  0.3219 -0.1725 -0.5082
35528SOL    HW1 9477   8.104  10.283   5.821 -0.0122 -0.7533  0.7156
35528SOL    HW2 9478   8.193  10.274   5.943  1.1884  2.1235  0.1398
35529SOL     OW 9479   5.281   4.096   0.571  0.2475  0.0211  0.1226
35529SOL    HW1 9480   5.266   4.074   0.478  0.4754  0.4104 -0.0063
35529SOL    HW2 9481   5.356   4.042   0.596 -0.4563 -0.8668  0.3747
35530SOL     OW 9482  10.412   9.235   2.332 -0.2038  0.0157 -0.0454
35530SOL    HW1 9483  10.433   9.143   2.317 -1.4237 -0.4982  1.2414
35530SOL    HW2 9484  10.450   9.254   2.418  1.5141  1.2249 -1.0086
35531SOL     OW 9485   2.279   5.999   8.658 -0.1063  0.1856  0.5261
35531SOL    HW1 9486   2.284   6.056   8.581  0.0023  0.4832  0.7497
35531SOL    HW2 9487   2.337   6.040   8.722 -1.3527  0.7828  1.2990
35532SOL     OW 9488   0.968   3.229   0.234  0.4852 -0.2508 -0.7052
35532SOL    HW1 9489   0.950   3.197   0.322  1.5553 -1.3164 -0.8485
35532SOL    HW2 9490   1.063   3.242   0.232  0.4987 -0.4016 -1.7530
35533SOL     OW 9491   8.944   4.720   8.953 -0.6232  0.1388  0.1030
35533SOL    HW1 9492   8.904   4.724   9.040 -1.4209  1.5041 -0.3010
35533SOL    HW2 9493   8.875   4.688   8.896 -0.2849 -0.1811 -0.1311
35534SOL     OW 9494   7.739   8.429   2.201 -0.4448 -0.0603 -0.2838
35534SOL    HW1 9495   7.776   8.401   2.118  1.4989 -1.0293  0.8378
35534SOL    HW2 9496   7.681   8.358   2.227  0.4498 -0.6669  0.0866
35535SOL     OW 9497   6.573   9.230   2.118  0.3666  0.2218 -0.1600
35535SOL    HW1 9498   6.497   9.173   2.116 -0.4030  1.1105  1.5545
35535SOL    HW2 9499   6.626   9.196   2.190  0.0923  1.3863  0.6198
35536SOL     OW 9500   5.775   8.855   7.606 -0.0626 -0.2720  0.6510
35536SOL    HW1 9501   5.722   8.829   7.531  0.3260 -3.6016  1.3549
35536SOL    HW2 9502   5.719   8.838   7.682  0.8209 -0.6029  1.2461
35537SOL     OW 9503   8.934   2.891   8.147  0.1884  0.1878  0.5247
35537SOL    HW1 9504   9.004   2.955   8.159 -0.1289  0.5667  0.3740
35537SOL    HW2 9505   8.883   2.896   8.227 -0.2822  0.6780  0.1975
35538SOL     OW 9506   3.717   1.375   0.863  0.0870  0.7718 -0.2012
35538SOL    HW1 9507   3.691   1.304   0.803 -0.1515  0.3712  0.3584
35538SOL    HW2 9508   3.794   1.341   0.908 -0.3098  0.6626  0.4125
35539SOL     OW 9509   6.853   0.651  10.784  0.4734  0.0613 -0.1680
35539SOL    HW1 9510   6.868   0.557  10.770  1.1593 -0.0780  1.2527
35539SOL    HW2 9511   6.865   0.691  10.698 -0.1732 -1.1934 -0.8670
35540SOL     OW 9512   1.718   2.495   5.428  0.0755 -0.1595 -0.3378
35540SOL    HW1 9513   1.796   2.463   5.382  0.0744  1.5923 -1.6679
35540SOL    HW2 9514   1.650   2.497   5.360 -0.8987 -0.8092  0.5968
35541SOL     OW 9515   4.020   8.963   6.416 -0.3239  0.8242 -0.2104
35541SOL    HW1 9516   4.074   8.965   6.495 -0.4292 -0.0042 -0.1090
35541SOL    HW2 9517   4.052   9.035   6.363  1.9462 -0.5671 -0.8595
35542SOL     OW 9518   3.979   6.975   6.632  0.3559 -0.2891 -0.3130
35542SOL    HW1 9519   3.988   7.071   6.634  1.6234 -0.4053  0.6361
35542SOL    HW2 9520   3.912   6.956   6.697  0.1087 -0.0542 -0.4955
35543SOL     OW 9521   3.617   0.448   8.256  0.3963 -0.4210 -0.2912
35543SOL    HW1 9522   3.633   0.427   8.165  2.0468 -1.3312  0.1663
35543SOL    HW2 9523   3.524   0.471   8.260  0.2621 -0.5315 -2.1437
35544SOL     OW 9524   6.212   4.748   6.603  0.0751 -0.3143  0.6087
35544SOL    HW1 9525   6.148   4.678   6.611  0.9664 -1.1094  0.9078
35544SOL    HW2 9526   6.246   4.761   6.692 -0.1975  0.6149  0.5921
35545SOL     OW 9527   6.726   2.455   0.487 -0.4695  0.2415  0.3121
35545SOL    HW1 9528   6.809   2.420   0.454 -0.7169 -0.5241  0.4731
35545SOL    HW2 9529   6.670   2.378   0.497 -1.0756  0.7057  0.5733
35546SOL     OW 9530   2.632   5.346   4.783  0.4187  0.1924  0.2585
35546SOL    HW1 9531   2.625   5.441   4.793  2.0715  0.2711  0.8762
35546SOL    HW2 9532   2.699   5.333   4.716 -0.1298 -0.5405 -0.1599
35547SOL     OW 9533   1.373   6.944   2.627 -0.0159 -0.1169  0.4896
35547SOL    HW1 9534   1.420   6.920   2.707  0.1295 -1.8737 -0.0794
35547SOL    HW2 9535   1.280   6.938   2.651  0.0060  1.4219  1.0699
35548SOL     OW 9536   7.178   4.417   0.777 -0.2279 -0.4231 -0.1082
35548SOL    HW1 9537   7.218   4.504   0.776 -1.4951  0.1844 -1.8408
35548SOL    HW2 9538   7.197   4.381   0.690  1.2268 -2.3886  0.9294
35549SOL     OW 9539   5.897   2.359   3.038 -0.4234 -0.2849  0.0006
35549SOL    HW1 9540   5.814   2.403   3.052 -1.3314 -2.4273  2.0948
35549SOL    HW2 9541   5.877   2.288   2.977  0.3966  0.4529 -1.1709
35550SOL     OW 9542   7.457   2.062   0.464 -0.1043  0.2670 -0.4110
35550SOL    HW1 9543   7.363   2.080   0.465 -0.3925 -1.1193  0.2834
35550SOL    HW2 9544   7.477   2.034   0.553  0.5264 -1.4429 -1.0386
35551SOL     OW 9545   7.808  10.007   7.200 -0.0555  0.5615 -0.4741
35551SOL    HW1 9546   7.880  10.001   7.137 -1.1627  1.4373 -1.8859
35551SOL    HW2 9547   7.756   9.928   7.184  0.8663 -0.3857  0.9662
35552SOL     OW 9548  10.692   8.496   0.062 -0.2061  0.1134 -0.1470
35552SOL    HW1 9549  10.724   8.524   0.148 -1.3757 -0.7948  0.6000
35552SOL    HW2 9550  10.756   8.431   0.033  0.0135  0.1769  0.1859
35553SOL     OW 9551   0.085   5.921   2.806  0.1768 -0.0526 -0.2067
35553SOL    HW1 9552   0.106   5.918   2.899 -0.2210  0.1338 -0.1091
35553SOL    HW2 9553  -0.001   5.881   2.799  0.6877 -1.0999 -0.6494
35554SOL     OW 9554   2.567   8.767   0.566 -0.2777 -0.2801 -0.1044
35554SOL    HW1 9555   2.610   8.851   0.577 -1.9982  0.6512 -0.2125
35554SOL    HW2 9556   2.552   8.760   0.471 -0.0599 -0.7601 -0.1080
35555SOL     OW 9557   1.348   9.817   2.721  1.0644  0.0376  0.2173
35555SOL    HW1 9558   1.364   9.804   2.815 -0.1218 -0.8620  0.3174
35555SOL    HW2 9559   1.433   9.802   2.680  1.4734 -0.1448  1.0986
35556SOL     OW 9560   4.250   0.060  10.750  0.4402 -0.5428 -0.0540
35556SOL    HW1 9561   4.223   0.135  10.802  0.6296 -0.0421 -0.6639
35556SOL    HW2 9562   4.281   0.098  10.668 -0.1085 -1.3272 -0.6422
35557SOL     OW 9563   9.882   0.751   0.094  0.2666 -0.0193  0.6979
35557SOL    HW1 9564   9.914   0.725   0.181 -0.9877  0.3811  1.3074
35557SOL    HW2 9565   9.848   0.669   0.056  1.3081 -0.2997  0.3509
35558SOL     OW 9566   8.484   6.036   9.136  0.2667  0.4896  0.6453
35558SOL    HW1 9567   8.460   6.052   9.227  0.1030  3.3084  0.1980
35558SOL    HW2 9568   8.551   6.102   9.117  0.1362  0.1159 -1.3266
35559SOL     OW 9569   9.763   6.505   5.152  0.2471  0.3897  0.3269
35559SOL    HW1 9570   9.695   6.504   5.085  0.2655 -0.7926  0.3043
35559SOL    HW2 9571   9.715   6.500   5.235  0.3051 -0.9669  0.2943
35560SOL     OW 9572   7.305   5.312   5.819 -0.3502 -0.1655  0.3942
35560SOL    HW1 9573   7.315   5.269   5.734 -1.2790 -1.1502  0.7568
35560SOL    HW2 9574   7.214   5.296   5.843  0.0383 -0.3789  1.8180
35561SOL     OW 9575   0.126   4.441   2.866  0.0878  0.5081 -0.3449
35561SOL    HW1 9576   0.218   4.467   2.861  0.0034  0.6995 -1.0188
35561SOL    HW2 9577   0.110   4.426   2.959  0.5456  1.4096 -0.1171
35562SOL     OW 9578   9.232   3.837   5.105  0.3067 -0.2719  0.4916
35562SOL    HW1 9579   9.291   3.816   5.033  1.4011  0.1774  1.2402
35562SOL    HW2 9580   9.145   3.834   5.066  0.8340 -0.7241 -0.6845
35563SOL     OW 9581   7.706   5.670   1.450  0.4848  0.0865 -0.3304
35563SOL    HW1 9582   7.744   5.650   1.364  1.5870  0.5717  0.0263
35563SOL    HW2 9583   7.612   5.659   1.438  0.5284  1.1438 -1.8856
35564SOL     OW 9584   1.721   5.881   6.839  0.1416  0.0787  0.3166
35564SOL    HW1 9585   1.636   5.889   6.795  0.6127  0.4380 -0.5284
35564SOL    HW2 9586   1.713   5.800   6.890 -0.9133  0.4082  0.7141
35565SOL     OW 9587   2.600   0.713  10.241 -0.1069 -0.3792  0.4716
35565SOL    HW1 9588   2.579   0.686  10.151  1.7352  1.6740 -0.7103
35565SOL    HW2 9589   2.678   0.662  10.264  0.2553  0.0844  0.3081
35566SOL     OW 9590   6.962   1.396   9.639  0.2632  0.0208 -0.1212
35566SOL    HW1 9591   6.905   1.336   9.687 -2.7310  0.3042 -2.9495
35566SOL    HW2 9592   6.935   1.483   9.666  2.0989  0.2135  1.2925
35567SOL     OW 9593   9.645   6.087   2.899 -0.4533 -0.2023 -0.1804
35567SOL    HW1 9594   9.586   6.038   2.958 -0.5588  0.5862  0.3886
35567SOL    HW2 9595   9.701   6.020   2.860 -2.5594 -1.1900 -1.7700
35568SOL     OW 9596   9.548   1.462   2.307  0.2035  0.0924 -0.1421
35568SOL    HW1 9597   9.499   1.504   2.379 -0.5167  0.4092 -0.8016
35568SOL    HW2 9598   9.639   1.491   2.321 -0.0794  0.9104  0.1126
35569SOL     OW 9599   0.473   1.870   2.744 -0.4368  0.1165  0.6759
35569SOL    HW1 9600   0.382   1.887   2.720 -0.5688 -1.1419  0.2113
35569SOL    HW2 9601   0.473   1.780   2.776  0.7808 -0.2090 -0.1652
35570SOL     OW 9602   1.174   8.005   9.316 -0.3114  0.2947  0.4553
35570SOL    HW1 9603   1.167   8.089   9.362  0.7040  0.8834 -0.4336
35570SOL    HW2 9604   1.250   8.015   9.259 -0.8266 -0.8475 -0.4680
35571SOL     OW 9605   2.074   3.264  10.352 -0.0237  0.3216 -0.6533
35571SOL    HW1 9606   2.117   3.184  10.385  1.7583  1.2859 -0.4833
35571SOL    HW2 9607   2.008   3.285  10.417 -0.0370 -0.6333 -0.3430
35572SOL     OW 9608   9.987   3.154   1.029 -0.0539 -0.2966  0.0076
35572SOL    HW1 9609  10.018   3.232   0.984 -0.8675  1.2945  2.0665
35572SOL    HW2 9610  10.047   3.142   1.102 -0.6741 -0.8435  0.4465
35573SOL     OW 9611   6.742   4.233   4.417  0.0380 -0.1287 -0.4994
35573SOL    HW1 9612   6.697   4.316   4.429  0.9145  0.1552  1.1043
35573SOL    HW2 9613   6.791   4.244   4.335 -0.7783  0.4841 -0.9163
35574SOL     OW 9614   4.847   7.853   3.299 -0.2426  0.0070 -0.2589
35574SOL    HW1 9615   4.930   7.891   3.271 -0.2973  0.4582  0.1757
35574SOL    HW2 9616   4.852   7.762   3.270  0.5381 -0.0503  0.0253
35575SOL     OW 9617   7.157   1.160   0.713 -0.3517  0.2647 -0.0543
35575SOL    HW1 9618   7.241   1.184   0.675 -0.6847 -0.3843 -1.2606
35575SOL    HW2 9619   7.179   1.109   0.791  0.3707  0.2522 -0.2588
35576SOL     OW 9620   7.952   2.408   7.423 -0.0757  0.5574  0.2379
35576SOL    HW1 9621   7.959   2.318   7.391 -1.0793  1.2219 -2.0934
35576SOL    HW2 9622   7.880   2.406   7.485 -0.0126 -0.2541  0.3027
35577SOL     OW 9623   2.702   8.747   4.520  0.1339 -0.2838 -0.4858
35577SOL    HW1 9624   2.609   8.728   4.504 -0.9833  1.0639  3.2907
35577SOL    HW2 9625   2.710   8.842   4.505  1.0324 -0.4494 -1.1358
35578SOL     OW 9626  10.027   7.527   3.501 -0.0699  0.4129 -0.0314
35578SOL    HW1 9627  10.074   7.470   3.562 -1.0792 -1.6762 -1.0737
35578SOL    HW2 9628   9.935   7.515   3.523 -0.4094  0.2010 -1.4427
35579SOL     OW 9629   5.328   3.551   4.050  0.1720 -0.8994 -0.4995
35579SOL    HW1 9630   5.340   3.493   4.126  0.9256 -0.1462 -0.0218
35579SOL    HW2 9631   5.382   3.627   4.070 -0.2091 -0.3629 -1.4667
35580SOL     OW 9632  10.030   8.105   2.956 -0.1536  0.4011 -0.4790
35580SOL    HW1 9633   9.936   8.090   2.955 -0.0211 -0.6068  0.7346
35580SOL    HW2 9634  10.061   8.066   2.874 -0.4864 -1.5783  0.2910
35581SOL     OW 9635   7.587   6.296   4.832  0.7655  0.4684  0.2660
35581SOL    HW1 9636   7.545   6.333   4.754  2.1871  1.5043 -0.0674
35581SOL    HW2 9637   7.538   6.332   4.905  0.0820  0.3591 -0.1309
35582SOL     OW 9638   5.104   1.339   2.650  0.0883  0.4211 -0.0145
35582SOL    HW1 9639   5.123   1.395   2.726 -1.4104  1.6748 -0.5034
35582SOL    HW2 9640   5.052   1.395   2.592  0.2065 -0.8874 -1.4386
35583SOL     OW 9641   1.759   8.014   0.113  0.0312 -0.1761 -0.3143
35583SOL    HW1 9642   1.675   7.984   0.077 -0.3028  1.1144 -0.6576
35583SOL    HW2 9643   1.822   7.949   0.082 -0.9928 -1.8898  1.0091
35584SOL     OW 9644   3.476   0.148   3.931  0.0680 -0.6630 -0.2234
35584SOL    HW1 9645   3.531   0.181   4.002 -0.2544 -2.1074  0.7330
35584SOL    HW2 9646   3.396   0.117   3.974 -1.3713  0.9993 -1.5311
35585SOL     OW 9647   1.637   2.304   7.121  0.3465  0.7487  0.1262
35585SOL    HW1 9648   1.622   2.397   7.105  0.3240  0.5820 -0.9228
35585SOL    HW2 9649   1.554   2.263   7.099  0.2907  0.4955  0.7913
35586SOL     OW 9650   8.550   3.186   1.271  0.0304 -0.3108  0.1282
35586SOL    HW1 9651   8.632   3.159   1.228 -0.4531 -2.0286  0.2279
35586SOL    HW2 9652   8.528   3.113   1.329 -1.1876  0.4611  0.6697
35587SOL     OW 9653   0.152   2.169   9.038  0.2698  0.3180 -0.3134
35587SOL    HW1 9654   0.065   2.143   9.007  0.2857 -0.2526  0.0887
35587SOL    HW2 9655   0.135   2.223   9.115  0.2866 -0.8955  0.5617
35588SOL     OW 9656   7.713   2.391   3.453  0.1620 -0.1497  0.1871
35588SOL    HW1 9657   7.653   2.401   3.528 -0.8995 -2.8058 -0.1844
35588SOL    HW2 9658   7.661   2.420   3.377  0.3807  0.2430  0.1843
35589SOL     OW 9659  10.677   7.738   2.150 -0.3795 -0.2686  0.4832
35589SOL    HW1 9660  10.633   7.817   2.119 -2.4216 -1.4730  0.1646
35589SOL    HW2 9661  10.752   7.770   2.201  0.0192  1.8181 -1.3112
35590SOL     OW 9662   4.823   6.902   6.344  0.2061 -0.2671 -0.2327
35590SOL    HW1 9663   4.849   6.963   6.412 -1.0117 -0.6170  0.5606
35590SOL    HW2 9664   4.817   6.956   6.265 -0.5325  0.5788  0.3862
35591SOL     OW 9665   6.147   7.505   0.071 -0.2636  0.7796 -0.0121
35591SOL    HW1 9666   6.087   7.505  -0.004 -0.5224  1.7016  0.1806
35591SOL    HW2 9667   6.152   7.597   0.098  1.9725  0.8874 -0.5916
35592SOL     OW 9668   5.116   6.091   8.450  0.0867  0.1210 -0.1689
35592SOL    HW1 9669   5.182   6.021   8.458 -1.5608 -1.5246 -0.2081
35592SOL    HW2 9670   5.067   6.087   8.532 -0.7973  0.4151 -0.6705
35593SOL     OW 9671   1.408   1.187   2.560 -0.0163 -0.9548  0.2344
35593SOL    HW1 9672   1.416   1.127   2.634 -1.0605 -0.2733  0.9249
35593SOL    HW2 9673   1.344   1.145   2.502 -0.1526 -0.8820  0.3327
35594SOL     OW 9674   4.376  10.164   6.333 -0.3405  0.7414  0.0142
35594SOL    HW1 9675   4.409  10.149   6.422 -0.9565  1.9395  0.4528
35594SOL    HW2 9676   4.401  10.084   6.285 -0.4044 -0.1146  1.3670
35595SOL     OW 9677   1.951   2.561   8.125 -0.3007  0.5896 -0.1171
35595SOL    HW1 9678   1.911   2.588   8.043 -0.5330  0.6008  0.0002
35595SOL    HW2 9679   1.886   2.505   8.166 -1.1581  2.4427  1.1598
35596SOL     OW 9680   7.124   0.875   7.867  0.0623  0.7765 -0.0175
35596SOL    HW1 9681   7.196   0.905   7.922  0.8705 -0.1352 -0.5625
35596SOL    HW2 9682   7.159   0.801   7.819 -0.8164  1.1918 -1.3449
35597SOL     OW 9683   6.104   0.611   5.366  0.0760 -0.0503 -0.4071
35597SOL    HW1 9684   6.083   0.518   5.367  0.0989 -0.0898 -1.8148
35597SOL    HW2 9685   6.038   0.650   5.308  0.7116  0.6318 -0.6913
35598SOL     OW 9686   7.184   5.739   3.566  0.7397  0.2182  0.1526
35598SOL    HW1 9687   7.224   5.728   3.652 -1.1423  0.5758  1.1309
35598SOL    HW2 9688   7.182   5.651   3.528  3.4787  0.3481 -0.4824
35599SOL     OW 9689   8.015   4.794   7.450  0.1869 -0.4401 -0.5147
35599SOL    HW1 9690   7.960   4.848   7.393  1.5308  0.5440 -0.9171
35599SOL    HW2 9691   8.001   4.830   7.538  0.7778  0.3340 -0.7282
35600SOL     OW 9692   0.839   6.676   1.859 -0.3611  0.0206  0.4350
35600SOL    HW1 9693   0.930   6.654   1.881 -0.7106 -0.2032  1.7253
35600SOL    HW2 9694   0.836   6.772   1.863  0.1904  0.1513 -1.2532
35601SOL     OW 9695   0.328   5.541  10.422  0.7581  0.0285 -0.3042
35601SOL    HW1 9696   0.259   5.483  10.453  1.7875 -0.0368  2.0964
35601SOL    HW2 9697   0.296   5.629  10.442  1.0240  0.0391  0.0840
35602SOL     OW 9698   1.808   1.528   4.090  0.0385  0.4372 -0.0512
35602SOL    HW1 9699   1.785   1.489   4.006 -1.1835  2.2995 -0.6514
35602SOL    HW2 9700   1.875   1.470   4.126  0.3237 -0.6215 -2.1267
35603SOL     OW 9701   0.640   7.506   0.239  0.0109  0.3330 -0.2978
35603SOL    HW1 9702   0.555   7.548   0.250  0.4948  1.8781 -1.9624
35603SOL    HW2 9703   0.621   7.412   0.245 -1.1069  0.6149  3.5221
35604SOL     OW 9704   7.376   5.581   1.241  0.1178  0.3603  0.3143
35604SOL    HW1 9705   7.343   5.580   1.151  1.5071  0.4321 -0.2224
35604SOL    HW2 9706   7.402   5.491   1.258  0.3355  0.4521  0.4619
35605SOL     OW 9707   7.701   4.761   2.174  0.1083  0.8400 -0.3481
35605SOL    HW1 9708   7.624   4.710   2.150 -0.3239  0.1352  2.2282
35605SOL    HW2 9709   7.667   4.846   2.201  0.6197  1.7877 -2.5250
35606SOL     OW 9710   4.763   6.756   7.505  0.0082  0.4050  0.6742
35606SOL    HW1 9711   4.692   6.749   7.570  0.5350  2.0139  1.4890
35606SOL    HW2 9712   4.737   6.697   7.435 -2.5519  1.4969  0.5893
35607SOL     OW 9713   2.317   8.129   7.899  0.2453 -0.2607 -0.4362
35607SOL    HW1 9714   2.284   8.150   7.811 -3.6005 -0.6139  0.7183
35607SOL    HW2 9715   2.312   8.034   7.905  1.8441 -0.3510 -0.2614
35608SOL     OW 9716   7.058   6.668   3.622  0.2686  0.2293 -0.5963
35608SOL    HW1 9717   7.115   6.684   3.547  1.6975  1.3195  0.6575
35608SOL    HW2 9718   6.971   6.695   3.593  0.7477  0.3994 -1.9226
35609SOL     OW 9719   5.770   8.911   4.788 -0.2636 -0.3580 -0.0373
35609SOL    HW1 9720   5.688   8.959   4.802  0.8709  1.2833  1.5391
35609SOL    HW2 9721   5.776   8.901   4.693 -2.3119 -0.6303 -0.1861
35610SOL     OW 9722   7.890   9.242   8.173 -0.0109 -0.0824  0.0110
35610SOL    HW1 9723   7.809   9.225   8.221  0.8576 -0.6826  1.2823
35610SOL    HW2 9724   7.956   9.255   8.240  0.9806  0.3599 -1.0154
35611SOL     OW 9725   9.981   3.719   0.111  0.2807  0.0924  0.5453
35611SOL    HW1 9726  10.030   3.759   0.182  0.3662  1.0377 -0.0278
35611SOL    HW2 9727   9.929   3.650   0.153  0.4916  0.4865  1.4757
35612SOL     OW 9728   3.880   4.271   1.766 -0.2402  0.2267  0.5098
35612SOL    HW1 9729   3.932   4.238   1.839  0.9211 -1.8608 -1.1503
35612SOL    HW2 9730   3.792   4.282   1.802  0.3140 -0.6502  2.2272
35613SOL     OW 9731   2.400   1.532   0.283  0.3569 -0.1504 -1.0352
35613SOL    HW1 9732   2.372   1.512   0.373  0.5295  0.6364 -0.7984
35613SOL    HW2 9733   2.482   1.485   0.273 -0.7212 -2.0288 -1.5454
35614SOL     OW 9734   6.819   2.591   0.726 -0.2882 -0.0294  0.0885
35614SOL    HW1 9735   6.761   2.559   0.657 -0.7216  2.6464 -0.9279
35614SOL    HW2 9736   6.893   2.630   0.678  1.0011 -0.9243  1.2759
35615SOL     OW 9737   6.211   9.240   6.810  0.1350  0.4537  0.1707
35615SOL    HW1 9738   6.176   9.168   6.863  0.4070 -0.7954 -1.2698
35615SOL    HW2 9739   6.137   9.268   6.756  0.3631  0.3556 -0.1987
35616SOL     OW 9740   9.245   5.446  10.639 -0.1785  0.3575 -0.8011
35616SOL    HW1 9741   9.170   5.503  10.653 -0.1274  0.6394 -1.6161
35616SOL    HW2 9742   9.314   5.482  10.694 -0.8566 -0.3572  0.5529
35617SOL     OW 9743   8.526   0.885   8.338 -0.2327 -0.2776  0.0582
35617SOL    HW1 9744   8.509   0.978   8.322  2.0563  0.4137  1.2285
35617SOL    HW2 9745   8.509   0.874   8.432 -0.6110 -1.0986 -0.0954
35618SOL     OW 9746   3.530   4.559   9.610  0.2686 -0.1825  0.0880
35618SOL    HW1 9747   3.514   4.540   9.517 -0.4821 -1.0170  0.3707
35618SOL    HW2 9748   3.554   4.652   9.612 -1.4652  0.3356 -0.7661
35619SOL     OW 9749   6.925   5.329   3.617  0.1808  0.1391 -0.0863
35619SOL    HW1 9750   6.933   5.292   3.705 -2.2797  2.8330  1.4847
35619SOL    HW2 9751   7.013   5.323   3.580  1.3723 -0.9613  2.6291
35620SOL     OW 9752   1.233   9.882   5.473 -0.0682 -0.3466  0.0483
35620SOL    HW1 9753   1.299   9.952   5.478 -2.1534  1.7137  0.2392
35620SOL    HW2 9754   1.233   9.842   5.560  0.9551 -0.4535  0.0165
35621SOL     OW 9755   8.427   9.335   3.587  0.4296 -0.2457  0.2448
35621SOL    HW1 9756   8.359   9.269   3.599 -0.7745  1.0256  0.6286
35621SOL    HW2 9757   8.400   9.408   3.642  2.3993  0.1037  0.8313
35622SOL     OW 9758   4.820   5.226   6.357 -0.8797 -0.1467  0.0296
35622SOL    HW1 9759   4.819   5.317   6.388 -1.2622 -0.6196  1.5092
35622SOL    HW2 9760   4.843   5.232   6.265  1.7770  1.2744  0.6816
35623SOL     OW 9761   4.163   6.716   7.141 -0.2684  0.5639  0.0235
35623SOL    HW1 9762   4.101   6.780   7.175 -1.1975 -0.3131  0.0254
35623SOL    HW2 9763   4.232   6.768   7.100  0.1451  1.6132  1.9448
35624SOL     OW 9764   9.388   1.360  10.149  0.4465 -0.8007 -0.0641
35624SOL    HW1 9765   9.438   1.411  10.212 -0.2511  1.2280 -1.0608
35624SOL    HW2 9766   9.442   1.359  10.070 -0.7696  1.0305 -1.0085
35625SOL     OW 9767   8.684   2.846   3.024 -0.4512  0.0220 -0.6236
35625SOL    HW1 9768   8.610   2.831   3.082  0.5070 -1.8547  0.2006
35625SOL    HW2 9769   8.740   2.909   3.071 -1.1476  0.8881 -0.9309
35626SOL     OW 9770   7.297   1.071   1.354  0.6466  0.0450 -0.5204
35626SOL    HW1 9771   7.260   1.018   1.283  2.8575 -0.8104 -1.1120
35626SOL    HW2 9772   7.392   1.065   1.342  1.0491  1.2516  1.5389
35627SOL     OW 9773   1.040   3.831   6.911  0.4907 -0.3433 -0.0366
35627SOL    HW1 9774   1.126   3.872   6.913  1.4837 -2.3564  0.9845
35627SOL    HW2 9775   0.994   3.871   6.985  0.5210  0.6902 -0.5445
35628SOL     OW 9776   7.036   1.491   2.242 -0.5780 -0.3444 -0.2335
35628SOL    HW1 9777   7.072   1.484   2.330 -0.2403  0.4147 -0.3043
35628SOL    HW2 9778   6.947   1.455   2.250 -0.4624 -0.5106  0.3550
35629SOL     OW 9779  10.154   3.463   9.565 -0.1147  0.9892 -0.1632
35629SOL    HW1 9780  10.187   3.520   9.495 -2.0539  2.2743 -0.0918
35629SOL    HW2 9781  10.131   3.522   9.636  1.3308 -0.2545  1.4383
35630SOL     OW 9782   3.425   4.634   7.661  0.5015 -0.4321  0.6851
35630SOL    HW1 9783   3.418   4.574   7.587  0.1658  0.9323 -0.4498
35630SOL    HW2 9784   3.353   4.696   7.648  2.1291  1.5365  0.5138
35631SOL     OW 9785   0.300   6.428   2.396  0.1172 -0.4395 -0.5890
35631SOL    HW1 9786   0.270   6.338   2.384  0.6149 -0.5575 -1.0138
35631SOL    HW2 9787   0.360   6.442   2.323  0.9302 -0.1460  0.1300
35632SOL     OW 9788   5.152   2.231   5.300 -0.1668 -0.0986 -0.0821
35632SOL    HW1 9789   5.173   2.211   5.392  1.1564 -0.4901 -0.4490
35632SOL    HW2 9790   5.235   2.222   5.254 -0.2327  2.7220 -0.9245
35633SOL     OW 9791   3.646   2.701   9.545  0.2328 -0.1879 -0.1281
35633SOL    HW1 9792   3.683   2.667   9.627  2.4062  0.3367 -0.8248
35633SOL    HW2 9793   3.617   2.623   9.498  0.8071 -0.6791  0.3132
35634SOL     OW 9794   1.463   2.203   8.270  0.8201  0.7802  0.1310
35634SOL    HW1 9795   1.526   2.214   8.342 -0.7386  0.3424  1.6188
35634SOL    HW2 9796   1.378   2.217   8.310 -0.2407 -1.3420 -1.2085
35635SOL     OW 9797   0.070  10.217   3.940 -0.2210  0.2146 -0.0915
35635SOL    HW1 9798   0.115  10.264   3.869 -2.2142  1.8177 -0.3762
35635SOL    HW2 9799  -0.023  10.223   3.918 -0.7504 -1.1329  1.5758
35636SOL     OW 9800   7.336   2.571   6.969  0.1050  0.2267  0.7129
35636SOL    HW1 9801   7.408   2.559   6.907 -0.8649  0.2353 -0.4550
35636SOL    HW2 9802   7.337   2.665   6.989 -0.0960  0.3711  0.0546
35637SOL     OW 9803   4.914   4.504   7.728  0.1065 -0.0937 -0.4054
35637SOL    HW1 9804   4.911   4.442   7.802 -0.0347  0.4037  0.0149
35637SOL    HW2 9805   4.946   4.452   7.655  2.0482 -0.1689  0.4353
35638SOL     OW 9806   9.992   6.709   9.538  0.6367 -0.3658  0.1274
35638SOL    HW1 9807  10.027   6.715   9.449  0.8622  0.5366  0.2702
35638SOL    HW2 9808  10.066   6.729   9.595  0.8401 -2.2535  0.5951
35639SOL     OW 9809   0.988   3.872   3.898 -1.0173 -0.0952  0.4023
35639SOL    HW1 9810   0.939   3.941   3.944 -1.2672 -1.3286  2.0493
35639SOL    HW2 9811   0.992   3.799   3.960 -0.8820 -1.6414 -1.3284
35640SOL     OW 9812   1.724   9.377   4.115  0.1826 -0.2293 -0.0496
35640SOL    HW1 9813   1.716   9.305   4.053 -0.4824 -0.4489  0.2836
35640SOL    HW2 9814   1.635   9.390   4.149  0.5878 -0.3241  1.0899
35641SOL     OW 9815   0.007   5.345   1.558  0.0496  0.3509  0.4688
35641SOL    HW1 9816  -0.026   5.311   1.475 -1.7463 -0.8696  1.6251
35641SOL    HW2 9817   0.013   5.269   1.615  4.1158  0.6116  0.7026
35642SOL     OW 9818   6.346  10.368   8.938  0.2844  0.2710 -0.1598
35642SOL    HW1 9819   6.303  10.450   8.965  0.6567  0.9036 -1.3976
35642SOL    HW2 9820   6.308  10.348   8.853  0.2102 -0.8619  0.1268
35643SOL     OW 9821   8.636   4.502   7.409  0.0490 -0.5341 -0.1706
35643SOL    HW1 9822   8.581   4.435   7.451  0.7776 -1.1613 -0.1954
35643SOL    HW2 9823   8.698   4.452   7.357  1.6651  0.0754  1.0823
35644SOL     OW 9824   9.795   3.829   6.253  0.3301 -0.1222 -0.8577
35644SOL    HW1 9825   9.820   3.760   6.193  1.3713  1.0964 -1.8829
35644SOL    HW2 9826   9.872   3.841   6.310 -0.7708 -1.5333  1.0590
35645SOL     OW 9827   9.037   8.333  10.563 -0.1609 -0.5958  0.4918
35645SOL    HW1 9828   9.031   8.283  10.644 -2.5721  0.6584  1.1887
35645SOL    HW2 9829   9.009   8.421  10.588  3.0348  0.9633 -0.8638
35646SOL     OW 9830  10.227   7.984  10.367  0.1843  0.5124 -0.3572
35646SOL    HW1 9831  10.281   7.926  10.313 -2.0507 -0.2274 -1.9489
35646SOL    HW2 9832  10.260   8.072  10.348  1.2067  0.0567 -0.7978
35647SOL     OW 9833   1.020  10.583   6.096  0.4919  0.2362  0.4817
35647SOL    HW1 9834   1.030  10.492   6.068 -1.1884  0.1127  0.1843
35647SOL    HW2 9835   0.936  10.585   6.141  0.7555  1.5420  0.9562
35648SOL     OW 9836   1.561   9.816   7.113  0.3877  0.1036 -0.5486
35648SOL    HW1 9837   1.645   9.852   7.142  0.4561 -0.4039 -0.1095
35648SOL    HW2 9838   1.500   9.890   7.120  0.3911 -0.0104  0.9414
35649SOL     OW 9839   6.534   8.696   9.510 -0.1729  0.2754 -0.0657
35649SOL    HW1 9840   6.508   8.608   9.534 -0.3666  0.2889 -0.2182
35649SOL    HW2 9841   6.457   8.750   9.530  0.5925  0.7352  1.8378
35650SOL     OW 9842   6.875   5.087  10.308 -0.1559  0.3391  0.2065
35650SOL    HW1 9843   6.865   5.012  10.366  0.8677  0.7133  0.8786
35650SOL    HW2 9844   6.958   5.128  10.333 -0.5563  1.5479 -0.3191
35651SOL     OW 9845   8.723   7.892   7.183  0.1951 -0.6782 -0.5402
35651SOL    HW1 9846   8.632   7.875   7.161  0.4808 -3.0211 -0.1344
35651SOL    HW2 9847   8.718   7.944   7.264 -0.7954 -1.9771  0.2689
35652SOL     OW 9848  10.586   3.116  10.715  0.5704 -0.1588 -0.3680
35652SOL    HW1 9849  10.589   3.026  10.749  1.8124  0.6895  2.0466
35652SOL    HW2 9850  10.566   3.169  10.792  1.7300  1.7947 -1.3533
35653SOL     OW 9851   9.739   3.154   2.031 -0.5629  0.2699  0.4516
35653SOL    HW1 9852   9.726   3.146   2.125 -1.5504  0.1080  0.3062
35653SOL    HW2 9853   9.658   3.122   1.992  0.6145 -1.6977 -0.5309
35654SOL     OW 9854   7.902   4.281  10.133 -0.4478 -0.4550  0.0068
35654SOL    HW1 9855   7.877   4.257  10.222 -1.6865 -2.0252 -0.7123
35654SOL    HW2 9856   7.884   4.375  10.128  1.0175 -0.0117  1.8086
35655SOL     OW 9857   5.797   8.709   4.960  0.1711 -0.1639 -0.1938
35655SOL    HW1 9858   5.851   8.743   5.031  0.3341  2.1459 -1.3272
35655SOL    HW2 9859   5.781   8.785   4.904 -1.0602 -1.6226 -1.9261
35656SOL     OW 9860   6.604   9.689   4.601  0.6842  0.1261 -0.5956
35656SOL    HW1 9861   6.615   9.618   4.537 -4.5523 -1.1287 -0.5642
35656SOL    HW2 9862   6.546   9.751   4.558  0.1465  1.2250  1.5792
35657SOL     OW 9863   1.374   3.698   5.941 -0.2007 -0.2292 -0.0359
35657SOL    HW1 9864   1.348   3.629   5.880 -0.5071  0.1162 -0.2977
35657SOL    HW2 9865   1.310   3.767   5.928 -0.2391 -0.1328  0.6497
35658SOL     OW 9866   8.681   3.150   6.047  0.4774 -0.1255 -0.2170
35658SOL    HW1 9867   8.612   3.217   6.043  0.7034  0.1624  0.6413
35658SOL    HW2 9868   8.686   3.125   6.139  2.3345  0.7143 -0.0524
35659SOL     OW 9869   0.045   1.542   2.459  0.3415  0.2174  0.1079
35659SOL    HW1 9870  -0.031   1.538   2.400  1.1811  0.2516 -1.0071
35659SOL    HW2 9871   0.111   1.590   2.409  0.8473  0.8643  1.3613
35660SOL     OW 9872   4.052   5.551  10.249  0.3119  0.2742 -0.2418
35660SOL    HW1 9873   4.026   5.643  10.255 -0.9111 -0.1406  4.0829
35660SOL    HW2 9874   4.138   5.548  10.291  0.4451 -0.5381 -0.5583
35661SOL     OW 9875   9.770   3.536   6.541 -0.1074 -0.0496  0.2187
35661SOL    HW1 9876   9.844   3.502   6.491  0.5774 -1.1720  1.9190
35661SOL    HW2 9877   9.797   3.624   6.567 -0.1821  0.2717 -0.7245
35662SOL     OW 9878   2.132   7.351   4.293 -0.0772 -0.9352  0.0779
35662SOL    HW1 9879   2.151   7.260   4.315  0.0722 -1.0366 -0.4537
35662SOL    HW2 9880   2.161   7.361   4.203 -1.1279 -0.6736 -0.2516
35663SOL     OW 9881  10.260   4.212   6.768  0.4887 -0.7472 -0.6480
35663SOL    HW1 9882  10.205   4.204   6.846  1.1807 -1.9745 -0.2701
35663SOL    HW2 9883  10.199   4.200   6.695 -0.2285  0.7894 -0.3361
35664SOL     OW 9884   5.150   0.738   8.491  0.1108  0.0404  0.2414
35664SOL    HW1 9885   5.229   0.684   8.489 -0.3083 -0.7257  2.1824
35664SOL    HW2 9886   5.096   0.699   8.559 -1.3283  1.4229 -0.0432
35665SOL     OW 9887   2.780  10.024   5.059  0.0680 -0.4433 -0.1140
35665SOL    HW1 9888   2.737   9.943   5.088  0.5184  0.1454  2.3733
35665SOL    HW2 9889   2.708  10.085   5.042 -0.2001 -0.6704  0.1941
35666SOL     OW 9890   2.421   8.929   6.721 -0.1774  0.2056  0.2126
35666SOL    HW1 9891   2.373   8.864   6.771  0.4989 -0.6442 -0.2141
35666SOL    HW2 9892   2.513   8.916   6.745  0.1492 -0.1451 -1.1318
35667SOL     OW 9893  10.592   1.028   9.975 -0.3332  0.7227  0.5916
35667SOL    HW1 9894  10.614   1.100   9.917 -0.2093 -0.8777 -1.4521
35667SOL    HW2 9895  10.503   1.003   9.950  0.0649 -0.5872  0.4217
35668SOL     OW 9896   0.461   0.953   9.066 -0.6844 -0.2355 -0.2409
35668SOL    HW1 9897   0.487   0.969   9.157 -2.8393  3.4791 -0.0992
35668SOL    HW2 9898   0.446   0.858   9.062 -0.0925 -0.6030  3.1332
35669SOL     OW 9899   2.393  10.289   1.760 -0.1729  0.4213  0.4292
35669SOL    HW1 9900   2.331  10.357   1.732 -0.7246 -0.3568 -0.3200
35669SOL    HW2 9901   2.438  10.327   1.835  1.7163  2.8511 -1.7258
35670SOL     OW 9902   3.548   1.122   1.103  0.7704  0.3628 -0.7341
35670SOL    HW1 9903   3.534   1.058   1.032 -1.3774 -0.3482  0.2510
35670SOL    HW2 9904   3.625   1.090   1.149  0.5458 -0.7451 -1.1001
35671SOL     OW 9905   4.154   7.672   0.699  0.0470 -0.7275  0.2591
35671SOL    HW1 9906   4.242   7.689   0.667  0.6532 -1.1153  1.6725
35671SOL    HW2 9907   4.115   7.758   0.711  0.0509 -0.5628 -0.7979
35672SOL     OW 9908  10.643   3.894   9.182  0.1534  0.2073  0.1877
35672SOL    HW1 9909  10.712   3.936   9.233 -0.2770 -0.1283  1.0520
35672SOL    HW2 9910  10.679   3.808   9.158  1.2636  1.1990 -2.0634
35673SOL     OW 9911   7.480   3.551   7.908 -0.5536 -0.4255 -0.3556
35673SOL    HW1 9912   7.434   3.635   7.899 -1.6829 -1.1456 -1.6836
35673SOL    HW2 9913   7.441   3.510   7.986 -0.4765 -0.0170 -0.0991
35674SOL     OW 9914   5.390   4.945   4.321 -0.2717  0.3196 -0.6151
35674SOL    HW1 9915   5.443   4.983   4.252  0.9785 -2.8835 -1.6119
35674SOL    HW2 9916   5.316   4.905   4.275  0.4623 -1.6567 -0.2009
35675SOL     OW 9917   0.132   1.028   9.065 -0.2817 -0.5280 -0.2727
35675SOL    HW1 9918   0.175   0.944   9.080 -0.3896 -0.7984 -1.3641
35675SOL    HW2 9919   0.134   1.038   8.969 -1.9281 -0.1722 -0.2905
35676SOL     OW 9920   5.872   5.799   5.040 -0.1298 -0.0345  0.2167
35676SOL    HW1 9921   5.785   5.760   5.046 -0.8195  1.4675  0.4842
35676SOL    HW2 9922   5.872   5.868   5.106  0.6920  1.0540 -0.8760
35677SOL     OW 9923   0.149  10.688   5.401  0.0216  0.7527  0.3522
35677SOL    HW1 9924   0.125  10.662   5.490 -2.5454  1.4998 -0.0396
35677SOL    HW2 9925   0.093  10.635   5.344  0.8243  1.0861 -0.7883
35678SOL     OW 9926   1.660   9.541  10.532  0.3194  0.0056 -0.7476
35678SOL    HW1 9927   1.640   9.511  10.444  0.6902 -0.7189 -0.5950
35678SOL    HW2 9928   1.749   9.510  10.549 -0.6938 -2.3640  0.8911
35679SOL     OW 9929   1.016   2.648   4.568  1.3526 -0.2566  0.5736
35679SOL    HW1 9930   1.055   2.735   4.553  2.4035 -0.7342  0.4174
35679SOL    HW2 9931   1.002   2.644   4.662  2.5280 -0.3951  0.7632
35680SOL     OW 9932   2.983   3.292   4.020  0.0831 -0.0084 -0.3726
35680SOL    HW1 9933   2.969   3.198   4.018 -0.6476  0.0527  0.6845
35680SOL    HW2 9934   3.061   3.307   3.966 -0.9742 -0.9688 -2.2556
35681SOL     OW 9935   3.759  10.569   5.406 -0.2384  0.0830 -0.3576
35681SOL    HW1 9936   3.710  10.575   5.324 -0.9708 -0.1449  0.0573
35681SOL    HW2 9937   3.820  10.496   5.392  2.0122  2.0701 -1.9130
35682SOL     OW 9938   2.667   2.375   2.291 -0.5678 -0.1726 -0.6352
35682SOL    HW1 9939   2.638   2.438   2.226 -3.2397 -1.0891 -0.4653
35682SOL    HW2 9940   2.679   2.426   2.371  1.9283  0.8152 -1.5453
35683SOL     OW 9941   4.244   0.419   4.392 -0.8462  0.2129 -0.3793
35683SOL    HW1 9942   4.152   0.398   4.380 -0.4647 -1.1622 -1.1250
35683SOL    HW2 9943   4.285   0.399   4.308 -0.0589  2.0902 -0.4971
35684SOL     OW 9944   7.090   3.157   4.275 -0.0902  0.1026  0.2282
35684SOL    HW1 9945   7.007   3.162   4.322  0.6557  0.5802  1.5634
35684SOL    HW2 9946   7.093   3.236   4.221 -1.8224 -1.3712 -2.2501
35685SOL     OW 9947   0.866   5.632   8.799  0.3635 -0.0506 -0.6486
35685SOL    HW1 9948   0.862   5.701   8.866 -2.2626 -0.2195 -0.5307
35685SOL    HW2 9949   0.954   5.596   8.807  1.4958  2.6030 -0.0298
35686SOL     OW 9950   9.736   7.695   3.776 -0.2244 -0.0235 -0.3691
35686SOL    HW1 9951   9.799   7.686   3.847  0.9019  0.3972 -1.2830
35686SOL    HW2 9952   9.673   7.625   3.791  1.3866 -1.5296 -0.3485
35687SOL     OW 9953   2.299   8.681   0.620 -0.0642  0.9109  0.2785
35687SOL    HW1 9954   2.393   8.696   0.627  0.2364 -0.9400  0.6367
35687SOL    HW2 9955   2.266   8.756   0.570  1.6893  1.2535 -0.4169
35688SOL     OW 9956   1.455   4.565   5.283  0.4149 -0.1726  0.1347
35688SOL    HW1 9957   1.512   4.628   5.326 -0.0235 -0.9385  1.9234
35688SOL    HW2 9958   1.430   4.504   5.352 -1.3010 -0.7802 -0.9593
35689SOL     OW 9959   5.338   3.912   1.959  0.3876 -0.1811  0.1496
35689SOL    HW1 9960   5.285   3.849   1.910 -0.1877 -0.0943  0.6531
35689SOL    HW2 9961   5.394   3.857   2.015  1.1548 -0.2853 -0.6943
35690SOL     OW 9962   5.838   8.192   7.785 -0.2495 -0.1272 -0.0797
35690SOL    HW1 9963   5.875   8.134   7.852  0.9278  1.1688  0.4298
35690SOL    HW2 9964   5.914   8.225   7.737 -0.6572  2.5965  0.9884
35691SOL     OW 9965   7.869   4.493   3.094 -0.0440 -0.2645  0.5317
35691SOL    HW1 9966   7.805   4.483   3.024 -2.3266 -0.6271  2.5364
35691SOL    HW2 9967   7.858   4.414   3.148  1.2642  0.2222  1.5732
35692SOL     OW 9968   3.951   2.722   5.219 -0.1001  0.2317  1.1797
35692SOL    HW1 9969   3.984   2.637   5.249  0.1972  0.0891  0.4798
35692SOL    HW2 9970   4.026   2.780   5.221  0.1403  0.0073 -0.0408
35693SOL     OW 9971   2.801   9.110   3.074 -0.2701 -0.0935 -0.0715
35693SOL    HW1 9972   2.747   9.058   3.014 -0.6198  0.5324 -0.3187
35693SOL    HW2 9973   2.785   9.071   3.160 -0.3738 -0.5146 -0.2758
35694SOL     OW 9974   8.520   0.560   6.925  0.5727  0.6175  0.6436
35694SOL    HW1 9975   8.468   0.536   7.002  0.1742  1.6423  0.7214
35694SOL    HW2 9976   8.609   0.534   6.946  0.2742 -0.1433  0.9797
35695SOL     OW 9977   2.898   8.390   5.651  0.3613  0.2418  0.1699
35695SOL    HW1 9978   2.880   8.396   5.744  0.8963 -0.7267  0.3534
35695SOL    HW2 9979   2.812   8.395   5.609  0.0618  0.0405  0.7513
35696SOL     OW 9980   3.520   4.554   2.303 -0.1056  0.0006  0.0915
35696SOL    HW1 9981   3.427   4.534   2.314  0.4412 -2.6316  0.4788
35696SOL    HW2 9982   3.565   4.489   2.356  1.9750  2.1923  1.1950
35697SOL     OW 9983   2.228   6.345   5.949 -0.2677 -0.0153 -0.0987
35697SOL    HW1 9984   2.137   6.371   5.931 -0.0570  0.4320 -0.5560
35697SOL    HW2 9985   2.264   6.327   5.862  0.1400  0.0051  0.0690
35698SOL     OW 9986   2.958   1.479   8.082 -0.0064 -0.6195  0.0424
35698SOL    HW1 9987   2.897   1.435   8.024 -1.9401 -0.2077  1.6450
35698SOL    HW2 9988   3.005   1.409   8.126 -0.7878 -1.0180  0.2567
35699SOL     OW 9989   4.127   6.785   0.074  0.1108 -0.1990  0.2660
35699SOL    HW1 9990   4.156   6.695   0.090 -0.1407 -0.2440  0.4823
35699SOL    HW2 9991   4.073   6.779  -0.005 -2.3921 -0.7927  1.8788
35700SOL     OW 9992   2.817   4.634   2.831 -0.6875 -0.3956 -0.0971
35700SOL    HW1 9993   2.844   4.575   2.761 -0.3550  0.3240 -0.5859
35700SOL    HW2 9994   2.859   4.599   2.910 -1.0508 -1.1995 -0.2478
35701SOL     OW 9995   0.671   5.471   3.495 -0.1295  0.4284 -0.2304
35701SOL    HW1 9996   0.609   5.497   3.427 -0.0986  0.7185 -0.1499
35701SOL    HW2 9997   0.635   5.507   3.576 -0.0105  0.3432 -0.1383
35702SOL     OW 9998   7.412   5.205   6.051  0.5705  0.3554  0.5682
35702SOL    HW1 9999   7.392   5.260   5.975  2.6527  1.7991  0.9824
35702SOL    HW210000   7.419   5.117   6.016  0.8180  0.9027 -0.7978
35703SOL     OW10001   5.803   8.515   5.663  0.1539 -0.1918  0.1850
35703SOL    HW110002   5.826   8.425   5.685  0.5442  0.1817  1.3794
35703SOL    HW210003   5.877   8.548   5.612 -0.1758 -0.6601 -0.6174
35704SOL     OW10004   3.875  10.385   0.255 -0.5453 -0.1309  0.3486
35704SOL    HW110005   3.880  10.301   0.300 -4.1428 -0.3785  0.5816
35704SOL    HW210006   3.818  10.370   0.180  0.4869  1.6528 -0.8773
35705SOL     OW10007   6.489   1.771   9.844 -0.0254  0.1495 -0.0494
35705SOL    HW110008   6.431   1.840   9.876  1.0715  1.1590 -0.1638
35705SOL    HW210009   6.431   1.698   9.824 -1.1740  0.8977  0.4586
35706SOL     OW10010   5.719   0.891   8.918 -0.0670  0.6347 -0.2691
35706SOL    HW110011   5.739   0.812   8.968 -1.2296  0.7691  0.4510
35706SOL    HW210012   5.631   0.876   8.884 -0.7047  2.0133  0.7083
35707SOL     OW10013   8.643   2.440   4.774  0.1341 -0.1684  0.5518
35707SOL    HW110014   8.622   2.523   4.731 -0.0253 -0.6116 -0.2429
35707SOL    HW210015   8.738   2.434   4.772  0.2181  0.5160  1.6262
35708SOL     OW10016   9.914   2.179   9.850  0.5553  0.6663  0.2506
35708SOL    HW110017   9.939   2.247   9.788  0.0183 -0.3549 -1.1540
35708SOL    HW210018   9.820   2.192   9.862  0.0667 -0.8831 -1.4677
35709SOL     OW10019   9.301   6.302   9.761  0.2417  0.1453 -0.0409
35709SOL    HW110020   9.370   6.340   9.708  0.3799 -1.6975 -1.2840
35709SOL    HW210021   9.347   6.247   9.825  0.0519  1.9043  1.7156
35710SOL     OW10022   5.363   3.702   3.484  0.1945 -0.7505 -0.6146
35710SOL    HW110023   5.347   3.663   3.398  1.2137 -0.4510 -0.9568
35710SOL    HW210024   5.284   3.753   3.503  0.4094  0.1015 -1.8985
35711SOL     OW10025   8.737   5.787   4.128  0.2327 -0.0992  0.4322
35711SOL    HW110026   8.677   5.797   4.202  0.0401 -0.0431  0.2715
35711SOL    HW210027   8.751   5.692   4.122  0.6365 -0.0669  0.8432
35712SOL     OW10028   9.894  10.559   1.134 -0.1052  0.3855  0.1289
35712SOL    HW110029   9.950  10.588   1.061  0.6026  0.7919  0.8100
35712SOL    HW210030   9.930  10.474   1.159  0.0999  0.5643  0.4491
35713SOL     OW10031   3.421   4.140   4.146 -0.3643  0.1653  0.3623
35713SOL    HW110032   3.428   4.207   4.213 -0.6243  0.2675  0.2866
35713SOL    HW210033   3.336   4.099   4.160 -0.1042 -0.3185  0.5640
35714SOL     OW10034   8.929   0.291   6.445  0.7759  0.0500  0.0098
35714SOL    HW110035   8.936   0.206   6.487 -0.6480  0.0131  0.2378
35714SOL    HW210036   8.845   0.287   6.397  0.3301  1.5548  0.6028
35715SOL     OW10037   9.521   8.711   2.722  0.2786 -0.0443  0.1819
35715SOL    HW110038   9.518   8.619   2.748 -2.2622  0.0252  0.3306
35715SOL    HW210039   9.456   8.719   2.652  0.0157  1.7448  0.5653
35716SOL     OW10040   2.551   3.554   1.822 -0.2919  0.0163  0.2276
35716SOL    HW110041   2.617   3.584   1.759 -0.8187  1.1761  0.2028
35716SOL    HW210042   2.468   3.579   1.783 -0.6080  1.4647  1.6939
35717SOL     OW10043   4.765   5.889   6.216 -0.1660 -0.5161 -0.0700
35717SOL    HW110044   4.700   5.954   6.189 -1.0043 -1.2311  0.1901
35717SOL    HW210045   4.843   5.940   6.234 -0.4313  0.2933 -1.0844
35718SOL     OW10046   4.475  10.645   7.978  0.0502 -0.5066 -0.0012
35718SOL    HW110047   4.539  10.672   7.913 -1.5986  0.9366 -1.1415
35718SOL    HW210048   4.482  10.550   7.983  1.7312 -0.4293 -0.6226
35719SOL     OW10049   5.965   5.237   7.649  0.2491 -0.0710 -0.2159
35719SOL    HW110050   5.922   5.323   7.649  1.6552  0.6610  0.6215
35719SOL    HW210051   5.894   5.175   7.633 -0.9885  1.1522  0.3432
35720SOL     OW10052   1.484   6.475   8.995 -0.6363  0.3563  0.4149
35720SOL    HW110053   1.565   6.446   8.951  0.1532 -0.8867  2.5492
35720SOL    HW210054   1.414   6.430   8.948 -0.1290  1.3746 -1.4144
35721SOL     OW10055   3.194   6.331   6.012 -0.0880 -0.0298  0.5915
35721SOL    HW110056   3.105   6.309   6.038  0.0100  0.8793  1.7591
35721SOL    HW210057   3.249   6.293   6.080  0.3937 -0.1768  0.1277
35722SOL     OW10058   9.918   4.984   1.594  0.5695  0.0169 -0.1777
35722SOL    HW110059   9.827   4.999   1.621  0.2089 -1.0484 -0.7706
35722SOL    HW210060   9.964   5.063   1.624 -0.5834  0.6782 -0.0617
35723SOL     OW10061   0.042   7.173   0.115  0.1232  0.1798  0.5685
35723SOL    HW110062   0.070   7.215   0.034  0.7790 -1.6934 -0.2233
35723SOL    HW210063   0.062   7.080   0.102 -1.3029 -0.4058  2.2201
35724SOL     OW10064   6.111   0.175   7.104 -0.6672  0.4161 -0.0352
35724SOL    HW110065   6.104   0.270   7.090 -1.2313  0.7149  1.9659
35724SOL    HW210066   6.204   0.159   7.118 -0.5446  0.6288 -0.5729
35725SOL     OW10067   7.355   2.134   9.874 -0.0516  0.5378  0.0110
35725SOL    HW110068   7.410   2.212   9.883 -1.3313  1.4358  0.3748
35725SOL    HW210069   7.269   2.162   9.905 -0.5579 -1.0128  0.0748
35726SOL     OW10070   4.083   3.065   4.120 -0.1882 -0.3454 -0.1857
35726SOL    HW110071   4.008   3.009   4.103 -0.7161  0.3426 -0.1799
35726SOL    HW210072   4.157   3.019   4.081 -0.8701 -0.2788 -1.6223
35727SOL     OW10073  10.266   9.767   6.546 -0.1498  0.5742 -0.0528
35727SOL    HW110074  10.262   9.731   6.457  0.1075  0.1706  0.0970
35727SOL    HW210075  10.233   9.697   6.602  0.2123  0.6217  0.2244
35728SOL     OW10076   1.779   3.832   5.084 -0.1408  0.0654 -0.0097
35728SOL    HW110077   1.855   3.863   5.034 -0.6551  1.0973 -0.1810
35728SOL    HW210078   1.765   3.743   5.053 -0.2776  0.5894 -1.5305
35729SOL     OW10079   2.435   0.090   4.161  0.0547  0.5221 -0.0370
35729SOL    HW110080   2.451   0.022   4.096  1.4326 -0.7038  1.5004
35729SOL    HW210081   2.342   0.083   4.181 -0.0924 -0.0055 -0.8628
35730SOL     OW10082   7.697   2.871   4.759 -0.0864 -0.2560 -0.7263
35730SOL    HW110083   7.786   2.904   4.771 -0.4010  0.0777  0.9070
35730SOL    HW210084   7.670   2.906   4.674  0.3178  2.0373  0.0262
35731SOL     OW10085   5.492   8.807   7.775  0.3206  0.2776  0.0228
35731SOL    HW110086   5.467   8.724   7.733  0.1987  0.5085 -0.3656
35731SOL    HW210087   5.487   8.788   7.869 -1.6195  0.3718 -0.0180
35732SOL     OW10088   5.247   0.094   5.512  0.3216  0.2484  0.3602
35732SOL    HW110089   5.249   0.011   5.464  0.8780  1.1961 -1.3088
35732SOL    HW210090   5.198   0.154   5.456  0.5258  1.2569  1.2196
35733SOL     OW10091   6.251   2.530   4.730  0.4269 -0.3079 -0.2406
35733SOL    HW110092   6.275   2.531   4.823 -0.4891 -0.8768  0.0206
35733SOL    HW210093   6.156   2.543   4.730  0.3487 -0.8150 -1.0653
35734SOL     OW10094  10.753   2.743   9.177  0.1671 -0.4441 -0.0132
35734SOL    HW110095  10.818   2.758   9.246  0.2579 -0.2472 -0.1449
35734SOL    HW210096  10.699   2.822   9.177 -0.5743 -0.9233  0.6420
35735SOL     OW10097   2.388   1.244   5.189  0.0619 -0.0132 -0.0746
35735SOL    HW110098   2.299   1.255   5.154  0.0501 -0.5127 -0.2163
35735SOL    HW210099   2.416   1.159   5.155  1.0148  0.6209 -0.9379
35736SOL     OW10100   6.622   7.498   8.868  0.2587 -0.3813  0.0265
35736SOL    HW110101   6.574   7.501   8.785 -0.5111 -1.1051  0.4350
35736SOL    HW210102   6.676   7.419   8.861  2.5502  1.1576 -1.0200
35737SOL     OW10103   3.307   9.649   4.915 -0.2204  0.0013  0.4164
35737SOL    HW110104   3.278   9.634   4.825  0.9604 -0.6214  0.1113
35737SOL    HW210105   3.370   9.720   4.908  1.0855 -1.1132  0.4875
35738SOL     OW10106   8.490   8.921   6.942 -0.2081  0.3395 -0.4375
35738SOL    HW110107   8.450   8.861   6.880 -0.4339 -0.1427  0.1602
35738SOL    HW210108   8.436   9.000   6.936 -0.2260  0.2988 -0.8480
35739SOL     OW10109   6.400   6.938   8.569 -0.3967  0.1085 -0.0575
35739SOL    HW110110   6.318   6.889   8.568 -0.6001  0.4046  0.9838
35739SOL    HW210111   6.414   6.960   8.661  1.0063 -0.1854 -0.1833
35740SOL     OW10112  10.747   9.395   9.334 -0.3754  0.5453  0.6579
35740SOL    HW110113  10.820   9.458   9.339 -0.4011  0.6396 -0.0175
35740SOL    HW210114  10.789   9.312   9.310 -0.3803  0.3671  1.2392
35741SOL     OW10115   6.167   8.604   3.355 -0.3066  0.0990 -0.5453
35741SOL    HW110116   6.203   8.519   3.329 -2.3599 -1.2568  0.7401
35741SOL    HW210117   6.243   8.662   3.362  1.1293 -1.5625 -1.6312
35742SOL     OW10118   3.832  10.639   8.401 -0.0096  0.4254  0.0402
35742SOL    HW110119   3.831  10.615   8.309  2.7629 -0.9122  0.2722
35742SOL    HW210120   3.742  10.624   8.431 -0.6787 -0.2174 -2.1554
35743SOL     OW10121   7.803   4.695   7.709  0.4540 -0.1754 -0.6711
35743SOL    HW110122   7.898   4.709   7.720  0.4424  1.2103 -2.0257
35743SOL    HW210123   7.771   4.778   7.674 -1.1630 -0.8644 -0.8825
35744SOL     OW10124  10.071   4.199   0.052 -0.8156 -0.3926  0.0222
35744SOL    HW110125  10.017   4.149   0.113  0.5817  0.7212  2.3176
35744SOL    HW210126  10.156   4.154   0.054 -0.8298 -0.5158 -1.3846
35745SOL     OW10127   9.853   6.086   7.064 -1.1222 -0.4831 -0.0266
35745SOL    HW110128   9.841   6.177   7.089 -1.7415 -0.2084 -1.2968
35745SOL    HW210129   9.940   6.083   7.024 -1.6382 -0.1769 -1.1864
35746SOL     OW10130   4.953   0.547   3.861  0.2113  0.1679  0.0417
35746SOL    HW110131   4.944   0.497   3.780 -1.0549 -1.5686  1.1885
35746SOL    HW210132   4.975   0.636   3.832 -0.1633 -0.4088 -2.1854
35747SOL     OW10133   7.852   4.151   7.701  0.3102  0.5235 -0.0798
35747SOL    HW110134   7.886   4.128   7.787  1.5444  0.7973 -0.4835
35747SOL    HW210135   7.900   4.230   7.676  0.3515  0.1511 -1.2426
35748SOL     OW10136  10.006   4.023   0.259  0.5879 -0.5206  0.4401
35748SOL    HW110137   9.990   4.007   0.352 -0.1272  0.6007  0.5307
35748SOL    HW210138   9.922   4.005   0.216  0.9807 -1.2758 -0.0308
35749SOL     OW10139   2.368   1.543   2.448 -0.6584  0.0025 -0.1208
35749SOL    HW110140   2.339   1.465   2.402 -1.4259  0.9176 -1.2575
35749SOL    HW210141   2.462   1.549   2.428 -0.8951  0.1573 -1.2542
35750SOL     OW10142   7.367   4.584   9.443  0.2178 -0.4848 -0.2009
35750SOL    HW110143   7.364   4.489   9.456 -0.4192 -0.3785  0.4823
35750SOL    HW210144   7.359   4.595   9.348 -1.6366 -1.0489 -0.1351
35751SOL     OW10145   5.485   0.137   8.538  0.4509  0.2089 -0.2649
35751SOL    HW110146   5.521   0.066   8.484 -1.6774 -2.0166  1.0594
35751SOL    HW210147   5.434   0.190   8.476 -0.4103 -1.2014 -0.8004
35752SOL     OW10148   8.205   3.072   7.312 -0.0249  0.3286 -0.1296
35752SOL    HW110149   8.209   2.977   7.316 -0.6294  0.3430  1.4824
35752SOL    HW210150   8.120   3.094   7.350  0.1127  1.5106 -0.4755
35753SOL     OW10151   6.233   9.545   5.544 -0.2940  0.0888 -0.2612
35753SOL    HW110152   6.237   9.639   5.557 -1.1923  0.1047 -0.0352
35753SOL    HW210153   6.306   9.525   5.486  0.7919  0.7105  0.8559
35754SOL     OW10154   1.835   9.104   3.113 -0.3940 -0.1552  0.4610
35754SOL    HW110155   1.776   9.080   3.185 -0.6708 -0.2679  0.2004
35754SOL    HW210156   1.787   9.171   3.065 -1.0248 -1.4129 -0.7114
35755SOL     OW10157   3.689   0.386   4.908 -0.0416 -0.3387 -1.0952
35755SOL    HW110158   3.594   0.370   4.903 -0.3499  0.6246  0.7141
35755SOL    HW210159   3.718   0.334   4.983  0.0638  2.3774  0.9021
35756SOL     OW10160   9.671   8.299   2.667  0.1609 -0.4457  0.2708
35756SOL    HW110161   9.670   8.218   2.615  0.6711  0.1977 -0.7633
35756SOL    HW210162   9.742   8.351   2.629  0.1659  0.2835  1.2528
35757SOL     OW10163   7.925   7.319   0.866 -0.1147 -0.0717 -0.7788
35757SOL    HW110164   7.859   7.250   0.864 -0.8323  0.4793  1.2050
35757SOL    HW210165   7.883   7.394   0.824  0.0111 -0.3099 -1.3373
35758SOL     OW10166   4.256  10.109   9.076 -0.2835  0.3030 -0.1368
35758SOL    HW110167   4.230  10.146   8.992  0.0270  2.3776  0.6124
35758SOL    HW210168   4.264  10.015   9.060 -0.8257  0.5732 -2.2530
35759SOL     OW10169   3.639   7.629   6.613 -0.6187  0.4157 -0.8478
35759SOL    HW110170   3.546   7.616   6.631 -0.4378  0.8290  0.4927
35759SOL    HW210171   3.666   7.548   6.570 -1.7960  0.6784 -2.1877
35760SOL     OW10172   3.558   5.859  10.784 -0.2273  0.1066  0.5100
35760SOL    HW110173   3.480   5.905  10.816  0.0350 -0.0399  1.3661
35760SOL    HW210174   3.587   5.806  10.858 -0.5011 -1.4183 -0.4269
35761SOL     OW10175   2.468   4.993   6.985 -0.2275 -0.8173 -0.5548
35761SOL    HW110176   2.561   5.012   6.991 -0.3883  0.1878 -1.0349
35761SOL    HW210177   2.461   4.932   6.912 -0.1994  1.2839 -2.4225
35762SOL     OW10178   4.287   3.623   8.526 -0.3269  0.5182  0.2325
35762SOL    HW110179   4.249   3.711   8.517 -0.1182  0.4707 -1.4931
35762SOL    HW210180   4.259   3.577   8.447 -1.2047 -1.3093  1.5124
35763SOL     OW10181   9.641   7.071   3.083  0.4679  0.1491  0.2887
35763SOL    HW110182   9.696   7.081   3.160 -0.7525  1.3211  1.0586
35763SOL    HW210183   9.558   7.039   3.116  0.2918 -0.4604 -0.6958
35764SOL     OW10184   5.602   5.863   8.405  0.0468 -0.5076  0.1647
35764SOL    HW110185   5.512   5.833   8.395 -0.3444 -0.1999  2.3126
35764SOL    HW210186   5.622   5.908   8.323 -1.5968 -0.9584 -0.5070
35765SOL     OW10187  10.408   7.996   2.914  0.5293 -0.6005 -0.0156
35765SOL    HW110188  10.492   7.950   2.917  1.3724  0.9178  0.8739
35765SOL    HW210189  10.380   7.989   2.823 -0.0044 -3.8362  0.2568
35766SOL     OW10190   1.929   1.057   3.850 -0.6258 -0.1622  0.2757
35766SOL    HW110191   1.875   1.129   3.882 -0.6980 -1.9423  4.9644
35766SOL    HW210192   2.019   1.089   3.857 -0.7314  0.7719 -1.8091
35767SOL     OW10193   8.291   1.782   4.572  0.2715  0.4467 -0.0831
35767SOL    HW110194   8.364   1.734   4.611  0.2996  1.3043  0.9711
35767SOL    HW210195   8.260   1.840   4.642  0.2151  1.9534 -1.3026
35768SOL     OW10196   1.938   3.382   9.830 -0.6644  0.1646  0.6795
35768SOL    HW110197   1.950   3.430   9.748 -0.8365 -0.5484  0.2282
35768SOL    HW210198   2.012   3.411   9.885 -1.0983  1.3946  0.6563
35769SOL     OW10199   5.452   9.826   2.634  0.0105 -0.6260  0.1576
35769SOL    HW110200   5.525   9.765   2.621 -0.0303 -0.3572 -1.5640
35769SOL    HW210201   5.376   9.781   2.599  0.0207  0.4507 -1.3727
35770SOL     OW10202   6.348   2.155   8.847  0.4558 -0.1588 -0.1931
35770SOL    HW110203   6.420   2.181   8.789  0.9842 -0.4328  0.3236
35770SOL    HW210204   6.343   2.060   8.837 -0.8118 -0.0080 -1.3282
35771SOL     OW10205   7.086   4.760   4.916  0.2455  0.3703 -0.2917
35771SOL    HW110206   7.030   4.688   4.946  0.9123 -0.5474 -1.1338
35771SOL    HW210207   7.030   4.812   4.858 -0.4681  1.0064  0.9268
35772SOL     OW10208  10.133   9.739   2.508 -0.2186  0.0524 -0.6537
35772SOL    HW110209  10.085   9.656   2.517  0.1655 -0.1955 -0.8576
35772SOL    HW210210  10.171   9.735   2.420  0.2746  0.1905 -0.4508
35773SOL     OW10211   8.121   1.015   9.284 -0.4418  0.0855 -0.0034
35773SOL    HW110212   8.110   1.110   9.291  1.1900  0.2618  0.7947
35773SOL    HW210213   8.055   0.978   9.342 -0.6431  0.7674  0.2077
35774SOL     OW10214   3.625   5.109   8.661 -0.5126 -0.0882  0.3220
35774SOL    HW110215   3.596   5.049   8.593  0.9049 -1.4586  0.8596
35774SOL    HW210216   3.545   5.143   8.699 -1.3515 -1.1981 -0.3899
35775SOL     OW10217   4.640   2.491   8.909 -0.0159 -0.5720  0.2472
35775SOL    HW110218   4.664   2.545   8.984  1.0792 -0.1174 -0.4069
35775SOL    HW210219   4.672   2.403   8.930 -0.3886 -0.6160  0.6312
35776SOL     OW10220   5.669   6.175   7.169  0.0062  0.0937  0.2719
35776SOL    HW110221   5.655   6.151   7.077  0.3283  2.1008 -0.3480
35776SOL    HW210222   5.662   6.092   7.216  1.6026 -1.2949 -1.7397
35777SOL     OW10223   8.674  10.065   3.866 -0.2132 -1.0756  0.1612
35777SOL    HW110224   8.655  10.012   3.944  1.3783 -1.3943  0.3474
35777SOL    HW210225   8.686  10.002   3.796  2.5968 -1.0976  0.5694
35778SOL     OW10226   4.896   7.431  10.016  0.0208  0.2289 -0.3799
35778SOL    HW110227   4.944   7.414   9.935  0.3720 -1.8822  0.2177
35778SOL    HW210228   4.919   7.521  10.039  0.9729  0.4103 -1.9084
35779SOL     OW10229   0.909   8.941  10.555 -0.0065 -0.4232  0.1972
35779SOL    HW110230   0.994   8.898  10.559 -0.0565 -0.7113 -1.2237
35779SOL    HW210231   0.850   8.874  10.520  0.0772  0.9445 -2.8601
35780SOL     OW10232   0.848  10.693   1.947  0.1203  0.5671 -0.0532
35780SOL    HW110233   0.785  10.670   2.016  2.0951 -1.8905  1.0731
35780SOL    HW210234   0.933  10.689   1.990  1.5058 -1.7206 -2.6748
35781SOL     OW10235   3.692   6.261   7.521 -0.1865  0.7720  0.2763
35781SOL    HW110236   3.690   6.255   7.617  1.5989  0.4745  0.3251
35781SOL    HW210237   3.743   6.340   7.504  2.4415 -0.9421 -0.3795
35782SOL     OW10238   4.870   6.293   8.357  0.3110 -0.0434 -0.5498
35782SOL    HW110239   4.844   6.367   8.302 -0.4289  0.0620 -0.0839
35782SOL    HW210240   4.965   6.302   8.366  0.2192  0.9466 -0.3784
35783SOL     OW10241   3.611   0.395   0.899 -0.0677  0.0703  0.7057
35783SOL    HW110242   3.585   0.318   0.949 -0.2411  0.8633  1.8762
35783SOL    HW210243   3.567   0.385   0.814 -1.2756 -0.4062  1.3631
35784SOL     OW10244   4.974   8.639   4.482  0.0016  0.2384 -0.2556
35784SOL    HW110245   4.933   8.625   4.396 -0.4282 -1.0643  0.1419
35784SOL    HW210246   5.023   8.559   4.499 -0.7856  0.0189  1.1690
35785SOL     OW10247   2.073   8.884   6.670  0.2492 -0.3432 -0.0450
35785SOL    HW110248   2.119   8.955   6.712  2.0097  0.7154 -3.4170
35785SOL    HW210249   2.119   8.870   6.587 -3.9499 -0.8644 -2.6314
35786SOL     OW10250   7.791   7.224   2.440 -0.1715 -0.7381 -0.4551
35786SOL    HW110251   7.858   7.279   2.480 -1.9170  0.7987  0.5532
35786SOL    HW210252   7.832   7.138   2.431  2.4966  0.5412 -1.5795
35787SOL     OW10253   4.573   9.097   2.652 -0.2071  0.2657  0.6493
35787SOL    HW110254   4.554   9.007   2.627  0.8503  0.1005  0.4011
35787SOL    HW210255   4.516   9.113   2.727  0.3012 -0.9568  1.3303
35788SOL     OW10256   7.716   5.183   0.531  0.1490  0.3712 -0.0471
35788SOL    HW110257   7.638   5.136   0.503  1.3880 -2.6609  1.2069
35788SOL    HW210258   7.775   5.179   0.456  0.5142 -0.7550  0.2878
35789SOL     OW10259   3.689   3.952  10.709 -0.1092 -0.4046 -0.5722
35789SOL    HW110260   3.702   3.910  10.794 -0.2773 -0.5329 -0.6105
35789SOL    HW210261   3.677   4.045  10.730  0.2532 -0.3750 -0.4873
35790SOL     OW10262   8.278   7.625   8.445 -0.2343  0.0353 -0.8445
35790SOL    HW110263   8.362   7.661   8.416 -0.4451  0.0916 -1.4012
35790SOL    HW210264   8.214   7.661   8.384 -1.0287  1.9778  1.0265
35791SOL     OW10265   2.824   6.043   1.385  0.0280  0.0876  0.5794
35791SOL    HW110266   2.764   6.077   1.450 -0.3370 -1.3223  1.0150
35791SOL    HW210267   2.906   6.090   1.401 -0.4954  0.8674  1.0263
35792SOL     OW10268   2.885   0.437   8.859 -0.7336  0.0273 -0.7780
35792SOL    HW110269   2.958   0.433   8.920 -1.3502 -0.6523 -0.0616
35792SOL    HW210270   2.925   0.452   8.773  0.1379  1.0630 -0.2034
35793SOL     OW10271   3.207   3.648   3.296 -0.0856 -0.1319  0.1482
35793SOL    HW110272   3.125   3.628   3.251 -0.5597  2.1303 -0.1222
35793SOL    HW210273   3.180   3.703   3.370  1.0869 -0.3426  0.7438
35794SOL     OW10274   1.657   5.536   6.181 -0.3341  0.3300 -0.3207
35794SOL    HW110275   1.595   5.603   6.207 -0.0716 -0.5010  2.7866
35794SOL    HW210276   1.730   5.545   6.242  1.0271 -0.9642 -1.6601
35795SOL     OW10277   4.683   3.964   4.065  0.4139  0.2742  0.3592
35795SOL    HW110278   4.589   3.984   4.072  0.0612 -1.2512  0.3447
35795SOL    HW210279   4.726   4.040   4.104 -0.8473  0.7540  0.8979
35796SOL     OW10280   1.370   5.809   7.553 -0.4893 -0.5100 -0.0215
35796SOL    HW110281   1.299   5.846   7.606 -0.6445 -0.4288 -0.2827
35796SOL    HW210282   1.431   5.882   7.540 -0.9471 -0.2553 -0.7951
35797SOL     OW10283   4.802   3.145   8.340 -0.1751  0.1945 -0.3031
35797SOL    HW110284   4.782   3.119   8.251  1.0800  1.5360 -1.0325
35797SOL    HW210285   4.803   3.241   8.337  1.1232  0.2430  0.8367
35798SOL     OW10286   7.516   9.872   6.453  0.5509  0.3782  0.7728
35798SOL    HW110287   7.489   9.879   6.362  0.8053  0.8517  0.7309
35798SOL    HW210288   7.599   9.919   6.458  1.0641 -0.5355  1.0338
35799SOL     OW10289   4.225   6.633   1.640 -0.2445  0.0001  0.5505
35799SOL    HW110290   4.258   6.583   1.566 -0.4159 -0.7927  1.0006
35799SOL    HW210291   4.297   6.691   1.665  0.4372 -0.9706  0.8717
35800SOL     OW10292  10.650   0.956   7.911  0.1996  0.4666 -0.3924
35800SOL    HW110293  10.621   0.992   7.827 -0.5790 -0.1950 -0.4226
35800SOL    HW210294  10.570   0.947   7.962  0.7947  1.9883  0.9024
35801SOL     OW10295  10.391   1.558  10.245  0.2522  0.0441 -0.5399
35801SOL    HW110296  10.462   1.604  10.201  0.6195  0.5290  0.5203
35801SOL    HW210297  10.417   1.466  10.243  0.1945  0.0356 -1.4274
35802SOL     OW10298   4.390   9.731   3.967 -0.2586 -0.4453 -0.2571
35802SOL    HW110299   4.417   9.809   4.015 -1.2214  0.5229 -1.2293
35802SOL    HW210300   4.458   9.666   3.986  1.0543  0.9050 -0.1271
35803SOL     OW10301   0.625   9.714  10.229 -0.5436 -0.0974 -0.3477
35803SOL    HW110302   0.641   9.664  10.309 -0.4313  0.1407 -0.2189
35803SOL    HW210303   0.710   9.753  10.208 -0.7591  0.5004 -0.1268
35804SOL     OW10304  10.185  10.338   9.372 -0.4321 -0.4365 -0.2314
35804SOL    HW110305  10.146  10.411   9.421  1.9314  0.1798  0.8790
35804SOL    HW210306  10.156  10.259   9.418 -0.2314  0.0071  0.6637
35805SOL     OW10307   5.082   5.914   4.945 -0.3192  0.0220  0.1253
35805SOL    HW110308   5.158   5.966   4.918  0.7094 -2.0073 -1.0706
35805SOL    HW210309   5.049   5.876   4.864 -0.8481 -1.4295  0.9917
35806SOL     OW10310   2.056   0.377   6.249 -0.1916  0.1586 -0.1875
35806SOL    HW110311   2.044   0.461   6.206 -0.7759  0.1665 -0.0153
35806SOL    HW210312   2.080   0.317   6.178  1.5637  0.7296 -0.1281
35807SOL     OW10313  10.600  10.446   3.402  0.4672 -0.3598  0.1543
35807SOL    HW110314  10.684  10.415   3.436  0.3709 -1.1898 -0.3259
35807SOL    HW210315  10.586  10.393   3.323 -0.3803 -0.0463  0.0873
35808SOL     OW10316   1.733  10.380   2.523  0.5031 -0.0018  0.0397
35808SOL    HW110317   1.804  10.341   2.574  0.5868 -0.9696 -0.7853
35808SOL    HW210318   1.760  10.471   2.511  1.6636 -0.3803 -0.3483
35809SOL     OW10319   2.272   0.612   7.395  0.2345  0.1023 -0.1674
35809SOL    HW110320   2.359   0.616   7.356  1.2668 -1.2766  1.8054
35809SOL    HW210321   2.213   0.595   7.322  1.7502 -0.0266 -1.4057
35810SOL     OW10322   5.282   2.018   8.688  0.0917 -0.1117  0.4342
35810SOL    HW110323   5.255   1.934   8.652  1.7510 -0.5342  0.1187
35810SOL    HW210324   5.359   2.043   8.638  0.0134  1.3043  0.9543
35811SOL     OW10325   1.957   1.167   6.812  0.2734  0.0323 -0.4656
35811SOL    HW110326   2.047   1.167   6.846 -0.0545  0.0637  0.4464
35811SOL    HW210327   1.965   1.204   6.724  0.9547  1.6308  0.2177
35812SOL     OW10328   7.283   0.102   0.293  0.2418  0.0599 -0.3645
35812SOL    HW110329   7.290   0.026   0.235  1.0593  0.5329 -0.8940
35812SOL    HW210330   7.231   0.166   0.243  0.1261  0.1082 -0.1842
35813SOL     OW10331   7.774   2.774   7.057  0.0546 -0.2279 -0.1278
35813SOL    HW110332   7.680   2.792   7.061 -0.1942 -1.1974 -1.1898
35813SOL    HW210333   7.811   2.826   7.128 -0.8740  2.6177 -1.5966
35814SOL     OW10334   1.307   4.533   1.549  0.0305  0.5380 -0.0236
35814SOL    HW110335   1.392   4.571   1.526  0.2471  0.8122  1.1780
35814SOL    HW210336   1.316   4.440   1.527 -0.1183  0.9343 -1.9299
35815SOL     OW10337   2.259   1.374   3.965  0.2203 -0.5157  0.1391
35815SOL    HW110338   2.230   1.399   3.877  0.5337  1.1274  0.4580
35815SOL    HW210339   2.339   1.425   3.979  0.4122 -1.0842  1.2155
35816SOL     OW10340  10.009   4.866   2.922 -0.3858 -0.8051  0.0708
35816SOL    HW110341   9.956   4.788   2.909  1.9804 -2.5293 -0.0123
35816SOL    HW210342  10.024   4.900   2.833 -1.4771 -0.1715  0.1134
35817SOL     OW10343   7.393   1.534   4.180 -0.3641  0.1413  0.1870
35817SOL    HW110344   7.403   1.485   4.261  2.4783 -0.2461 -0.2919
35817SOL    HW210345   7.359   1.470   4.118 -1.1114  0.0341  0.7006
35818SOL     OW10346   4.670   7.443   8.670 -0.0215 -0.1124  0.6545
35818SOL    HW110347   4.733   7.503   8.710 -0.0203 -0.6377  1.4823
35818SOL    HW210348   4.636   7.392   8.744 -0.8092 -0.3944  0.1056
35819SOL     OW10349   6.699   3.001   3.376 -0.4030  0.0945  0.2133
35819SOL    HW110350   6.622   2.945   3.384  1.7358 -3.1587  0.0099
35819SOL    HW210351   6.731   3.012   3.465  1.6376 -3.0069  0.0171
35820SOL     OW10352   9.105   9.850   3.439 -0.3092  0.0916  0.3998
35820SOL    HW110353   9.055   9.772   3.462  1.5095 -1.1429  0.3566
35820SOL    HW210354   9.082   9.868   3.348  0.3907 -1.3176 -0.0717
35821SOL     OW10355   5.053   9.790   2.908 -0.8014 -0.1001  0.1380
35821SOL    HW110356   5.107   9.857   2.950  0.1794 -0.8738  0.1331
35821SOL    HW210357   5.086   9.785   2.818  1.4341 -2.8481  0.9490
35822SOL     OW10358   6.319   1.084   9.439  0.5676  1.2339  0.0409
35822SOL    HW110359   6.255   1.014   9.450  1.2005  0.8075  1.1729
35822SOL    HW210360   6.266   1.161   9.416 -0.1079  0.3474 -1.5488
35823SOL     OW10361   5.260   9.209  10.070  0.3065 -0.2434  0.3365
35823SOL    HW110362   5.324   9.138  10.079  0.9325  0.2043 -0.3959
35823SOL    HW210363   5.189   9.170  10.019  2.0693  0.4495 -2.9253
35824SOL     OW10364   8.535   8.309   5.396  0.6460 -0.1237  0.2605
35824SOL    HW110365   8.475   8.368   5.352 -1.0167 -0.4298  2.0174
35824SOL    HW210366   8.612   8.362   5.415 -0.1025  0.9950  0.2393
35825SOL     OW10367   5.843   2.363   3.869  0.3103  0.1140 -0.1119
35825SOL    HW110368   5.795   2.395   3.793  0.1057  1.1580  0.4324
35825SOL    HW210369   5.815   2.272   3.879 -1.7048  0.7247  0.2883
35826SOL     OW10370   6.662   2.380   9.482  0.3079 -0.9901 -0.4150
35826SOL    HW110371   6.661   2.350   9.391 -1.1326  0.4673 -0.9282
35826SOL    HW210372   6.662   2.475   9.476 -0.5271 -0.8600  1.0946
35827SOL     OW10373   0.494   1.149   3.751  0.0518 -0.3703 -0.1157
35827SOL    HW110374   0.447   1.155   3.668 -1.2597  0.8814  0.6678
35827SOL    HW210375   0.489   1.238   3.788 -0.4128 -1.1393  1.8169
35828SOL     OW10376   4.660   5.013   6.339 -0.3114 -0.3089 -0.5094
35828SOL    HW110377   4.704   5.094   6.363 -2.9180  1.6127 -1.7201
35828SOL    HW210378   4.730   4.953   6.313  1.6503  1.8346 -0.3698
35829SOL     OW10379   0.774   9.495   5.393 -0.0979 -0.1571 -0.2572
35829SOL    HW110380   0.847   9.486   5.454 -0.2143 -0.3174 -0.1380
35829SOL    HW210381   0.790   9.429   5.326  0.2942  0.3596 -0.6747
35830SOL     OW10382   2.916   6.770   9.236 -0.0591 -0.1902  0.0695
35830SOL    HW110383   2.870   6.853   9.224 -0.0897  0.0228  1.4477
35830SOL    HW210384   3.008   6.794   9.237 -0.0866 -0.0474  1.0942
35831SOL     OW10385   9.749   5.598   5.977 -0.2108  0.0073  0.0319
35831SOL    HW110386   9.743   5.503   5.971 -1.2637  0.0489  0.2101
35831SOL    HW210387   9.784   5.625   5.892  1.1795 -0.6039  0.3805
35832SOL     OW10388  10.005   8.175   1.488 -0.3281 -0.4424 -0.2690
35832SOL    HW110389  10.100   8.182   1.481 -0.3622 -0.1653 -0.4646
35832SOL    HW210390   9.990   8.147   1.578 -0.1497  1.7910  0.5301
35833SOL     OW10391   3.327   3.213   7.712 -0.1624  0.1275  0.0464
35833SOL    HW110392   3.284   3.284   7.759  2.5103  1.2886  0.9133
35833SOL    HW210393   3.418   3.218   7.739  0.5118 -2.4030 -1.4319
35834SOL     OW10394  10.005   1.847   7.642  0.2397 -0.2374 -0.1208
35834SOL    HW110395  10.021   1.933   7.681  0.1691 -0.8480  1.2939
35834SOL    HW210396   9.961   1.867   7.559  0.8556  1.1112 -0.1601
35835SOL     OW10397  10.708   9.360   9.623 -0.4342  0.0395  0.0121
35835SOL    HW110398  10.728   9.359   9.529 -0.9332 -1.9855 -0.1229
35835SOL    HW210399  10.712   9.268   9.649 -0.6347  0.5337  1.9213
35836SOL     OW10400   3.814   8.435   4.158  0.1409 -0.1275 -0.1602
35836SOL    HW110401   3.797   8.516   4.110 -0.4037  0.1007  0.4046
35836SOL    HW210402   3.869   8.462   4.232 -0.5486 -0.1626  0.3755
35837SOL     OW10403   8.595   2.690   9.722 -0.0162 -0.1582 -0.1642
35837SOL    HW110404   8.591   2.697   9.626 -2.0827  0.4483 -0.0806
35837SOL    HW210405   8.654   2.616   9.738  0.7805  0.0618 -1.8813
35838SOL     OW10406   3.052   4.551   4.546 -0.0553 -0.3061  0.1114
35838SOL    HW110407   3.017   4.618   4.487  0.3319  0.7470  1.0532
35838SOL    HW210408   3.132   4.522   4.503  1.1259  1.6579  0.8809
35839SOL     OW10409   7.717   2.799   7.664 -0.4347  0.1242  0.2959
35839SOL    HW110410   7.678   2.754   7.589 -0.7341 -0.2515  0.6739
35839SOL    HW210411   7.705   2.739   7.737  1.3402 -0.2580  0.3262
35840SOL     OW10412   9.036   4.519   8.084  0.7033  0.1776  0.0048
35840SOL    HW110413   9.037   4.526   8.180  0.3110  0.8152 -0.0320
35840SOL    HW210414   9.041   4.425   8.066  2.3716  0.1157  0.6292
35841SOL     OW10415   3.007   7.206   5.987  0.0224 -0.4993 -0.1257
35841SOL    HW110416   2.925   7.156   5.980  0.6960 -1.5739 -0.5396
35841SOL    HW210417   3.014   7.228   6.080 -1.2231  0.4749 -0.2351
35842SOL     OW10418   2.605   6.595   8.996  0.1138 -0.5349 -0.3458
35842SOL    HW110419   2.554   6.575   8.917  0.8658 -0.3978 -0.8730
35842SOL    HW210420   2.609   6.690   8.998 -0.6775 -0.5070  0.3692
35843SOL     OW10421   3.940   2.279   1.518 -0.3360  0.2435  0.1115
35843SOL    HW110422   3.932   2.209   1.583 -2.2162  0.8969  0.6432
35843SOL    HW210423   3.881   2.252   1.447 -2.7652  2.1536  1.2251
35844SOL     OW10424  10.371   1.296   6.531  0.0305 -0.3244  0.0191
35844SOL    HW110425  10.465   1.312   6.536 -0.1811  1.5799 -1.0041
35844SOL    HW210426  10.333   1.355   6.596 -0.4564 -1.4731  0.8127
35845SOL     OW10427   7.608   8.686   0.734 -0.3123 -0.1275  0.2310
35845SOL    HW110428   7.527   8.635   0.719 -0.2441  0.1624 -1.2340
35845SOL    HW210429   7.586   8.774   0.706  0.5402 -0.0681 -0.2738
35846SOL     OW10430  10.593   0.612   1.676 -0.2508  0.7449  0.2573
35846SOL    HW110431  10.609   0.551   1.747 -0.6079  2.6130  2.0549
35846SOL    HW210432  10.498   0.627   1.678 -0.2288  1.0192 -0.4370
35847SOL     OW10433   2.558   6.845   8.519 -0.1192  0.6924 -0.3720
35847SOL    HW110434   2.554   6.906   8.592  2.7232 -1.6635  2.0346
35847SOL    HW210435   2.543   6.759   8.560  0.8813 -0.6632 -2.6672
35848SOL     OW10436   3.002   7.069   3.979  0.0607  0.2696  0.3178
35848SOL    HW110437   3.092   7.086   4.008 -0.2405  0.5329  1.1183
35848SOL    HW210438   2.950   7.138   4.019 -0.1877  1.5616 -2.0790
35849SOL     OW10439   1.047   3.390   0.952 -0.5109  0.2972  0.1172
35849SOL    HW110440   1.124   3.341   0.924 -1.3914 -1.8879  1.2371
35849SOL    HW210441   0.982   3.322   0.973 -2.4641  2.0276 -0.0024
35850SOL     OW10442   2.401   3.894   9.861 -0.1766  0.6529 -0.3428
35850SOL    HW110443   2.336   3.903   9.931  1.4785  2.3675  1.1035
35850SOL    HW210444   2.464   3.831   9.896 -0.8547 -0.8013 -1.6238
35851SOL     OW10445   4.414   0.031   9.895 -0.0082  0.3010 -0.1794
35851SOL    HW110446   4.469   0.079   9.958 -0.5396  0.1299  0.4224
35851SOL    HW210447   4.327   0.070   9.905 -0.6090 -1.2098  0.7994
35852SOL     OW10448   4.818   8.359   6.878  0.1117  0.2402  0.2186
35852SOL    HW110449   4.866   8.378   6.959  0.7968  1.5127 -0.4583
35852SOL    HW210450   4.862   8.411   6.811 -2.1415  1.3986 -0.4672
35853SOL     OW10451   7.173   5.596   1.902 -0.1350  0.2422 -0.2497
35853SOL    HW110452   7.112   5.599   1.976  0.7524  2.0195  0.4751
35853SOL    HW210453   7.161   5.679   1.857  1.0727  0.2127 -0.6643
35854SOL     OW10454   2.666   7.869   3.997  0.4801  0.0533 -0.4520
35854SOL    HW110455   2.725   7.861   3.922  0.2392 -0.4993 -0.5870
35854SOL    HW210456   2.579   7.857   3.961  0.3320  0.1685 -0.1390
35855SOL     OW10457  10.323   3.983   9.966 -0.0879 -0.1712 -0.3161
35855SOL    HW110458  10.372   3.987  10.049 -1.6497  0.1575  0.6403
35855SOL    HW210459  10.234   3.959   9.992 -0.0605 -2.6205 -2.1882
35856SOL     OW10460   7.881   0.123   1.039  0.2751 -0.3026  0.4557
35856SOL    HW110461   7.832   0.059   0.989 -0.0431  0.0443  0.3215
35856SOL    HW210462   7.856   0.106   1.130 -1.6548  1.1441  0.2603
35857SOL     OW10463   6.910   9.162   2.266 -0.3275 -0.1290  0.4192
35857SOL    HW110464   6.929   9.254   2.250  0.0787 -0.4786 -1.3371
35857SOL    HW210465   6.818   9.161   2.292  0.0164  0.8764  1.7981
35858SOL     OW10466   3.501   6.691   1.665  0.3731  0.7075  0.1029
35858SOL    HW110467   3.513   6.662   1.756 -0.6225 -0.5309 -0.1262
35858SOL    HW210468   3.467   6.780   1.672  0.9312  0.8661  0.9200
35859SOL     OW10469   6.575   7.501   9.154  0.2921 -0.8939 -0.4948
35859SOL    HW110470   6.563   7.505   9.059 -1.2083 -1.2417 -0.3546
35859SOL    HW210471   6.546   7.413   9.177 -2.0130  0.0635  0.5753
35860SOL     OW10472   8.078   3.147   1.910 -0.4424 -0.7464 -0.1346
35860SOL    HW110473   8.085   3.150   1.814 -0.3479  0.3051 -0.1075
35860SOL    HW210474   8.113   3.061   1.934  0.3311 -0.6883 -0.9822
35861SOL     OW10475   2.126   8.644   1.518  0.1414 -0.1475  0.2518
35861SOL    HW110476   2.153   8.552   1.514 -2.0141 -0.8559  0.6115
35861SOL    HW210477   2.141   8.677   1.430 -0.1954 -1.2281 -0.2382
35862SOL     OW10478   9.197   5.599   2.566 -0.5167  0.3556  0.0054
35862SOL    HW110479   9.141   5.566   2.636  0.2626  1.1707  1.0502
35862SOL    HW210480   9.256   5.526   2.546  0.4511  0.6721  1.5011
35863SOL     OW10481  10.499   4.416   7.211  0.2892 -0.3795 -0.4558
35863SOL    HW110482  10.444   4.494   7.208 -0.3186 -0.7644  0.2211
35863SOL    HW210483  10.440   4.345   7.187  0.4462 -0.8191  0.4149
35864SOL     OW10484   1.238   5.258  10.522 -0.5279  0.5275  0.2387
35864SOL    HW110485   1.225   5.167  10.546 -1.0482  0.5396  0.0179
35864SOL    HW210486   1.189   5.307  10.588  0.8049  0.7145  1.1257
35865SOL     OW10487   7.722   0.605   4.541 -0.0639  0.2872  0.2133
35865SOL    HW110488   7.756   0.571   4.624  1.0203 -0.1748 -0.3988
35865SOL    HW210489   7.742   0.698   4.544 -1.6098  0.6328  1.2022
35866SOL     OW10490   9.860  10.516   7.630  0.0443 -0.1862 -0.0834
35866SOL    HW110491   9.800  10.443   7.642  0.1672 -0.0142  1.7999
35866SOL    HW210492   9.810  10.593   7.657  0.1808  0.3437 -1.2752
35867SOL     OW10493   6.315   3.111   3.361 -0.5642 -0.0396  0.1113
35867SOL    HW110494   6.223   3.137   3.353 -1.2792 -1.8193  1.6113
35867SOL    HW210495   6.359   3.155   3.289 -2.2759  2.1701  0.3123
35868SOL     OW10496   8.687   4.987   9.024 -0.0072 -0.4057  0.0269
35868SOL    HW110497   8.617   4.935   8.985 -0.2637  1.2106 -1.7650
35868SOL    HW210498   8.643   5.057   9.070  0.3968 -0.6644  0.8288
35869SOL     OW10499   7.245   5.958   2.710  0.5928  0.0121 -0.3551
35869SOL    HW110500   7.278   5.876   2.747 -1.7045 -0.8618 -0.0838
35869SOL    HW210501   7.281   6.026   2.766 -0.0832 -1.0519  1.4668
35870SOL     OW10502   1.828   8.247   3.118  0.0798  0.0757  0.2328
35870SOL    HW110503   1.737   8.216   3.113  1.2321 -3.7158  0.0013
35870SOL    HW210504   1.849   8.273   3.028  0.0253 -1.8539 -0.3874
35871SOL     OW10505   0.250   2.646   7.980 -0.0300 -0.5065  0.2919
35871SOL    HW110506   0.224   2.735   8.003  1.8751 -0.3647  2.1240
35871SOL    HW210507   0.339   2.637   8.013  1.6592 -1.5833 -3.9065
35872SOL     OW10508   9.536   4.362  10.180  0.3139  0.1193  0.7729
35872SOL    HW110509   9.548   4.393  10.270  1.3417 -1.7741  1.3507
35872SOL    HW210510   9.473   4.289  10.188 -0.0317  0.3096 -0.1340
35873SOL     OW10511   7.219   0.598   9.263 -0.0284  0.2862  0.2577
35873SOL    HW110512   7.230   0.680   9.215 -1.7607  0.3125 -0.1693
35873SOL    HW210513   7.249   0.531   9.202  2.2341  0.6187  0.9353
35874SOL     OW10514  10.136   8.692   1.451  0.3903  0.5946  0.2873
35874SOL    HW110515  10.184   8.765   1.413  2.1070 -0.6227 -0.0071
35874SOL    HW210516  10.125   8.716   1.543 -0.2035  1.7678 -0.0733
35875SOL     OW10517   9.765   3.168   6.809 -0.2278 -0.0070  0.2063
35875SOL    HW110518   9.683   3.213   6.830 -0.5985 -0.4852 -0.1935
35875SOL    HW210519   9.833   3.223   6.847 -0.7238  0.4908  0.3819
35876SOL     OW10520   0.157   3.472   1.426  0.1345  0.0129 -0.2120
35876SOL    HW110521   0.167   3.540   1.492 -0.7070 -0.5767  0.5357
35876SOL    HW210522   0.099   3.407   1.465  0.1886 -0.7045 -1.2549
35877SOL     OW10523   9.045   6.719   2.268 -0.3913  0.0111 -0.5696
35877SOL    HW110524   8.977   6.657   2.293  0.6513 -0.5091  1.1350
35877SOL    HW210525   9.098   6.730   2.347 -0.6792  3.3026 -0.6944
35878SOL     OW10526   7.410   2.998   2.775  0.4027 -0.4704 -0.2889
35878SOL    HW110527   7.359   3.077   2.758  0.2311 -0.6009 -0.3840
35878SOL    HW210528   7.471   2.991   2.702  0.1191 -0.6645 -0.5114
35879SOL     OW10529   7.256   3.270   9.254  0.2921  0.1271 -0.2176
35879SOL    HW110530   7.339   3.309   9.225 -0.1671  0.6361 -0.8572
35879SOL    HW210531   7.267   3.176   9.238  1.0937  0.0663  0.5806
35880SOL     OW10532   8.996   9.480   1.092 -0.5270 -0.4361  0.3200
35880SOL    HW110533   9.076   9.428   1.083  0.3515  1.1343 -2.3723
35880SOL    HW210534   8.935   9.424   1.140  1.8900 -2.0055  1.7380
35881SOL     OW10535   5.497   0.393   6.847 -0.1809 -0.4812 -0.0622
35881SOL    HW110536   5.530   0.440   6.924 -0.7875  0.2064 -0.2043
35881SOL    HW210537   5.429   0.335   6.882  0.4753 -1.1677  0.0954
35882SOL     OW10538   0.519   9.986   8.685 -0.3247 -0.5162 -0.4342
35882SOL    HW110539   0.447   9.993   8.748 -1.1303 -0.0064 -1.3766
35882SOL    HW210540   0.500   9.906   8.636 -0.3647 -0.2899 -0.7978
35883SOL     OW10541   4.883   2.594   7.406 -0.8667  0.2552  0.0247
35883SOL    HW110542   4.863   2.519   7.349  0.0930  0.9383 -1.2610
35883SOL    HW210543   4.912   2.663   7.346 -2.3452  1.9083  1.0948
35884SOL     OW10544   3.228   7.841   6.251  0.2082  0.0429 -0.3951
35884SOL    HW110545   3.257   7.932   6.256  2.9037 -0.7951  1.7731
35884SOL    HW210546   3.172   7.838   6.173  0.2210  3.4585 -0.6837
35885SOL     OW10547   1.054   8.963   0.638  0.3623  0.5292  0.0085
35885SOL    HW110548   1.088   9.052   0.653  0.7025  0.0823  2.2470
35885SOL    HW210549   1.104   8.909   0.699 -0.2929 -1.1199 -0.8788
35886SOL     OW10550   0.754   2.624   0.600 -0.8161  0.2542 -0.1325
35886SOL    HW110551   0.689   2.635   0.531  0.3378 -0.2362 -1.3400
35886SOL    HW210552   0.742   2.534   0.630 -1.7417  0.6623  0.7889
35887SOL     OW10553   1.434   0.832   3.912  0.6882  0.2542  0.1451
35887SOL    HW110554   1.451   0.830   4.006  0.3186  0.9690  0.2377
35887SOL    HW210555   1.488   0.904   3.879  0.9691 -0.1214 -0.2212
35888SOL     OW10556   5.744   6.955   5.035  0.1755 -0.2821 -0.0009
35888SOL    HW110557   5.717   6.969   5.125 -1.7074 -0.2610 -0.5202
35888SOL    HW210558   5.744   6.859   5.025 -0.3254 -0.2636 -0.1758
35889SOL     OW10559   1.949   6.487   6.336  0.3766  0.2336  0.0149
35889SOL    HW110560   1.920   6.533   6.415 -0.7421 -1.6474  0.7628
35889SOL    HW210561   1.871   6.487   6.280  0.6473  0.0496 -0.3595
35890SOL     OW10562   2.036   9.838   0.814  0.0193 -0.1954  0.5215
35890SOL    HW110563   2.010   9.747   0.804  0.0200 -0.0717 -0.7390
35890SOL    HW210564   2.102   9.852   0.746 -0.2789  0.8426  0.4266
35891SOL     OW10565  10.354   7.384   9.026  0.0501 -0.0166  0.0314
35891SOL    HW110566  10.341   7.455   9.089 -1.7585 -1.3536  1.3004
35891SOL    HW210567  10.402   7.318   9.075  1.1994  0.0566 -0.9513
35892SOL     OW10568   8.763   2.794   2.442 -0.2525 -0.7975 -0.0928
35892SOL    HW110569   8.783   2.772   2.351 -1.2474 -2.3933  0.0349
35892SOL    HW210570   8.810   2.875   2.458 -1.0943  0.2502 -2.4442
35893SOL     OW10571  10.114   8.832   4.491  0.1705 -0.2426  0.4870
35893SOL    HW110572  10.170   8.760   4.462 -0.7954 -0.6385 -0.4543
35893SOL    HW210573  10.108   8.890   4.415 -1.5200 -0.7422  0.1863
35894SOL     OW10574   4.679   3.769   5.932 -0.3830 -0.1100  0.6400
35894SOL    HW110575   4.666   3.711   6.007 -1.3292  1.2655  1.5984
35894SOL    HW210576   4.590   3.785   5.899  0.0029 -0.5255 -0.6673
35895SOL     OW10577   5.551   0.704   8.490  0.0457 -0.3533 -0.3871
35895SOL    HW110578   5.611   0.645   8.442  1.4210  2.3998 -2.3090
35895SOL    HW210579   5.525   0.769   8.425 -3.0023  0.1028  1.1446
35896SOL     OW10580   6.563   7.006   0.399  0.2122 -0.5626 -0.3432
35896SOL    HW110581   6.642   7.061   0.399 -0.9173  1.1231 -0.4429
35896SOL    HW210582   6.590   6.927   0.446  1.4776  0.7267  1.2550
35897SOL     OW10583  10.666   7.636   5.941  0.3485  0.0132 -0.2933
35897SOL    HW110584  10.639   7.692   6.015  0.8213  0.1489 -0.2169
35897SOL    HW210585  10.594   7.575   5.930  0.3992 -0.2051  0.4842
35898SOL     OW10586   3.197   9.850   9.981  0.2683 -0.0150 -0.3349
35898SOL    HW110587   3.240   9.786   9.926  0.3162 -0.6607  0.4354
35898SOL    HW210588   3.148   9.798  10.045 -0.9746  0.7105 -0.6786
35899SOL     OW10589   8.274   8.730   2.306  0.0374 -0.4594 -0.0018
35899SOL    HW110590   8.323   8.811   2.321  0.7555 -1.1844  1.8796
35899SOL    HW210591   8.200   8.734   2.367 -1.4536 -0.0698 -1.7534
35900SOL     OW10592  10.000   1.815   1.289  0.1617 -0.5444 -0.4572
35900SOL    HW110593   9.905   1.812   1.302  0.3002  0.5735  1.1835
35900SOL    HW210594  10.032   1.733   1.329 -0.1935 -1.6653 -2.3658
35901SOL     OW10595   0.623   7.911   0.318 -0.2962  0.3422  0.1319
35901SOL    HW110596   0.708   7.954   0.319 -0.1390  0.1001 -1.0717
35901SOL    HW210597   0.632   7.837   0.377  0.5373 -0.0428 -0.4609
35902SOL     OW10598   4.416   5.781   9.507 -0.6533  0.0463  0.5581
35902SOL    HW110599   4.400   5.875   9.498  0.5503  0.3376  1.3633
35902SOL    HW210600   4.362   5.755   9.581 -1.0862  0.0582  0.2562
35903SOL     OW10601   5.394   0.784   9.737  0.2229  0.7044 -0.6042
35903SOL    HW110602   5.328   0.833   9.786  0.9444  1.0803  0.0233
35903SOL    HW210603   5.344   0.725   9.681 -0.6385  0.7199  0.1240
35904SOL     OW10604   8.245   3.097   8.947 -0.1140 -0.6587 -0.3423
35904SOL    HW110605   8.170   3.116   9.003  0.5733 -0.8205  0.6666
35904SOL    HW210606   8.207   3.064   8.866 -1.2141  1.7484 -0.8826
35905SOL     OW10607   5.370   8.366   4.159  0.0462 -0.5011  0.1667
35905SOL    HW110608   5.347   8.426   4.230 -0.3211  0.3959 -0.6851
35905SOL    HW210609   5.461   8.386   4.139 -0.3247  0.4148 -0.6977
35906SOL     OW10610   6.285   0.899   6.659  0.1840  0.2552 -0.2707
35906SOL    HW110611   6.292   0.873   6.751 -0.3305  2.1110  0.3334
35906SOL    HW210612   6.350   0.969   6.649 -0.8453  1.1528 -0.8800
35907SOL     OW10613   8.323   7.581   5.417  0.5991 -0.2779  0.4645
35907SOL    HW110614   8.305   7.675   5.416  0.0538 -0.3773 -0.5727
35907SOL    HW210615   8.416   7.574   5.395  0.5570  0.0053  0.1884
35908SOL     OW10616   9.995   9.825   8.565 -0.1988 -0.4616  0.0507
35908SOL    HW110617  10.033   9.749   8.608  0.3482 -0.3982 -0.3122
35908SOL    HW210618  10.062   9.893   8.571 -0.3295 -0.2860 -0.4168
35909SOL     OW10619   4.056   4.203   6.324 -0.2984 -0.2430 -0.4088
35909SOL    HW110620   4.023   4.269   6.384  1.6062  0.7131 -0.3645
35909SOL    HW210621   4.093   4.135   6.380 -0.1833 -0.2407 -0.4807
35910SOL     OW10622   7.302   7.111   8.620  0.3366 -0.0579 -0.1106
35910SOL    HW110623   7.273   7.202   8.619 -1.3562 -0.5545  0.1514
35910SOL    HW210624   7.331   7.094   8.531  2.0138  1.1101  0.1702
35911SOL     OW10625   2.352   8.829  10.634 -0.7762  0.0190 -0.2102
35911SOL    HW110626   2.422   8.857  10.693 -1.8045  0.3721  0.8801
35911SOL    HW210627   2.285   8.897  10.643 -1.5096 -0.6221 -0.7657
35912SOL     OW10628   7.864   9.053   3.509 -0.3147 -0.3227 -0.0761
35912SOL    HW110629   7.933   9.119   3.508 -0.5942  0.0152  1.1175
35912SOL    HW210630   7.785   9.100   3.482  0.1333 -1.0539 -3.0415
35913SOL     OW10631   4.635   1.596   6.082  0.1954  0.0772  0.4168
35913SOL    HW110632   4.577   1.671   6.093  0.6043  0.2640  1.4792
35913SOL    HW210633   4.696   1.602   6.156  1.2927 -0.3568 -0.4336
35914SOL     OW10634   1.648   9.452  10.270  0.2123  0.3222 -0.5037
35914SOL    HW110635   1.691   9.371  10.241 -1.6032 -0.5749 -0.7949
35914SOL    HW210636   1.570   9.458  10.216  0.8213  2.8637 -1.2088
35915SOL     OW10637   4.994   6.271   7.625 -0.3905 -0.7208 -0.1251
35915SOL    HW110638   5.068   6.331   7.610  0.3843 -0.7058  3.0013
35915SOL    HW210639   4.916   6.324   7.607  0.2776  1.3139  2.3283
35916SOL     OW10640   3.442   8.772   0.968  0.1985 -0.8523  0.2753
35916SOL    HW110641   3.347   8.765   0.967 -0.0238  1.3910 -0.4723
35916SOL    HW210642   3.462   8.837   0.900  2.0726  0.3169  1.8286
35917SOL     OW10643   9.577   0.940   2.260  0.1095 -0.5073  0.3368
35917SOL    HW110644   9.608   0.864   2.211 -0.0822  0.3919 -1.2320
35917SOL    HW210645   9.482   0.940   2.246  0.2916  0.9384 -1.0789
35918SOL     OW10646   1.702  10.742   9.250 -0.1911 -0.0995 -0.1158
35918SOL    HW110647   1.694  10.792   9.169 -2.4215 -0.1366  0.0314
35918SOL    HW210648   1.683  10.806   9.319  0.8325 -0.2746  0.3419
35919SOL     OW10649   1.038   5.424  10.656 -0.4375  0.2044 -0.1755
35919SOL    HW110650   1.104   5.482  10.694 -2.2655  1.1864  1.7111
35919SOL    HW210651   0.955   5.463  10.682 -1.8418 -0.3068 -3.4588
35920SOL     OW10652   5.695   1.717   3.944 -0.1076  0.8461  0.4325
35920SOL    HW110653   5.770   1.772   3.966  0.1137  0.4723  0.6229
35920SOL    HW210654   5.700   1.705   3.849 -1.1906  2.6520  0.0974
35921SOL     OW10655   8.504  10.547  10.688  0.1744 -0.2967 -0.5372
35921SOL    HW110656   8.558  10.470  10.707 -0.5608 -1.0382 -1.3502
35921SOL    HW210657   8.415  10.513  10.688 -0.2630  0.8111  0.2659
35922SOL     OW10658   0.623   4.582   2.146 -0.4400 -0.0735 -0.1724
35922SOL    HW110659   0.530   4.575   2.122  0.1304  0.3279 -2.7958
35922SOL    HW210660   0.631   4.670   2.183 -1.1169 -0.1671  0.2208
35923SOL     OW10661   4.108   5.363   7.764  0.1994 -0.1786 -0.4429
35923SOL    HW110662   4.116   5.270   7.781 -1.6398 -0.5772 -1.5434
35923SOL    HW210663   4.048   5.370   7.690 -0.2003  1.8919 -0.0109
35924SOL     OW10664   5.249   8.968   1.594 -0.3723  0.4574  0.0256
35924SOL    HW110665   5.219   8.959   1.684  1.4054 -0.0663  0.5879
35924SOL    HW210666   5.289   9.055   1.590  1.2452 -0.2358  0.2951
35925SOL     OW10667   7.678  10.105  10.307 -0.4621 -0.1386 -0.8039
35925SOL    HW110668   7.615  10.171  10.335  0.1335  0.2808 -0.4231
35925SOL    HW210669   7.746  10.155  10.261  0.2182 -0.4231 -0.1267
35926SOL     OW10670  10.457   5.766   7.315  0.3655 -0.0250 -0.2453
35926SOL    HW110671  10.510   5.686   7.310  0.4770  0.1219 -2.6384
35926SOL    HW210672  10.468   5.807   7.229 -0.5918  2.0046  0.5405
35927SOL     OW10673   0.296   3.099   8.989 -0.0959  0.0616 -0.1707
35927SOL    HW110674   0.288   3.005   9.006 -0.2690  0.1407  0.1874
35927SOL    HW210675   0.233   3.116   8.918 -0.9604  0.1271  0.5915
35928SOL     OW10676   5.239   1.848   5.589  0.2487  0.4506 -0.4021
35928SOL    HW110677   5.263   1.838   5.497  0.1997  0.6017 -0.4309
35928SOL    HW210678   5.320   1.873   5.633  0.0604  1.4017 -0.5699
35929SOL     OW10679   8.992   4.487   6.811 -0.0947 -0.0057  0.0773
35929SOL    HW110680   9.056   4.461   6.745 -0.7630 -0.7924 -0.2694
35929SOL    HW210681   9.025   4.571   6.844 -0.0546  0.7124 -1.6823
35930SOL     OW10682   9.124   1.295   3.842  0.6060  0.5795 -0.6781
35930SOL    HW110683   9.076   1.329   3.917  0.5639 -0.1514 -0.3625
35930SOL    HW210684   9.065   1.229   3.803  2.1000 -1.8622  0.9486
35931SOL     OW10685   0.297   8.214   6.072 -0.1096 -0.3090 -0.5289
35931SOL    HW110686   0.259   8.300   6.092  2.8867  1.7660 -2.7437
35931SOL    HW210687   0.345   8.190   6.152  0.6797  1.1375 -0.5328
35932SOL     OW10688   2.505   7.249   1.175  0.8200 -0.2096 -0.4378
35932SOL    HW110689   2.540   7.325   1.128 -0.4184  0.3252 -0.5501
35932SOL    HW210690   2.534   7.173   1.124  2.3026  0.1622 -0.1702
35933SOL     OW10691   6.881   6.075   5.414 -0.1032 -0.0922  0.4397
35933SOL    HW110692   6.863   5.999   5.358  1.8321 -0.2246 -0.0930
35933SOL    HW210693   6.903   6.145   5.352  0.7958  0.1170  0.9798
35934SOL     OW10694   0.262   5.759   2.621 -0.2163 -0.3780 -0.1875
35934SOL    HW110695   0.221   5.808   2.692 -1.6398  1.1940 -1.9717
35934SOL    HW210696   0.336   5.714   2.662  0.4962  2.3635  1.8318
35935SOL     OW10697   4.628   5.652   5.762  0.0679 -0.0244  0.0735
35935SOL    HW110698   4.588   5.719   5.818 -0.5990 -0.0174 -0.4000
35935SOL    HW210699   4.559   5.586   5.751 -0.1158  0.3732 -1.4004
35936SOL     OW10700   0.590   3.661   1.425 -0.7016 -0.5185 -0.0972
35936SOL    HW110701   0.681   3.633   1.424 -1.0495 -1.9140  1.7545
35936SOL    HW210702   0.579   3.708   1.507 -1.7692 -0.8949 -0.0018
35937SOL     OW10703   1.741   0.004   3.928  0.2959 -0.0216  0.0731
35937SOL    HW110704   1.796   0.065   3.878 -0.4110 -0.1189 -0.8567
35937SOL    HW210705   1.657   0.005   3.883  0.5759 -2.5210 -0.6759
35938SOL     OW10706   0.463   8.388   3.890 -0.5743 -0.1004  0.1196
35938SOL    HW110707   0.422   8.329   3.826 -1.8553  0.9541 -0.0732
35938SOL    HW210708   0.428   8.474   3.869  0.1642  0.5152  1.3029
35939SOL     OW10709   4.779   0.703   5.314 -0.3735  0.0644 -0.4014
35939SOL    HW110710   4.779   0.609   5.328 -3.3436 -0.0507 -0.5416
35939SOL    HW210711   4.870   0.725   5.295  0.3306 -2.7970 -0.7057
35940SOL     OW10712   3.155   8.217   0.187  0.4352  0.0157  0.1594
35940SOL    HW110713   3.063   8.191   0.191  0.2181  0.4737 -1.1358
35940SOL    HW210714   3.179   8.204   0.095  1.8121 -0.5563  0.5817
35941SOL     OW10715   7.125  10.793   3.456  0.0060  0.1113 -0.2584
35941SOL    HW110716   7.080  10.833   3.529 -0.5272 -0.5785 -0.2018
35941SOL    HW210717   7.168  10.866   3.411  0.6762  0.4898  0.9595
35942SOL     OW10718   1.506   9.657   4.131  0.2657  0.1623  0.1183
35942SOL    HW110719   1.509   9.670   4.225 -0.1844 -0.5477  0.2437
35942SOL    HW210720   1.560   9.727   4.094  0.1168  0.6793  0.8757
35943SOL     OW10721   8.322   1.626   8.465  0.7208 -0.8479 -0.0734
35943SOL    HW110722   8.266   1.606   8.540 -2.0693  1.3727 -1.3936
35943SOL    HW210723   8.389   1.558   8.467 -0.2254 -1.8945  3.3877
35944SOL     OW10724   7.928  10.491   3.164  0.0889  0.0204 -0.4600
35944SOL    HW110725   7.992  10.486   3.235 -1.7655 -0.1653  1.2782
35944SOL    HW210726   7.944  10.411   3.113 -0.0362 -1.0808  1.1231
35945SOL     OW10727   0.074   0.068   9.747 -0.5816 -0.7951  0.0383
35945SOL    HW110728   0.118   0.050   9.831 -0.3401 -0.7842 -0.0844
35945SOL    HW210729   0.105   0.155   9.722  0.0552 -1.1704 -0.5042
35946SOL     OW10730   4.402   1.030   7.975  0.0579  0.6176  0.1376
35946SOL    HW110731   4.451   1.094   7.924  0.2230  0.6035  0.2802
35946SOL    HW210732   4.324   1.013   7.922  0.7741 -0.2555 -0.6661
35947SOL     OW10733   1.347   5.994  10.486 -0.4308  0.1991 -0.2156
35947SOL    HW110734   1.423   5.935  10.484 -2.2319 -2.2937  0.6130
35947SOL    HW210735   1.321   5.996  10.578 -1.3693  1.0659 -0.4824
35948SOL     OW10736   9.605   1.498   8.896 -0.1663 -0.0072 -0.1287
35948SOL    HW110737   9.606   1.402   8.890  0.3164  0.0212 -0.6497
35948SOL    HW210738   9.543   1.526   8.829 -0.7362  0.0298  0.4039
35949SOL     OW10739   2.049   0.687   0.376 -0.0034 -0.4812 -0.0983
35949SOL    HW110740   2.100   0.665   0.298  2.1479  1.4338  0.6502
35949SOL    HW210741   2.084   0.630   0.444  1.4627  1.0107  0.4769
35950SOL     OW10742   5.977   9.213   4.518 -0.4010  0.2083  0.1008
35950SOL    HW110743   6.035   9.276   4.561  0.0467 -0.5953  0.7012
35950SOL    HW210744   5.889   9.242   4.540 -0.1833  0.1348  1.0976
35951SOL     OW10745   8.793   9.332   2.509 -0.5968  0.1597  0.1347
35951SOL    HW110746   8.773   9.379   2.590 -2.4129 -0.2224 -0.0301
35951SOL    HW210747   8.756   9.387   2.439  0.3948  0.1836 -0.3857
35952SOL     OW10748   4.544   6.222   1.734 -0.1063  0.1620 -0.1718
35952SOL    HW110749   4.486   6.200   1.661  2.0975 -0.9078 -1.6957
35952SOL    HW210750   4.542   6.318   1.738  0.1189  0.2594 -1.9689
35953SOL     OW10751   3.922   8.430   6.347  0.3335  0.2670  0.0432
35953SOL    HW110752   3.946   8.394   6.433  1.5855  1.3054  0.1545
35953SOL    HW210753   3.942   8.523   6.354 -1.0014  0.6538 -0.8896
35954SOL     OW10754   4.647   4.686   1.111  0.0724 -0.3060 -0.0938
35954SOL    HW110755   4.561   4.726   1.123  0.1596 -0.1331 -0.0356
35954SOL    HW210756   4.633   4.615   1.048 -0.2830 -0.8607  0.6029
35955SOL     OW10757  10.723   1.188  10.201 -0.0128  0.2002  0.0214
35955SOL    HW110758  10.809   1.147  10.211  0.4605  0.8538 -1.1251
35955SOL    HW210759  10.674   1.128  10.145 -0.1817  0.0060  0.3745
35956SOL     OW10760   2.578   7.197   0.465 -0.3457  0.3498 -0.3463
35956SOL    HW110761   2.544   7.257   0.399 -0.7283  0.8857  0.3237
35956SOL    HW210762   2.502   7.174   0.518 -0.3521 -1.3263 -1.0290
35957SOL     OW10763   8.921   7.260   6.413  0.4019 -0.0748  0.2091
35957SOL    HW110764   8.882   7.305   6.338  0.0347  1.3407  1.2104
35957SOL    HW210765   8.940   7.330   6.475  0.8405 -1.2064  1.3834
35958SOL     OW10766   6.553   0.820   9.252 -0.1202 -0.3072  0.8927
35958SOL    HW110767   6.594   0.772   9.324 -0.0648  0.1413  1.1628
35958SOL    HW210768   6.575   0.770   9.174 -1.5431 -1.7286  1.3379
35959SOL     OW10769   9.950   9.771   5.110  0.1189  0.5661 -0.6606
35959SOL    HW110770   9.918   9.840   5.053 -2.3583  1.9191  2.0963
35959SOL    HW210771   9.933   9.690   5.062 -0.1884  1.6710 -2.5209
35960SOL     OW10772   6.729  10.675   4.966 -0.2095 -0.2976  0.6246
35960SOL    HW110773   6.761  10.755   5.008  1.9393 -0.2451 -0.9104
35960SOL    HW210774   6.691  10.705   4.884  1.6450 -0.8520 -0.5057
35961SOL     OW10775   7.005   4.575   9.937  0.8623 -0.3652 -0.3062
35961SOL    HW110776   7.031   4.562  10.028 -0.8745 -1.3526  0.0943
35961SOL    HW210777   7.057   4.650   9.908  1.2306  0.1751  1.5871
35962SOL     OW10778   9.620   7.933   1.281  0.1420  0.2469 -0.1191
35962SOL    HW110779   9.700   7.932   1.228 -0.2068 -0.0879 -0.6503
35962SOL    HW210780   9.628   8.012   1.334  0.1295  1.0470 -1.2512
35963SOL     OW10781   8.977   8.017   8.229 -0.3810  0.1970 -0.1548
35963SOL    HW110782   8.979   7.966   8.310  0.3314  1.0303  0.3813
35963SOL    HW210783   8.982   8.108   8.258  0.4251  0.4937 -1.1478
35964SOL     OW10784  10.117   6.211   0.929  0.1516  0.0356  0.3240
35964SOL    HW110785  10.121   6.277   0.859 -2.6569 -0.2207 -0.1923
35964SOL    HW210786  10.032   6.225   0.970 -0.0529 -2.5390  0.9403
35965SOL     OW10787   5.683   2.181  10.051  0.3146 -0.3984  0.6990
35965SOL    HW110788   5.609   2.226  10.010  0.1019 -0.8781  0.5496
35965SOL    HW210789   5.760   2.212  10.003  0.3444  0.9188  1.5378
35966SOL     OW10790   1.410   2.462   7.252  0.1994 -0.9368 -0.1468
35966SOL    HW110791   1.413   2.367   7.264 -0.2579 -1.0623 -0.9010
35966SOL    HW210792   1.337   2.475   7.191  1.7133 -0.3282 -1.9343
35967SOL     OW10793   9.209   5.696   4.817  0.5104 -0.0917 -0.0689
35967SOL    HW110794   9.119   5.685   4.789  0.0750  0.0056  1.2050
35967SOL    HW210795   9.262   5.663   4.744 -0.5011  1.1953 -1.4199
35968SOL     OW10796   5.501   5.557   1.410 -0.0335 -0.1188  0.4916
35968SOL    HW110797   5.444   5.493   1.368  0.5426  0.6609 -1.6516
35968SOL    HW210798   5.568   5.577   1.343  1.6880  0.3264  2.2405
35969SOL     OW10799   9.116   1.225   7.399 -0.4374 -0.2043 -0.1909
35969SOL    HW110800   9.153   1.193   7.481  0.0012 -0.1401 -0.3594
35969SOL    HW210801   9.190   1.224   7.338 -0.6873  0.0572 -0.4982
35970SOL     OW10802   3.870   8.134   4.831 -0.0486  0.3188 -0.8182
35970SOL    HW110803   3.896   8.192   4.902  0.4756 -0.1064 -0.6547
35970SOL    HW210804   3.784   8.100   4.858  0.8959 -1.1971  0.4798
35971SOL     OW10805  10.444   4.752  10.227  0.3772 -0.2120  0.3959
35971SOL    HW110806  10.435   4.692  10.301 -0.3524  0.8526  1.1884
35971SOL    HW210807  10.393   4.711  10.157 -1.9437  0.4734  1.5789
35972SOL     OW10808   4.377   7.522   3.672  0.3052  0.0081  0.0137
35972SOL    HW110809   4.324   7.487   3.743  0.6762  0.7982  0.7065
35972SOL    HW210810   4.317   7.529   3.598 -0.0248 -1.0781  0.1586
35973SOL     OW10811   0.100   5.488   0.553 -0.3605 -0.1538  0.6760
35973SOL    HW110812   0.069   5.485   0.462 -0.1281 -0.9707  0.6229
35973SOL    HW210813   0.189   5.453   0.550  1.1489  3.2529  0.6344
35974SOL     OW10814   9.006   7.602   4.397  0.1041 -0.2817 -0.4265
35974SOL    HW110815   8.985   7.625   4.307 -1.2374 -1.2054 -0.3681
35974SOL    HW210816   9.074   7.665   4.422  1.5803 -0.9305 -2.5402
35975SOL     OW10817   9.306   5.511   8.514 -0.1582  0.2850  0.3101
35975SOL    HW110818   9.330   5.482   8.426 -0.8885  1.6293 -0.3699
35975SOL    HW210819   9.390   5.527   8.558  0.2420 -1.6490  0.3447
35976SOL     OW10820   4.854   2.589   4.127  0.1217  0.9717  0.2231
35976SOL    HW110821   4.916   2.538   4.180  0.3864  0.3066 -0.7082
35976SOL    HW210822   4.837   2.668   4.179 -0.0887  0.0629  1.5653
35977SOL     OW10823   2.615   8.891   4.874 -0.4458 -0.4565  0.5344
35977SOL    HW110824   2.639   8.803   4.846  1.6960  0.3906 -0.5107
35977SOL    HW210825   2.520   8.894   4.862 -0.3676 -2.1029 -0.9810
35978SOL     OW10826   6.874  10.703   0.447 -0.0962  0.1725  0.1132
35978SOL    HW110827   6.967  10.701   0.426  0.2894  0.4036  1.6423
35978SOL    HW210828   6.851  10.796   0.446  0.0383  0.2287  1.0474
35979SOL     OW10829   3.830   4.265  10.145  0.1016 -0.4227 -0.2043
35979SOL    HW110830   3.896   4.273  10.075 -0.5848 -1.2241 -0.9743
35979SOL    HW210831   3.746   4.268  10.099 -0.3866 -0.0394  0.6992
35980SOL     OW10832   7.399   2.056   2.773 -0.0513 -0.7633  0.1545
35980SOL    HW110833   7.306   2.078   2.784  0.4447  0.9379  1.2046
35980SOL    HW210834   7.410   2.049   2.678 -0.9292  0.5576 -0.0761
35981SOL     OW10835   8.691   5.486   0.371 -0.2653 -0.1884  0.0361
35981SOL    HW110836   8.669   5.486   0.278 -1.3213 -2.1201  0.2405
35981SOL    HW210837   8.722   5.397   0.389  0.9532  0.4512  1.3283
35982SOL     OW10838   0.890  10.478   7.093 -0.4995 -0.0748  0.2617
35982SOL    HW110839   0.949  10.513   7.160 -1.4594 -1.4819  1.9420
35982SOL    HW210840   0.948  10.437   7.029  0.4363  0.9268  0.4431
35983SOL     OW10841   3.433   6.309   5.864  0.1399  0.6612 -0.3758
35983SOL    HW110842   3.469   6.343   5.946 -2.5034  1.1645  0.6851
35983SOL    HW210843   3.338   6.322   5.872 -0.3149 -0.2780 -3.0741
35984SOL     OW10844   1.378   4.249   1.079 -0.0566 -0.6634 -0.2471
35984SOL    HW110845   1.372   4.307   1.003  2.8340  1.0942  0.7011
35984SOL    HW210846   1.407   4.166   1.043  2.0108  0.3495 -1.1371
35985SOL     OW10847   6.886   5.808   3.976 -0.0753  0.1191  0.5175
35985SOL    HW110848   6.791   5.797   3.980 -0.2191  1.2575  0.6222
35985SOL    HW210849   6.906   5.803   3.883 -0.1789 -0.5327  0.5263
35986SOL     OW10850   3.658   7.452  10.327 -0.1970  0.2727  0.6144
35986SOL    HW110851   3.632   7.488  10.412  1.1415  0.9839  0.7620
35986SOL    HW210852   3.668   7.529  10.271  2.2184  0.1537  0.7843
35987SOL     OW10853   3.081  10.560   2.559  0.1859 -0.4578 -0.3879
35987SOL    HW110854   3.053  10.651   2.571 -0.1192 -0.7132  0.9922
35987SOL    HW210855   3.143  10.545   2.631  1.2058 -0.9735 -1.3500
35988SOL     OW10856   3.947   5.737  10.458  0.0275  0.5569 -0.2581
35988SOL    HW110857   3.864   5.765  10.497 -0.1421  0.0476 -0.2501
35988SOL    HW210858   4.010   5.743  10.530  0.2651  2.1052 -0.5622
35989SOL     OW10859   4.866   0.682   9.571  0.4398  0.3514  0.3985
35989SOL    HW110860   4.780   0.646   9.591  0.1035  0.5476 -0.6202
35989SOL    HW210861   4.879   0.663   9.478  1.6694 -0.0228  0.6250
35990SOL     OW10862   0.785   4.743   8.828 -0.0945 -0.1328  0.3977
35990SOL    HW110863   0.807   4.758   8.920  0.4710 -1.0215  0.4181
35990SOL    HW210864   0.846   4.798   8.779  1.7495 -1.9992  0.4775
35991SOL     OW10865   0.389   4.028   1.792  1.0184  0.0193 -0.0180
35991SOL    HW110866   0.356   4.005   1.706 -0.3661 -1.6019  0.8857
35991SOL    HW210867   0.484   4.035   1.780  0.7181  1.6110 -2.0067
35992SOL     OW10868   6.289   4.553   2.801 -0.0981  0.1264  0.4847
35992SOL    HW110869   6.339   4.518   2.727 -0.4957  0.0617  0.2442
35992SOL    HW210870   6.198   4.542   2.775 -0.2326  0.6428  0.7369
35993SOL     OW10871   9.049  10.672   8.367 -0.0428 -0.3826 -0.3704
35993SOL    HW110872   8.972  10.673   8.424 -0.5721  1.0197 -1.0749
35993SOL    HW210873   9.076  10.580   8.365  0.6523 -0.3748  2.9689
35994SOL     OW10874   3.336   4.834   6.244 -0.0588  0.2938 -0.0789
35994SOL    HW110875   3.306   4.784   6.320 -0.9181  2.0010  0.7542
35994SOL    HW210876   3.357   4.767   6.178 -0.7558 -1.1625  1.1176
35995SOL     OW10877   6.412   8.178   3.510 -0.4064 -0.5724 -0.0493
35995SOL    HW110878   6.394   8.171   3.603  0.4228 -3.0262 -0.0052
35995SOL    HW210879   6.462   8.260   3.501 -1.1702  0.1031  1.4959
35996SOL     OW10880   0.345   3.326   8.812  0.5474  0.0890  0.2021
35996SOL    HW110881   0.352   3.308   8.718  0.7802  0.2405  0.1910
35996SOL    HW210882   0.325   3.241   8.851 -2.2613  0.4305 -0.2585
35997SOL     OW10883   0.669  10.214   6.392 -0.1437  0.2446  0.4006
35997SOL    HW110884   0.577  10.235   6.410 -0.1665  1.3174 -0.8712
35997SOL    HW210885   0.716  10.248   6.468 -0.4844  2.5887 -0.3506
35998SOL     OW10886   4.273   4.859   4.065 -0.1158 -0.3138  0.8349
35998SOL    HW110887   4.233   4.850   3.979 -0.1355 -1.7142  0.9579
35998SOL    HW210888   4.201   4.885   4.123 -0.3305 -0.4425  0.6260
35999SOL     OW10889   3.452   5.672  10.555  0.2974  0.6442  0.0726
35999SOL    HW110890   3.494   5.732  10.616  1.2112 -1.3011  1.4733
35999SOL    HW210891   3.359   5.675  10.579  0.5184  0.5788  0.9838
36000SOL     OW10892   0.692   5.208   0.133  0.0919 -0.3191  0.4733
36000SOL    HW110893   0.677   5.296   0.168 -1.9504  0.0823 -1.1864
36000SOL    HW210894   0.627   5.153   0.176  0.2418 -0.6772  0.2485
36001SOL     OW10895   4.908   0.540   2.006 -0.0769 -0.6561  0.1237
36001SOL    HW110896   4.986   0.580   2.043  0.0547 -1.6830  1.0086
36001SOL    HW210897   4.884   0.597   1.933  0.3119  0.8068  1.0842
36002SOL     OW10898   4.937   1.162   1.725 -0.1868  0.3325 -0.3824
36002SOL    HW110899   4.995   1.235   1.749 -0.1800  1.0662 -2.4359
36002SOL    HW210900   4.849   1.194   1.746  0.0107 -0.2946  1.5625
36003SOL     OW10901   1.038  10.390   3.292 -0.0205 -0.0851 -0.0677
36003SOL    HW110902   1.040  10.300   3.325 -2.5605 -0.3064 -0.3223
36003SOL    HW210903   0.970  10.390   3.225  1.7158  1.4721 -1.9762
36004SOL     OW10904   4.457   0.713   8.386 -0.1156  0.9341  0.3286
36004SOL    HW110905   4.376   0.707   8.436 -0.3391  0.7440 -0.0491
36004SOL    HW210906   4.464   0.629   8.340  0.8684  0.5073  1.2153
36005SOL     OW10907   0.592   8.531  10.779 -0.1457 -0.3286 -0.7557
36005SOL    HW110908   0.525   8.464  10.791  0.8001 -1.0238  1.0698
36005SOL    HW210909   0.554   8.593  10.716 -1.5842 -1.8397 -1.4262
36006SOL     OW10910   0.257   2.452  10.445 -0.3625  0.5009  0.1850
36006SOL    HW110911   0.164   2.428  10.450 -0.2173  0.2313  1.8829
36006SOL    HW210912   0.281   2.477  10.534  1.4173 -0.2327 -0.0550
36007SOL     OW10913   8.731   0.760   0.873 -0.5721 -0.6185 -0.2925
36007SOL    HW110914   8.803   0.750   0.810 -0.6195 -1.0132 -0.2883
36007SOL    HW210915   8.709   0.670   0.898 -0.7777 -0.4771  0.0342
36008SOL     OW10916   0.975   6.072   2.921  0.6476  0.9263 -0.4952
36008SOL    HW110917   1.000   5.980   2.906 -0.8247  0.2331  0.9873
36008SOL    HW210918   0.929   6.097   2.841 -1.1299 -0.4819  0.0106
36009SOL     OW10919   5.658   9.649   4.472  0.0585  0.5266  0.0351
36009SOL    HW110920   5.581   9.639   4.416 -0.1877 -0.4273  0.5143
36009SOL    HW210921   5.727   9.678   4.412 -0.8463  2.2462 -0.2569
36010SOL     OW10922   9.224   1.414   4.772  0.6616 -0.2276 -0.2600
36010SOL    HW110923   9.229   1.318   4.772 -0.6160 -0.4089  3.3250
36010SOL    HW210924   9.179   1.436   4.853 -0.0559  3.4186 -1.4857
36011SOL     OW10925   5.720   2.747   6.072 -0.3358  0.1112 -0.8177
36011SOL    HW110926   5.799   2.693   6.065  0.9986  1.6209  1.3673
36011SOL    HW210927   5.750   2.836   6.057 -1.6247  0.7189  0.0434
36012SOL     OW10928   1.736   3.426   8.300  0.0864  0.0861  0.2850
36012SOL    HW110929   1.759   3.500   8.357 -0.5730  0.5300 -0.0160
36012SOL    HW210930   1.817   3.376   8.294  0.3326  0.3446  1.1444
36013SOL     OW10931   3.690   2.998   8.429  0.1010 -0.8989 -0.0411
36013SOL    HW110932   3.712   2.943   8.354 -2.1476 -0.8872 -0.7669
36013SOL    HW210933   3.620   2.950   8.474 -1.4970  1.0483 -0.3481
36014SOL     OW10934   1.804   9.664   8.712  0.1114 -0.5489  0.6369
36014SOL    HW110935   1.736   9.730   8.726 -0.5056 -0.7653 -1.0712
36014SOL    HW210936   1.881   9.714   8.686 -0.1813 -0.4486 -0.0590
36015SOL     OW10937   8.647   7.775   5.271 -0.2090  0.3407  0.4877
36015SOL    HW110938   8.616   7.821   5.349  0.0448 -0.4401  1.0626
36015SOL    HW210939   8.729   7.818   5.248 -1.5553  2.3119 -0.9415
36016SOL     OW10940   6.501   0.574   1.777 -0.0826 -0.5881  0.0679
36016SOL    HW110941   6.465   0.652   1.819 -1.0731 -0.3293 -1.1855
36016SOL    HW210942   6.494   0.506   1.844 -0.9225 -0.0200  0.5857
36017SOL     OW10943   4.135   8.158   7.499 -0.0922  0.1258  0.1837
36017SOL    HW110944   4.172   8.202   7.423 -0.8673  2.9396  1.3105
36017SOL    HW210945   4.062   8.107   7.464  0.5115  0.1266 -1.1418
36018SOL     OW10946   4.985   9.615   3.439  0.4216 -0.3893  0.1767
36018SOL    HW110947   4.935   9.540   3.407  1.7655 -1.3153  0.1494
36018SOL    HW210948   5.035   9.644   3.362  1.3701 -0.7049  0.6596
36019SOL     OW10949   9.821   6.352  10.045  0.1189  0.0197  0.2920
36019SOL    HW110950   9.852   6.367   9.956 -0.5243 -2.2972 -0.3732
36019SOL    HW210951   9.727   6.373  10.041  0.1455  0.1900  0.5233
36020SOL     OW10952  10.459   9.959   4.632 -0.2943  0.5639  0.2178
36020SOL    HW110953  10.418  10.043   4.651 -1.3471 -0.3466  2.2130
36020SOL    HW210954  10.538   9.981   4.583 -1.4079  2.5861 -0.7713
36021SOL     OW10955   1.023   4.617   8.481  0.2250 -0.0761  0.5260
36021SOL    HW110956   1.024   4.534   8.433 -0.9342  0.2857 -0.1459
36021SOL    HW210957   0.933   4.648   8.475  0.5241  0.9989  1.2031
36022SOL     OW10958   9.974  10.000   2.174 -0.0287  0.2511 -0.3237
36022SOL    HW110959   9.890   9.958   2.192  0.4604 -1.2061 -1.2267
36022SOL    HW210960  10.038   9.931   2.189  0.8421  0.7488 -1.5702
36023SOL     OW10961   4.832   2.924   7.694  0.2485  0.0894 -0.2646
36023SOL    HW110962   4.765   2.948   7.758 -1.0912  0.4635 -1.7586
36023SOL    HW210963   4.872   2.845   7.730  1.2287  1.5713  2.2195
36024SOL     OW10964   1.400   5.898   3.026  0.1200 -0.3026 -0.1965
36024SOL    HW110965   1.315   5.929   3.057 -0.0154 -1.0451  0.1967
36024SOL    HW210966   1.407   5.932   2.936 -0.6189 -0.2983 -0.2563
36025SOL     OW10967   9.348   9.602   5.542  0.2884 -0.2750  0.1600
36025SOL    HW110968   9.387   9.671   5.595 -0.1922 -0.0185  0.1876
36025SOL    HW210969   9.323   9.534   5.605  0.4762 -0.3383  0.1675
36026SOL     OW10970   6.154   7.464   2.232  0.2004 -0.0110  0.4471
36026SOL    HW110971   6.235   7.423   2.201  0.0432 -0.5799  0.7592
36026SOL    HW210972   6.182   7.518   2.306  0.6212  1.5964 -0.8413
36027SOL     OW10973   4.688   4.133  10.200 -0.0055  0.0524  0.8972
36027SOL    HW110974   4.638   4.185  10.137 -0.9971 -1.1397  0.6490
36027SOL    HW210975   4.668   4.173  10.285  1.7680  2.0045  0.4638
36028SOL     OW10976   3.171   9.036   5.911  0.1085 -0.0360  0.1297
36028SOL    HW110977   3.146   9.091   5.985  0.1299 -0.9604  0.8310
36028SOL    HW210978   3.262   9.060   5.893 -0.5103  1.7126 -0.9868
36029SOL     OW10979   3.044  10.519   3.258 -0.2068  0.1710 -0.2981
36029SOL    HW110980   3.079  10.575   3.327  1.3921  1.3002 -1.9444
36029SOL    HW210981   3.039  10.432   3.297  1.3341  0.6397  1.0137
36030SOL     OW10982   8.562   8.896   0.818  0.8775 -0.5407  0.0119
36030SOL    HW110983   8.534   8.893   0.910  0.3127 -1.2219 -0.1765
36030SOL    HW210984   8.648   8.938   0.821  0.4985  0.2208  0.7616
36031SOL     OW10985   4.400   9.285   7.958  0.1446  0.6816 -0.0353
36031SOL    HW110986   4.401   9.239   8.042 -0.8542 -1.1185 -0.9735
36031SOL    HW210987   4.491   9.281   7.928  0.2203  0.0362  0.2645
36032SOL     OW10988   2.018   8.200   9.101 -0.0843 -0.0120  0.4499
36032SOL    HW110989   2.026   8.215   9.007 -1.2685  2.4502  0.6773
36032SOL    HW210990   2.007   8.287   9.139 -0.2480 -0.9849  2.8275
36033SOL     OW10991   2.221   8.727   8.717  0.1766  0.0888  0.0919
36033SOL    HW110992   2.290   8.754   8.777  1.2016  1.5772 -1.6290
36033SOL    HW210993   2.246   8.638   8.690 -0.2269 -0.5418  1.6821
36034SOL     OW10994  10.642   3.558   9.541 -0.3566  0.0340  0.2412
36034SOL    HW110995  10.614   3.502   9.613 -0.0080 -0.1777  0.2120
36034SOL    HW210996  10.638   3.647   9.577  1.0362 -0.1484  0.9472
36035SOL     OW10997   4.678   0.400   2.665 -0.2006  0.4725  0.4581
36035SOL    HW110998   4.711   0.393   2.755  2.3673  0.6718 -0.4124
36035SOL    HW210999   4.742   0.354   2.612 -2.0179 -0.1949 -1.2478
36036SOL     OW11000   0.500   8.730   8.207  0.1545 -0.0693 -0.0105
36036SOL    HW111001   0.502   8.736   8.303  0.9065 -0.1528 -0.0149
36036SOL    HW211002   0.589   8.705   8.183 -0.6614 -2.6748 -0.5725
36037SOL     OW11003   2.311  10.667   3.464 -0.1968  0.3224  0.7197
36037SOL    HW111004   2.253  10.738   3.436 -1.3629 -0.5465  0.8521
36037SOL    HW211005   2.374  10.659   3.393  0.2121  1.7541  0.8910
36038SOL     OW11006   6.338   4.726   9.224  0.0859 -0.2910 -0.0789
36038SOL    HW111007   6.358   4.670   9.300  1.7159 -0.0332 -0.2760
36038SOL    HW211008   6.418   4.776   9.210 -0.9495  1.2978 -0.6155
36039SOL     OW11009   0.375   4.481   9.266 -0.2129 -0.3316 -0.2405
36039SOL    HW111010   0.302   4.463   9.324  0.9140 -0.5078  1.1664
36039SOL    HW211011   0.336   4.484   9.179 -1.8065 -0.9018  0.4197
36040SOL     OW11012   2.218   0.930   7.011 -0.1113 -0.2197  0.0471
36040SOL    HW111013   2.295   0.937   6.954 -0.0201 -0.2662  0.1642
36040SOL    HW211014   2.147   0.906   6.952  0.1616 -1.1262  0.0824
36041SOL     OW11015   9.220   9.813   0.949  0.3637 -0.1178 -0.0063
36041SOL    HW111016   9.141   9.784   0.995  0.0817  0.0572 -0.3728
36041SOL    HW211017   9.187   9.870   0.879  0.8615  0.5156  0.2723
36042SOL     OW11018   0.335   0.775   3.244 -0.5598 -0.1303  0.4514
36042SOL    HW111019   0.298   0.713   3.306  0.9001 -0.7589  0.7266
36042SOL    HW211020   0.303   0.745   3.158  0.4248 -1.5116  0.5375
36043SOL     OW11021   4.087   9.785   2.402 -0.2031  0.5317 -0.6308
36043SOL    HW111022   4.072   9.784   2.496 -2.0223  0.7041 -0.8788
36043SOL    HW211023   4.089   9.878   2.379 -0.7840  0.4855 -0.8898
36044SOL     OW11024   7.395   0.108   2.518 -0.2285 -0.2555 -0.1471
36044SOL    HW111025   7.447   0.164   2.575  1.0645  0.6640 -2.1137
36044SOL    HW211026   7.380   0.160   2.439 -1.9762 -1.4475 -0.6776
36045SOL     OW11027   3.596   4.850   9.690  0.0901  0.1422 -0.5060
36045SOL    HW111028   3.578   4.897   9.609  0.1040 -0.2906 -0.7661
36045SOL    HW211029   3.511   4.842   9.733  0.1410  0.6831 -0.3078
36046SOL     OW11030  10.542   4.339   6.422  0.1446 -0.0704  0.0228
36046SOL    HW111031  10.536   4.247   6.450 -1.3162 -0.6545 -2.0215
36046SOL    HW211032  10.636   4.353   6.410  0.4401 -1.1212  0.8315
36047SOL     OW11033   2.766  10.506   2.491  0.3409  0.7008  0.6369
36047SOL    HW111034   2.743  10.430   2.545 -1.4431  0.6114 -0.1941
36047SOL    HW211035   2.854  10.529   2.520  0.1853 -0.5073  2.2435
36048SOL     OW11036   7.755   2.125   5.935  0.0207  0.0016  0.6003
36048SOL    HW111037   7.662   2.138   5.952  0.4477  2.1357  1.5975
36048SOL    HW211038   7.778   2.193   5.872  0.9322 -0.5009  0.3644
36049SOL     OW11039   9.490   6.020   9.174 -0.1167 -0.4256  0.0554
36049SOL    HW111040   9.583   6.008   9.158 -0.1444  1.6471 -2.1488
36049SOL    HW211041   9.486   6.067   9.258  0.7530 -1.1645  0.5220
36050SOL     OW11042   3.061   9.260   3.379  0.1181 -0.2322 -0.1138
36050SOL    HW111043   3.104   9.187   3.426  1.2568  0.3030 -0.2931
36050SOL    HW211044   2.974   9.227   3.359  0.6958 -1.6606 -0.4121
36051SOL     OW11045  10.010   5.742   4.799 -0.3784 -0.1528 -0.0241
36051SOL    HW111046  10.004   5.649   4.777 -0.8453  0.2089 -1.5416
36051SOL    HW211047   9.930   5.780   4.763 -0.0477  0.8835  0.3235
36052SOL     OW11048   3.201   4.425   9.892  0.3776  0.0925  0.4857
36052SOL    HW111049   3.136   4.405   9.825  0.2720 -0.8503  0.8602
36052SOL    HW211050   3.282   4.384   9.861  1.0521  1.9681 -0.3994
36053SOL     OW11051   7.635  10.751   2.580  0.6855 -0.0260  0.4560
36053SOL    HW111052   7.555  10.797   2.554  0.7988  1.2734  2.2080
36053SOL    HW211053   7.607  10.692   2.651  1.0805 -0.4036  0.3043
36054SOL     OW11054   2.729   4.423   4.851  0.7463 -0.2867  0.0560
36054SOL    HW111055   2.635   4.410   4.840  0.7480  0.1358 -0.5293
36054SOL    HW211056   2.766   4.335   4.843  0.5065 -0.3094 -1.0310
36055SOL     OW11057   2.530   9.872  10.063 -0.2653  0.2091 -0.0016
36055SOL    HW111058   2.509   9.793  10.112  0.1318  0.0197 -0.1298
36055SOL    HW211059   2.619   9.895  10.092  0.0317  0.0117 -0.7423
36056SOL     OW11060   6.237   9.267   0.780  0.0651 -0.1756  0.1727
36056SOL    HW111061   6.211   9.239   0.692 -0.6743  0.8763  0.0391
36056SOL    HW211062   6.203   9.200   0.838 -0.0454 -0.5236 -0.2913
36057SOL     OW11063   9.465   0.301   7.882  0.2824 -0.2485  0.2780
36057SOL    HW111064   9.481   0.394   7.864  0.6667 -0.4549 -0.5021
36057SOL    HW211065   9.471   0.293   7.977  1.4353  0.3239  0.2683
36058SOL     OW11066   3.980   3.347   4.694 -0.3484 -0.1866  0.0702
36058SOL    HW111067   4.062   3.337   4.743 -1.1798 -0.8686  1.3901
36058SOL    HW211068   4.007   3.379   4.608  1.2421  0.2809  0.7067
36059SOL     OW11069   6.840   7.345  10.576  0.2005  0.3459  0.0711
36059SOL    HW111070   6.841   7.429  10.622 -0.3997  0.5634 -0.3047
36059SOL    HW211071   6.787   7.289  10.632 -0.3073  0.5337 -0.2185
36060SOL     OW11072   8.820   9.551   0.246 -0.3174 -0.8231 -0.2829
36060SOL    HW111073   8.738   9.513   0.279 -0.9518  0.0412 -0.8120
36060SOL    HW211074   8.835   9.507   0.163 -1.6408  0.7414 -1.4422
36061SOL     OW11075   9.338   0.159  10.740 -0.1484  0.0241  0.6205
36061SOL    HW111076   9.299   0.085  10.693 -0.0132  0.7458 -0.6881
36061SOL    HW211077   9.402   0.120  10.799 -0.8865 -0.9770  0.7806
36062SOL     OW11078   0.993   9.788   5.640  0.1625 -0.0725 -0.3476
36062SOL    HW111079   0.924   9.818   5.699  1.5082 -0.3232  1.4196
36062SOL    HW211080   0.985   9.844   5.563 -0.6591  1.2964  0.6969
36063SOL     OW11081   0.363   5.612   6.019 -0.2694 -0.1190 -0.0503
36063SOL    HW111082   0.276   5.587   6.049 -2.7563  2.9833 -3.6422
36063SOL    HW211083   0.396   5.672   6.086 -2.8638  1.8364 -0.3503
36064SOL     OW11084   1.690   6.945   0.822 -0.4419  0.1677 -0.2006
36064SOL    HW111085   1.641   6.993   0.755 -0.8561 -0.6822 -0.5167
36064SOL    HW211086   1.691   7.004   0.897 -0.7979  0.7412 -0.6338
36065SOL     OW11087   5.296   9.869   0.556  0.2521 -0.3567 -0.3174
36065SOL    HW111088   5.368   9.823   0.598  0.3273 -0.1355 -0.2072
36065SOL    HW211089   5.331   9.898   0.472 -0.1446 -1.5259 -0.9054
36066SOL     OW11090   5.669  10.029   3.660 -0.2384  0.1132 -0.2674
36066SOL    HW111091   5.649   9.940   3.632 -1.4288  0.4471 -0.5361
36066SOL    HW211092   5.762  10.027   3.683  0.1659 -0.8045 -1.8061
36067SOL     OW11093   1.615   2.911   9.425  0.1138  1.0681 -0.3607
36067SOL    HW111094   1.561   2.986   9.400  1.1131  2.1048  0.5065
36067SOL    HW211095   1.683   2.907   9.357  0.0509  0.9323 -0.4158
36068SOL     OW11096   4.898   4.662   1.205 -0.1243  0.8320  0.1597
36068SOL    HW111097   4.809   4.676   1.173 -0.2357  0.1106  0.1231
36068SOL    HW211098   4.952   4.658   1.125 -0.2915 -0.2200  0.0795
36069SOL     OW11099   9.706   5.719   6.220 -0.1417 -0.2353  0.3006
36069SOL    HW111100   9.704   5.666   6.140 -0.3601  1.0322 -0.5683
36069SOL    HW211101   9.680   5.659   6.289 -1.5414 -0.9838 -0.8193
36070SOL     OW11102   9.802   7.559   9.001 -0.3884  0.0497 -0.2754
36070SOL    HW111103   9.742   7.486   8.988  1.3151 -1.0699 -2.4690
36070SOL    HW211104   9.883   7.519   9.032 -0.7461  1.5703  3.0170
36071SOL     OW11105   3.207   3.065   8.916 -0.4221  0.1301  0.3702
36071SOL    HW111106   3.301   3.079   8.909 -0.3272 -1.0198 -1.6599
36071SOL    HW211107   3.198   2.978   8.955 -0.5850 -0.1205 -0.2025
36072SOL     OW11108   7.604  10.063   2.703 -0.0858 -0.8467  0.0322
36072SOL    HW111109   7.600  10.058   2.798 -2.9363 -0.7748  0.0052
36072SOL    HW211110   7.691  10.099   2.684  0.3951 -0.4888  2.6011
36073SOL     OW11111   9.928   9.858  10.604 -0.0819  0.1787 -0.0306
36073SOL    HW111112   9.919   9.772  10.564 -1.4605 -0.1433  0.9076
36073SOL    HW211113   9.881   9.917  10.545  0.8632  0.2993 -0.6727
36074SOL     OW11114   4.649  10.220   9.925 -0.4707 -0.1996 -0.0386
36074SOL    HW111115   4.690  10.147   9.972 -2.1054 -0.9628  0.2912
36074SOL    HW211116   4.623  10.183   9.841 -0.2033  0.3665 -0.3809
36075SOL     OW11117   6.889   7.483   8.558 -0.1723 -0.4976  0.4849
36075SOL    HW111118   6.892   7.434   8.640  0.8099 -0.2220  0.6251
36075SOL    HW211119   6.872   7.574   8.584 -3.4349 -0.8753  0.1474
36076SOL     OW11120   6.641   3.258  10.509  0.0465 -0.2968  0.0838
36076SOL    HW111121   6.675   3.343  10.535 -1.5731  0.5634 -0.4640
36076SOL    HW211122   6.617   3.269  10.417 -0.5736 -1.2143  0.1223
36077SOL     OW11123   9.402   8.124  10.794 -0.0987 -0.7657  0.9407
36077SOL    HW111124   9.417   8.209  10.837  0.8967 -1.5865  2.3055
36077SOL    HW211125   9.313   8.130  10.760 -0.2055  0.6726  1.4129
36078SOL     OW11126   6.916   6.039  10.648  0.1990  0.2741 -0.7386
36078SOL    HW111127   6.877   6.022  10.563 -2.2131 -1.4660  0.5872
36078SOL    HW211128   6.875   5.976  10.707  2.1552  1.0311  1.6451
36079SOL     OW11129   1.801   0.984   7.008  0.3181 -0.6471  0.3954
36079SOL    HW111130   1.829   1.041   7.080  0.5099 -1.0214  0.6183
36079SOL    HW211131   1.820   1.034   6.929  1.1030 -0.6681  0.5639
36080SOL     OW11132   8.708   1.683   7.251  0.0018 -0.3659  0.6138
36080SOL    HW111133   8.672   1.711   7.335  0.2447  0.5360  0.4210
36080SOL    HW211134   8.635   1.687   7.190  0.6215  2.6998 -0.0722
36081SOL     OW11135   2.578  10.516   0.403  0.0431 -0.3259  0.7603
36081SOL    HW111136   2.626  10.446   0.447  1.5351 -0.0663 -0.3813
36081SOL    HW211137   2.505  10.535   0.462 -0.7196 -3.1650  0.8924
36082SOL     OW11138   6.582   5.346   9.094 -0.4947  0.5211 -0.4724
36082SOL    HW111139   6.503   5.366   9.044  0.1153  0.6297 -1.4141
36082SOL    HW211140   6.640   5.421   9.079  0.3676 -0.2369 -1.0064
36083SOL     OW11141   9.969   4.120   0.806  0.0869  0.4709 -0.0940
36083SOL    HW111142  10.040   4.184   0.819 -0.9641  1.5907  0.2765
36083SOL    HW211143  10.014   4.035   0.805  1.4106  1.1320  0.3993
36084SOL     OW11144   1.968   2.980   0.575  0.6275 -1.0137 -0.3794
36084SOL    HW111145   1.964   2.899   0.524  1.1402 -1.6074  0.5021
36084SOL    HW211146   2.057   2.982   0.610  0.6875  0.0489 -0.5737
36085SOL     OW11147   8.135   7.255   2.994  0.5055  0.3613  0.3377
36085SOL    HW111148   8.191   7.322   2.954  1.4937 -0.8841 -0.4576
36085SOL    HW211149   8.046   7.279   2.969  0.8730  1.1729 -0.2206
36086SOL     OW11150   0.765   9.662   1.015 -0.5923  0.6087 -0.1254
36086SOL    HW111151   0.780   9.654   0.921  0.1357  0.0127  0.0335
36086SOL    HW211152   0.813   9.741   1.041  1.1904 -0.4950  0.1280
36087SOL     OW11153   4.088   1.324   4.436 -0.0914 -0.0696 -0.6745
36087SOL    HW111154   4.023   1.257   4.458 -0.3051  0.0812 -0.8462
36087SOL    HW211155   4.060   1.401   4.487 -0.7991  0.3952 -1.7367
36088SOL     OW11156   7.697   9.156   2.767 -0.2516  0.0361 -0.3910
36088SOL    HW111157   7.667   9.097   2.698 -0.9576 -0.1610  0.0802
36088SOL    HW211158   7.789   9.132   2.782 -0.6081 -1.1342 -0.0104
36089SOL     OW11159   8.403   1.388   9.032 -0.2504 -0.1471  0.0655
36089SOL    HW111160   8.325   1.342   9.000  0.1891 -0.9992  0.1837
36089SOL    HW211161   8.376   1.480   9.038 -0.9433 -0.2726 -0.8477
36090SOL     OW11162   5.104   1.995   7.840  0.1767  0.1103  0.0010
36090SOL    HW111163   5.090   2.086   7.864  2.2576  0.3335  0.4817
36090SOL    HW211164   5.197   1.979   7.854 -0.1694 -2.1741  0.1830
36091SOL     OW11165   9.991   5.157   3.598 -0.3229  1.0410  0.1246
36091SOL    HW111166   9.928   5.146   3.669  1.0359  0.0530  1.2342
36091SOL    HW211167  10.021   5.247   3.606  0.6230  0.6344  1.5468
36092SOL     OW11168   7.307   7.598   5.634 -0.3185  0.1472 -0.2106
36092SOL    HW111169   7.342   7.680   5.670 -1.9200  2.0390 -2.6406
36092SOL    HW211170   7.378   7.564   5.579 -0.6474  1.6427 -1.6547
36093SOL     OW11171   7.298   2.589   4.570  0.4376 -1.0571  0.3241
36093SOL    HW111172   7.320   2.498   4.593 -0.4859 -1.6841 -1.1507
36093SOL    HW211173   7.228   2.581   4.506  1.5340  0.6551 -1.1651
36094SOL     OW11174   9.881   8.091  10.794 -0.6709  0.0575  0.0238
36094SOL    HW111175   9.915   8.174  10.827 -1.9318  0.6247 -0.0406
36094SOL    HW211176   9.896   8.094  10.700 -0.5232  0.1230  0.0496
36095SOL     OW11177   4.332   7.900   6.155 -0.3125 -0.9058  0.7250
36095SOL    HW111178   4.404   7.886   6.217 -0.6296  1.2108  1.6461
36095SOL    HW211179   4.346   7.988   6.121 -1.8634 -0.8723  0.0962
36096SOL     OW11180   9.106   9.356   9.766 -0.7213  0.5868 -0.0967
36096SOL    HW111181   9.051   9.303   9.707  3.1889 -1.5929 -2.2589
36096SOL    HW211182   9.086   9.323   9.853 -0.1048 -3.0944 -1.1565
36097SOL     OW11183   0.483  10.184   8.335  0.2083  0.1452  0.0304
36097SOL    HW111184   0.389  10.170   8.341  0.4857 -2.0405 -0.1252
36097SOL    HW211185   0.492  10.263   8.282 -1.5242 -0.0650 -0.6452
36098SOL     OW11186   4.792   6.290   6.425 -0.0313 -0.1107 -1.1841
36098SOL    HW111187   4.830   6.378   6.422 -0.1749 -0.0355 -0.8591
36098SOL    HW211188   4.745   6.282   6.342 -0.6097  0.3870 -0.9092
36099SOL     OW11189   2.377   8.767   2.668 -0.7408 -0.0803 -0.3170
36099SOL    HW111190   2.365   8.743   2.576 -0.5538  0.8625 -0.5955
36099SOL    HW211191   2.329   8.700   2.717  0.7522 -1.7086 -0.9932
36100SOL     OW11192  10.560  10.333   5.719 -0.1543 -0.1106 -0.4953
36100SOL    HW111193  10.597  10.303   5.802 -2.7245 -0.5908  0.5938
36100SOL    HW211194  10.615  10.407   5.693  2.3281 -1.6057  0.2017
36101SOL     OW11195   9.102   0.823   9.435 -0.2200 -0.6942 -0.2361
36101SOL    HW111196   9.152   0.900   9.464  0.3703 -0.8691 -0.7798
36101SOL    HW211197   9.011   0.855   9.430  0.0287 -0.0028 -0.5377
36102SOL     OW11198   5.928   8.081   6.359 -0.3431  0.1824 -0.2586
36102SOL    HW111199   5.875   8.022   6.412  0.5858  0.1710  0.6770
36102SOL    HW211200   5.880   8.164   6.360 -0.8764 -0.1251 -0.2977
36103SOL     OW11201   9.413   7.203   9.362  0.0361  0.6460  0.5440
36103SOL    HW111202   9.376   7.215   9.449 -0.8675  0.7272  0.1670
36103SOL    HW211203   9.441   7.112   9.360 -0.1575  0.5780  0.8482
36104SOL     OW11204   7.194   4.285   2.250  0.1760  0.3943 -0.6159
36104SOL    HW111205   7.202   4.190   2.257 -0.7378  0.3168 -0.4671
36104SOL    HW211206   7.243   4.308   2.172  1.6486 -0.0165  0.1440
36105SOL     OW11207   3.703   8.027   1.553  0.1516  0.1295  0.4427
36105SOL    HW111208   3.637   7.966   1.520  0.6826  0.8913 -2.3349
36105SOL    HW211209   3.655   8.086   1.611 -0.9402 -1.2167  0.9362
36106SOL     OW11210   0.883   9.819   9.570  0.1401  0.4517 -0.4523
36106SOL    HW111211   0.836   9.856   9.645 -0.8076 -0.0947 -0.7472
36106SOL    HW211212   0.836   9.737   9.552  1.0214  0.0532 -0.9733
36107SOL     OW11213   3.927   8.519   9.439 -0.0807  0.2001  0.3262
36107SOL    HW111214   3.976   8.465   9.377  2.0574  1.2824  0.9885
36107SOL    HW211215   3.923   8.467   9.519 -0.6573 -0.1774  0.0581
36108SOL     OW11216   1.538   8.223   1.705  0.2968 -0.0359  0.2730
36108SOL    HW111217   1.607   8.250   1.765 -0.5867  0.8130  0.9314
36108SOL    HW211218   1.535   8.127   1.715  0.3405  0.0591  1.4134
36109SOL     OW11219   9.346   6.521   9.293  0.3233  0.0118 -0.2722
36109SOL    HW111220   9.290   6.587   9.253 -0.9035 -0.8459 -0.0194
36109SOL    HW211221   9.286   6.463   9.340  1.6308  1.0834  3.0795
36110SOL     OW11222   8.942   6.791  10.668  0.2974  0.7114  0.7718
36110SOL    HW111223   8.895   6.727  10.614  1.7207 -0.0471  0.3561
36110SOL    HW211224   8.890   6.871  10.662  0.0244  0.4374 -1.1680
36111SOL     OW11225   8.867   9.662  10.030  0.6133  0.5965  0.3284
36111SOL    HW111226   8.887   9.721   9.957 -0.1981  0.6356  0.1234
36111SOL    HW211227   8.794   9.608   9.997  0.5022  0.3487  0.9729
36112SOL     OW11228   6.326   6.677   6.893 -0.5330 -0.1873  0.3084
36112SOL    HW111229   6.329   6.605   6.956 -1.8537 -0.5980 -0.0653
36112SOL    HW211230   6.241   6.718   6.908 -0.1467  0.7622 -0.0689
36113SOL     OW11231   4.887   7.013   6.966 -0.4442  0.1625  0.6332
36113SOL    HW111232   4.805   7.037   6.923  1.2396  1.2120 -2.2693
36113SOL    HW211233   4.913   6.931   6.924 -0.0183 -0.1949  1.5646
36114SOL     OW11234   1.766   7.802   0.982 -0.0591 -0.1670 -0.5215
36114SOL    HW111235   1.698   7.850   0.934 -0.0143 -0.7651 -1.2060
36114SOL    HW211236   1.730   7.792   1.070 -0.2765  0.6908 -0.5017
36115SOL     OW11237   2.579   3.196   1.587  0.0309  1.2693  0.2992
36115SOL    HW111238   2.645   3.204   1.656  0.2652  1.2988  0.0738
36115SOL    HW211239   2.573   3.284   1.550  1.5108  0.7905 -1.1776
36116SOL     OW11240  10.406   6.953   3.003  0.0013 -0.0081 -0.6859
36116SOL    HW111241  10.397   6.869   3.048  2.4704 -0.1557 -0.3601
36116SOL    HW211242  10.341   6.950   2.933 -1.0001 -1.5253  0.2588
36117SOL     OW11243   1.710   1.825   9.245 -0.0374 -0.4032  0.4463
36117SOL    HW111244   1.803   1.804   9.255  0.6368  1.1551 -1.9248
36117SOL    HW211245   1.665   1.763   9.303  2.3611 -2.1830  0.5289
36118SOL     OW11246   8.410   7.792   1.665 -0.1112  0.0621 -0.3798
36118SOL    HW111247   8.482   7.844   1.701 -0.2448  0.5530 -0.8128
36118SOL    HW211248   8.401   7.718   1.726  1.2872 -0.4505 -0.7561
36119SOL     OW11249   5.921   3.139   9.700 -0.0815 -0.4206 -0.3950
36119SOL    HW111250   5.910   3.202   9.629  0.7896 -0.0325 -0.2005
36119SOL    HW211251   6.007   3.100   9.684  0.1711 -0.2442  0.5108
36120SOL     OW11252   6.220   9.658   4.499  0.0047  0.3750  0.5260
36120SOL    HW111253   6.143   9.683   4.551 -1.1150  1.7830 -1.6672
36120SOL    HW211254   6.250   9.576   4.539 -2.6952 -0.2944  1.4241
36121SOL     OW11255   5.630   5.661   4.191  0.0781 -0.3877 -0.2052
36121SOL    HW111256   5.638   5.605   4.114 -0.5365  0.4313 -0.8963
36121SOL    HW211257   5.715   5.655   4.235 -0.0535 -2.0037 -0.1385
36122SOL     OW11258   5.396   9.714   6.058  0.1134 -0.1334 -0.2770
36122SOL    HW111259   5.444   9.795   6.043 -1.0495  0.5615 -0.3429
36122SOL    HW211260   5.344   9.732   6.136 -0.5625 -0.6289 -0.6125
36123SOL     OW11261   2.764   1.149   2.036 -0.2377 -0.0113 -0.3154
36123SOL    HW111262   2.708   1.226   2.020 -0.7688 -0.6366 -1.5637
36123SOL    HW211263   2.754   1.095   1.958  1.4684 -0.5573 -0.1954
36124SOL     OW11264   8.179   7.422   1.987 -0.0487  0.6198  0.3361
36124SOL    HW111265   8.199   7.461   2.072  1.6498  1.1353 -0.2709
36124SOL    HW211266   8.164   7.496   1.929  0.2801  0.2994 -0.1600
36125SOL     OW11267   9.506   5.752   1.491  0.1054  0.1569  0.4924
36125SOL    HW111268   9.600   5.731   1.495  0.1473  0.4181  0.9527
36125SOL    HW211269   9.479   5.724   1.404  0.4739 -0.5015  0.5804
36126SOL     OW11270   9.997   0.147  10.416 -0.3621 -0.4649 -0.2796
36126SOL    HW111271   9.957   0.170  10.500 -2.0635  0.0822 -1.1747
36126SOL    HW211272   9.970   0.056  10.401  0.0602 -0.6088 -0.1753
36127SOL     OW11273   6.691   7.193   0.809  0.2671 -0.1990 -0.0963
36127SOL    HW111274   6.774   7.146   0.810  0.7461  0.2787  4.4006
36127SOL    HW211275   6.713   7.281   0.839 -1.5617  0.7837 -1.4388
36128SOL     OW11276   4.634   9.638   0.850  0.7080  0.4280 -0.0027
36128SOL    HW111277   4.653   9.653   0.942 -1.3113 -1.2383  0.7725
36128SOL    HW211278   4.719   9.619   0.810  1.6570  1.5534  1.4092
36129SOL     OW11279   6.772  10.766   7.035  0.3776  0.0019  0.3130
36129SOL    HW111280   6.864  10.792   7.025  0.7399 -1.1948  0.2951
36129SOL    HW211281   6.777  10.682   7.082 -0.6657 -0.4995 -0.4499
36130SOL     OW11282  10.661   7.821   9.107 -0.0092  0.1331  0.4030
36130SOL    HW111283  10.716   7.753   9.145 -1.7012 -1.6850 -0.2155
36130SOL    HW211284  10.699   7.838   9.021 -0.3896 -1.1264 -0.0342
36131SOL     OW11285   8.511   3.592   5.024  0.0441 -0.1225 -0.3268
36131SOL    HW111286   8.454   3.544   5.084 -0.1718 -0.9931 -1.2149
36131SOL    HW211287   8.475   3.575   4.937  0.3809  1.0835 -0.7286
36132SOL     OW11288   5.505   3.721   1.748 -0.1023 -0.0876 -0.2537
36132SOL    HW111289   5.562   3.663   1.698 -0.4357  0.6677 -1.5713
36132SOL    HW211290   5.462   3.664   1.812  1.0285 -0.9176 -0.1936
36133SOL     OW11291   1.894   5.066   5.271  0.4611  0.3725  0.0320
36133SOL    HW111292   1.819   5.120   5.249  2.2648  3.1073  0.1683
36133SOL    HW211293   1.919   5.025   5.188 -1.0670 -0.5344 -0.0267
36134SOL     OW11294   5.222   9.082   4.260  0.3893  0.1640  0.2208
36134SOL    HW111295   5.138   9.041   4.277  0.1238  0.5180 -0.2181
36134SOL    HW211296   5.285   9.009   4.261 -0.2450 -0.4819 -1.8637
36135SOL     OW11297   9.100  10.172   2.308  0.1193  0.2684  0.2840
36135SOL    HW111298   9.016  10.142   2.341 -0.0978  1.0521  0.4687
36135SOL    HW211299   9.123  10.110   2.239 -0.2866 -0.3353  0.6809
36136SOL     OW11300   8.487   5.281   5.334 -0.2009  0.3492  0.4392
36136SOL    HW111301   8.530   5.346   5.390 -0.2839 -0.4758  1.4959
36136SOL    HW211302   8.521   5.299   5.246 -0.8191  2.3093  0.5483
36137SOL     OW11303   9.841   3.567  10.620  0.1928 -0.0584  0.3358
36137SOL    HW111304   9.910   3.541  10.681  0.8764  0.0352 -0.3764
36137SOL    HW211305   9.818   3.656  10.646  1.6168  0.5990 -0.5063
36138SOL     OW11306   1.214   9.864   2.070  0.3468  0.3241 -0.2770
36138SOL    HW111307   1.158   9.923   2.120  1.7044 -0.0671  1.8359
36138SOL    HW211308   1.165   9.783   2.064 -0.2828  0.7164 -0.5486
36139SOL     OW11309   4.841   3.493   6.573  0.0171  0.7988 -0.1908
36139SOL    HW111310   4.788   3.563   6.535 -1.5007 -0.1438  0.1111
36139SOL    HW211311   4.840   3.511   6.667 -0.7984  0.1140 -0.0583
36140SOL     OW11312   3.206   9.485   1.392 -0.3317  0.0065  0.5276
36140SOL    HW111313   3.240   9.502   1.480  1.5240  0.2059 -0.1986
36140SOL    HW211314   3.237   9.397   1.371  2.8913  1.4885 -1.5165
36141SOL     OW11315   1.324   5.076   2.731  0.8064 -0.3280 -0.2280
36141SOL    HW111316   1.387   5.004   2.734  0.0277 -1.0016  0.3463
36141SOL    HW211317   1.314   5.104   2.822  0.5323  0.0104 -0.3572
36142SOL     OW11318   0.399   5.938   7.578  0.2003 -0.5677 -0.1929
36142SOL    HW111319   0.397   5.996   7.654  0.3915  0.4926 -0.9809
36142SOL    HW211320   0.492   5.920   7.564  0.4131  1.5203 -1.8412
36143SOL     OW11321   4.416   1.317   0.513  0.6382 -0.0057  0.1951
36143SOL    HW111322   4.365   1.362   0.581 -0.6439 -0.7155 -0.2662
36143SOL    HW211323   4.412   1.225   0.537 -0.5444 -0.3691 -1.2635
36144SOL     OW11324   1.677   2.089   8.630 -0.3759 -0.3065 -0.3829
36144SOL    HW111325   1.669   2.016   8.568 -1.3555  0.1581 -0.8218
36144SOL    HW211326   1.770   2.088   8.655 -0.0169 -0.6842 -1.6416
36145SOL     OW11327   2.750   7.113   4.858  0.0323  0.3691 -0.0196
36145SOL    HW111328   2.700   7.043   4.899 -0.0517 -0.4632 -1.4942
36145SOL    HW211329   2.827   7.071   4.821 -0.3803  0.8830 -1.5719
36146SOL     OW11330   1.380   1.320   3.772 -0.1360 -0.0333 -0.1005
36146SOL    HW111331   1.415   1.248   3.824 -1.2923 -0.6387 -0.1257
36146SOL    HW211332   1.313   1.360   3.828 -1.4152 -0.7141 -1.0869
36147SOL     OW11333   2.508   6.795   1.906 -0.1122  0.4471  0.1904
36147SOL    HW111334   2.488   6.852   1.980 -0.3755  0.1210  0.3745
36147SOL    HW211335   2.499   6.851   1.829 -1.1530  0.4665  0.3110
36148SOL     OW11336   1.515   8.621   8.823  0.5119 -0.5933 -0.0233
36148SOL    HW111337   1.421   8.637   8.831  0.4532  0.4906 -2.1135
36148SOL    HW211338   1.555   8.691   8.876  0.1572 -0.8504  0.5961
36149SOL     OW11339   3.821   2.969   8.051  0.1531  0.8765 -0.2628
36149SOL    HW111340   3.917   2.968   8.050  0.1835 -0.2313 -2.3136
36149SOL    HW211341   3.797   2.900   8.113  0.7130  0.2264 -0.7501
36150SOL     OW11342   6.537   9.511  10.629  0.3541 -0.0800  0.1178
36150SOL    HW111343   6.520   9.427  10.586 -0.5144 -0.0867  0.4560
36150SOL    HW211344   6.631   9.510  10.649  0.2025 -1.2820  0.8040
36151SOL     OW11345   3.890   9.099  10.086 -0.2553 -0.4191 -0.2030
36151SOL    HW111346   3.864   9.095   9.994  1.2535 -2.4739 -0.6061
36151SOL    HW211347   3.808   9.084  10.134 -0.7972 -0.9061 -1.2363
36152SOL     OW11348   0.697   9.965   2.635  0.2728  0.5189  0.2416
36152SOL    HW111349   0.609   9.956   2.672 -0.0165 -0.3912 -0.6315
36152SOL    HW211350   0.686  10.026   2.561  0.5943  1.2603  0.7877
36153SOL     OW11351   4.131   4.242   6.032 -0.1647 -0.4309  0.0933
36153SOL    HW111352   4.217   4.271   6.002 -0.1787 -1.1240 -0.6685
36153SOL    HW211353   4.112   4.298   6.107  0.7703  0.0050  0.0309
36154SOL     OW11354   4.956   9.795   4.851  0.1705  0.0944 -0.0296
36154SOL    HW111355   4.936   9.812   4.943 -2.9941  2.3255 -0.9657
36154SOL    HW211356   4.883   9.742   4.820  0.4926  0.4903 -1.5563
36155SOL     OW11357   6.162   2.963   0.676  0.2419 -0.0001 -0.2133
36155SOL    HW111358   6.100   2.936   0.744  0.4245  1.5529  0.6250
36155SOL    HW211359   6.248   2.958   0.718  0.4153  0.4091 -0.5144
36156SOL     OW11360   2.729   8.287   6.801 -0.5412  0.5591  0.0937
36156SOL    HW111361   2.637   8.280   6.775  0.2891 -0.9008 -3.0377
36156SOL    HW211362   2.762   8.362   6.751  0.7019 -1.1266 -1.7510
36157SOL     OW11363   8.205   1.349   5.238 -0.2703  0.2798 -0.7311
36157SOL    HW111364   8.110   1.353   5.246 -0.1226  1.0184  0.9364
36157SOL    HW211365   8.229   1.432   5.198 -0.3668 -0.2974 -2.0638
36158SOL     OW11366   7.576   1.746   3.635 -0.0334  0.0475 -0.3144
36158SOL    HW111367   7.644   1.740   3.703 -0.6040  0.5458  0.3135
36158SOL    HW211368   7.623   1.774   3.557  0.4532  0.6623  0.1826
36159SOL     OW11369   8.949   7.756   1.809 -0.2031 -0.3784 -0.2730
36159SOL    HW111370   8.876   7.724   1.757 -0.5148  0.9618 -0.7132
36159SOL    HW211371   9.008   7.681   1.818 -1.0599 -1.1419 -0.9336
36160SOL     OW11372   3.855   9.248   3.280  1.1006  0.1852 -0.0432
36160SOL    HW111373   3.868   9.292   3.196  1.1981 -0.8753 -0.6082
36160SOL    HW211374   3.760   9.241   3.290  1.0906  0.1799 -0.1393
36161SOL     OW11375   1.419   8.211   5.625 -0.0131 -0.6098  0.2365
36161SOL    HW111376   1.455   8.134   5.580  1.4650  0.1481  0.0620
36161SOL    HW211377   1.332   8.222   5.586 -0.3370 -2.2975  0.4129
36162SOL     OW11378  10.247   2.939   7.267  0.1633  0.1311  0.4845
36162SOL    HW111379  10.306   2.893   7.327  0.8883 -0.1980 -0.4580
36162SOL    HW211380  10.184   2.872   7.240  0.7274 -0.1191 -0.2511
36163SOL     OW11381   0.871   8.668   7.509 -0.2227 -0.0714  0.1050
36163SOL    HW111382   0.845   8.760   7.502  0.6876  0.2891  1.1141
36163SOL    HW211383   0.821   8.634   7.583 -0.2776 -0.2816 -0.0285
36164SOL     OW11384   2.534  10.161   4.746  0.2360  0.6544 -0.2785
36164SOL    HW111385   2.451  10.203   4.723  0.2860  1.4315  0.8664
36164SOL    HW211386   2.508  10.079   4.790  0.1021  0.3837 -0.8560
36165SOL     OW11387   6.046   4.380   7.175  0.8330  1.1491 -0.0704
36165SOL    HW111388   6.082   4.306   7.126  1.1707  1.0790  0.2758
36165SOL    HW211389   5.951   4.369   7.169  0.8839  0.4720  0.2917
36166SOL     OW11390   2.393   6.139   6.481 -0.0474 -0.5637  0.0660
36166SOL    HW111391   2.354   6.088   6.410 -0.9269  0.3871 -0.1597
36166SOL    HW211392   2.343   6.220   6.482 -0.1894 -0.6394  1.9168
36167SOL     OW11393   0.457   3.438   0.478  0.3374 -0.4266  0.5169
36167SOL    HW111394   0.398   3.430   0.552  1.9096  0.5267  1.9478
36167SOL    HW211395   0.508   3.517   0.496  0.2295  0.3295 -2.0084
36168SOL     OW11396   2.729   2.005   9.207  0.3594 -0.0464  0.0219
36168SOL    HW111397   2.716   1.912   9.227 -0.1069  0.3211  1.5387
36168SOL    HW211398   2.660   2.050   9.256 -0.4097  1.0073 -1.9048
36169SOL     OW11399  10.663   8.778   6.178  0.3962  0.1228  1.0905
36169SOL    HW111400  10.648   8.684   6.169  0.1722 -0.0528  3.0189
36169SOL    HW211401  10.575   8.815   6.191  0.2499  0.8833 -1.4162
36170SOL     OW11402   5.018   2.859   2.084  0.3308  0.4224  0.1443
36170SOL    HW111403   5.097   2.851   2.139 -1.2077  0.6584  2.5361
36170SOL    HW211404   5.035   2.801   2.010  1.0662 -3.0271  2.7163
36171SOL     OW11405   5.303   5.665   8.374  0.1659  0.2226  0.0995
36171SOL    HW111406   5.282   5.593   8.433 -0.7593 -0.1125 -0.6187
36171SOL    HW211407   5.372   5.631   8.317 -1.1335 -0.5677 -1.0644
36172SOL     OW11408   3.955   4.705   1.607  0.5089 -0.3204  0.2696
36172SOL    HW111409   3.996   4.646   1.543  1.2098  0.0550  0.3699
36172SOL    HW211410   3.862   4.683   1.602  0.4241  0.3062 -1.5399
36173SOL     OW11411   4.727   3.362   7.716  0.2246  0.1329 -0.4843
36173SOL    HW111412   4.633   3.358   7.698 -0.0923  0.2125  0.9680
36173SOL    HW211413   4.759   3.431   7.659 -0.4755 -0.3404 -1.4699
36174SOL     OW11414   3.233   0.749   9.597 -0.6846 -0.0599 -0.8385
36174SOL    HW111415   3.277   0.804   9.662  0.5919 -1.0798 -0.7803
36174SOL    HW211416   3.172   0.696   9.648 -0.5210 -0.0468 -0.6242
36175SOL     OW11417   2.334   5.139   2.109  0.4329 -0.2978  0.3301
36175SOL    HW111418   2.318   5.105   2.197 -0.0842 -0.9025  0.0092
36175SOL    HW211419   2.430   5.147   2.104  0.4545 -0.0455  1.0206
36176SOL     OW11420   6.554   1.451   3.621  0.0952 -0.0004 -0.0020
36176SOL    HW111421   6.603   1.405   3.554  2.5325 -0.2162  1.7959
36176SOL    HW211422   6.521   1.382   3.679 -4.4331 -0.0873 -2.2494
36177SOL     OW11423   7.071   8.755   1.141 -0.5041 -0.3990  0.2296
36177SOL    HW111424   7.135   8.760   1.212 -0.3557 -0.9338  0.1365
36177SOL    HW211425   7.008   8.824   1.161  0.4146  0.5287  0.0038
36178SOL     OW11426   6.761   8.803   0.302 -0.0320 -0.0480 -0.3424
36178SOL    HW111427   6.694   8.751   0.346  0.8757 -1.8785 -0.9851
36178SOL    HW211428   6.713   8.865   0.247 -1.2478 -1.9183 -1.4895
36179SOL     OW11429   4.962   1.572   3.456 -0.7445 -0.0580  0.1470
36179SOL    HW111430   4.943   1.554   3.364  1.1085 -0.0787 -0.2641
36179SOL    HW211431   5.040   1.520   3.476 -0.0763  1.2681  1.2148
36180SOL     OW11432   3.054   1.802  10.454  0.1084  0.4615 -0.0313
36180SOL    HW111433   3.016   1.785  10.368 -0.2053  2.0964 -0.2610
36180SOL    HW211434   2.993   1.863  10.496  1.8570  2.2799  0.0397
36181SOL     OW11435   6.277   6.304  10.655 -0.1762 -0.3611 -0.8884
36181SOL    HW111436   6.209   6.368  10.674  0.2962 -0.4150  1.2016
36181SOL    HW211437   6.242   6.221  10.690  0.1378 -0.7999 -1.5896
36182SOL     OW11438   2.400   1.506   4.275 -0.0813  0.3796  0.0278
36182SOL    HW111439   2.307   1.529   4.264 -1.0474 -3.1309 -0.6386
36182SOL    HW211440   2.437   1.513   4.187 -0.0679  0.5261  0.0453
36183SOL     OW11441   9.326   8.518   8.204 -0.3903  0.5222  0.1424
36183SOL    HW111442   9.346   8.559   8.120  0.6804  0.4121  0.3247
36183SOL    HW211443   9.286   8.587   8.256 -0.8102  0.6648 -0.3589
36184SOL     OW11444  10.156   2.285   7.184 -0.1422  0.1669  0.3597
36184SOL    HW111445  10.171   2.377   7.208  2.2598 -0.4355  1.4784
36184SOL    HW211446  10.216   2.236   7.240  0.2484 -1.9376 -1.7524
36185SOL     OW11447   1.183   5.786   8.488 -0.6795  0.1622 -0.4799
36185SOL    HW111448   1.130   5.853   8.445  0.4362  0.8862 -0.7562
36185SOL    HW211449   1.130   5.706   8.481 -2.4111  1.1440  0.6069
36186SOL     OW11450  10.300   8.946   0.282  0.2047  0.0297 -0.4713
36186SOL    HW111451  10.292   8.851   0.285 -2.2638  0.1399 -1.3601
36186SOL    HW211452  10.265   8.976   0.366 -0.5745  0.1916 -0.8428
36187SOL     OW11453   3.783   3.831   1.767  0.1643  0.0981 -0.1979
36187SOL    HW111454   3.696   3.799   1.744 -0.6983  0.4254  2.2979
36187SOL    HW211455   3.771   3.873   1.852  3.3723 -3.2013  2.2239
36188SOL     OW11456  10.358   3.665   6.357 -0.1926  0.0587  0.3222
36188SOL    HW111457  10.445   3.652   6.394  1.1299  0.0476 -2.5366
36188SOL    HW211458  10.351   3.760   6.346 -0.2139 -0.0045 -0.1945
36189SOL     OW11459   0.069   3.972  10.196  0.0988 -0.2535  0.0893
36189SOL    HW111460   0.156   3.942  10.223 -0.8962 -3.6259 -0.0358
36189SOL    HW211461   0.074   4.068  10.200  3.3698 -0.3681  1.3802
36190SOL     OW11462   8.670   9.423   8.815  0.1706  0.3699 -0.2711
36190SOL    HW111463   8.615   9.482   8.866 -1.1551 -2.5015  1.8614
36190SOL    HW211464   8.758   9.461   8.821 -0.5566  1.9379  1.2670
36191SOL     OW11465   8.349  10.083  10.201  0.1351 -0.0311 -0.1492
36191SOL    HW111466   8.322  10.079  10.110  0.1537 -1.5221 -0.1011
36191SOL    HW211467   8.390  10.169  10.209  2.0854 -0.6830 -2.1190
36192SOL     OW11468  10.110   6.678   2.600 -0.5129  0.2316  0.8580
36192SOL    HW111469  10.181   6.727   2.558 -2.1258  1.7614 -0.1924
36192SOL    HW211470  10.154   6.604   2.642  1.6251  0.8084 -0.2312
36193SOL     OW11471   3.715   6.180  10.796 -0.4466 -0.1635 -0.1270
36193SOL    HW111472   3.644   6.120  10.771  0.0786 -0.7954 -0.1203
36193SOL    HW211473   3.792   6.124  10.804 -0.2387  0.2835  1.2797
36194SOL     OW11474   2.665   1.339   2.287  0.2306  0.5456 -0.9405
36194SOL    HW111475   2.651   1.375   2.374  0.3308 -1.0224 -0.2412
36194SOL    HW211476   2.759   1.352   2.270  0.6998 -1.0910  0.1520
36195SOL     OW11477   2.328   0.390   2.639  0.1599  0.6411  0.2516
36195SOL    HW111478   2.416   0.369   2.608 -0.0285  0.8537 -0.4691
36195SOL    HW211479   2.298   0.459   2.580 -0.6643  0.2454  0.1829
36196SOL     OW11480  10.210   4.000   3.954  0.2434 -0.6239  0.1379
36196SOL    HW111481  10.227   3.946   3.876  0.6191 -0.4069  0.0670
36196SOL    HW211482  10.216   3.939   4.027  1.0760 -0.6067  0.0929
36197SOL     OW11483   0.662  10.277   1.335  0.4834  0.2356 -0.2423
36197SOL    HW111484   0.679  10.303   1.426 -0.5363 -0.1216  0.0580
36197SOL    HW211485   0.578  10.316   1.313  1.1639  1.1252 -1.3733
36198SOL     OW11486   8.044  10.097  10.512 -0.2407 -0.0516 -0.5241
36198SOL    HW111487   7.979  10.153  10.553 -0.7806 -0.7098 -0.4720
36198SOL    HW211488   8.107  10.159  10.472 -0.9194  0.5842 -0.6316
36199SOL     OW11489  10.571   6.455   1.017  0.3878 -0.0633 -0.0765
36199SOL    HW111490  10.597   6.546   1.003  0.4418 -0.0948 -0.1795
36199SOL    HW211491  10.551   6.450   1.111 -0.8262  0.3573 -0.2969
36200SOL     OW11492   9.919   5.702   7.555 -0.1488 -0.2311 -0.2055
36200SOL    HW111493   9.947   5.621   7.599  0.8442  0.8425  1.2208
36200SOL    HW211494   9.840   5.729   7.602  1.0476  1.0475  1.1632
36201SOL     OW11495   0.375   4.986   0.705 -0.2021  0.4074 -0.3481
36201SOL    HW111496   0.456   4.956   0.664 -1.4466 -1.8709 -1.3160
36201SOL    HW211497   0.394   4.985   0.799  0.6184 -1.1198 -0.4953
36202SOL     OW11498  10.369  10.726  10.028  0.4008 -0.7654  0.1157
36202SOL    HW111499  10.455  10.694  10.055  1.4490  0.9772 -0.9575
36202SOL    HW211500  10.363  10.814  10.066 -0.3113 -0.3262 -0.9720
36203SOL     OW11501   4.038   8.464   6.870 -0.6678  0.1858  0.2155
36203SOL    HW111502   4.058   8.556   6.887  1.0715 -0.4392  1.9626
36203SOL    HW211503   4.123   8.423   6.858 -1.3701 -1.3212  0.1956
36204SOL     OW11504   6.936   8.121  10.633 -0.2878  0.2081 -0.3719
36204SOL    HW111505   6.985   8.091  10.556 -0.0731 -0.8529  0.1620
36204SOL    HW211506   6.970   8.209  10.650 -0.3699  0.4776 -1.5084
36205SOL     OW11507   4.183   9.812   6.532  0.3823  0.4173  0.3113
36205SOL    HW111508   4.211   9.785   6.445 -0.5681 -0.9947  0.4172
36205SOL    HW211509   4.089   9.830   6.522 -0.4447 -2.5908  1.6104
36206SOL     OW11510   2.012   2.363   2.182  0.4447 -0.1417 -0.2556
36206SOL    HW111511   2.058   2.388   2.102 -1.4788 -1.1791 -1.7477
36206SOL    HW211512   2.070   2.298   2.223  0.7950 -0.7057 -1.5826
36207SOL     OW11513   7.605   5.296   9.772 -0.2537 -0.2874  0.5156
36207SOL    HW111514   7.699   5.279   9.769 -0.3881 -1.2149  1.0097
36207SOL    HW211515   7.565   5.210   9.756 -1.0136  0.0865  0.3629
36208SOL     OW11516   5.542   1.008   0.422  0.2710 -0.9611 -0.4279
36208SOL    HW111517   5.504   1.075   0.364 -1.1101  1.0111  2.5402
36208SOL    HW211518   5.478   0.937   0.421 -2.1938  1.0378  2.1214
36209SOL     OW11519   4.099   2.398   3.336 -0.0327  0.0278  0.0110
36209SOL    HW111520   4.069   2.467   3.278  1.1856  0.4198 -0.1868
36209SOL    HW211521   4.101   2.319   3.282 -0.1002  0.1287 -0.1370
36210SOL     OW11522   3.911   6.463   6.093 -0.1401  0.0029 -0.2145
36210SOL    HW111523   3.856   6.400   6.046 -1.1713  1.0410 -0.4657
36210SOL    HW211524   3.980   6.486   6.032  0.5501 -1.2542  0.0690
36211SOL     OW11525   7.231   1.626   1.820  0.4433 -0.0982 -0.3398
36211SOL    HW111526   7.201   1.572   1.893  1.3144  1.0073  0.8921
36211SOL    HW211527   7.319   1.654   1.845  0.3599  1.1654 -1.3278
36212SOL     OW11528   7.082   2.670   4.806 -0.4953  0.5929  0.3010
36212SOL    HW111529   7.166   2.712   4.820  0.3918 -0.6086 -1.1040
36212SOL    HW211530   7.036   2.727   4.743 -0.4513  0.8962  0.5459
36213SOL     OW11531   7.188   5.277   4.576 -0.0881 -0.2122  0.3399
36213SOL    HW111532   7.229   5.273   4.663 -0.3528 -0.0880  0.4721
36213SOL    HW211533   7.116   5.339   4.587 -0.3707 -0.5047  0.1315
36214SOL     OW11534   2.924   2.717   8.285  0.6579  0.3263  0.3047
36214SOL    HW111535   2.862   2.660   8.238  1.3267  0.5467 -0.8893
36214SOL    HW211536   3.010   2.693   8.250  1.0524  1.3493  0.5407
36215SOL     OW11537   6.903   6.702   6.314 -0.2364  0.1314  0.3999
36215SOL    HW111538   6.916   6.797   6.314 -0.9927  0.2774 -1.4463
36215SOL    HW211539   6.969   6.668   6.254 -0.0551 -0.5187  0.9442
36216SOL     OW11540   1.264  10.494   4.973 -0.2654 -0.5305 -0.2245
36216SOL    HW111541   1.237  10.408   5.004 -0.0693 -0.8083 -0.8184
36216SOL    HW211542   1.360  10.492   4.976 -0.2565 -0.3927 -0.3899
36217SOL     OW11543   3.253  10.001  10.646  0.5867 -0.3652 -0.1463
36217SOL    HW111544   3.245   9.990  10.741 -2.8840 -1.1681 -0.4051
36217SOL    HW211545   3.313   9.931  10.620  0.3458 -1.1623  1.3031
36218SOL     OW11546   2.091   8.083   3.881 -0.0188  0.3151  0.0838
36218SOL    HW111547   2.100   8.160   3.824 -1.0893 -0.3717 -1.0822
36218SOL    HW211548   2.181   8.051   3.892  0.5477  2.1872  1.3031
36219SOL     OW11549   0.841   5.984   9.887 -0.0825  0.3391  0.0094
36219SOL    HW111550   0.900   5.932   9.941  0.5905  0.0173 -1.0156
36219SOL    HW211551   0.894   6.012   9.813 -1.4873 -0.9928 -1.5851
36220SOL     OW11552   7.887   7.197  10.188  0.6420  0.0267  0.3128
36220SOL    HW111553   7.921   7.286  10.179 -1.3793  0.7671 -0.5114
36220SOL    HW211554   7.815   7.205  10.251 -0.6133 -0.6767 -0.9755
36221SOL     OW11555   4.317   9.976   3.058  0.0199 -0.5476 -0.2064
36221SOL    HW111556   4.386   9.957   3.121 -1.3129  0.7929  1.7775
36221SOL    HW211557   4.237   9.948   3.102 -0.9106 -0.0017 -1.5204
36222SOL     OW11558   5.668   4.252   4.698  0.0573  0.1717  0.3477
36222SOL    HW111559   5.618   4.309   4.639  0.4022 -1.0370 -1.1841
36222SOL    HW211560   5.673   4.169   4.652  1.0629 -0.5813  1.7476
36223SOL     OW11561   9.305   1.435  10.584 -0.4766 -0.2458  0.1039
36223SOL    HW111562   9.270   1.401  10.666  0.7071  0.8871  1.1307
36223SOL    HW211563   9.302   1.530  10.594  0.6246 -0.0964 -0.7403
36224SOL     OW11564   5.816   2.293   9.125 -0.2282  0.0491  0.1698
36224SOL    HW111565   5.864   2.274   9.045 -1.8296  0.3244 -0.9039
36224SOL    HW211566   5.743   2.349   9.097 -2.2162 -1.7550  1.3795
36225SOL     OW11567   6.311   9.243   0.393 -1.1163  0.1147  0.3484
36225SOL    HW111568   6.311   9.260   0.299  0.0294 -1.6313 -0.0085
36225SOL    HW211569   6.315   9.330   0.433  1.4320  0.8414 -1.2743
36226SOL     OW11570  10.491   0.524   4.777 -0.2627 -0.5269  0.3194
36226SOL    HW111571  10.531   0.579   4.709 -3.1840 -0.0798 -1.2255
36226SOL    HW211572  10.407   0.567   4.796 -0.3663 -1.6773  2.9270
36227SOL     OW11573   9.498   5.746   5.894  0.3670  0.1916  0.8643
36227SOL    HW111574   9.454   5.802   5.958  2.6903  2.5124  0.5942
36227SOL    HW211575   9.557   5.692   5.945  1.4124  1.2556  0.8108
36228SOL     OW11576   6.707   3.725   5.465  0.1493  0.4317  0.4930
36228SOL    HW111577   6.639   3.674   5.421 -0.2996  0.1616  1.4608
36228SOL    HW211578   6.722   3.799   5.407 -0.3470  0.0382 -0.1604
36229SOL     OW11579   8.522   7.209   8.982 -0.0652 -0.4157  0.0666
36229SOL    HW111580   8.441   7.158   8.989 -2.2101  1.9888 -3.8477
36229SOL    HW211581   8.565   7.175   8.903  1.2528  0.3214  0.4360
36230SOL     OW11582   4.449   4.142   0.923 -0.1822  0.3335  0.2436
36230SOL    HW111583   4.378   4.088   0.886  0.2894 -0.8789  1.0699
36230SOL    HW211584   4.419   4.163   1.011 -0.6210  1.9593 -0.2580
36231SOL     OW11585   6.105   4.846   7.003 -0.5470  0.7556  0.3392
36231SOL    HW111586   6.016   4.856   6.971 -0.6590  0.5342  0.5780
36231SOL    HW211587   6.113   4.752   7.021  0.8133  0.0904 -2.8999
36232SOL     OW11588   3.693   4.734   8.764  0.1442 -0.1029 -0.1840
36232SOL    HW111589   3.605   4.769   8.774 -0.3675 -1.3353 -0.2257
36232SOL    HW211590   3.714   4.747   8.671 -0.4517 -0.8146 -0.4292
36233SOL     OW11591   8.581   4.730   4.130  0.0204  0.3310 -0.1202
36233SOL    HW111592   8.657   4.718   4.188  0.8707 -0.2668 -1.3008
36233SOL    HW211593   8.568   4.643   4.091 -0.5356  0.7181 -0.8105
36234SOL     OW11594   9.340   6.913   5.678 -0.1413  0.2488 -0.0790
36234SOL    HW111595   9.397   6.903   5.601 -0.2519  0.0746 -0.1376
36234SOL    HW211596   9.337   6.827   5.718  0.2833  0.4424  0.3830
36235SOL     OW11597   3.979   8.596   3.344  0.3090  0.4504 -0.2469
36235SOL    HW111598   3.933   8.660   3.290 -0.0989  0.7217  0.4052
36235SOL    HW211599   3.963   8.512   3.300 -1.3517  0.4495  0.2776
36236SOL     OW11600  10.181   4.748   2.407 -0.1175  0.2597 -0.2466
36236SOL    HW111601  10.217   4.834   2.431  2.0766 -0.6853  0.1776
36236SOL    HW211602  10.208   4.736   2.316 -2.1984  0.8284 -0.9793
36237SOL     OW11603   5.125   8.957   1.129 -0.4278 -0.2117  0.3651
36237SOL    HW111604   5.091   8.977   1.042  1.2228 -2.1263 -0.8152
36237SOL    HW211605   5.068   8.887   1.162 -0.2508 -0.4133  0.2448
36238SOL     OW11606   8.598   1.377   2.226  0.1299 -0.2246 -0.0876
36238SOL    HW111607   8.555   1.455   2.260  1.9252  0.8270 -0.1314
36238SOL    HW211608   8.675   1.365   2.282  1.2493 -0.4870 -1.6223
36239SOL     OW11609   6.263   1.837   4.856  0.1335  0.8958  0.2665
36239SOL    HW111610   6.227   1.748   4.847  0.1333  0.7617  1.4146
36239SOL    HW211611   6.322   1.847   4.782  0.4276 -0.2173  0.3356
36240SOL     OW11612   2.693   8.257   3.769 -0.5642 -0.4117 -0.0282
36240SOL    HW111613   2.724   8.326   3.828 -2.0247 -1.5341  2.1781
36240SOL    HW211614   2.772   8.206   3.749  0.6308  2.0093 -2.0458
36241SOL     OW11615   1.607   5.689   0.523 -0.1117 -0.2808 -0.4373
36241SOL    HW111616   1.616   5.783   0.506  1.0617 -0.3989 -0.5718
36241SOL    HW211617   1.698   5.657   0.531 -0.4869 -1.4195 -0.4975
36242SOL     OW11618   8.142   6.093   6.224  0.4455  0.4340  0.0482
36242SOL    HW111619   8.233   6.065   6.211  0.7420  1.1875  0.4008
36242SOL    HW211620   8.145   6.187   6.205 -0.0933  0.6189  0.8821
36243SOL     OW11621   4.403   6.253   9.102  0.1294  0.0286 -0.7116
36243SOL    HW111622   4.378   6.345   9.093 -1.0501 -0.3128 -1.0304
36243SOL    HW211623   4.497   6.253   9.084 -0.1006  0.9863 -2.1382
36244SOL     OW11624   7.211   1.433   3.011 -0.0791 -0.3087  0.0347
36244SOL    HW111625   7.234   1.480   3.091  1.5886  0.5730 -0.9264
36244SOL    HW211626   7.140   1.484   2.972 -1.3404 -1.0727  1.1838
36245SOL     OW11627   8.074   4.300   6.651 -0.2322 -0.0661  0.1119
36245SOL    HW111628   8.004   4.254   6.698  0.3868 -0.6048  0.5250
36245SOL    HW211629   8.083   4.383   6.698 -0.3882 -0.1187  0.2376
36246SOL     OW11630   2.593   5.630  10.233 -0.3081  0.1957  0.0061
36246SOL    HW111631   2.604   5.535  10.227 -0.4034  0.2687 -1.9364
36246SOL    HW211632   2.517   5.649  10.179 -2.3288  1.0990  2.9330
36247SOL     OW11633   7.070   1.245   1.331 -0.2137 -0.2096 -0.6938
36247SOL    HW111634   7.086   1.291   1.248 -0.0343  1.3955  0.1885
36247SOL    HW211635   7.156   1.212   1.357 -0.2833 -0.7770 -1.1720
36248SOL     OW11636   0.131  10.751   4.178 -0.2679  0.1276 -0.2265
36248SOL    HW111637   0.195  10.800   4.127  0.0951 -1.4893 -1.3995
36248SOL    HW211638   0.178  10.674   4.209 -0.4884  1.0022  2.6153
36249SOL     OW11639  10.697   0.435   3.159  0.1191  0.3467 -0.3182
36249SOL    HW111640  10.613   0.467   3.192 -0.0210  0.0527 -0.3884
36249SOL    HW211641  10.722   0.365   3.218  0.7937  1.0650  0.2781
36250SOL     OW11642   3.061   1.151   2.638 -0.5153  0.6069  0.7210
36250SOL    HW111643   3.131   1.143   2.574 -1.3044  0.0538 -0.1051
36250SOL    HW211644   3.076   1.078   2.699 -0.6621  0.1762  0.2467
36251SOL     OW11645   2.825   2.771   2.742 -0.2550 -0.2680  0.3883
36251SOL    HW111646   2.824   2.698   2.804  0.4771 -0.2840  0.3789
36251SOL    HW211647   2.767   2.742   2.671 -0.3430 -0.6411  0.6082
36252SOL     OW11648   5.339   2.604   3.244  0.2605  0.2311 -0.2511
36252SOL    HW111649   5.351   2.605   3.149  0.3333  0.3855 -0.2406
36252SOL    HW211650   5.395   2.675   3.276 -0.2376  0.5783 -0.1443
36253SOL     OW11651   7.271   0.035  10.782 -0.1814 -0.2235 -0.1560
36253SOL    HW111652   7.268  -0.061  10.793 -1.1499 -0.2428 -0.5100
36253SOL    HW211653   7.180   0.063  10.791  0.0566  0.6377 -0.3468
36254SOL     OW11654   4.059   0.710   6.529  0.1271 -0.8882 -0.2130
36254SOL    HW111655   4.122   0.768   6.487 -0.2747  0.0240  0.4302
36254SOL    HW211656   4.071   0.626   6.484  0.0265 -0.0620 -1.8318
36255SOL     OW11657   2.936   6.242   9.348 -0.2360 -0.5032  0.1696
36255SOL    HW111658   2.946   6.319   9.403 -1.8514  1.2140 -1.7765
36255SOL    HW211659   2.992   6.258   9.272  1.4485 -2.5239  0.8719
36256SOL     OW11660  10.770   8.167   2.562  0.4804 -0.3827 -0.2885
36256SOL    HW111661  10.767   8.077   2.594 -0.0070  0.2017  1.4504
36256SOL    HW211662  10.856   8.199   2.588 -0.0565  0.2123  0.8417
36257SOL     OW11663   4.086   6.862   8.090 -0.0062 -0.4379  0.0585
36257SOL    HW111664   4.047   6.903   8.013  2.0469  1.2280 -0.1748
36257SOL    HW211665   4.180   6.865   8.075  0.5171  0.3310  2.7848
36258SOL     OW11666   6.485   2.694   5.789 -0.0316  0.4276  0.5574
36258SOL    HW111667   6.567   2.666   5.830  1.2272 -0.0085 -2.0425
36258SOL    HW211668   6.513   2.756   5.721 -1.8092 -0.0539 -0.6757
36259SOL     OW11669   1.851   1.871   4.968 -0.0325 -0.1709 -0.7848
36259SOL    HW111670   1.929   1.828   5.002  0.0722 -0.5373 -1.4759
36259SOL    HW211671   1.884   1.948   4.921 -0.1574  0.1889 -0.2923
36260SOL     OW11672   3.645   6.347   6.694  0.3190 -0.1538  0.2282
36260SOL    HW111673   3.667   6.403   6.769 -0.6508  0.4076  0.1094
36260SOL    HW211674   3.719   6.356   6.635  1.5607 -1.3497  1.5064
36261SOL     OW11675   4.929   4.882   0.822 -0.0947  0.1044 -0.1045
36261SOL    HW111676   4.936   4.970   0.784 -2.1516  0.3061 -0.1779
36261SOL    HW211677   4.952   4.894   0.914 -2.7151  1.3189  0.4851
36262SOL     OW11678   4.494   0.637   4.346 -0.2479  0.3637  0.3790
36262SOL    HW111679   4.454   0.570   4.402 -0.0272  0.1298  0.2555
36262SOL    HW211680   4.506   0.594   4.261  0.7945  0.2576  0.5760
36263SOL     OW11681   6.696   9.642   4.857 -0.3433 -0.1549 -0.5119
36263SOL    HW111682   6.689   9.548   4.872  3.3830 -0.9562 -2.6237
36263SOL    HW211683   6.669   9.654   4.766 -1.5900  1.0169 -0.0239
36264SOL     OW11684   4.457   1.038   6.172  0.5837  0.2343  0.1494
36264SOL    HW111685   4.486   0.969   6.111 -0.6758  0.9264 -1.2908
36264SOL    HW211686   4.531   1.099   6.176  0.5246  0.3984 -1.0376
36265SOL     OW11687   1.555   1.529   8.492  0.5390  0.2163 -0.4602
36265SOL    HW111688   1.524   1.463   8.430  0.0292 -1.0824  1.0852
36265SOL    HW211689   1.597   1.479   8.561  2.0859  1.6872 -0.2647
36266SOL     OW11690   2.197  10.115   4.927  0.1489 -0.7144  0.9580
36266SOL    HW111691   2.124  10.061   4.896  0.4192 -0.7062  0.2784
36266SOL    HW211692   2.191  10.111   5.022  0.4701 -2.3878  0.9467
36267SOL     OW11693   3.457   5.958   8.707 -0.1618 -0.7651 -0.3731
36267SOL    HW111694   3.548   5.926   8.713  0.0563 -0.1609 -0.4359
36267SOL    HW211695   3.446   5.982   8.615  0.4365  1.5310  0.1017
36268SOL     OW11696   5.924   5.039   9.083 -0.3641 -0.2557 -0.2628
36268SOL    HW111697   6.005   4.996   9.112 -0.1600 -1.6003 -2.5433
36268SOL    HW211698   5.857   4.970   9.090 -1.1848  0.6083  0.8224
36269SOL     OW11699   5.737   5.789   3.142 -0.3382 -0.2867 -0.3379
36269SOL    HW111700   5.810   5.767   3.084 -1.4533  1.4530 -2.5485
36269SOL    HW211701   5.714   5.705   3.183  2.2466 -1.0590 -0.2582
36270SOL     OW11702  10.422   6.855   8.607  0.2891 -0.2439  0.4740
36270SOL    HW111703  10.491   6.889   8.664  0.9516 -1.2467  0.2996
36270SOL    HW211704  10.450   6.878   8.519  0.1871 -0.2806  0.4318
36271SOL     OW11705   5.095   1.795   4.628  0.0672  0.0508  0.2919
36271SOL    HW111706   5.027   1.734   4.600 -1.7943  1.5543  1.3015
36271SOL    HW211707   5.118   1.843   4.548 -0.4474 -0.1136  0.0378
36272SOL     OW11708   3.442   9.869   1.916  0.6446  0.0380 -0.2275
36272SOL    HW111709   3.512   9.817   1.874  1.2305  0.5612  0.0814
36272SOL    HW211710   3.472   9.959   1.909  0.4406  0.1901  0.7369
36273SOL     OW11711   2.399  10.494   2.391  0.3539 -0.0668 -0.3770
36273SOL    HW111712   2.420  10.404   2.369  0.9228  0.2698 -1.2768
36273SOL    HW211713   2.448  10.547   2.328  2.1653  0.9998  1.7742
36274SOL     OW11714   9.121   2.984   7.641  0.4162  0.3565  0.1956
36274SOL    HW111715   9.194   2.934   7.679  0.0727  0.7686  1.4785
36274SOL    HW211716   9.118   3.064   7.694 -0.7991  0.4702 -0.0158
36275SOL     OW11717   2.491   2.558   6.134 -0.2820 -0.0343 -0.6899
36275SOL    HW111718   2.498   2.464   6.150 -0.6101 -0.3087 -1.9974
36275SOL    HW211719   2.433   2.565   6.059 -0.5721  1.2479 -0.3659
36276SOL     OW11720  10.173   2.202   1.755  0.2510 -0.1662 -0.4214
36276SOL    HW111721  10.237   2.268   1.782  0.7758 -0.0059 -1.9386
36276SOL    HW211722  10.088   2.239   1.778  0.6057  0.5434 -0.2297
36277SOL     OW11723   2.338  10.451   7.462 -0.2458  0.2099 -0.0327
36277SOL    HW111724   2.429  10.423   7.471  0.0484  0.8751 -0.8618
36277SOL    HW211725   2.332  10.488   7.374 -0.9653  1.4647  0.5158
36278SOL     OW11726   2.597   0.271   2.544 -0.6532 -0.2671 -1.1106
36278SOL    HW111727   2.597   0.189   2.593 -1.9672  0.5227  0.2935
36278SOL    HW211728   2.686   0.305   2.554 -0.8918 -0.1138  0.8008
36279SOL     OW11729   9.641   7.358   7.658  0.2260  0.0557 -0.2814
36279SOL    HW111730   9.604   7.300   7.591 -0.2818  0.5942 -0.4732
36279SOL    HW211731   9.652   7.442   7.614 -1.0236  0.6902  0.5663
36280SOL     OW11732   1.057   6.014  10.559 -0.2078 -0.2626  0.0400
36280SOL    HW111733   1.102   6.005  10.643 -0.2721  0.5166  0.1667
36280SOL    HW211734   1.102   6.087  10.515 -1.0215  0.2016 -0.0372
36281SOL     OW11735  10.602   8.932   8.974 -0.0366 -0.0950 -0.0166
36281SOL    HW111736  10.532   8.896   9.029 -1.7848  0.8083 -1.5187
36281SOL    HW211737  10.634   9.008   9.023  0.2237 -0.7692  0.8880
36282SOL     OW11738   5.416   8.970   3.613 -0.1326  0.7118  0.1870
36282SOL    HW111739   5.369   9.044   3.576 -0.3603  0.2256 -0.5371
36282SOL    HW211740   5.355   8.896   3.605  0.4153  0.2615  0.0603
36283SOL     OW11741   3.296   2.951   0.979  0.3911  0.2723  0.1080
36283SOL    HW111742   3.380   2.978   1.017  0.5318 -1.6083  1.3062
36283SOL    HW211743   3.319   2.884   0.915 -0.1565  0.2577 -0.0802
36284SOL     OW11744   8.086   1.461   1.086  0.2397 -0.2479  0.3503
36284SOL    HW111745   8.159   1.490   1.031 -0.2509 -1.0298 -0.7383
36284SOL    HW211746   8.012   1.451   1.026 -0.2589 -1.3102  1.1022
36285SOL     OW11747   9.224   5.276   4.002 -0.1490  0.1152 -0.4442
36285SOL    HW111748   9.207   5.183   4.020  0.4830  0.0722 -0.0318
36285SOL    HW211749   9.319   5.281   3.991  0.0899  1.0279  1.5040
36286SOL     OW11750   7.576   5.309   6.229 -0.5327  0.0799  0.0174
36286SOL    HW111751   7.573   5.237   6.292  0.6069 -2.1182 -2.2623
36286SOL    HW211752   7.524   5.279   6.155  0.6326  1.2342 -1.3440
36287SOL     OW11753   4.921   3.428   4.800 -0.0589 -0.3122 -0.6816
36287SOL    HW111754   4.947   3.374   4.874 -0.7445  0.4477  0.1198
36287SOL    HW211755   4.984   3.501   4.800 -0.0154 -0.3470 -0.9018
36288SOL     OW11756   1.998   1.634   0.295 -0.0550  0.0284 -0.2979
36288SOL    HW111757   1.931   1.629   0.363 -0.2479 -1.3546 -0.5594
36288SOL    HW211758   2.003   1.545   0.259  0.9784  0.4188 -1.1917
36289SOL     OW11759   5.515   7.335  10.673  0.2855  0.3075 -0.1722
36289SOL    HW111760   5.602   7.295  10.682 -0.5258 -1.6494 -0.5793
36289SOL    HW211761   5.457   7.278  10.722 -0.8787  1.2771 -0.3807
36290SOL     OW11762   4.520   7.282   9.552 -0.5528 -0.4401 -0.0382
36290SOL    HW111763   4.430   7.306   9.529 -0.5942 -1.1272 -0.6504
36290SOL    HW211764   4.517   7.263   9.646 -0.9645 -0.1042  0.0199
36291SOL     OW11765   7.658   5.052   8.839  0.5715  0.3204 -0.6547
36291SOL    HW111766   7.687   5.024   8.752  0.1025 -0.3528 -0.6070
36291SOL    HW211767   7.647   4.970   8.887  3.1130  0.7386  0.8208
36292SOL     OW11768   9.161   0.566   1.874 -0.8023 -0.5133 -0.6901
36292SOL    HW111769   9.210   0.502   1.822 -1.0591  1.1954 -3.1681
36292SOL    HW211770   9.229   0.613   1.923 -0.1878 -0.0195 -1.9615
36293SOL     OW11771   0.115   6.299   4.555 -0.4247  0.4330 -0.0270
36293SOL    HW111772   0.088   6.369   4.496  0.5841 -1.0293 -2.3792
36293SOL    HW211773   0.172   6.343   4.619  0.8277  1.6943 -1.8994
36294SOL     OW11774   9.945   0.450   4.567  0.1972  0.0835 -0.1779
36294SOL    HW111775   9.902   0.410   4.643  2.2793  1.0943  1.6431
36294SOL    HW211776  10.038   0.432   4.581  0.5858 -0.8719 -3.2594
36295SOL     OW11777   7.314   6.272  10.782  0.1278  0.1305  0.0911
36295SOL    HW111778   7.236   6.311  10.820  0.5016  0.0992  0.9116
36295SOL    HW211779   7.352   6.341  10.728 -0.4595  0.1430 -0.3202
36296SOL     OW11780  10.473   1.803   9.417 -0.1545  0.5491  0.5907
36296SOL    HW111781  10.494   1.727   9.364 -1.1964  0.1413  0.7236
36296SOL    HW211782  10.508   1.878   9.369 -0.1658  0.0893 -0.1363
36297SOL     OW11783   5.038   7.197   7.112  0.1246  0.2639 -0.0037
36297SOL    HW111784   4.989   7.138   7.055 -1.7593 -0.8835  2.6046
36297SOL    HW211785   4.977   7.267   7.133  0.2539 -0.1137  1.7312
36298SOL     OW11786   2.191  10.017  10.329 -0.1855  0.1558  0.2801
36298SOL    HW111787   2.134  10.093  10.328 -1.2081 -0.5177  2.2146
36298SOL    HW211788   2.276  10.050  10.357 -0.4181  0.7024  0.3381
36299SOL     OW11789   0.853   4.958   1.734 -0.2287  0.3773  0.1162
36299SOL    HW111790   0.889   4.873   1.707 -1.1952  0.9003 -3.4913
36299SOL    HW211791   0.805   4.988   1.656 -1.6386  3.3157  1.9582
36300SOL     OW11792   1.113   0.323  10.016 -0.3408  0.3039 -0.2296
36300SOL    HW111793   1.094   0.380  10.090 -0.8341 -1.1755  0.8355
36300SOL    HW211794   1.209   0.319  10.012 -0.2807 -1.0906  1.5725
36301SOL     OW11795   7.598   4.074   3.398 -0.1132  0.2238 -0.7156
36301SOL    HW111796   7.575   4.158   3.438 -0.5089  0.6561 -1.7986
36301SOL    HW211797   7.557   4.078   3.311 -1.2448 -1.6095 -0.3197
36302SOL     OW11798   5.768   1.061   4.087 -0.5098  0.1544  0.5435
36302SOL    HW111799   5.725   0.989   4.042 -1.3060 -1.1425  3.1815
36302SOL    HW211800   5.697   1.111   4.127  0.1997  0.6335  1.2436
36303SOL     OW11801   4.537   8.716   5.911 -0.3925  0.5847  0.4585
36303SOL    HW111802   4.534   8.679   5.823 -0.2422  1.4485  0.0808
36303SOL    HW211803   4.481   8.659   5.963  1.2557 -1.2662  0.3289
36304SOL     OW11804   4.126   3.441   2.918 -0.1436  0.5684 -0.1829
36304SOL    HW111805   4.059   3.508   2.905  0.1053  0.8526 -0.0134
36304SOL    HW211806   4.080   3.358   2.904 -0.0135  0.7980 -2.4644
36305SOL     OW11807   2.485   8.722   8.524 -0.0695 -0.0750  0.1277
36305SOL    HW111808   2.445   8.683   8.446  1.5389  0.0032 -0.7690
36305SOL    HW211809   2.550   8.783   8.489  2.1904 -1.5990  1.4964
36306SOL     OW11810   8.010   5.235   7.679 -0.0020  0.4073 -0.2215
36306SOL    HW111811   7.968   5.258   7.762  0.4071  0.7898 -0.1140
36306SOL    HW211812   8.064   5.159   7.700 -0.0876  0.3544 -0.1935
36307SOL     OW11813   4.603   9.112   9.162 -0.6443 -0.0006 -0.1443
36307SOL    HW111814   4.555   9.132   9.082  0.6939 -0.5028 -1.1214
36307SOL    HW211815   4.622   9.018   9.155  2.1408  0.5142 -0.8163
36308SOL     OW11816   2.012  10.297   6.368 -0.6029 -0.8867  0.1493
36308SOL    HW111817   2.068  10.363   6.326  0.3479  1.5668  4.7054
36308SOL    HW211818   2.056  10.213   6.348  2.4000  0.5488  0.1071
36309SOL     OW11819   0.374   0.348   5.726  0.0448  0.2952 -0.6313
36309SOL    HW111820   0.329   0.300   5.656  0.4285 -1.4557  0.2773
36309SOL    HW211821   0.452   0.297   5.744 -0.1161  0.6286  1.1832
36310SOL     OW11822   1.584   7.606   6.100 -0.4093  0.4457 -0.4968
36310SOL    HW111823   1.536   7.524   6.092  0.0653  0.1048  0.1213
36310SOL    HW211824   1.643   7.606   6.024  0.0687 -0.1141 -0.1376
36311SOL     OW11825   2.346   9.471   7.300 -0.1945  0.7731 -0.6669
36311SOL    HW111826   2.396   9.448   7.379 -0.5893  0.0111 -0.6311
36311SOL    HW211827   2.319   9.562   7.315 -0.0781  0.7065 -0.0247
36312SOL     OW11828   6.573   8.122   4.487  0.2464  0.0775 -0.5624
36312SOL    HW111829   6.588   8.116   4.392 -1.2784  0.7144 -0.8693
36312SOL    HW211830   6.655   8.092   4.526  1.9366  2.3472 -2.1038
36313SOL     OW11831   0.296   3.253   4.038  0.0804 -0.3475 -0.0018
36313SOL    HW111832   0.239   3.287   4.107  0.7758  0.1813  0.3200
36313SOL    HW211833   0.242   3.187   3.993 -1.4562  1.4419 -0.8998
36314SOL     OW11834   8.611   5.313   7.225  0.0481 -0.6540 -0.2467
36314SOL    HW111835   8.658   5.378   7.276  1.0135 -0.1114 -1.7712
36314SOL    HW211836   8.679   5.258   7.187 -0.4055  0.5748 -3.0833
36315SOL     OW11837   2.239   9.954   9.516 -0.0410  0.1073 -0.7503
36315SOL    HW111838   2.330   9.935   9.493 -0.2959 -0.9274 -0.9796
36315SOL    HW211839   2.231   9.927   9.608  0.5789  2.8036  0.1663
36316SOL     OW11840  10.123   4.845   1.473 -0.1819 -0.2740 -0.7923
36316SOL    HW111841  10.051   4.863   1.534  0.2155  0.9436 -0.6510
36316SOL    HW211842  10.201   4.839   1.529  0.1245  0.4563 -1.1266
36317SOL     OW11843   5.117   3.256   6.039  0.5164  0.5046  0.2550
36317SOL    HW111844   5.212   3.239   6.036  0.4783  0.3161  0.0460
36317SOL    HW211845   5.104   3.325   5.975  0.3003 -0.5524 -0.8824
36318SOL     OW11846   1.998   0.878   6.852 -0.6085 -0.1665  0.1767
36318SOL    HW111847   1.945   0.916   6.923 -0.4501 -0.3313  0.3860
36318SOL    HW211848   1.937   0.868   6.779 -0.6421  0.5445  0.1006
36319SOL     OW11849   1.918   0.076   2.796  0.2603  0.4613  0.2441
36319SOL    HW111850   1.987   0.137   2.769  0.8209 -0.4927 -0.5682
36319SOL    HW211851   1.837   0.125   2.786  0.8190  1.6803  1.4146
36320SOL     OW11852   5.684   6.401   6.874  0.2981  0.2164  0.1371
36320SOL    HW111853   5.639   6.484   6.890 -0.6051  0.3396 -2.5472
36320SOL    HW211854   5.769   6.427   6.838  1.4351 -0.0532  2.4686
36321SOL     OW11855   8.380   5.753   2.184  0.1201 -0.2239  0.0785
36321SOL    HW111856   8.304   5.748   2.126  0.8642 -0.5782 -0.9008
36321SOL    HW211857   8.406   5.662   2.198  0.0054 -0.1360  0.9025
36322SOL     OW11858   4.214   2.900  10.688 -0.2017 -0.1724 -0.3321
36322SOL    HW111859   4.287   2.960  10.672  0.5612 -1.5013 -2.2386
36322SOL    HW211860   4.144   2.932  10.632 -1.4369  1.4974  1.9863
36323SOL     OW11861   2.982   8.678   1.912 -0.7815  0.0225 -0.0449
36323SOL    HW111862   2.965   8.693   1.819 -1.1330 -0.2466 -0.0254
36323SOL    HW211863   2.907   8.717   1.957 -0.0673  1.1683  0.1959
36324SOL     OW11864   6.321   7.838  10.530  0.3983  0.0913  0.9801
36324SOL    HW111865   6.324   7.774  10.458 -0.5216  0.2846  0.7644
36324SOL    HW211866   6.243   7.815  10.580 -0.7004  1.8246  0.1607
36325SOL     OW11867   0.158   1.788   0.209  0.8927  0.0312  0.2184
36325SOL    HW111868   0.174   1.846   0.283 -0.4428 -1.0669  1.4423
36325SOL    HW211869   0.227   1.722   0.215  0.9555  0.1071  0.3227
36326SOL     OW11870   4.635   3.129   6.152  0.1413  0.0406 -0.3493
36326SOL    HW111871   4.704   3.081   6.107 -0.5678 -0.9402 -0.4294
36326SOL    HW211872   4.662   3.130   6.244 -0.0194 -0.8500 -0.2883
36327SOL     OW11873   8.283   0.069   1.306 -0.5846 -0.3391  1.0418
36327SOL    HW111874   8.369   0.029   1.294 -0.5046 -0.4634  2.0114
36327SOL    HW211875   8.256   0.093   1.217  1.2403  1.4150  0.8920
36328SOL     OW11876   3.478   8.374   1.441 -0.4998  0.2295 -0.2797
36328SOL    HW111877   3.507   8.310   1.376 -0.0357  0.6887 -0.5302
36328SOL    HW211878   3.398   8.411   1.404 -1.9094 -1.5785  0.7543
36329SOL     OW11879   1.147   9.501   9.921  0.0620 -0.0074 -0.4576
36329SOL    HW111880   1.138   9.476   9.829  1.6658  0.3861 -0.7542
36329SOL    HW211881   1.160   9.595   9.919  2.4537 -0.2724 -0.0609
36330SOL     OW11882   4.009   5.091  10.450  0.1044  0.4904 -0.0189
36330SOL    HW111883   4.047   5.051  10.371 -0.2235  0.9524 -0.4143
36330SOL    HW211884   3.987   5.180  10.424  1.2547  1.0948  0.9911
36331SOL     OW11885   4.608   8.377   7.728  0.3515  0.1654  0.2716
36331SOL    HW111886   4.653   8.293   7.718 -0.0289 -0.1178  0.8651
36331SOL    HW211887   4.651   8.418   7.803  3.7034  2.5897 -2.6294
36332SOL     OW11888   4.794   1.763  10.786 -0.0854 -0.1759 -0.1434
36332SOL    HW111889   4.822   1.789  10.698  0.2980 -1.2400 -0.3494
36332SOL    HW211890   4.804   1.842  10.839  1.1216  0.0837 -0.7231
36333SOL     OW11891   9.286   4.613  10.082  0.4365 -0.4064 -0.3863
36333SOL    HW111892   9.300   4.539  10.141  0.7443  0.5966  0.8367
36333SOL    HW211893   9.365   4.666  10.089 -0.7954  1.4237  0.8645
36334SOL     OW11894   4.602  10.099   6.037 -0.0944  0.8429 -0.2550
36334SOL    HW111895   4.618  10.175   6.093  1.8039  1.0943 -1.0818
36334SOL    HW211896   4.681  10.091   5.983  0.1871 -2.2721  0.4130
36335SOL     OW11897   6.687   9.779   6.824 -0.2102  0.3943 -0.1382
36335SOL    HW111898   6.747   9.744   6.759  0.0034  0.4577  0.0232
36335SOL    HW211899   6.677   9.708   6.888  1.1675  1.0243  0.8343
36336SOL     OW11900  10.664   2.489   8.463  0.8173 -0.0886 -0.3978
36336SOL    HW111901  10.737   2.470   8.522  1.0266  0.7454 -0.3781
36336SOL    HW211902  10.659   2.411   8.406  0.6997 -0.8359  0.6071
36337SOL     OW11903   2.953   7.208   6.266 -0.1448 -0.1924  0.2957
36337SOL    HW111904   2.923   7.297   6.287  0.0703  0.4357 -1.8078
36337SOL    HW211905   3.046   7.209   6.289  0.6428  1.2099 -2.4858
36338SOL     OW11906   1.914   5.734   7.238 -0.7699 -0.2648  0.2215
36338SOL    HW111907   1.914   5.830   7.247 -1.1478 -0.1143 -1.1014
36338SOL    HW211908   1.866   5.703   7.315 -0.7749  0.6208  0.5963
36339SOL     OW11909   8.571   8.977   8.060 -0.3051  0.1811 -0.1068
36339SOL    HW111910   8.596   8.922   8.134 -2.5982  0.2830  0.8231
36339SOL    HW211911   8.572   9.066   8.095 -2.1462  0.1677  0.1138
36340SOL     OW11912   3.027   5.510   5.468 -0.6049  0.3855 -0.3306
36340SOL    HW111913   3.112   5.521   5.426 -0.1034  1.4804  0.9154
36340SOL    HW211914   2.965   5.504   5.395  0.5276 -0.5611 -1.2664
36341SOL     OW11915   0.881   4.322   1.776  0.0193 -0.3576  0.0043
36341SOL    HW111916   0.884   4.385   1.847  1.4011 -0.5022  0.1044
36341SOL    HW211917   0.867   4.374   1.697 -1.5773 -0.2018  0.3543
36342SOL     OW11918   4.759   4.289   6.173 -0.3155 -0.3015  0.3075
36342SOL    HW111919   4.678   4.338   6.159  0.8827  1.2536 -1.7301
36342SOL    HW211920   4.733   4.197   6.168 -1.7345  0.1402 -2.1612
36343SOL     OW11921   2.929   1.686   5.332  0.1750 -0.5538 -0.8195
36343SOL    HW111922   3.024   1.697   5.342  0.1760 -0.6275 -0.7445
36343SOL    HW211923   2.895   1.691   5.422  0.1681 -1.0862 -0.7917
36344SOL     OW11924   1.018   7.004   6.069  0.0643  0.9689 -0.0135
36344SOL    HW111925   1.094   7.050   6.105 -0.6239  3.5231 -1.5455
36344SOL    HW211926   0.952   7.073   6.058 -1.6764 -0.7561 -0.8509
36345SOL     OW11927   0.587   2.728   9.027 -0.8519  0.4156 -0.1466
36345SOL    HW111928   0.586   2.698   8.936 -0.1689 -0.0099 -0.0169
36345SOL    HW211929   0.635   2.661   9.075  0.3976  1.5312  0.2203
36346SOL     OW11930   3.033   3.570   5.302 -0.1293  0.1684  0.0843
36346SOL    HW111931   3.060   3.495   5.355  0.0994  0.5341  0.4806
36346SOL    HW211932   2.937   3.568   5.306 -0.1134  1.2744  2.0382
36347SOL     OW11933   2.483   9.123   2.622  0.3419 -0.5975  0.4519
36347SOL    HW111934   2.502   9.208   2.662  0.5081  0.4650 -1.7196
36347SOL    HW211935   2.388   9.120   2.617  0.3045 -0.9126  1.2507
36348SOL     OW11936   1.276   8.062   1.742 -0.4784 -0.3488 -0.7793
36348SOL    HW111937   1.300   8.060   1.834  0.0489 -1.1061 -0.9199
36348SOL    HW211938   1.206   8.127   1.736  0.4479  0.7456 -0.0940
36349SOL     OW11939   4.670   4.185   8.052 -0.8319  0.3250  0.4316
36349SOL    HW111940   4.605   4.208   8.118 -0.6827  0.2299  0.6126
36349SOL    HW211941   4.693   4.094   8.072 -0.1489  0.5723  0.7877
36350SOL     OW11942   4.515  10.147   2.105  0.9248  0.1692  0.1977
36350SOL    HW111943   4.578  10.217   2.118  1.6498 -0.5303  0.5485
36350SOL    HW211944   4.450  10.159   2.175  0.6826  0.8660 -0.1397
36351SOL     OW11945   6.635   8.778   1.787  0.2250  0.6013  0.2582
36351SOL    HW111946   6.660   8.866   1.813 -0.7253  0.6748  0.9974
36351SOL    HW211947   6.604   8.737   1.868 -0.8784  0.1468 -0.3706
36352SOL     OW11948   9.522  10.159   5.830 -0.8793 -0.4389 -0.0090
36352SOL    HW111949   9.493  10.169   5.921  1.4423  0.6491  0.6899
36352SOL    HW211950   9.589  10.227   5.819  1.3230 -2.6828 -1.4759
36353SOL     OW11951   4.823   2.516   9.723  0.2141  0.6272 -0.4120
36353SOL    HW111952   4.824   2.422   9.737 -0.9322  0.5395 -0.8019
36353SOL    HW211953   4.886   2.551   9.786 -2.2476 -0.0128  2.6487
36354SOL     OW11954   5.411   2.688  10.713  0.1082 -0.2700 -0.3022
36354SOL    HW111955   5.488   2.645  10.677  0.2442 -0.3310  0.0576
36354SOL    HW211956   5.337   2.638  10.679  0.2059  0.0805 -1.0404
36355SOL     OW11957   5.461   7.468   4.192 -0.1174 -0.4405  0.6625
36355SOL    HW111958   5.427   7.512   4.270 -0.1995  1.0380 -0.1767
36355SOL    HW211959   5.553   7.452   4.211  0.1326  0.9102  0.6514
36356SOL     OW11960  10.648   3.477   7.598  0.0646 -0.0143 -0.4206
36356SOL    HW111961  10.698   3.462   7.678 -1.2025  0.3066  0.4757
36356SOL    HW211962  10.571   3.420   7.607 -1.5990  2.1484  0.0371
36357SOL     OW11963   7.127   5.529   2.758 -0.0153  0.0425 -0.0440
36357SOL    HW111964   7.145   5.462   2.691  0.0846  0.1209 -0.0960
36357SOL    HW211965   7.095   5.604   2.709 -1.7075 -0.5071  0.1434
36358SOL     OW11966   7.265   4.015   7.542  0.0931 -0.5490 -0.6910
36358SOL    HW111967   7.294   4.041   7.630 -0.5731  1.3147 -0.9645
36358SOL    HW211968   7.346   3.996   7.495  0.4833 -1.2172  0.2113
36359SOL     OW11969   0.153   2.570   1.793 -0.1273  0.4464 -0.4957
36359SOL    HW111970   0.238   2.577   1.750 -0.5350  0.1833 -1.3592
36359SOL    HW211971   0.134   2.476   1.793 -1.9449  0.7031 -3.3938
36360SOL     OW11972   8.069   3.436   5.158 -0.1260 -0.0791  0.5552
36360SOL    HW111973   8.040   3.482   5.236 -0.5366 -1.3490  1.1841
36360SOL    HW211974   7.988   3.416   5.111  0.1096  0.5765 -0.1469
36361SOL     OW11975  10.485   2.248  10.109  0.3495 -0.2949 -0.8631
36361SOL    HW111976  10.575   2.268  10.137  0.2202 -0.8339 -0.0201
36361SOL    HW211977  10.496   2.181  10.041  0.6915  1.3165 -2.4390
36362SOL     OW11978   4.152   0.992   8.688  0.4408 -0.1852  0.0510
36362SOL    HW111979   4.106   0.959   8.611  0.7333 -0.5552  0.0312
36362SOL    HW211980   4.243   0.964   8.675  0.8428  1.1920 -0.2898
36363SOL     OW11981   0.354  10.123   1.598 -0.1263  1.1680  0.3498
36363SOL    HW111982   0.417  10.194   1.606  0.8690  0.2932  0.4860
36363SOL    HW211983   0.403  10.052   1.557 -1.5157  1.0699 -1.2363
36364SOL     OW11984   7.401   8.595   3.816 -0.2807  0.0406 -0.8026
36364SOL    HW111985   7.475   8.655   3.826  1.4475 -1.8490 -1.3772
36364SOL    HW211986   7.343   8.615   3.889  1.1254  1.1573  0.0572
36365SOL     OW11987   6.982   9.733   9.961 -0.1661 -0.4379  0.1336
36365SOL    HW111988   6.919   9.707   9.894  0.9524 -0.5764 -0.9179
36365SOL    HW211989   6.941   9.806  10.006 -1.7270 -1.5151  0.5515
36366SOL     OW11990  10.176   9.590   5.404 -0.4952  0.1534 -0.2112
36366SOL    HW111991  10.195   9.681   5.425 -0.0932 -0.2490  1.3044
36366SOL    HW211992  10.086   9.590   5.372  0.1856  1.3565 -2.2668
36367SOL     OW11993   2.525   2.673   0.626 -0.0137 -0.3561 -0.0707
36367SOL    HW111994   2.582   2.601   0.598  1.2849  0.4172  0.5034
36367SOL    HW211995   2.566   2.751   0.590  0.2585  0.3901  1.7538
36368SOL     OW11996   0.056   6.546   0.489  0.1244 -0.7729  0.1096
36368SOL    HW111997   0.005   6.533   0.409 -0.0715 -2.2966  0.4459
36368SOL    HW211998   0.143   6.573   0.459 -1.1665  3.3763 -0.4397
36369SOL     OW11999   8.933   4.926   7.643 -0.1229 -0.1639  0.9827
36369SOL    HW112000   8.927   4.830   7.642 -1.9459 -0.0791  0.4089
36369SOL    HW212001   8.917   4.949   7.735  1.1537 -0.4247  1.2886
36370SOL     OW12002   7.024   0.542   8.853  0.1164 -0.5647  0.0101
36370SOL    HW112003   6.946   0.557   8.906 -0.4531 -0.1976 -0.9175
36370SOL    HW212004   7.077   0.482   8.906 -0.7913 -0.8301  0.6458
36371SOL     OW12005   6.872   6.289   0.231 -0.0166  0.5335  0.1540
36371SOL    HW112006   6.849   6.261   0.319 -0.6070  0.1516 -0.1210
36371SOL    HW212007   6.968   6.291   0.231  0.0385 -1.1857  0.2730
36372SOL     OW12008   4.454   4.468   7.067 -0.2346 -0.2855 -1.1319
36372SOL    HW112009   4.435   4.462   7.161 -2.6858  1.9016 -1.3698
36372SOL    HW212010   4.549   4.458   7.061 -0.0697 -1.1556  1.4761
36373SOL     OW12011   4.732   2.271   7.699  0.0961 -0.1132 -0.3407
36373SOL    HW112012   4.818   2.285   7.738 -0.3975 -1.1637  1.1915
36373SOL    HW212013   4.749   2.265   7.605  1.6350  0.0577 -0.0941
36374SOL     OW12014   8.762   5.920  10.480  0.1375 -0.3004  0.2644
36374SOL    HW112015   8.737   5.830  10.460 -0.8238 -0.1299  0.6458
36374SOL    HW212016   8.767   5.922  10.576 -2.5916  0.7195  0.4642
36375SOL     OW12017   2.498   8.732   3.029  0.4818 -0.5979 -0.2867
36375SOL    HW112018   2.458   8.797   2.972 -0.0132 -1.1590 -0.5881
36375SOL    HW212019   2.443   8.730   3.107 -1.7151 -3.2238 -1.7454
36376SOL     OW12020   6.166   2.673   9.864  0.2850 -0.5133  0.1613
36376SOL    HW112021   6.163   2.714   9.778  1.8535 -2.0063 -0.6532
36376SOL    HW212022   6.138   2.583   9.849 -0.0583 -0.6167  1.3413
36377SOL     OW12023   8.126   3.519   3.681  0.2846 -0.3391 -0.2004
36377SOL    HW112024   8.082   3.559   3.756 -2.5201 -0.2848 -1.7200
36377SOL    HW212025   8.163   3.592   3.632  1.1506 -0.2786  0.5254
36378SOL     OW12026   4.072   3.018   1.374  0.3746  0.2543 -0.6534
36378SOL    HW112027   4.092   2.927   1.354 -0.3613  0.2720 -1.5215
36378SOL    HW212028   4.027   3.015   1.459  0.0810 -0.2321 -0.8230
36379SOL     OW12029   4.084  10.427   1.011 -0.0009 -0.0499  0.0223
36379SOL    HW112030   4.101  10.450   0.920  0.1272 -1.4040 -0.3156
36379SOL    HW212031   4.165  10.447   1.057  0.3257 -0.4382 -0.3782
36380SOL     OW12032   7.643   4.711   6.408 -0.2682  0.2610 -0.5481
36380SOL    HW112033   7.688   4.792   6.386  0.5439 -0.5628 -2.0355
36380SOL    HW212034   7.713   4.648   6.426 -0.8835 -0.0320  1.0658
36381SOL     OW12035   3.236   9.689   0.230  0.4771  0.0525 -0.3270
36381SOL    HW112036   3.230   9.675   0.324  0.2840  1.8069 -0.0537
36381SOL    HW212037   3.150   9.662   0.197 -0.0440  1.0009  0.2295
36382SOL     OW12038  10.410   8.941   5.630 -0.2235 -0.2135 -0.5915
36382SOL    HW112039  10.375   9.007   5.690  1.1904  0.2845 -0.2958
36382SOL    HW212040  10.412   8.860   5.681 -0.6914 -0.1954 -0.5389
36383SOL     OW12041   1.484   3.157   4.050 -0.6327  0.2032 -0.3328
36383SOL    HW112042   1.544   3.087   4.023  0.9912  1.7305 -0.8610
36383SOL    HW212043   1.406   3.144   3.995 -0.3467 -1.1321 -0.4580
36384SOL     OW12044   0.310   1.017   6.136  0.5202 -0.1019 -0.0547
36384SOL    HW112045   0.396   0.977   6.129  0.4176 -0.1649 -1.2353
36384SOL    HW212046   0.324   1.108   6.107  0.5276  0.4117  1.4848
36385SOL     OW12047   9.403   6.907   3.569  0.2543  0.0459 -0.0809
36385SOL    HW112048   9.485   6.862   3.554 -0.0466 -0.7599  0.6467
36385SOL    HW212049   9.350   6.846   3.621 -1.2666  0.0362 -1.5507
36386SOL     OW12050   0.063   3.989   5.858  0.8065 -0.2772 -0.4206
36386SOL    HW112051   0.157   3.996   5.841  0.3645  0.1359 -3.1640
36386SOL    HW212052   0.023   3.994   5.771 -1.6995 -1.5791  0.5607
36387SOL     OW12053   1.381   6.398   0.895  0.1518  0.1972  0.8058
36387SOL    HW112054   1.476   6.402   0.889  0.1630 -0.9671 -0.1394
36387SOL    HW212055   1.362   6.306   0.916 -0.8397 -0.3347 -1.9373
36388SOL     OW12056   0.399   3.081   5.953 -0.1127 -0.0262  0.3949
36388SOL    HW112057   0.441   3.133   5.884 -1.3630  0.9556  0.3257
36388SOL    HW212058   0.349   3.014   5.906  1.0662 -0.9880  0.4659
36389SOL     OW12059   0.840   7.424   5.556  0.2218  0.2766 -0.3781
36389SOL    HW112060   0.929   7.450   5.530  1.1810 -0.8473  1.5187
36389SOL    HW212061   0.846   7.329   5.567 -1.0619  0.2556  0.2872
36390SOL     OW12062   0.878   5.175   0.370 -0.2977  0.9125  0.5292
36390SOL    HW112063   0.919   5.095   0.339 -0.3167  0.8190  0.7433
36390SOL    HW212064   0.848   5.219   0.291  1.9656  1.9666  0.1625
36391SOL     OW12065   8.879   4.839   9.973  0.3764  0.4692 -0.1765
36391SOL    HW112066   8.907   4.837   9.881  2.6040 -1.7380  0.4195
36391SOL    HW212067   8.794   4.883   9.972  0.5731  0.9823 -3.2041
36392SOL     OW12068   0.543   3.640   6.532 -0.4487  0.4968  0.5016
36392SOL    HW112069   0.532   3.693   6.453  0.0921  0.9494  0.7216
36392SOL    HW212070   0.455   3.608   6.552 -0.3522 -1.0726 -1.2580
36393SOL     OW12071   4.424   9.857   6.665 -0.5754  0.4396 -0.2899
36393SOL    HW112072   4.338   9.851   6.624 -0.5405  1.6250 -0.5837
36393SOL    HW212073   4.441   9.951   6.671  0.3184  0.2387  0.5680
36394SOL     OW12074   1.369   7.489   1.208 -0.4930 -0.6482  0.0521
36394SOL    HW112075   1.278   7.488   1.237  0.2249  1.2516  2.7975
36394SOL    HW212076   1.420   7.478   1.289  1.7531 -1.8385 -1.4176
36395SOL     OW12077   2.915   9.049   7.251 -0.5850 -0.8245 -0.3298
36395SOL    HW112078   2.821   9.043   7.234 -0.6393 -0.9426  0.0050
36395SOL    HW212079   2.924   9.025   7.344 -0.3513  0.3187 -0.0468
36396SOL     OW12080   3.642   8.641   4.569  1.1980 -0.4767  0.0405
36396SOL    HW112081   3.584   8.627   4.643  1.2636  1.1571  0.4375
36396SOL    HW212082   3.682   8.556   4.553  0.5531 -1.0453  1.3466
36397SOL     OW12083   7.670   3.305   1.501 -0.7165 -0.3761  0.1800
36397SOL    HW112084   7.608   3.257   1.556 -1.9746 -0.8374 -1.5423
36397SOL    HW212085   7.617   3.338   1.428  0.3167  2.6862  0.6568
36398SOL     OW12086   6.875   3.848   2.953 -0.7209  0.4255  0.4827
36398SOL    HW112087   6.882   3.852   2.858  2.1404  0.3722  0.6143
36398SOL    HW212088   6.851   3.937   2.979  1.7069  1.3537 -0.1697
36399SOL     OW12089   7.799   1.733   1.770  0.0515  0.2111  0.2867
36399SOL    HW112090   7.885   1.766   1.747  0.2613 -0.8306 -0.5143
36399SOL    HW212091   7.813   1.683   1.851 -0.1607  1.5191  1.1684
36400SOL     OW12092   7.618   6.410   8.351 -0.7213  0.5321  0.4315
36400SOL    HW112093   7.686   6.422   8.418 -0.0518  0.1371 -0.1618
36400SOL    HW212094   7.548   6.364   8.396  0.3394 -1.0673  0.5147
36401SOL     OW12095   9.993   7.668   2.644 -0.3883  0.2891 -0.3869
36401SOL    HW112096   9.985   7.626   2.558 -2.0045  0.8027 -0.5272
36401SOL    HW212097   9.925   7.626   2.697  0.9583 -0.4199  0.8411
36402SOL     OW12098   4.674   8.767   1.365 -0.1987  0.2191  0.0963
36402SOL    HW112099   4.619   8.692   1.340  0.6926 -0.3495 -0.2048
36402SOL    HW212100   4.730   8.782   1.289  0.0935  0.7717  0.4161
36403SOL     OW12101   8.275   4.476   3.886 -0.0926  0.2737  0.0667
36403SOL    HW112102   8.260   4.485   3.980  0.8296  1.5736  0.1177
36403SOL    HW212103   8.256   4.563   3.851  1.0086  0.2068 -0.7283
36404SOL     OW12104   6.628   1.867   2.975  0.7061 -0.1081 -0.0282
36404SOL    HW112105   6.684   1.877   3.052  1.0422 -0.3973 -0.2272
36404SOL    HW212106   6.652   1.940   2.918 -0.7783  1.1366  0.8639
36405SOL     OW12107   4.717   8.650   7.034  0.7992  0.0396  0.0590
36405SOL    HW112108   4.707   8.698   6.952  1.2827  0.4647  0.2470
36405SOL    HW212109   4.810   8.656   7.055  1.3802 -3.0039 -1.1348
36406SOL     OW12110   6.160   2.414   1.696 -0.0570 -0.0141 -0.2550
36406SOL    HW112111   6.188   2.325   1.673  2.4198 -0.1597  2.6751
36406SOL    HW212112   6.233   2.470   1.670 -0.5136  0.8166  0.2158
36407SOL     OW12113   4.165   9.889   4.410 -0.4647  0.0477 -0.0845
36407SOL    HW112114   4.073   9.866   4.421 -0.7035 -0.5807 -2.6397
36407SOL    HW212115   4.170   9.926   4.322  1.8464 -0.8408 -0.4068
36408SOL     OW12116   1.342   2.295   8.583 -0.1803 -0.4008 -0.1233
36408SOL    HW112117   1.322   2.202   8.598 -2.0109  0.0059  0.1967
36408SOL    HW212118   1.339   2.334   8.670  3.7137 -0.5020  0.2283
36409SOL     OW12119  10.395   5.894   2.294  1.0418 -0.4023  0.2370
36409SOL    HW112120  10.358   5.811   2.266 -0.1111  0.6342 -1.5387
36409SOL    HW212121  10.365   5.904   2.385 -2.2618 -0.1394 -0.7480
36410SOL     OW12122  10.363   0.705   7.320 -0.2257 -0.8186  0.2136
36410SOL    HW112123  10.386   0.661   7.237 -0.7887 -2.0349  0.6839
36410SOL    HW212124  10.342   0.794   7.294 -1.4531 -1.4535 -1.1348
36411SOL     OW12125   1.141   0.725   1.907  0.0712  0.3779 -0.1370
36411SOL    HW112126   1.234   0.704   1.914 -0.1283 -0.9581 -0.9995
36411SOL    HW212127   1.122   0.715   1.814 -1.4826 -2.0430  0.3576
36412SOL     OW12128   5.199   4.778   0.148 -0.3624 -0.2226  1.2164
36412SOL    HW112129   5.229   4.759   0.059 -0.6087  0.2611  1.0294
36412SOL    HW212130   5.246   4.714   0.203 -0.8434 -1.0788  0.6550
36413SOL     OW12131   8.238  10.559   6.604  0.0282  0.4817 -0.0802
36413SOL    HW112132   8.291  10.499   6.656 -0.2707  0.2938  0.0111
36413SOL    HW212133   8.268  10.545   6.514 -0.2919 -0.0697 -0.1020
36414SOL     OW12134   0.286   4.626   9.779 -0.2696 -0.1948  0.0413
36414SOL    HW112135   0.340   4.683   9.724 -1.2704  0.6143 -0.1368
36414SOL    HW212136   0.348   4.567   9.821  0.5583 -0.5700 -1.6400
36415SOL     OW12137   7.397   6.571   3.419  0.1456  0.1081  0.0605
36415SOL    HW112138   7.421   6.663   3.413  2.1005 -0.2757  1.2243
36415SOL    HW212139   7.368   6.559   3.509 -0.9687 -0.2495 -0.3261
36416SOL     OW12140   6.165  10.566   8.714  0.2232 -0.1178 -0.2369
36416SOL    HW112141   6.184  10.563   8.620 -0.7166 -0.3620 -0.4308
36416SOL    HW212142   6.148  10.658   8.732 -0.6949 -0.2223 -0.5429
36417SOL     OW12143   5.996   2.174   7.989 -0.3754  0.0191 -0.3330
36417SOL    HW112144   5.937   2.104   7.960 -1.4340 -0.3430  2.3665
36417SOL    HW212145   5.947   2.254   7.973 -0.4725 -0.0781 -0.5370
36418SOL     OW12146   9.747   0.118   0.587 -0.1024 -0.0330  0.2406
36418SOL    HW112147   9.838   0.124   0.617 -0.2965  1.1810  0.6652
36418SOL    HW212148   9.707   0.199   0.618 -0.8980  0.2464 -1.4358
36419SOL     OW12149   1.921   2.117   9.299  0.0112 -0.6899  0.6107
36419SOL    HW112150   1.982   2.191   9.304  1.9026 -2.1734  0.6305
36419SOL    HW212151   1.912   2.087   9.390 -1.9572  0.3800  0.8249
36420SOL     OW12152   7.361   9.807  10.756 -0.1431  0.4235  0.0869
36420SOL    HW112153   7.451   9.777  10.746 -0.2504  0.5790 -1.6832
36420SOL    HW212154   7.321   9.791  10.671 -1.8083  0.3255  0.8469
36421SOL     OW12155   0.502   9.783   2.038 -0.2006 -0.7484 -0.2448
36421SOL    HW112156   0.533   9.850   2.099 -0.6316  0.0306 -0.8664
36421SOL    HW212157   0.474   9.711   2.094  1.3776 -0.9055  0.3925
36422SOL     OW12158   5.180   2.589   2.105  0.1471 -0.4045 -0.0249
36422SOL    HW112159   5.132   2.601   2.187  1.3866  1.1614  0.5267
36422SOL    HW212160   5.114   2.601   2.036 -0.5845 -0.0860  0.7201
36423SOL     OW12161   9.382   2.016   9.357 -0.0587 -0.4550 -0.4028
36423SOL    HW112162   9.332   1.956   9.303 -1.0541  2.3056 -2.8235
36423SOL    HW212163   9.473   1.991   9.343 -0.4738 -2.1795 -0.2353
36424SOL     OW12164   3.935   0.487   5.876  0.1950  0.2163 -0.0630
36424SOL    HW112165   3.933   0.504   5.782  0.2793  0.2681 -0.0562
36424SOL    HW212166   3.937   0.392   5.884  0.1909  0.2123 -0.1143
36425SOL     OW12167   5.654   4.520   2.641  0.7793 -0.9937  0.8644
36425SOL    HW112168   5.659   4.616   2.643 -0.6960 -0.8155 -0.9377
36425SOL    HW212169   5.694   4.492   2.723  2.5040  1.0916  0.8178
36426SOL     OW12170   9.448   9.921   0.126 -0.0716 -0.3190  1.0673
36426SOL    HW112171   9.356   9.948   0.121  0.2954  0.8414 -3.3235
36426SOL    HW212172   9.451   9.837   0.081  1.0539 -0.1567  0.8076
36427SOL     OW12173   2.810   3.396   6.608  0.3514 -0.4272  0.0833
36427SOL    HW112174   2.765   3.346   6.676  0.2242  0.3212  0.5624
36427SOL    HW212175   2.891   3.348   6.593  0.6999 -0.2371  1.2623
36428SOL     OW12176   2.448  10.040   1.208 -0.4118 -0.2127 -0.1049
36428SOL    HW112177   2.402  10.059   1.290 -0.8613  0.8458 -0.5869
36428SOL    HW212178   2.381  10.043   1.141  0.1943  0.5122 -0.7075
36429SOL     OW12179   2.652   6.572   1.876  0.3948 -0.1227 -0.2236
36429SOL    HW112180   2.647   6.537   1.965  1.5256  0.8014  0.2279
36429SOL    HW212181   2.584   6.639   1.872 -2.2624 -2.6519 -1.3097
36430SOL     OW12182   5.687   0.091   8.150  0.8055  0.3470 -0.6725
36430SOL    HW112183   5.657   0.182   8.160 -0.5905 -0.2137  0.6842
36430SOL    HW212184   5.782   0.096   8.158  0.6940  1.6059  0.1035
36431SOL     OW12185  10.102   7.886   8.105  0.2873  0.2863 -0.9206
36431SOL    HW112186  10.068   7.818   8.047 -0.6773 -1.3629  1.4147
36431SOL    HW212187  10.102   7.845   8.192  0.5495  2.9935  0.4487
36432SOL     OW12188   4.310   8.531   4.831  0.4045  0.1508  0.8034
36432SOL    HW112189   4.242   8.468   4.807 -0.3354  0.7780  1.2129
36432SOL    HW212190   4.263   8.600   4.879  1.1857  1.0380  0.3223
36433SOL     OW12191   5.819   8.728   2.624 -0.3506  0.3057  0.4919
36433SOL    HW112192   5.838   8.785   2.549 -0.6811 -0.0779  0.1086
36433SOL    HW212193   5.734   8.689   2.603  1.0910 -2.5310 -0.6547
36434SOL     OW12194   4.447   2.323   1.540  0.0183  0.4401  0.3508
36434SOL    HW112195   4.357   2.315   1.509  0.6081  1.0693 -1.7122
36434SOL    HW212196   4.445   2.396   1.602 -1.0050  0.0109  0.8379
36435SOL     OW12197   6.906   5.698   1.096  0.5514  0.0159  0.2989
36435SOL    HW112198   6.988   5.729   1.058  0.2091  1.0373  0.3671
36435SOL    HW212199   6.838   5.737   1.042  0.0295  1.8358  2.1340
36436SOL     OW12200   1.657   6.583   3.302  0.3144  0.0175 -0.0040
36436SOL    HW112201   1.664   6.516   3.234  2.4677 -0.8377  0.9628
36436SOL    HW212202   1.745   6.622   3.306 -1.2266  4.2262 -1.7210
36437SOL     OW12203   4.240   6.024   6.715  0.4346 -0.4170  0.7536
36437SOL    HW112204   4.188   5.944   6.704 -2.0978  1.0686  1.0335
36437SOL    HW212205   4.240   6.040   6.809  0.4180  0.1919  0.6590
36438SOL     OW12206   0.435   5.948   0.601 -0.3088 -0.7698 -0.1701
36438SOL    HW112207   0.469   6.033   0.627  1.5490 -1.7267  0.7698
36438SOL    HW212208   0.358   5.967   0.549 -0.7685  1.4356  1.2170
36439SOL     OW12209  10.750  10.756   9.314  0.5254 -0.9757 -0.3644
36439SOL    HW112210  10.771  10.713   9.397 -1.9631  0.7113  1.2774
36439SOL    HW212211  10.661  10.726   9.293  0.7425 -0.6163 -1.9382
36440SOL     OW12212   4.197   9.169  10.298 -0.5904 -0.7200  0.1808
36440SOL    HW112213   4.264   9.202  10.358  0.9862  0.2708 -1.9933
36440SOL    HW212214   4.186   9.238  10.233 -3.1710 -1.2149 -0.0209
36441SOL     OW12215   9.564   2.307   5.278 -0.1822 -0.2507  0.2538
36441SOL    HW112216   9.537   2.301   5.186 -3.6296  1.9735  0.9112
36441SOL    HW212217   9.660   2.305   5.275 -0.1319  0.0979 -3.4333
36442SOL     OW12218   8.873   9.638   9.214 -0.9099  0.3464 -0.5850
36442SOL    HW112219   8.870   9.628   9.309 -3.9914  0.1640 -0.5962
36442SOL    HW212220   8.860   9.732   9.200 -2.3484  0.1405 -0.7943
36443SOL     OW12221   4.172   4.783   1.204  0.1002 -0.2059  0.0501
36443SOL    HW112222   4.217   4.707   1.242  1.7642  0.6145 -0.1699
36443SOL    HW212223   4.120   4.746   1.132  1.5567 -1.0774 -0.6185
36444SOL     OW12224   5.038  10.105   4.217 -0.0686 -0.6775 -0.7676
36444SOL    HW112225   5.011  10.168   4.150 -1.0543 -1.6241 -1.2900
36444SOL    HW212226   5.120  10.068   4.184  0.7916  0.6572 -0.2145
36445SOL     OW12227   0.996   5.075   9.701  0.1422  0.3692 -0.4498
36445SOL    HW112228   1.048   5.074   9.782  1.7250  0.6741 -1.4311
36445SOL    HW212229   0.979   4.982   9.684 -0.8534  0.3293  0.6051
36446SOL     OW12230   3.723   1.574   7.483 -0.5637  0.3334  0.0588
36446SOL    HW112231   3.747   1.484   7.504  2.9434  1.0352 -0.2426
36446SOL    HW212232   3.684   1.608   7.564  0.8534 -0.6505  1.2164
36447SOL     OW12233   7.608   9.122   9.998 -0.1854  0.1960 -0.1766
36447SOL    HW112234   7.686   9.177   9.997  0.4736 -0.7305 -0.6050
36447SOL    HW212235   7.536   9.183  10.016  0.2161  1.6028 -2.8743
36448SOL     OW12236  10.266   5.522   6.665 -0.6026  0.1538  0.1625
36448SOL    HW112237  10.232   5.506   6.577 -1.7108 -0.8038  0.7388
36448SOL    HW212238  10.227   5.453   6.719 -0.6196  1.2174  1.5706
36449SOL     OW12239   5.505   2.921   6.236  0.0303 -0.0604 -0.3019
36449SOL    HW112240   5.515   3.016   6.246  1.0665 -0.1911 -0.0696
36449SOL    HW212241   5.507   2.907   6.141 -0.6227  0.1926 -0.3608
36450SOL     OW12242   4.804   1.113   7.083  0.3714  0.4411  0.1086
36450SOL    HW112243   4.874   1.132   7.146  1.0923  1.0730 -0.8653
36450SOL    HW212244   4.839   1.044   7.027  0.4387  1.1348 -0.7223
36451SOL     OW12245   8.829   6.992   5.024  0.4171  0.2957 -0.2059
36451SOL    HW112246   8.913   7.032   5.047  0.7369 -0.2404 -0.4348
36451SOL    HW212247   8.799   7.043   4.949 -1.1973  2.8381  1.9647
36452SOL     OW12248   0.138   4.179   1.473 -0.1544  0.5505  0.1677
36452SOL    HW112249   0.057   4.219   1.443  0.1187  0.6531 -0.4500
36452SOL    HW212250   0.179   4.145   1.394  0.3359  0.3728  0.4915
36453SOL     OW12251   5.121   4.843   1.636 -0.2551 -0.0678 -0.2222
36453SOL    HW112252   5.028   4.846   1.657 -0.0822  0.1379  0.5436
36453SOL    HW212253   5.131   4.900   1.560 -0.8055 -0.3693 -0.5269
36454SOL     OW12254   7.093   2.119   4.125 -0.1959 -0.7170 -0.6775
36454SOL    HW112255   7.106   2.146   4.216  1.5695 -0.0607 -1.0734
36454SOL    HW212256   7.053   2.033   4.131 -0.0926 -0.6927  0.7230
36455SOL     OW12257   0.480   2.878   1.551  0.2047 -0.4520 -0.3895
36455SOL    HW112258   0.563   2.883   1.598 -0.0233  1.0195 -0.0893
36455SOL    HW212259   0.476   2.959   1.499 -0.9402 -0.5939 -0.5710
36456SOL     OW12260   6.632   1.979   4.229 -0.4106 -0.1341  0.3963
36456SOL    HW112261   6.555   1.993   4.284 -2.2542 -0.6393 -1.8982
36456SOL    HW212262   6.642   2.062   4.181  0.6604  0.0116  0.8383
36457SOL     OW12263   2.852   2.044   5.945 -0.0428 -0.0253 -0.4190
36457SOL    HW112264   2.864   1.995   6.026 -1.2816  0.2278 -0.0635
36457SOL    HW212265   2.941   2.067   5.918  0.3563  1.8058  2.0452
36458SOL     OW12266   3.639   3.562   2.754 -0.3130 -0.0114  0.3597
36458SOL    HW112267   3.603   3.569   2.842 -0.5821  0.4236  0.2169
36458SOL    HW212268   3.614   3.475   2.724 -1.6735  0.4577  0.0742
36459SOL     OW12269   4.891   7.576   3.243 -0.1214  0.2271  0.1011
36459SOL    HW112270   4.975   7.580   3.196  0.0074  0.7020  0.3627
36459SOL    HW212271   4.896   7.494   3.294  0.3390  0.4308  0.3953
36460SOL     OW12272   6.058   4.207   4.569  0.0479 -0.1172 -0.7809
36460SOL    HW112273   6.086   4.278   4.627  0.6540 -0.9258 -0.0543
36460SOL    HW212274   6.011   4.251   4.498  0.1966  0.9834 -0.2206
36461SOL     OW12275  10.377   2.317  10.640  0.0844 -0.4176 -0.6300
36461SOL    HW112276  10.328   2.292  10.562 -2.4761  0.8991  0.4390
36461SOL    HW212277  10.400   2.234  10.682  0.8153 -1.1152 -2.3005
36462SOL     OW12278   6.167   0.563   2.439  0.3019  0.6839  0.0663
36462SOL    HW112279   6.250   0.526   2.468  1.2891  2.0181 -0.9629
36462SOL    HW212280   6.189   0.615   2.362 -1.9190 -1.2184 -2.0189
36463SOL     OW12281   7.279   9.079   7.764 -0.4573  0.3540  0.0555
36463SOL    HW112282   7.238   9.023   7.830 -0.7903  0.5041 -0.0217
36463SOL    HW212283   7.314   9.018   7.699 -0.8152  0.2315 -0.0267
36464SOL     OW12284   9.273   6.461   0.941  0.4000  0.0104  0.3769
36464SOL    HW112285   9.192   6.410   0.941  0.6203 -0.3395 -0.3740
36464SOL    HW212286   9.332   6.414   0.884  1.5708 -0.3815  1.8400
36465SOL     OW12287   3.523   1.083   2.777  0.2706 -0.2641  0.6845
36465SOL    HW112288   3.492   1.113   2.691  1.6326 -0.0809  0.2181
36465SOL    HW212289   3.589   1.017   2.756  2.1934  1.2909  1.4860
36466SOL     OW12290   1.424   0.437   1.046 -0.2012 -0.6864  0.0827
36466SOL    HW112291   1.507   0.481   1.028 -1.4587  1.4079 -0.9739
36466SOL    HW212292   1.384   0.423   0.959 -1.5412 -0.3926  0.6189
36467SOL     OW12293   9.053   8.479   2.951 -0.3666 -0.1546  0.3689
36467SOL    HW112294   9.029   8.409   3.012  2.1692 -1.3026  0.1652
36467SOL    HW212295   9.138   8.453   2.916  0.2870  2.6160 -0.3947
36468SOL     OW12296   3.426   4.488  10.778 -0.0656 -0.2375  0.7560
36468SOL    HW112297   3.479   4.558  10.739 -0.6439  0.2736  0.8861
36468SOL    HW212298   3.392   4.439  10.703  0.5021 -0.5068  0.6686
36469SOL     OW12299   6.724   6.067   6.204  0.3338 -0.0488 -0.3355
36469SOL    HW112300   6.721   6.014   6.283  0.4585  0.6586  0.1469
36469SOL    HW212301   6.804   6.119   6.212  0.7757 -0.5440 -1.3053
36470SOL     OW12302   0.285   4.076   2.855  0.4534  0.1606 -0.1840
36470SOL    HW112303   0.215   4.064   2.790  1.0170 -0.7786 -0.6385
36470SOL    HW212304   0.245   4.049   2.938  0.2776 -0.3886 -0.4436
36471SOL     OW12305   8.456   2.719   8.936 -0.4845 -0.2070 -0.2355
36471SOL    HW112306   8.377   2.744   8.887 -0.7291 -0.0065  0.2578
36471SOL    HW212307   8.515   2.684   8.869 -0.6544  0.4546 -0.7359
36472SOL     OW12308   3.758   1.015   8.646  0.4278 -0.1790 -0.5420
36472SOL    HW112309   3.690   0.955   8.674  0.5963  0.0713  0.4230
36472SOL    HW212310   3.712   1.098   8.632  0.3533 -0.2901 -0.9858
36473SOL     OW12311   6.859   4.948   3.351 -0.2015  0.2660  0.9707
36473SOL    HW112312   6.934   4.980   3.402 -0.1233 -1.1277  1.7782
36473SOL    HW212313   6.893   4.941   3.262  0.8426 -0.8408  1.4102
36474SOL     OW12314   1.823   8.583   4.000  0.0899 -0.1801  0.3604
36474SOL    HW112315   1.863   8.521   4.060  1.3427 -0.2950 -0.5464
36474SOL    HW212316   1.752   8.535   3.959  1.0768 -1.0619 -0.3659
36475SOL     OW12317   5.327   0.228   4.365 -0.2280  0.3498 -0.0183
36475SOL    HW112318   5.389   0.221   4.437 -0.1229  0.1204 -0.1292
36475SOL    HW212319   5.347   0.153   4.309 -0.3604  0.4819 -0.2452
36476SOL     OW12320   7.644   6.298   5.256  0.0370 -0.0121  0.1054
36476SOL    HW112321   7.603   6.350   5.187  0.9485  0.1540 -0.3251
36476SOL    HW212322   7.663   6.214   5.214 -0.5665 -0.3682  0.5289
36477SOL     OW12323   2.070   6.460   1.578  0.6404 -0.0973  0.1680
36477SOL    HW112324   2.055   6.460   1.484  1.3697  0.4950  0.0448
36477SOL    HW212325   2.116   6.542   1.596  1.8855 -0.8920  0.8063
36478SOL     OW12326   0.251   3.912   1.059  0.0596  0.5059 -0.2413
36478SOL    HW112327   0.279   3.829   1.096  1.6214  1.2147  0.2742
36478SOL    HW212328   0.170   3.892   1.013  1.9187 -1.9604 -2.7827
36479SOL     OW12329   9.495   3.435   1.009  0.3892 -0.0193  0.1985
36479SOL    HW112330   9.415   3.463   0.964  1.0987  1.2229 -0.3714
36479SOL    HW212331   9.509   3.501   1.077  0.3361 -0.8528  1.0405
36480SOL     OW12332   8.934   2.049   4.904 -0.1581 -0.6052 -0.1599
36480SOL    HW112333   9.014   2.073   4.950 -0.3079  0.1716 -0.2878
36480SOL    HW212334   8.921   2.120   4.841 -1.1318 -0.5451  0.0956
36481SOL     OW12335  10.658   5.212   5.758 -0.4306 -0.0199  0.0227
36481SOL    HW112336  10.720   5.156   5.711  1.1463  3.1466 -2.0190
36481SOL    HW212337  10.576   5.204   5.710  0.4840  1.2478 -1.8540
36482SOL     OW12338   5.075   4.341   5.610  0.0751  0.3198  0.6381
36482SOL    HW112339   5.168   4.334   5.633  0.8309  0.5611 -1.9910
36482SOL    HW212340   5.076   4.377   5.521 -2.6022  1.5443  1.0312
36483SOL     OW12341   5.416   7.286   3.830 -0.0065  0.1888 -0.7994
36483SOL    HW112342   5.356   7.287   3.756  0.5141  1.4845 -1.2463
36483SOL    HW212343   5.391   7.209   3.881 -0.3205 -0.7785 -2.3497
36484SOL     OW12344   3.751   0.181   1.594 -0.2715  0.0699  0.4215
36484SOL    HW112345   3.739   0.267   1.555  1.5621 -0.6423 -1.9569
36484SOL    HW212346   3.693   0.181   1.670 -0.4037  3.3323  0.4678
36485SOL     OW12347   6.699   4.133   2.198  0.2295 -0.0130 -0.5572
36485SOL    HW112348   6.604   4.127   2.201  0.2650 -0.3546  0.1964
36485SOL    HW212349   6.718   4.176   2.115 -0.5591 -0.4324 -0.9681
36486SOL     OW12350  10.590   0.788   6.984  0.0673  0.2377  0.0227
36486SOL    HW112351  10.615   0.782   6.892 -0.2477  0.2061 -0.0632
36486SOL    HW212352  10.644   0.859   7.019 -0.1494  0.5720 -0.3058
36487SOL     OW12353   0.080  10.744   9.081  0.3542  0.2901 -0.0233
36487SOL    HW112354   0.052  10.793   9.003  0.2563  1.6628  0.8356
36487SOL    HW212355   0.026  10.780   9.152 -0.8458 -2.1748  0.4225
36488SOL     OW12356   5.967   8.561   5.348  0.4264 -0.1720  0.6953
36488SOL    HW112357   5.992   8.626   5.413  1.9027 -0.3152  0.3116
36488SOL    HW212358   6.018   8.483   5.372  1.1707 -0.1583 -0.7324
36489SOL     OW12359   4.576   9.460  10.552 -0.6454 -0.6900  0.1894
36489SOL    HW112360   4.652   9.485  10.605  0.4771  0.3626 -1.7897
36489SOL    HW212361   4.540   9.543  10.521 -0.3782 -1.2697 -1.8208
36490SOL     OW12362   7.248   3.236   8.846  0.2518 -0.0963 -0.1630
36490SOL    HW112363   7.260   3.181   8.924  0.7072 -1.0429 -0.8677
36490SOL    HW212364   7.325   3.293   8.845  0.1012  0.1193  0.2291
36491SOL     OW12365   5.554   3.249  10.770  0.3370  0.1911 -0.0496
36491SOL    HW112366   5.545   3.154  10.765 -0.1089  0.2830 -1.6149
36491SOL    HW212367   5.464   3.282  10.759  0.8105  0.8274 -2.8046
36492SOL     OW12368   6.696   0.196   9.246  0.0860  0.1286 -0.1916
36492SOL    HW112369   6.736   0.111   9.264  1.1544  0.7059  0.2639
36492SOL    HW212370   6.703   0.244   9.328 -1.0109  0.4753 -0.2804
36493SOL     OW12371   7.412   6.090   0.180 -0.2844 -0.1042  0.2127
36493SOL    HW112372   7.441   6.014   0.131  1.5057  0.6762 -0.0138
36493SOL    HW212373   7.375   6.149   0.114 -2.4419 -1.0300  0.4818
36494SOL     OW12374   7.238   7.515   8.362 -0.0881 -0.1142  0.2363
36494SOL    HW112375   7.320   7.550   8.328  1.0140 -0.6207  2.2551
36494SOL    HW212376   7.189   7.592   8.389  0.4791  0.1084  0.6485
36495SOL     OW12377   9.192   9.143  10.447 -0.0213 -0.2776 -0.0174
36495SOL    HW112378   9.218   9.107  10.363  1.0464 -0.0326  0.1885
36495SOL    HW212379   9.118   9.089  10.475  1.2858 -2.1083  0.1180
36496SOL     OW12380   9.366   3.753   9.474  0.0207  0.3073  0.3748
36496SOL    HW112381   9.278   3.718   9.491 -0.0639 -1.1549 -2.5322
36496SOL    HW212382   9.422   3.708   9.538 -0.9913 -0.5416  0.6858
36497SOL     OW12383   6.669   2.792   9.685 -0.5069 -0.5185 -0.3323
36497SOL    HW112384   6.584   2.834   9.694 -0.4978 -0.1688 -1.7051
36497SOL    HW212385   6.651   2.709   9.641 -0.1846 -0.6629 -0.2007
36498SOL     OW12386   0.394   2.471   5.010 -0.2401 -0.2674 -0.3268
36498SOL    HW112387   0.311   2.436   4.978  0.2134 -0.2232 -1.6001
36498SOL    HW212388   0.405   2.554   4.964  1.7695 -1.5080 -2.2687
36499SOL     OW12389   5.025   1.930   0.180  0.0065 -0.5624 -0.1617
36499SOL    HW112390   5.011   1.867   0.251  1.2325 -0.2595  0.3573
36499SOL    HW212391   4.940   1.974   0.171 -0.3886 -1.1417  0.5731
36500SOL     OW12392  10.486   6.581   1.271 -0.3347 -0.0784 -0.1427
36500SOL    HW112393  10.406   6.591   1.322  0.1908  1.5077  0.4252
36500SOL    HW212394  10.506   6.669   1.239  2.7308  0.2064  2.1075
36501SOL     OW12395   2.149   3.499  10.543 -0.2616  0.2977  0.4413
36501SOL    HW112396   2.089   3.424  10.542  0.5720 -0.4217 -1.5788
36501SOL    HW212397   2.127   3.547  10.623 -3.5759  0.1224 -0.2443
36502SOL     OW12398  10.571   1.043   6.048 -0.0707 -0.2894 -0.4694
36502SOL    HW112399  10.542   1.066   5.959 -0.5056 -1.9295 -0.7864
36502SOL    HW212400  10.663   1.022   6.039  0.0440  0.1746 -0.4006
36503SOL     OW12401   0.120   3.442   8.117 -0.2041  0.1734 -0.1708
36503SOL    HW112402   0.107   3.531   8.149 -0.4984  0.1490 -0.2150
36503SOL    HW212403   0.083   3.387   8.186 -0.2530  0.0956 -0.2591
36504SOL     OW12404   8.719   5.328   2.241 -0.0494  0.5813 -0.0789
36504SOL    HW112405   8.809   5.335   2.209  0.0869 -1.8626 -0.3876
36504SOL    HW212406   8.729   5.313   2.335 -0.1883  1.1363  0.0291
36505SOL     OW12407   9.873   7.056   8.845 -0.1609  0.0590 -0.2573
36505SOL    HW112408   9.935   7.083   8.777 -0.8189 -0.3074 -1.0317
36505SOL    HW212409   9.787   7.080   8.810 -0.5631 -0.7376  0.1466
36506SOL     OW12410   5.762   2.407   5.979  0.0605  0.3735 -0.5119
36506SOL    HW112411   5.737   2.400   5.887  0.1373 -1.3778 -0.4192
36506SOL    HW212412   5.702   2.472   6.015 -1.0654 -0.1368 -1.4198
36507SOL     OW12413   3.310   1.993   7.506 -0.0956 -0.5716 -0.1798
36507SOL    HW112414   3.277   2.060   7.566 -0.1657 -0.6433 -0.1373
36507SOL    HW212415   3.239   1.929   7.501 -0.0345 -0.6352 -0.2312
36508SOL     OW12416   9.743   4.190  10.064 -0.4150  0.3817  0.4876
36508SOL    HW112417   9.667   4.248  10.074 -1.4162 -1.0691  1.7627
36508SOL    HW212418   9.722   4.137   9.987  0.0801  1.0742 -0.1348
36509SOL     OW12419   7.459   5.849   0.617 -0.6727  0.1551 -0.0750
36509SOL    HW112420   7.509   5.782   0.664  0.5892  0.9285 -0.3014
36509SOL    HW212421   7.374   5.850   0.662 -0.1584 -0.4779  0.9542
36510SOL     OW12422   0.428   1.897   1.405  0.3036 -0.4892  0.1372
36510SOL    HW112423   0.408   1.812   1.366  0.9231 -0.6010  0.0511
36510SOL    HW212424   0.450   1.877   1.496 -0.5755 -0.2958  0.3984
36511SOL     OW12425   6.282   0.474   9.603  0.8959  0.5961 -0.4062
36511SOL    HW112426   6.346   0.519   9.548  0.9916  0.2450 -0.5854
36511SOL    HW212427   6.312   0.383   9.604  2.1289  0.9478  1.9219
36512SOL     OW12428   0.706   1.111   8.531  0.2765  0.2877 -0.5976
36512SOL    HW112429   0.790   1.140   8.494  0.4429 -0.3265 -0.7189
36512SOL    HW212430   0.652   1.190   8.532  0.8590  0.6954 -0.5094
36513SOL     OW12431   9.817   0.354   4.345 -0.3155 -0.5322  0.2007
36513SOL    HW112432   9.792   0.436   4.302 -0.9396 -1.4721 -1.3228
36513SOL    HW212433   9.876   0.381   4.416  0.4318  1.1429 -0.9754
36514SOL     OW12434   2.266   7.180   2.023  0.0906 -0.0358 -0.3964
36514SOL    HW112435   2.206   7.130   1.967 -1.1975  2.1049 -1.0672
36514SOL    HW212436   2.212   7.208   2.098  1.0944 -0.6422  0.5833
36515SOL     OW12437   0.266   8.276   2.512  0.3139  0.1464  0.0438
36515SOL    HW112438   0.275   8.181   2.506  1.0792  0.1221  1.2190
36515SOL    HW212439   0.266   8.306   2.421 -2.1253 -1.1346 -0.4679
36516SOL     OW12440   2.153   4.254   3.559  0.6266  0.2418  0.4930
36516SOL    HW112441   2.118   4.331   3.604  0.7088 -0.0273  1.0247
36516SOL    HW212442   2.105   4.180   3.596 -0.6568  0.1647 -1.2059
36517SOL     OW12443  10.675   0.961   5.309 -0.0767  0.1845  0.3972
36517SOL    HW112444  10.602   0.918   5.264 -0.8844  0.4323  1.4348
36517SOL    HW212445  10.635   1.033   5.357  0.9195  0.6014  0.6252
36518SOL     OW12446   7.089   2.898   4.167  0.4542  0.2133 -0.2587
36518SOL    HW112447   7.181   2.878   4.146 -0.0640 -0.1483 -2.4678
36518SOL    HW212448   7.092   2.986   4.205  1.9100 -0.6607  1.8756
36519SOL     OW12449  10.341   4.967   9.285 -0.6803  0.4471  0.6895
36519SOL    HW112450  10.304   4.996   9.202  1.2514 -0.0828 -0.4309
36519SOL    HW212451  10.355   5.048   9.334 -0.2815  0.9474 -0.2158
36520SOL     OW12452   2.932   3.308   3.443  0.3120 -0.0398 -0.1250
36520SOL    HW112453   2.907   3.269   3.359 -1.6197  3.5310 -1.4305
36520SOL    HW212454   3.018   3.347   3.427  1.0534 -1.3751  0.3937
36521SOL     OW12455  10.185   6.783   8.903  0.1434  0.3551 -0.4120
36521SOL    HW112456  10.125   6.735   8.959 -0.5836  1.3047 -0.3476
36521SOL    HW212457  10.233   6.841   8.963  3.4221 -2.4689  0.0473
36522SOL     OW12458   4.080   8.661   1.074  0.4616 -0.0802 -0.4674
36522SOL    HW112459   4.016   8.622   1.134 -0.1964  2.5037  0.6565
36522SOL    HW212460   4.045   8.643   0.987 -2.4730  2.0412  0.1030
36523SOL     OW12461   1.737   0.309   3.598  0.0977  0.7745 -0.2914
36523SOL    HW112462   1.644   0.289   3.587 -0.5398  2.1223  1.9039
36523SOL    HW212463   1.772   0.235   3.646 -0.2362  0.9884  0.2914
36524SOL     OW12464   2.311   4.899   2.973  0.1040  0.1091 -0.0478
36524SOL    HW112465   2.250   4.829   2.996  0.5629 -0.1332  0.4543
36524SOL    HW212466   2.264   4.953   2.910 -0.4405 -0.3639 -0.0466
36525SOL     OW12467   1.395  10.498   2.961 -0.6680 -0.3047  0.4239
36525SOL    HW112468   1.383  10.558   3.034  1.2699  0.5006  0.1213
36525SOL    HW212469   1.319  10.513   2.904 -0.2790  1.8104  0.4055
36526SOL     OW12470   3.328   0.509   9.111 -0.0354  0.5551 -0.3730
36526SOL    HW112471   3.419   0.482   9.097 -0.2748 -1.0017  0.8216
36526SOL    HW212472   3.332   0.572   9.183  0.0276 -0.0280  0.1338
36527SOL     OW12473   6.961   5.246   1.584  0.5731 -0.4384 -0.7334
36527SOL    HW112474   6.987   5.187   1.654  1.3673  0.2780 -0.3990
36527SOL    HW212475   6.891   5.299   1.622  0.8229 -0.2283 -0.5569
36528SOL     OW12476   1.569   0.797   2.513 -0.1842 -0.0820  0.5343
36528SOL    HW112477   1.557   0.718   2.565 -2.6480  0.2499  0.5686
36528SOL    HW212478   1.498   0.855   2.540  0.7484  1.6225 -0.4697
36529SOL     OW12479   6.763   3.515  10.506  0.5877 -0.0593 -0.4300
36529SOL    HW112480   6.771   3.533  10.412 -1.6133  0.0502 -0.6380
36529SOL    HW212481   6.777   3.600  10.548  0.4421  0.1205 -0.7433
36530SOL     OW12482   3.088   5.734   6.601  0.2216 -0.1366  0.4852
36530SOL    HW112483   3.125   5.809   6.647 -1.2096 -0.3398  2.0760
36530SOL    HW212484   3.015   5.771   6.550  1.4249 -0.0095 -1.2371
36531SOL     OW12485   8.687  10.551   7.848  0.5252  0.3618 -0.7686
36531SOL    HW112486   8.682  10.467   7.894 -6.1135  0.8875  0.4766
36531SOL    HW212487   8.695  10.527   7.756  3.6128 -1.1860 -0.2462
36532SOL     OW12488   4.494  10.772   9.634  0.5298 -0.0048 -0.4142
36532SOL    HW112489   4.578  10.747   9.672 -0.6938 -2.3357  0.9413
36532SOL    HW212490   4.434  10.776   9.708 -1.1922 -1.3617 -1.6551
36533SOL     OW12491   0.069  10.364   6.883  0.1255  0.0772 -0.0611
36533SOL    HW112492   0.089  10.315   6.963  3.7264 -0.9116 -1.3454
36533SOL    HW212493   0.044  10.298   6.819 -4.3490  0.9973  0.4546
36534SOL     OW12494   8.785   7.209   9.982  0.7851  0.2483  0.2496
36534SOL    HW112495   8.820   7.123  10.005  1.3672  0.0275 -1.3329
36534SOL    HW212496   8.770   7.204   9.888  0.6209  1.8161  0.1679
36535SOL     OW12497   1.327   2.686   6.282 -0.1968 -0.3534 -0.2717
36535SOL    HW112498   1.412   2.729   6.276 -0.7411  0.6669 -1.0214
36535SOL    HW212499   1.339   2.619   6.349  1.1997 -0.2527 -0.3806
36536SOL     OW12500   6.682  10.061   7.574  0.8036  0.1869  0.3221
36536SOL    HW112501   6.750  10.003   7.540  0.7715 -0.2271  0.9411
36536SOL    HW212502   6.616  10.002   7.610  0.9493  0.6042  1.3066
36537SOL     OW12503   6.784   2.314   8.937  0.1861  0.3393  0.4735
36537SOL    HW112504   6.786   2.371   9.014  0.9005  0.8296  0.1040
36537SOL    HW212505   6.698   2.274   8.940  0.2359  0.2697  1.5893
36538SOL     OW12506   2.833   0.219   1.238  0.0053  0.4537 -0.4512
36538SOL    HW112507   2.905   0.211   1.176  0.7678 -0.5210  0.5160
36538SOL    HW212508   2.816   0.129   1.266 -0.3284  0.8656  0.7245
36539SOL     OW12509   0.137   3.555   8.770  0.3908  0.4925  0.0367
36539SOL    HW112510   0.173   3.547   8.682 -2.1452 -2.5065 -0.9040
36539SOL    HW212511   0.210   3.533   8.828  1.1305 -1.5280 -1.5468
36540SOL     OW12512   1.649   9.333   9.098  0.1182 -0.1610  0.7359
36540SOL    HW112513   1.696   9.253   9.122  1.0301  0.7567  2.1752
36540SOL    HW212514   1.718   9.395   9.072 -0.6470 -0.1615 -1.5360
36541SOL     OW12515   1.032  10.333   4.557  0.2260  0.1170 -0.1023
36541SOL    HW112516   1.115  10.380   4.555  0.6277 -0.5549  0.4028
36541SOL    HW212517   1.056  10.241   4.573 -0.5314 -0.2953 -1.2012
36542SOL     OW12518   9.221   7.702  10.476  0.0561 -0.2665 -0.3406
36542SOL    HW112519   9.314   7.703  10.454  0.6688 -1.1019  1.9035
36542SOL    HW212520   9.217   7.734  10.566 -1.8746  0.0017 -0.4695
36543SOL     OW12521   8.318   6.825   8.533  0.4941  0.3684 -0.5666
36543SOL    HW112522   8.378   6.896   8.558  0.1824  0.3734  0.1940
36543SOL    HW212523   8.236   6.847   8.576  0.2031 -0.1180 -0.8638
36544SOL     OW12524   0.373   7.280  10.421  0.5286  0.2211 -0.3802
36544SOL    HW112525   0.385   7.211  10.356 -1.5313 -1.5959  1.0425
36544SOL    HW212526   0.461   7.296  10.456  1.5640  0.7321 -2.9894
36545SOL     OW12527   9.623   2.136   7.491  0.2908  0.0263 -0.3526
36545SOL    HW112528   9.718   2.146   7.492  0.3016  0.0184  0.9081
36545SOL    HW212529   9.603   2.103   7.403  1.1506  2.5953 -1.6012
36546SOL     OW12530   2.320   4.931   7.918  0.7157 -0.1276 -0.3845
36546SOL    HW112531   2.323   4.837   7.935 -1.1357 -0.6150 -2.3665
36546SOL    HW212532   2.229   4.956   7.935  0.9046  1.0679 -1.0180
36547SOL     OW12533   0.226   7.274   5.081 -0.3835 -0.3085  0.0862
36547SOL    HW112534   0.214   7.368   5.063  2.1682 -0.0956 -0.9043
36547SOL    HW212535   0.248   7.270   5.174  3.0222  0.6125 -0.5273
36548SOL     OW12536   6.995   5.711   0.162 -0.8896  0.4250  0.0795
36548SOL    HW112537   7.060   5.781   0.160 -0.5060  0.0670 -0.9872
36548SOL    HW212538   7.042   5.634   0.130 -0.9208 -0.6971  2.5633
36549SOL     OW12539   7.891   6.522   6.907 -0.4417  0.5784  0.9214
36549SOL    HW112540   7.903   6.505   6.814  2.2631  3.2397  0.6360
36549SOL    HW212541   7.798   6.544   6.917 -1.0250 -0.8718 -0.8749
36550SOL     OW12542   0.460   2.685   2.116 -0.1638 -0.1999  0.0346
36550SOL    HW112543   0.542   2.636   2.125 -0.1644 -0.1346  0.4207
36550SOL    HW212544   0.483   2.760   2.060 -0.0608 -0.4046 -0.1986
36551SOL     OW12545   8.758   0.571   9.110 -0.2092 -0.1695 -0.0160
36551SOL    HW112546   8.781   0.648   9.162 -0.8403  0.1986 -0.2608
36551SOL    HW212547   8.811   0.500   9.146  0.6157  0.4427  0.0149
36552SOL     OW12548   8.113   9.275   6.568 -0.1564 -0.1058 -0.5505
36552SOL    HW112549   8.205   9.301   6.579  0.0284 -0.8793 -0.1397
36552SOL    HW212550   8.065   9.357   6.566  0.6605  0.3853 -2.0173
36553SOL     OW12551  10.170   8.436   7.309  0.2296  0.4367 -0.0781
36553SOL    HW112552  10.228   8.507   7.338 -0.7105  0.8275  0.8990
36553SOL    HW212553  10.083   8.475   7.308 -0.1983 -0.4959 -0.2785
36554SOL     OW12554   6.237   9.726   7.790  0.2093  0.4268  0.5522
36554SOL    HW112555   6.260   9.633   7.786 -1.4808 -0.0080  0.2741
36554SOL    HW212556   6.196   9.737   7.876  0.6785  0.9981  0.7104
36555SOL     OW12557   9.994  10.491   4.884  0.0947  0.3873 -0.1979
36555SOL    HW112558  10.077  10.474   4.929 -0.0838  0.4216  0.1419
36555SOL    HW212559   9.928  10.488   4.952 -0.6250 -2.7923 -0.9025
36556SOL     OW12560   1.703   4.520   8.788 -0.4029 -0.0620 -0.0452
36556SOL    HW112561   1.646   4.586   8.750  1.4690  2.4309  1.1915
36556SOL    HW212562   1.687   4.525   8.883  1.2082  0.1173  0.2534
36557SOL     OW12563   1.389  10.528   4.223  0.4920  0.3830 -0.1531
36557SOL    HW112564   1.393  10.442   4.181 -1.1666 -0.4441  1.2534
36557SOL    HW212565   1.472  10.536   4.269  0.1389 -1.1509  0.8517
36558SOL     OW12566   3.767   7.577   6.073 -0.6054  0.0571  0.0413
36558SOL    HW112567   3.858   7.579   6.043 -0.6384  1.2892 -0.0278
36558SOL    HW212568   3.772   7.605   6.165 -0.9732  0.7445 -0.1444
36559SOL     OW12569   9.638   2.684   9.801  0.2560 -0.0366 -0.3436
36559SOL    HW112570   9.621   2.607   9.855  1.9160 -0.3534 -0.2162
36559SOL    HW212571   9.621   2.758   9.858  3.4120 -0.3544  1.2189
36560SOL     OW12572   4.795   1.373   1.240 -0.3071  0.0618  0.6477
36560SOL    HW112573   4.862   1.347   1.302  0.5579 -1.0797 -0.6984
36560SOL    HW212574   4.832   1.450   1.195  0.2278 -0.6899 -0.2358
36561SOL     OW12575   0.819   5.230   0.829 -0.0985 -0.3947  0.8641
36561SOL    HW112576   0.902   5.272   0.809 -0.4046 -0.4785 -0.7120
36561SOL    HW212577   0.826   5.205   0.921  1.8075 -0.8305  0.6386
36562SOL     OW12578   1.657   3.189   9.142  0.0040  0.0372 -0.1912
36562SOL    HW112579   1.724   3.163   9.205  0.0579 -0.7114 -0.5409
36562SOL    HW212580   1.578   3.143   9.171 -0.2112  0.4506 -0.1202
36563SOL     OW12581   3.472   4.543   4.960  0.8929 -0.1252  0.3993
36563SOL    HW112582   3.404   4.585   5.012  0.3589  0.4861 -0.7379
36563SOL    HW212583   3.553   4.587   4.987  0.1476  3.3689 -2.2186
36564SOL     OW12584   4.916   9.408   1.426 -0.9678  0.2496  0.1273
36564SOL    HW112585   4.913   9.504   1.435  1.5987  0.4833 -0.7125
36564SOL    HW212586   4.951   9.378   1.510 -1.0056  0.1248  0.0973
36565SOL     OW12587   4.700   3.763   0.610 -0.1843  0.9116  0.1069
36565SOL    HW112588   4.675   3.849   0.575 -0.9589  0.6419 -0.0043
36565SOL    HW212589   4.618   3.723   0.637 -0.0875 -0.5779 -1.5971
36566SOL     OW12590   6.776   8.260   5.376  0.1540 -0.1365  0.0917
36566SOL    HW112591   6.755   8.235   5.465  2.0047 -0.9212  0.3544
36566SOL    HW212592   6.795   8.177   5.331  1.3055  0.3878 -0.4386
36567SOL     OW12593   9.696   4.451   4.349  0.0207 -0.9059 -0.8276
36567SOL    HW112594   9.703   4.503   4.268 -0.0346  0.1064 -0.1933
36567SOL    HW212595   9.775   4.473   4.398 -0.1891 -1.1389 -0.3871
36568SOL     OW12596   6.712   4.675   6.600 -0.1469 -0.4971 -0.0183
36568SOL    HW112597   6.709   4.581   6.616 -0.6866 -0.4480  0.1933
36568SOL    HW212598   6.710   4.714   6.688 -0.4599 -0.2814 -0.1173
36569SOL     OW12599   3.882   2.829   8.619  0.0167 -0.0089 -0.1252
36569SOL    HW112600   3.920   2.815   8.532 -2.1171 -1.3273 -0.9361
36569SOL    HW212601   3.833   2.911   8.610  1.1169  0.7171  0.3587
36570SOL     OW12602   4.045   3.463   0.782  0.1802 -0.3258 -0.6008
36570SOL    HW112603   4.079   3.471   0.871  0.7817 -2.5051 -0.5948
36570SOL    HW212604   3.969   3.405   0.790 -0.5130  0.4476 -1.3512
36571SOL     OW12605   1.120   4.567   1.763  0.0541 -0.3452  0.4165
36571SOL    HW112606   1.051   4.615   1.716 -0.8662 -1.8093  0.2113
36571SOL    HW212607   1.191   4.560   1.700 -0.9088 -1.6970 -0.5608
36572SOL     OW12608   0.472   7.937   5.473  0.1858 -0.1083  0.1206
36572SOL    HW112609   0.408   8.002   5.501 -0.7441 -0.7021 -0.5595
36572SOL    HW212610   0.434   7.899   5.393  2.0269  0.4703 -1.1019
36573SOL     OW12611   2.644   0.776   8.200 -0.1372  0.2166  0.3933
36573SOL    HW112612   2.600   0.861   8.192 -1.4857 -0.5082 -0.2352
36573SOL    HW212613   2.584   0.723   8.253  1.5605  0.1879  2.4209
36574SOL     OW12614   0.770   5.889   0.873  0.0067  0.3831  0.0117
36574SOL    HW112615   0.791   5.894   0.780 -2.3980 -0.8836 -0.7006
36574SOL    HW212616   0.728   5.803   0.883  1.3341 -0.0497  2.5553
36575SOL     OW12617   5.867   3.654   1.218 -0.3772 -0.2760 -0.8187
36575SOL    HW112618   5.787   3.694   1.253  0.7265  0.4806  0.9797
36575SOL    HW212619   5.848   3.639   1.125 -2.2429  0.8088 -0.6556
36576SOL     OW12620   6.888   1.972   6.574 -0.2018 -0.4169  0.3977
36576SOL    HW112621   6.906   1.888   6.616  0.1856  0.1894  1.5030
36576SOL    HW212622   6.961   1.986   6.514 -0.4419 -1.0122 -0.0429
36577SOL     OW12623   4.450   4.193   0.257 -0.8257  0.5178  0.1062
36577SOL    HW112624   4.484   4.219   0.342  1.3372  1.5358 -0.9813
36577SOL    HW212625   4.373   4.249   0.244 -0.5980  1.0485  0.9635
36578SOL     OW12626   1.832   4.234   3.378  0.1540 -0.5150 -0.0813
36578SOL    HW112627   1.799   4.174   3.445 -0.7802 -0.0250 -0.0884
36578SOL    HW212628   1.926   4.217   3.375  0.2320 -0.5017  1.4025
36579SOL     OW12629   7.843   8.787   3.065  0.6432 -0.1214 -0.1994
36579SOL    HW112630   7.755   8.823   3.057 -1.1781 -3.9613  0.1018
36579SOL    HW212631   7.858   8.782   3.159  1.1602  0.4397 -0.2491
36580SOL     OW12632   8.752   3.316   4.335 -0.0644  0.0379 -0.1770
36580SOL    HW112633   8.688   3.351   4.398 -1.7001 -1.5675 -0.8340
36580SOL    HW212634   8.820   3.383   4.330 -1.3953  1.5730  1.0195
36581SOL     OW12635   3.045   0.963   6.326  0.1912  0.1262  0.2837
36581SOL    HW112636   3.019   1.009   6.406 -0.6371 -1.8369  1.1883
36581SOL    HW212637   3.066   1.034   6.264 -1.4582  1.7290  1.4438
36582SOL     OW12638   8.642   3.897   3.279 -0.0145  0.4710  0.2981
36582SOL    HW112639   8.546   3.896   3.274  0.0309  0.4881 -1.4363
36582SOL    HW212640   8.662   3.873   3.369 -1.6524  0.1242  0.6042
36583SOL     OW12641   2.465   7.373   2.634 -0.0605 -0.0250  0.2651
36583SOL    HW112642   2.475   7.467   2.654  2.0630 -0.1744  0.0612
36583SOL    HW212643   2.425   7.336   2.713  0.8020  0.7524  1.0910
36584SOL     OW12644  10.285   0.561   0.843 -0.0399  0.0195 -0.1329
36584SOL    HW112645  10.334   0.634   0.806  1.0953 -0.8393 -0.3722
36584SOL    HW212646  10.300   0.568   0.938 -0.6930  0.6020 -0.0540
36585SOL     OW12647  10.090  10.225   6.535 -0.1076 -0.3627  0.6337
36585SOL    HW112648  10.125  10.139   6.555 -0.1017 -0.4127  0.4106
36585SOL    HW212649  10.163  10.271   6.493 -0.1725 -0.3143  0.5741
36586SOL     OW12650   4.584   6.069   0.680 -0.4683 -0.3638  0.5786
36586SOL    HW112651   4.501   6.023   0.669 -0.9222  0.3718  0.8537
36586SOL    HW212652   4.566   6.136   0.746  0.1361  0.2950  0.0945
36587SOL     OW12653   2.469   4.415   6.344  0.5401  0.2730  0.5388
36587SOL    HW112654   2.408   4.344   6.364  1.7731 -1.0378 -0.1975
36587SOL    HW212655   2.491   4.403   6.252  0.5449  1.8212  0.3080
36588SOL     OW12656  10.689   4.532   2.687 -0.1704 -0.5297 -0.2444
36588SOL    HW112657  10.768   4.530   2.741  1.4953 -0.9066 -2.5235
36588SOL    HW212658  10.617   4.523   2.749  1.6496 -2.4481  1.7808
36589SOL     OW12659   1.122   0.238   1.690  0.5135  0.2341 -0.2955
36589SOL    HW112660   1.043   0.205   1.732  0.8046 -1.8777 -1.2814
36589SOL    HW212661   1.188   0.170   1.705  0.9758 -0.0355 -3.0054
36590SOL     OW12662   1.031   3.034   0.648 -0.6447 -0.1298  0.0789
36590SOL    HW112663   0.953   3.019   0.594  0.5383 -2.4981 -1.1094
36590SOL    HW212664   1.067   3.117   0.616 -2.2093  0.5900  0.1087
36591SOL     OW12665   6.992   7.934   1.722 -0.5193 -0.2543 -0.0397
36591SOL    HW112666   6.966   8.016   1.680 -1.0788 -0.5326 -0.2645
36591SOL    HW212667   6.992   7.870   1.650  0.2149 -0.3913  0.0756
36592SOL     OW12668   6.406   2.290   0.074  0.4796 -0.3066  0.2364
36592SOL    HW112669   6.396   2.385   0.083 -0.1212 -0.3845  0.4205
36592SOL    HW212670   6.461   2.279  -0.003  0.9296  0.2039  0.4716
36593SOL     OW12671   9.817   9.102   7.059  0.0233 -0.1743 -0.0503
36593SOL    HW112672   9.839   9.052   6.980  0.1169  1.9471 -1.4293
36593SOL    HW212673   9.902   9.123   7.098 -0.0133 -0.8488  0.4335
36594SOL     OW12674   9.869   0.411   1.662  0.0327 -0.1846  0.4560
36594SOL    HW112675   9.778   0.394   1.687  0.0380  0.1669  0.7237
36594SOL    HW212676   9.868   0.407   1.566  0.0368 -1.6918  0.5004
36595SOL     OW12677   8.171   3.768   4.213  0.2758  0.3872 -0.5740
36595SOL    HW112678   8.204   3.846   4.257  1.7079 -0.6545  0.2737
36595SOL    HW212679   8.140   3.712   4.284 -0.8630  0.2088 -1.1822
36596SOL     OW12680   5.151   1.168   0.390  0.3980 -0.2938 -0.2071
36596SOL    HW112681   5.204   1.150   0.467 -0.9325 -3.1096  0.1880
36596SOL    HW212682   5.089   1.235   0.418  0.4900 -0.6479  0.8964
36597SOL     OW12683   8.624   5.296   4.170  0.2556 -0.5299  0.4085
36597SOL    HW112684   8.574   5.304   4.251  1.2594  0.3906  0.9620
36597SOL    HW212685   8.558   5.276   4.103 -0.7261 -0.2391  1.2633
36598SOL     OW12686   1.950   1.007  10.791  0.3061  0.9760  0.0947
36598SOL    HW112687   1.939   0.982  10.699  0.8160 -0.3664  0.3852
36598SOL    HW212688   1.922   0.931  10.841 -3.5616  2.8716  1.2545
36599SOL     OW12689   3.717   8.033  10.563  0.0489  0.2408 -0.1874
36599SOL    HW112690   3.752   7.959  10.612 -1.9711 -0.7120 -0.0653
36599SOL    HW212691   3.719   8.106  10.624  1.3194  0.1178 -0.0493
36600SOL     OW12692   7.480   8.673   4.287  0.4236 -0.2563  0.2282
36600SOL    HW112693   7.482   8.646   4.195 -0.7678  0.0516  0.0961
36600SOL    HW212694   7.491   8.768   4.285 -0.5369 -0.1346  0.3294
36601SOL     OW12695   7.689   2.923   0.598  0.0663 -0.1960  0.0244
36601SOL    HW112696   7.615   2.891   0.650  0.2700 -1.2298 -0.2986
36601SOL    HW212697   7.711   2.850   0.540 -0.5171  1.1077 -1.9488
36602SOL     OW12698   6.729   6.899   9.740  0.7472 -0.3226 -0.1627
36602SOL    HW112699   6.819   6.875   9.717  0.4435 -1.0577 -0.6126
36602SOL    HW212700   6.702   6.960   9.671  0.2907 -1.5148 -1.0946
36603SOL     OW12701   1.858   9.593   7.348 -0.3366  0.0346  0.0482
36603SOL    HW112702   1.915   9.595   7.271  1.3435 -2.1046  1.1269
36603SOL    HW212703   1.782   9.542   7.321  0.6234 -1.4247 -0.0256
36604SOL     OW12704   7.502   6.570   6.648 -0.0264  0.8545  0.3873
36604SOL    HW112705   7.436   6.583   6.716  0.4582  1.3062  0.7812
36604SOL    HW212706   7.579   6.539   6.695 -0.2201 -0.5979 -0.1758
36605SOL     OW12707   5.544  10.320   1.774  0.2124 -0.4939 -0.2277
36605SOL    HW112708   5.573  10.398   1.727  1.2840 -1.3284 -1.0161
36605SOL    HW212709   5.500  10.267   1.707 -1.4661 -0.1125  0.5371
36606SOL     OW12710   8.444   5.923   4.600  0.4326 -0.1615  0.2932
36606SOL    HW112711   8.407   5.850   4.649  1.0887 -0.2167  0.7157
36606SOL    HW212712   8.372   5.955   4.546 -0.0226 -0.7341  0.5578
36607SOL     OW12713   2.243   6.275   9.290 -0.0257  0.0703 -0.2157
36607SOL    HW112714   2.204   6.215   9.354  0.9699 -0.9748 -0.5521
36607SOL    HW212715   2.214   6.362   9.318  0.7795 -0.2899  1.9932
36608SOL     OW12716   9.827   6.298   3.978  0.2454  0.2011 -0.4755
36608SOL    HW112717   9.905   6.351   3.994  0.8008 -0.5782 -0.4869
36608SOL    HW212718   9.849   6.212   4.014 -1.0605  0.2671  0.5676
36609SOL     OW12719   4.639  10.741   0.325 -0.3589 -0.0124  0.0448
36609SOL    HW112720   4.713  10.790   0.360 -0.1586 -0.3373  0.0811
36609SOL    HW212721   4.629  10.774   0.236  0.6458 -0.8698 -0.4034
36610SOL     OW12722   3.136   2.110   0.849  0.4991 -0.0427 -0.6910
36610SOL    HW112723   3.086   2.052   0.906 -1.2588  2.2566  0.2978
36610SOL    HW212724   3.100   2.096   0.762 -0.0143 -0.3042 -0.4385
36611SOL     OW12725   1.591   8.861   8.902  0.2944 -0.0410 -0.2347
36611SOL    HW112726   1.644   8.925   8.856  0.7756 -0.4581 -0.2664
36611SOL    HW212727   1.516   8.911   8.936  2.0054  1.0969  2.1197
36612SOL     OW12728   8.737   8.898   7.029  0.0847 -0.1721 -0.1980
36612SOL    HW112729   8.645   8.926   7.023  0.2100  1.0955  2.4701
36612SOL    HW212730   8.734   8.803   7.021 -1.5529 -0.2158  0.5161
36613SOL     OW12731   7.971   2.771   9.487  0.3569 -0.0102  0.1434
36613SOL    HW112732   7.890   2.750   9.440  0.2495 -0.1947  0.4069
36613SOL    HW212733   8.033   2.704   9.458 -0.6312 -2.2423  2.7318
36614SOL     OW12734   2.495   6.716  10.700  0.0980  0.6138 -0.3383
36614SOL    HW112735   2.517   6.722  10.793  0.2867  1.8882 -0.4506
36614SOL    HW212736   2.572   6.750  10.654 -0.2412  0.5880 -0.9440
36615SOL     OW12737   9.764  10.206   1.661 -0.2880 -1.1794  0.4891
36615SOL    HW112738   9.841  10.158   1.631 -0.2258 -0.3048 -0.7973
36615SOL    HW212739   9.696  10.139   1.668  0.4191 -1.8621  1.1009
36616SOL     OW12740   6.857   6.583   0.263 -0.1097  1.0371 -0.0270
36616SOL    HW112741   6.949   6.557   0.270  0.2405  2.2277  0.0874
36616SOL    HW212742   6.810   6.522   0.320  0.1232 -1.6904 -2.5152
36617SOL     OW12743   5.850   1.685   8.964  0.4857 -0.3786  0.0269
36617SOL    HW112744   5.777   1.685   8.902 -0.2181  1.0060  0.8153
36617SOL    HW212745   5.917   1.738   8.923 -1.3230  3.7198  1.8158
36618SOL     OW12746  10.639   8.593   5.472  0.7447 -0.0267 -0.5862
36618SOL    HW112747  10.640   8.498   5.464 -0.6139 -0.0387 -0.8365
36618SOL    HW212748  10.656   8.610   5.564  0.4308 -0.5343 -0.4335
36619SOL     OW12749  10.269   6.651   4.247  0.7487 -0.0532  0.3295
36619SOL    HW112750  10.354   6.643   4.290  0.0704  0.7861  1.9254
36619SOL    HW212751  10.209   6.605   4.305 -0.0393  0.1731 -0.2956
36620SOL     OW12752   5.623   6.568   8.297  0.1891 -0.4446  0.0937
36620SOL    HW112753   5.643   6.637   8.234 -1.0396  1.4924  1.6940
36620SOL    HW212754   5.709   6.535   8.324  0.8134  0.4633 -0.7009
36621SOL     OW12755   4.765   6.062  10.317 -0.0731  0.9370 -0.3399
36621SOL    HW112756   4.752   6.038  10.225  1.6691 -0.3740 -0.2884
36621SOL    HW212757   4.804   6.149  10.314 -0.3634  1.0535 -0.8208
36622SOL     OW12758   9.921   5.401   4.143 -0.2651 -0.3145 -0.1940
36622SOL    HW112759   9.930   5.417   4.237 -1.2328  3.7791 -0.6075
36622SOL    HW212760   9.827   5.395   4.129 -0.1301 -0.6738 -0.9635
36623SOL     OW12761   2.202   8.269   7.686  0.2231 -0.9210 -0.3334
36623SOL    HW112762   2.201   8.352   7.639  0.8677  0.5685  2.1376
36623SOL    HW212763   2.118   8.228   7.664  1.0350 -1.0439 -3.8199
36624SOL     OW12764   6.302   5.912   8.263 -0.0417 -0.1468 -0.2568
36624SOL    HW112765   6.373   5.951   8.314  1.1005 -1.2269 -0.9703
36624SOL    HW212766   6.247   5.868   8.329  1.6587 -1.9063  0.0994
36625SOL     OW12767   7.727   4.938   8.279 -0.3311  0.1995 -0.0891
36625SOL    HW112768   7.695   5.027   8.267  1.2383  0.6399 -1.1235
36625SOL    HW212769   7.649   4.883   8.266 -1.0525  1.3329 -0.6843
36626SOL     OW12770   0.371   3.856   8.760 -0.2254  0.4254  0.4925
36626SOL    HW112771   0.394   3.926   8.698 -1.2040 -0.9352 -1.5213
36626SOL    HW212772   0.406   3.776   8.719 -0.8197 -0.5130  1.7607
36627SOL     OW12773   0.779  10.064   9.108 -0.7127  0.1889  0.2001
36627SOL    HW112774   0.801  10.042   9.198 -0.7902  1.5973  0.5837
36627SOL    HW212775   0.684  10.072   9.107 -0.8855 -1.5102 -0.4305
36628SOL     OW12776   6.353  10.403  10.250 -0.0970  0.1531 -0.2998
36628SOL    HW112777   6.349  10.338  10.321 -3.3305  0.7295  0.2175
36628SOL    HW212778   6.353  10.488  10.295 -0.1647  0.5294 -1.0000
36629SOL     OW12779   7.726   7.735  10.358 -0.0848 -0.5432 -0.4221
36629SOL    HW112780   7.642   7.778  10.375  1.3914  2.0472  1.0017
36629SOL    HW212781   7.722   7.655  10.409 -2.0059 -0.9783 -1.1424
36630SOL     OW12782   5.827   6.801   9.997 -0.1918  0.2994 -0.3954
36630SOL    HW112783   5.819   6.845  10.082 -3.3468  0.5580 -0.6994
36630SOL    HW212784   5.804   6.868   9.933  0.8445 -0.2483 -1.3598
36631SOL     OW12785   4.059   0.947   4.430  0.3357 -0.3305  0.0260
36631SOL    HW112786   4.013   0.994   4.500  0.7975 -1.0587  0.8399
36631SOL    HW212787   4.078   1.015   4.365 -0.6127  0.2525  0.3327
36632SOL     OW12788   8.344   5.298   8.513 -0.1815 -0.3432  0.5752
36632SOL    HW112789   8.291   5.251   8.578 -0.2857 -0.6666  0.2659
36632SOL    HW212790   8.425   5.320   8.559 -0.0859 -0.9253  0.7021
36633SOL     OW12791   9.557   6.630   0.744 -0.6150 -0.3392  0.3967
36633SOL    HW112792   9.505   6.550   0.747 -0.5537 -0.4196 -0.5220
36633SOL    HW212793   9.494   6.701   0.754 -0.7302 -0.4783  0.6756
36634SOL     OW12794   2.966   3.102   6.273 -0.3421 -0.4085  0.2045
36634SOL    HW112795   2.885   3.051   6.271 -0.1771 -0.6717  0.1836
36634SOL    HW212796   3.024   3.057   6.211  0.6111 -1.5563  1.8459
36635SOL     OW12797   9.035   5.550   2.795 -0.2635  0.4353 -0.0551
36635SOL    HW112798   8.944   5.549   2.765  0.0858 -0.5336 -1.1016
36635SOL    HW212799   9.031   5.516   2.885 -0.9086  0.2494 -0.1504
36636SOL     OW12800   7.965   0.160   4.469 -0.0277  0.3021 -0.2074
36636SOL    HW112801   7.968   0.085   4.529 -1.4039  1.1990  1.0334
36636SOL    HW212802   8.057   0.184   4.457  0.3012  0.0313  1.4848
36637SOL     OW12803   1.558   0.150   1.533  0.3658 -0.0694  0.2045
36637SOL    HW112804   1.567   0.106   1.617 -1.2931  1.1671  1.0972
36637SOL    HW212805   1.479   0.114   1.494 -0.6466  1.5556  0.6507
36638SOL     OW12806   9.713   8.380   3.525 -0.2350 -0.1371 -0.2875
36638SOL    HW112807   9.702   8.290   3.556  0.1155  0.1210  0.6264
36638SOL    HW212808   9.638   8.395   3.468 -0.3465 -0.9793 -0.3752
36639SOL     OW12809   2.524   9.260   8.341  0.0176  0.1626  0.2182
36639SOL    HW112810   2.595   9.209   8.379  0.8643 -0.3399 -1.9215
36639SOL    HW212811   2.452   9.198   8.331 -0.4724  0.4650  1.5532
36640SOL     OW12812   2.808   5.572   5.612 -0.1851 -0.5585  0.2646
36640SOL    HW112813   2.768   5.485   5.608 -1.3882 -0.0006 -0.3348
36640SOL    HW212814   2.897   5.558   5.581 -0.5029 -1.5021 -0.2740
36641SOL     OW12815   7.789   6.794   1.896  0.3582  0.1075 -0.4193
36641SOL    HW112816   7.721   6.847   1.938 -0.2691 -0.5525 -0.5854
36641SOL    HW212817   7.807   6.839   1.814  0.4228  0.5159 -0.1817
36642SOL     OW12818   8.204   2.784   3.382  0.1729  0.4084  0.1621
36642SOL    HW112819   8.253   2.725   3.440  1.0414  1.6102  0.6801
36642SOL    HW212820   8.269   2.844   3.347 -0.7826  1.4506  0.1061
36643SOL     OW12821   4.268   7.790  10.540 -0.0283 -0.8609 -0.5651
36643SOL    HW112822   4.350   7.779  10.589 -0.2590  2.1056  0.7426
36643SOL    HW212823   4.203   7.740  10.590  0.3781 -0.5122  0.3395
36644SOL     OW12824   2.952   8.555   9.806 -0.1312 -0.1858 -0.0550
36644SOL    HW112825   2.989   8.518   9.726  1.3303  0.1972  0.4115
36644SOL    HW212826   3.013   8.529   9.875 -1.3320 -0.4506  0.9445
36645SOL     OW12827   0.864   9.600   7.098 -0.1035  0.2393  0.1364
36645SOL    HW112828   0.943   9.634   7.141 -0.6434  0.0391  1.3278
36645SOL    HW212829   0.798   9.667   7.114 -1.0001 -0.9818  1.9177
36646SOL     OW12830   0.329  10.605  10.380  0.1145 -0.0862 -0.0410
36646SOL    HW112831   0.415  10.631  10.347 -0.3561 -0.3295 -1.5252
36646SOL    HW212832   0.323  10.647  10.466  1.9239 -0.5039  0.3381
36647SOL     OW12833   3.222   0.697   7.647 -0.0606  0.0556  0.9117
36647SOL    HW112834   3.276   0.759   7.696 -0.6629  0.3167  1.2671
36647SOL    HW212835   3.147   0.681   7.705 -0.7293  0.2894  0.1267
36648SOL     OW12836   4.076   0.564   6.950 -0.1019  0.0956  0.0088
36648SOL    HW112837   4.106   0.606   7.030 -1.3705  0.7745  0.1401
36648SOL    HW212838   4.099   0.626   6.880 -1.0511  0.5611  0.0968
36649SOL     OW12839   2.872  10.784   8.203  0.2323  0.2791  0.1510
36649SOL    HW112840   2.806  10.719   8.176  0.2457 -0.0565  0.8945
36649SOL    HW212841   2.952  10.734   8.214  0.5515  0.6447 -0.4865
36650SOL     OW12842   8.469   3.888   4.044 -0.3207  0.3842 -0.0020
36650SOL    HW112843   8.401   3.827   4.014  0.3563  0.6785 -2.3487
36650SOL    HW212844   8.550   3.853   4.007  0.2478  2.0562 -0.3999
36651SOL     OW12845   8.638   3.157  10.317  0.0389 -0.4637 -0.1866
36651SOL    HW112846   8.627   3.246  10.349 -0.0881  0.0632 -1.6043
36651SOL    HW212847   8.732   3.147  10.305  0.1088 -0.7532  0.5924
36652SOL     OW12848   1.206   2.668   8.915 -0.3253  0.4286 -0.0785
36652SOL    HW112849   1.252   2.751   8.904  3.7650 -1.7437 -1.3714
36652SOL    HW212850   1.264   2.617   8.972 -0.9484 -2.6593 -2.0246
36653SOL     OW12851   6.144   3.746   6.065  0.2299  0.1385  0.0471
36653SOL    HW112852   6.087   3.744   6.142 -0.7167 -4.2308 -0.4815
36653SOL    HW212853   6.231   3.723   6.098 -0.0550 -1.1539 -0.0600
36654SOL     OW12854   8.687   0.848   5.494  0.3203  0.6182  0.1174
36654SOL    HW112855   8.711   0.936   5.524  0.8700  0.0478  1.4506
36654SOL    HW212856   8.706   0.849   5.400 -0.0785  2.0422  0.0249
36655SOL     OW12857   1.010   3.256   9.987  0.5905 -0.1341 -0.6226
36655SOL    HW112858   0.924   3.251   9.946  0.2659 -0.9099  0.1300
36655SOL    HW212859   1.000   3.320  10.058 -0.5759 -3.0920  2.1443
36656SOL     OW12860   7.282   6.400   7.578  0.0001  0.2552 -0.1064
36656SOL    HW112861   7.225   6.421   7.652  0.7000 -2.2170  1.2646
36656SOL    HW212862   7.354   6.462   7.584  1.4734 -1.5150  3.0996
36657SOL     OW12863  10.074   8.236   8.351  0.3922 -0.5144 -0.2222
36657SOL    HW112864  10.030   8.309   8.393  1.1538 -1.1953  1.8765
36657SOL    HW212865  10.142   8.209   8.413  1.4582 -1.7183 -1.8142
36658SOL     OW12866   2.992   7.951   6.607  0.1533  0.3750 -0.0590
36658SOL    HW112867   2.975   7.880   6.545  1.5718 -0.6183  0.6365
36658SOL    HW212868   2.914   7.952   6.663  0.5217 -1.3577  0.5673
36659SOL     OW12869   0.145   7.758   0.061 -0.9211  0.2138  0.4987
36659SOL    HW112870   0.095   7.761   0.143 -0.3215 -1.2823  0.9537
36659SOL    HW212871   0.228   7.718   0.086 -0.6688 -0.1063 -0.8121
36660SOL     OW12872  10.689   1.568   3.786  0.1071  0.2583  0.3840
36660SOL    HW112873  10.750   1.640   3.799  1.9698 -0.9735 -0.9161
36660SOL    HW212874  10.741   1.489   3.806 -0.5329 -0.9270 -2.2274
36661SOL     OW12875   6.557   0.581   6.053 -0.0771 -0.1021  0.2386
36661SOL    HW112876   6.611   0.659   6.052 -0.8856  0.4694 -0.4601
36661SOL    HW212877   6.566   0.546   6.142  1.8965 -0.3806 -0.0349
36662SOL     OW12878  10.152   0.567   2.260 -0.3618 -0.3813 -0.2151
36662SOL    HW112879  10.157   0.550   2.354 -1.8787 -1.1036 -0.2506
36662SOL    HW212880  10.138   0.481   2.220  1.0804 -0.2009 -1.2009
36663SOL     OW12881   3.505   2.540   4.029  0.5910  0.3207 -0.1728
36663SOL    HW112882   3.417   2.525   4.064  0.4402 -2.8935 -1.5927
36663SOL    HW212883   3.561   2.481   4.078  1.4528  0.3345 -1.1108
36664SOL     OW12884   1.626   4.054   3.594  0.9788 -0.2140  0.1601
36664SOL    HW112885   1.671   3.972   3.572  0.0033 -0.6814 -0.1475
36664SOL    HW212886   1.554   4.028   3.651 -0.7405  0.0758 -1.7234
36665SOL     OW12887  10.626   5.944   5.200  0.5347  0.1189  0.5574
36665SOL    HW112888  10.682   5.997   5.143 -0.3811  3.5949  2.5704
36665SOL    HW212889  10.552   5.919   5.145  2.3086 -1.6484 -1.2061
36666SOL     OW12890   9.820   6.717   1.702  0.1632 -0.3452 -0.5458
36666SOL    HW112891   9.897   6.665   1.728 -0.2861 -0.6762  0.1457
36666SOL    HW212892   9.779   6.740   1.785 -1.5788 -1.8084 -0.9498
36667SOL     OW12893   7.834   1.627   7.367 -0.1139 -0.1321  0.1850
36667SOL    HW112894   7.871   1.570   7.434 -0.8680  1.0966  1.6965
36667SOL    HW212895   7.789   1.568   7.307 -1.0492 -1.1421  1.8063
36668SOL     OW12896   4.973   1.695   2.616 -0.4540 -0.7404  0.1104
36668SOL    HW112897   4.952   1.671   2.707 -1.9342 -2.6120 -0.6613
36668SOL    HW212898   5.069   1.694   2.613 -0.2940  0.9187  1.9857
36669SOL     OW12899   4.996   3.518   1.815 -0.0710  0.1334  0.0650
36669SOL    HW112900   5.041   3.450   1.865  1.2971  1.0537  0.1396
36669SOL    HW212901   5.019   3.500   1.724 -0.6477 -0.1657 -0.0252
36670SOL     OW12902   3.238   8.565   8.579  0.1449 -0.2372 -0.7339
36670SOL    HW112903   3.260   8.646   8.533  0.0113 -0.2831 -0.8793
36670SOL    HW212904   3.313   8.507   8.564  0.6232  0.1577  0.0877
36671SOL     OW12905   2.142   6.121   4.210 -0.6363  0.1702  0.5580
36671SOL    HW112906   2.191   6.130   4.129 -0.2803  0.2891  0.7826
36671SOL    HW212907   2.066   6.068   4.187 -1.1289  1.1322 -0.0974
36672SOL     OW12908   7.931   9.429   3.777  0.1942 -0.3530 -0.4541
36672SOL    HW112909   7.931   9.392   3.866  1.0372 -0.6877 -0.5892
36672SOL    HW212910   7.908   9.521   3.790  1.9704  0.0312  0.3188
36673SOL     OW12911   0.891   4.000   7.559 -0.4865 -0.1824  0.4814
36673SOL    HW112912   0.890   4.075   7.619 -0.9206 -1.3236  1.9598
36673SOL    HW212913   0.823   4.019   7.495 -1.1387  0.3299  1.3108
36674SOL     OW12914   9.601   7.505   1.798  0.0886 -0.2123  0.2842
36674SOL    HW112915   9.686   7.465   1.819  0.5793  0.8360  0.3748
36674SOL    HW212916   9.583   7.563   1.871 -1.0386 -0.9078  0.5740
36675SOL     OW12917   6.494   5.734   9.013  0.3285  0.0447  0.6409
36675SOL    HW112918   6.439   5.682   9.072  2.0634 -1.6453  0.8987
36675SOL    HW212919   6.462   5.715   8.925  1.3083 -2.0698  0.6814
36676SOL     OW12920   6.941   6.360   3.431 -0.3781 -0.7464  0.4255
36676SOL    HW112921   6.888   6.349   3.510  0.5330 -0.6298  1.0815
36676SOL    HW212922   6.917   6.286   3.375 -0.6259 -1.1556  1.0561
36677SOL     OW12923   9.276   7.350   2.174 -0.3878  0.2726 -0.5653
36677SOL    HW112924   9.211   7.406   2.131 -1.0274  0.5594  0.7080
36677SOL    HW212925   9.225   7.275   2.205 -0.2654  0.8210  1.0368
36678SOL     OW12926   1.224   9.013   7.537 -0.6172 -0.0183  0.2345
36678SOL    HW112927   1.238   8.949   7.468  1.1798  1.6006 -1.0012
36678SOL    HW212928   1.153   9.069   7.504 -0.5678  0.0444  0.2327
36679SOL     OW12929   8.273   4.115   6.146  0.0271  0.0326  0.0009
36679SOL    HW112930   8.300   4.156   6.229 -0.7388  2.9548 -1.0529
36679SOL    HW212931   8.348   4.126   6.088  0.7434 -2.4385  0.3453
36680SOL     OW12932   9.259   7.064   4.778  0.1448 -0.1469 -0.2288
36680SOL    HW112933   9.209   7.104   4.848 -0.9190 -1.3032 -0.2946
36680SOL    HW212934   9.348   7.058   4.812 -0.0887  0.4810  0.5092
36681SOL     OW12935   9.819   4.863   2.114 -0.1471  0.2691  0.2686
36681SOL    HW112936   9.776   4.949   2.116 -1.8703 -0.5178 -1.1826
36681SOL    HW212937   9.902   4.878   2.160 -1.0014  2.3653  1.2875
36682SOL     OW12938   6.782   3.710   4.231 -0.2826 -0.4278 -0.0046
36682SOL    HW112939   6.742   3.793   4.257  0.1426  0.1174 -1.0511
36682SOL    HW212940   6.713   3.645   4.247 -0.7632  0.1762  0.4439
36683SOL     OW12941   8.054   0.137   8.606  0.5206  0.0489 -0.5706
36683SOL    HW112942   8.126   0.178   8.557 -0.1836 -0.7138 -2.2794
36683SOL    HW212943   7.995   0.210   8.627  0.9273  0.4089 -0.6614
36684SOL     OW12944   8.900   7.010  10.123 -0.2692  0.3484  0.0054
36684SOL    HW112945   8.968   6.949  10.152  1.4740  0.5200 -3.2201
36684SOL    HW212946   8.818   6.970  10.150  0.9309 -2.0987  0.3012
36685SOL     OW12947   1.444   9.732   6.373 -0.2547 -0.4675  0.0020
36685SOL    HW112948   1.437   9.787   6.295  1.1873  0.9595  0.8119
36685SOL    HW212949   1.481   9.650   6.340  0.1663  0.0483 -0.8694
36686SOL     OW12950  10.156   8.739   1.056  0.1076  0.3825 -0.0500
36686SOL    HW112951  10.193   8.721   1.143  1.8207 -1.3087 -1.0326
36686SOL    HW212952  10.093   8.668   1.042 -0.4255  0.8546 -0.0610
36687SOL     OW12953   6.588   8.145   0.649 -0.0237 -0.4257  0.3012
36687SOL    HW112954   6.565   8.053   0.633  0.5438 -0.6224  0.5778
36687SOL    HW212955   6.680   8.142   0.675 -0.0617  0.2034  0.5105
36688SOL     OW12956  10.099   7.288   7.050  0.4270  0.2565  0.5676
36688SOL    HW112957  10.168   7.228   7.021 -0.0539 -0.0032 -0.0652
36688SOL    HW212958  10.130   7.374   7.022  0.2203  0.0690 -0.2745
36689SOL     OW12959   9.742  10.224   4.450 -0.1303 -0.3058  0.5465
36689SOL    HW112960   9.787  10.269   4.521 -0.0273 -0.1247  0.3695
36689SOL    HW212961   9.799  10.237   4.374 -0.8705  0.6295  0.1302
36690SOL     OW12962   9.940   4.584  10.157 -0.1637  0.1737  0.1354
36690SOL    HW112963  10.023   4.622  10.185  0.1168 -0.2784 -0.0792
36690SOL    HW212964   9.890   4.573  10.238  0.8297 -1.5673  0.5503
36691SOL     OW12965   1.359   3.232   9.597  0.5316 -0.8526  0.2895
36691SOL    HW112966   1.292   3.216   9.663  0.4971 -3.6389 -0.2804
36691SOL    HW212967   1.430   3.171   9.619  2.0257  0.6308 -0.2606
36692SOL     OW12968   8.242   4.527   4.146  0.2243 -0.5943  0.2917
36692SOL    HW112969   8.270   4.483   4.226 -2.4369 -1.2044  1.0050
36692SOL    HW212970   8.222   4.616   4.173 -0.6047 -0.7805  0.3390
36693SOL     OW12971   7.515   3.930   2.916  0.2641 -0.2322  0.2512
36693SOL    HW112972   7.469   3.848   2.900  1.6921 -1.1943  0.8611
36693SOL    HW212973   7.604   3.904   2.938  0.8563  1.5071  0.1091
36694SOL     OW12974   5.206   2.678   5.827  0.3018 -0.4706 -0.5327
36694SOL    HW112975   5.153   2.735   5.883 -0.7823 -0.9985 -0.9911
36694SOL    HW212976   5.143   2.642   5.764  1.2234 -1.0844 -1.1118
36695SOL     OW12977   6.202   3.658   5.079  0.2260  0.5986 -0.1340
36695SOL    HW112978   6.258   3.712   5.023  2.7640 -1.3091  0.3644
36695SOL    HW212979   6.171   3.588   5.021 -1.2188  1.2907 -0.2468
36696SOL     OW12980   3.958   9.770   7.204 -0.1911  0.2999  0.4482
36696SOL    HW112981   4.017   9.845   7.199 -0.8199  0.7464 -0.8264
36696SOL    HW212982   3.887   9.792   7.143 -0.9162 -0.8744  0.8376
36697SOL     OW12983   9.728   5.462   9.256  0.3391 -0.3064  0.5262
36697SOL    HW112984   9.690   5.397   9.197  0.4375  1.1626 -1.2499
36697SOL    HW212985   9.823   5.449   9.248  0.3941  0.5649 -0.5106
36698SOL     OW12986   7.939   7.852   6.635  1.1724 -0.0356 -0.0910
36698SOL    HW112987   7.868   7.807   6.589  1.1927 -0.3207  0.1596
36698SOL    HW212988   7.895   7.912   6.695  1.1106 -1.2230  1.1023
36699SOL     OW12989   5.199   6.351   8.029  0.6890  0.5484  0.1274
36699SOL    HW112990   5.210   6.269   8.076  1.2776  0.3241 -0.3894
36699SOL    HW212991   5.284   6.395   8.038  0.3342  1.1699  0.5278
36700SOL     OW12992   6.353   9.822   4.857 -0.0273  0.1022  0.6206
36700SOL    HW112993   6.435   9.774   4.870 -0.0811  0.2089  1.3951
36700SOL    HW212994   6.287   9.768   4.901 -1.2100 -2.2621 -3.4925
36701SOL     OW12995  10.185   3.842   9.343 -0.3744 -0.0322  0.0626
36701SOL    HW112996  10.198   3.780   9.272  0.2048  0.1458  0.0104
36701SOL    HW212997  10.097   3.822   9.377 -0.6333 -0.1429 -0.6683
36702SOL     OW12998   1.025   5.899   4.132 -0.4274  0.6113  0.1036
36702SOL    HW112999   1.055   5.853   4.210 -0.7186  2.3886  1.3214
36702SOL    HW213000   0.984   5.831   4.078 -2.2354 -0.3351  2.5156
36703SOL     OW13001   5.708   6.249   7.607 -0.0210 -0.2617  0.4555
36703SOL    HW113002   5.755   6.281   7.685  0.5283  1.0909 -0.3925
36703SOL    HW213003   5.736   6.159   7.597  0.8804 -0.0668  1.1101
36704SOL     OW13004   6.902   9.021   9.665 -0.0091  0.1056  0.0342
36704SOL    HW113005   6.885   9.051   9.754  2.1684 -0.7360  0.8020
36704SOL    HW213006   6.841   9.071   9.611 -0.0715  2.0567  1.7806
36705SOL     OW13007   8.489   5.751  10.767 -0.0975  0.1235  0.2408
36705SOL    HW113008   8.502   5.659  10.745  0.4762  0.3816 -0.5333
36705SOL    HW213009   8.577   5.784  10.786  0.1737  1.2412 -2.4725
36706SOL     OW13010   6.310   9.075   1.830 -0.6232 -0.2449  0.1532
36706SOL    HW113011   6.389   9.125   1.854  0.4837 -2.6245  1.9375
36706SOL    HW213012   6.332   9.034   1.747  0.4669 -1.5923  1.0522
36707SOL     OW13013   0.900   7.962   7.027  0.5761 -0.8031  0.2001
36707SOL    HW113014   0.900   8.042   7.081 -3.8088  2.8323 -4.2500
36707SOL    HW213015   0.975   7.973   6.969  0.7466 -0.6638  0.4404
36708SOL     OW13016   2.790   6.274  10.257  0.5374  0.2421  0.3609
36708SOL    HW113017   2.802   6.368  10.244 -0.8908  0.0946 -2.9310
36708SOL    HW213018   2.699   6.266  10.284 -0.3401 -0.2958 -2.4903
36709SOL     OW13019   9.179   9.549   8.853  0.1767 -0.0491  0.2686
36709SOL    HW113020   9.245   9.480   8.855 -1.8457 -2.1090  2.0725
36709SOL    HW213021   9.178   9.582   8.943 -0.5869  0.6062  0.0269
36710SOL     OW13022   5.547   9.533   7.662 -0.4051 -0.2998  0.5183
36710SOL    HW113023   5.579   9.445   7.643 -0.5430 -0.3430  0.4827
36710SOL    HW213024   5.619   9.575   7.709 -0.0239 -0.1651 -0.1800
36711SOL     OW13025   0.094  10.123   8.700 -0.2559  0.2828 -0.6503
36711SOL    HW113026   0.170  10.173   8.731  1.8375 -1.1574 -2.9943
36711SOL    HW213027   0.072  10.065   8.774  0.2202  1.4739  0.4614
36712SOL     OW13028   8.902   6.786   8.886 -0.5132  0.3572  0.4128
36712SOL    HW113029   8.924   6.879   8.897  0.1545  0.5657 -2.0600
36712SOL    HW213030   8.982   6.739   8.908 -0.3490  0.4866  0.0963
36713SOL     OW13031   8.137   3.622   1.155  0.8103  0.1623 -0.1527
36713SOL    HW113032   8.144   3.578   1.240 -0.6609  1.6048  0.7879
36713SOL    HW213033   8.057   3.587   1.116  0.1006  1.3089  0.2201
36714SOL     OW13034   5.333   4.067   6.452 -0.4161  0.0391 -0.0247
36714SOL    HW113035   5.332   4.012   6.373  0.4650  1.0856 -0.7962
36714SOL    HW213036   5.246   4.057   6.489 -0.0300 -2.5600  0.3629
36715SOL     OW13037   5.827   6.525  10.508  0.3385  0.3548  0.2967
36715SOL    HW113038   5.855   6.591  10.571  0.9800 -0.8074  1.2583
36715SOL    HW213039   5.907   6.479  10.483  0.0163  0.4418 -0.9745
36716SOL     OW13040  10.464   7.083   3.645 -0.2233  0.3523 -0.3144
36716SOL    HW113041  10.429   7.172   3.646  0.4352  0.6575 -1.6327
36716SOL    HW213042  10.487   7.067   3.553 -0.4692 -1.2364 -0.1350
36717SOL     OW13043   4.786   5.393   0.018  0.0988 -0.0280  0.0284
36717SOL    HW113044   4.787   5.311  -0.030  2.1002 -0.4442  0.7031
36717SOL    HW213045   4.829   5.373   0.101  1.4923  1.8838 -0.1602
36718SOL     OW13046   8.240   2.641   5.442  0.3521  0.7658 -0.4132
36718SOL    HW113047   8.335   2.643   5.435  0.5025 -1.0006  0.5918
36718SOL    HW213048   8.222   2.584   5.517 -1.4836  1.9221  0.1000
36719SOL     OW13049   5.873   2.555   8.724  0.0511  0.2047 -0.4472
36719SOL    HW113050   5.808   2.558   8.653  1.3052 -0.4957 -1.6682
36719SOL    HW213051   5.946   2.506   8.688  0.4362 -0.8669  1.6215
36720SOL     OW13052   3.834   5.785   7.944  0.5444 -0.0432  0.0327
36720SOL    HW113053   3.889   5.845   7.894  0.7830 -0.3374 -0.0568
36720SOL    HW213054   3.881   5.702   7.944 -1.0060 -1.0022 -2.1148
36721SOL     OW13055   4.360   0.921  10.175  0.0165  0.1231 -0.3134
36721SOL    HW113056   4.452   0.947  10.179  0.5284 -1.4560 -1.0746
36721SOL    HW213057   4.353   0.848  10.236 -0.9610  0.7672  0.3900
36722SOL     OW13058   9.050   6.188   3.608  0.2354  0.9717 -0.0871
36722SOL    HW113059   9.020   6.239   3.533 -0.8079  2.7401  1.4466
36722SOL    HW213060   9.075   6.254   3.673  1.6546 -0.5017  0.9395
36723SOL     OW13061   2.550   3.927   3.310  0.5271 -0.4205 -0.1852
36723SOL    HW113062   2.480   3.990   3.327 -1.3951 -1.9746 -1.8365
36723SOL    HW213063   2.580   3.900   3.397 -1.0213  0.2087  0.5868
36724SOL     OW13064   3.237   1.460   8.291  0.6391 -0.0533  0.3788
36724SOL    HW113065   3.206   1.407   8.218 -0.4773  2.6731 -1.2948
36724SOL    HW213066   3.167   1.455   8.356  0.4924 -0.5016  0.1887
36725SOL     OW13067   4.979   9.672   8.434  0.6893  0.3858  0.6507
36725SOL    HW113068   4.937   9.637   8.512 -1.3825 -0.1111 -0.6229
36725SOL    HW213069   4.924   9.745   8.407  0.3598 -0.5265 -1.3058
36726SOL     OW13070  10.245   1.722   7.866  0.0257  0.3381 -0.0804
36726SOL    HW113071  10.173   1.761   7.817 -1.2042 -0.9393  0.6505
36726SOL    HW213072  10.229   1.747   7.957  1.0160  0.7856 -0.0138
36727SOL     OW13073   7.359   9.642   8.659  0.1778  0.1365  0.4352
36727SOL    HW113074   7.342   9.727   8.617 -0.1050  0.1745  0.6233
36727SOL    HW213075   7.441   9.613   8.621 -0.5269 -0.2624 -0.8555
36728SOL     OW13076   4.676   1.984   6.531 -0.4621 -0.1240  0.2051
36728SOL    HW113077   4.703   1.918   6.595 -2.9997 -0.9622  0.4970
36728SOL    HW213078   4.581   1.980   6.530 -0.5957  1.6065 -1.8543
36729SOL     OW13079   1.177   2.207   8.273  0.5544 -0.2415 -0.0766
36729SOL    HW113080   1.164   2.147   8.200 -0.2990 -0.2690  0.0899
36729SOL    HW213081   1.096   2.202   8.324  1.5342 -1.0811  1.5148
36730SOL     OW13082   7.614   4.216   4.318 -0.5563  0.0398  0.6575
36730SOL    HW113083   7.636   4.182   4.232  1.6386 -1.5669  1.7464
36730SOL    HW213084   7.587   4.138   4.368  0.8019  0.4402  2.1145
36731SOL     OW13085   6.007   0.698   1.178 -0.2115  0.0023  0.7191
36731SOL    HW113086   6.056   0.618   1.198 -1.1143 -0.9925 -0.7250
36731SOL    HW213087   5.928   0.666   1.134 -0.4296  1.7130 -0.2305
36732SOL     OW13088  10.134   3.632  10.456 -0.0801 -0.0841 -0.0869
36732SOL    HW113089  10.221   3.620  10.419  0.2264  0.3961  0.4536
36732SOL    HW213090  10.127   3.565  10.525 -0.5140 -0.7481 -0.7669
36733SOL     OW13091   2.089   3.731   4.145  0.0182 -0.0686 -0.4955
36733SOL    HW113092   2.163   3.779   4.182  0.9036 -0.7314 -1.3368
36733SOL    HW213093   2.103   3.640   4.172 -2.1478  0.1841  1.8883
36734SOL     OW13094   6.446  10.283   3.506  0.0128 -0.1805 -0.0022
36734SOL    HW113095   6.504  10.332   3.447 -0.4694 -0.3056 -0.5832
36734SOL    HW213096   6.473  10.310   3.594  0.3995  0.3905 -0.2928
36735SOL     OW13097   6.589   3.731   0.070 -0.1056 -0.0093  0.2773
36735SOL    HW113098   6.569   3.641   0.044 -0.7364  0.4584 -0.9780
36735SOL    HW213099   6.600   3.727   0.165  0.1854 -1.4553  0.2105
36736SOL     OW13100   1.060  10.086   1.246 -0.0208  0.0638  0.0444
36736SOL    HW113101   1.118  10.012   1.265 -0.0040  0.2785  0.9015
36736SOL    HW213102   1.114  10.163   1.264  0.2694  0.3267 -1.7660
36737SOL     OW13103   9.326   2.657   1.508  0.1969  0.1443 -0.2061
36737SOL    HW113104   9.279   2.599   1.447 -2.7369  3.4340 -1.4222
36737SOL    HW213105   9.400   2.689   1.457  0.5548 -0.8229 -0.3072
36738SOL     OW13106   3.502   3.181  10.522 -0.0437  0.0638  0.2917
36738SOL    HW113107   3.538   3.243  10.458  0.1526  0.1190  0.4562
36738SOL    HW213108   3.438   3.130  10.472  1.0004 -0.7382 -0.2763
36739SOL     OW13109   8.895   2.336   9.046  0.6149 -0.5691 -0.2190
36739SOL    HW113110   8.826   2.402   9.054  0.6355 -0.3843 -1.3839
36739SOL    HW213111   8.875   2.291   8.964  2.4368  0.1539 -1.1012
36740SOL     OW13112   4.481   4.782   6.106 -0.4759  0.0788 -0.0705
36740SOL    HW113113   4.415   4.851   6.099 -0.7410  0.0005  1.4685
36740SOL    HW213114   4.460   4.721   6.035 -0.6640  1.1874 -1.0069
36741SOL     OW13115   0.095   8.476   9.885 -0.1779 -0.0678  0.6967
36741SOL    HW113116   0.066   8.428   9.963  0.1761 -0.5692  0.5230
36741SOL    HW213117   0.035   8.447   9.816 -0.1311 -0.0553  0.6513
36742SOL     OW13118   3.150   1.712   5.659 -0.0093 -0.1750  0.3516
36742SOL    HW113119   3.132   1.624   5.692  0.2370 -0.3807 -0.0500
36742SOL    HW213120   3.085   1.768   5.701  0.4185 -0.3969  1.3371
36743SOL     OW13121   8.488   8.850   5.084 -0.4367 -0.1310  0.8477
36743SOL    HW113122   8.577   8.875   5.056 -0.4724 -1.2225 -0.3122
36743SOL    HW213123   8.463   8.919   5.146  0.6750  0.9729  0.1282
36744SOL     OW13124  10.311   4.366   4.326  0.3587 -0.6751  0.5464
36744SOL    HW113125  10.354   4.287   4.360 -0.2515 -0.7511  1.1504
36744SOL    HW213126  10.383   4.429   4.316  0.8189 -1.2295  0.2617
36745SOL     OW13127   0.407   7.179   6.442 -0.6474 -0.1135 -0.7015
36745SOL    HW113128   0.344   7.120   6.401  0.5012 -2.2836  0.4559
36745SOL    HW213129   0.490   7.131   6.439 -0.4160 -0.4069  3.8016
36746SOL     OW13130   3.269   1.701   3.233  0.0212  0.0526 -0.0543
36746SOL    HW113131   3.326   1.626   3.249  0.5152  0.5271  0.4396
36746SOL    HW213132   3.208   1.670   3.166  0.1928 -0.8035  0.1650
36747SOL     OW13133   7.696   4.883   3.689 -0.1253  0.0523 -0.4617
36747SOL    HW113134   7.746   4.831   3.751 -0.5107 -0.9083 -0.9377
36747SOL    HW213135   7.608   4.886   3.725 -0.0177  0.6979 -0.2463
36748SOL     OW13136   1.011   7.221   9.356  0.1180  0.3360  0.1854
36748SOL    HW113137   0.979   7.275   9.284  1.5971  0.4645 -0.4111
36748SOL    HW213138   0.999   7.276   9.434  1.9220  1.7124 -0.4585
36749SOL     OW13139   9.828   5.553   6.877  0.0060 -0.7754  0.7300
36749SOL    HW113140   9.895   5.620   6.892 -0.8343  0.1020  0.6955
36749SOL    HW213141   9.804   5.523   6.964 -1.1909  0.6005  0.9243
36750SOL     OW13142   4.513   8.156  10.713 -0.2333  0.0180 -0.4689
36750SOL    HW113143   4.503   8.101  10.791  1.0656  0.8097  0.2879
36750SOL    HW213144   4.428   8.151  10.669 -0.8062 -0.9044  0.6928
36751SOL     OW13145   7.723   2.381   5.046 -0.3330  0.3997 -0.1240
36751SOL    HW113146   7.706   2.315   4.979 -2.7643  1.0360 -0.2128
36751SOL    HW213147   7.743   2.461   4.996  0.6248  0.2251 -0.0357
36752SOL     OW13148  10.028   7.193   8.661 -0.3703 -0.9185 -0.2748
36752SOL    HW113149  10.041   7.224   8.572  0.5468 -1.5588 -0.3795
36752SOL    HW213150  10.078   7.111   8.666  0.4358 -0.3953  1.1005
36753SOL     OW13151   4.668   4.479   1.921 -0.0659  0.6634  0.5199
36753SOL    HW113152   4.748   4.484   1.867 -0.1559 -1.5312  0.0899
36753SOL    HW213153   4.614   4.414   1.877 -0.2726 -1.0375  3.1230
36754SOL     OW13154   6.905   1.546   6.346 -0.4142  0.1282 -0.0060
36754SOL    HW113155   6.957   1.526   6.423 -1.6436 -1.7304  0.3941
36754SOL    HW213156   6.969   1.567   6.278  0.7033  0.8535  1.2330
36755SOL     OW13157   7.055   4.496   0.451 -0.3465  0.2110  0.5024
36755SOL    HW113158   6.984   4.519   0.390 -3.4159 -2.9805  2.4888
36755SOL    HW213159   7.069   4.576   0.501 -0.9489  1.5685 -1.3674
36756SOL     OW13160   1.076   5.883   1.776  0.2216  0.8297 -0.0303
36756SOL    HW113161   1.044   5.962   1.731  1.6528  0.5268 -1.6904
36756SOL    HW213162   1.039   5.810   1.727 -0.2563  0.4360  0.8762
36757SOL     OW13163   8.371   7.492   0.058 -0.1838 -0.4324 -0.3727
36757SOL    HW113164   8.311   7.562   0.035 -0.5889 -0.4903  0.4883
36757SOL    HW213165   8.364   7.430  -0.014  1.1731  1.0015 -1.8353
36758SOL     OW13166   9.432   3.376   9.874 -0.1454  0.0585  0.1086
36758SOL    HW113167   9.361   3.410   9.819  0.5774 -0.2459 -1.0641
36758SOL    HW213168   9.511   3.392   9.822  1.0492  2.9595  2.4929
36759SOL     OW13169   6.160   2.933   7.238  0.2258 -0.2460 -0.7264
36759SOL    HW113170   6.077   2.892   7.214  0.7006 -1.1915 -0.7702
36759SOL    HW213171   6.140   2.983   7.317 -0.5891  0.2682 -1.2441
36760SOL     OW13172  10.206   7.265   3.363  0.4213  0.1162  0.0665
36760SOL    HW113173  10.253   7.184   3.345  0.0118 -0.2829  0.7661
36760SOL    HW213174  10.229   7.323   3.290  1.9894 -0.0604  0.4007
36761SOL     OW13175   4.232   9.646   1.575  0.2164  0.5729  0.1508
36761SOL    HW113176   4.146   9.665   1.538  0.5484 -1.2999 -1.8315
36761SOL    HW213177   4.260   9.728   1.615 -0.2884  2.9031 -3.7139
36762SOL     OW13178   9.628   5.918   1.848 -0.8432  0.3400 -0.5755
36762SOL    HW113179   9.619   5.935   1.941 -0.5004 -1.1253 -0.2498
36762SOL    HW213180   9.543   5.882   1.822 -0.2961 -1.1642 -0.3625
36763SOL     OW13181   9.052   6.724   3.294 -0.1581 -0.3628  0.1887
36763SOL    HW113182   9.142   6.706   3.318 -0.5636  1.2788  3.4978
36763SOL    HW213183   9.002   6.653   3.334 -0.4673 -0.3659 -0.2004
36764SOL     OW13184   6.029  10.436   8.912  0.1144  0.2282  0.4474
36764SOL    HW113185   5.948  10.462   8.869  0.3280  2.0466  1.0780
36764SOL    HW213186   6.097  10.489   8.870  0.7317 -0.0615  1.0525
36765SOL     OW13187   4.666   3.851   5.162 -0.0085 -0.2321  0.3309
36765SOL    HW113188   4.572   3.851   5.145  0.0191 -1.7197  0.0302
36765SOL    HW213189   4.701   3.921   5.107 -1.0927  1.3216  1.5298
36766SOL     OW13190   9.575   3.398   2.117 -0.1826  0.4417  0.2160
36766SOL    HW113191   9.572   3.350   2.034 -2.7507 -0.5500  0.7823
36766SOL    HW213192   9.506   3.358   2.170  0.1658  2.2689  2.1793
36767SOL     OW13193   7.307   4.878   5.294 -0.2125  0.0888 -0.5146
36767SOL    HW113194   7.315   4.782   5.288  1.2526  0.0483  1.2802
36767SOL    HW213195   7.383   4.911   5.246  0.7468  0.2522  1.0741
36768SOL     OW13196   8.736   9.154   7.121  0.0444  0.0510 -0.4162
36768SOL    HW113197   8.651   9.121   7.152 -1.1238  2.5368 -0.7255
36768SOL    HW213198   8.780   9.077   7.085 -1.6122 -1.5167  0.7505
36769SOL     OW13199   4.364   5.175   7.561  0.1145  0.7814  0.3800
36769SOL    HW113200   4.319   5.139   7.485  0.0556  0.1235  0.7105
36769SOL    HW213201   4.327   5.127   7.635  2.1282 -0.6307  0.5789
36770SOL     OW13202   7.353   2.860  10.649 -0.4447 -0.4079 -0.3369
36770SOL    HW113203   7.385   2.943  10.615 -1.9257  0.4045  0.1617
36770SOL    HW213204   7.431   2.816  10.683  0.2914  0.9967 -0.1636
36771SOL     OW13205   2.255   3.882   3.579  0.6030  0.2977  0.3484
36771SOL    HW113206   2.207   3.931   3.512 -2.2966 -0.9958  1.3511
36771SOL    HW213207   2.222   3.917   3.662  0.8260 -1.1691  1.0812
36772SOL     OW13208   5.255   0.845   1.631  0.0696  0.1453  0.0646
36772SOL    HW113209   5.303   0.869   1.710  0.7068 -0.0527 -0.2503
36772SOL    HW213210   5.259   0.749   1.628 -0.8365  0.0911  0.3293
36773SOL     OW13211   3.149   1.587   0.546  0.3136 -0.2296 -0.2153
36773SOL    HW113212   3.177   1.495   0.548  0.5534 -0.1769 -0.9578
36773SOL    HW213213   3.227   1.636   0.571  0.8740 -0.0960 -2.0844
36774SOL     OW13214   3.872   5.284   1.331 -0.1025  0.0043  0.1556
36774SOL    HW113215   3.864   5.293   1.236 -1.4330 -0.2426  0.2262
36774SOL    HW213216   3.809   5.216   1.354 -2.2386  2.3043  1.5883
36775SOL     OW13217   2.472   0.377   1.274 -0.8689  0.3131 -0.0351
36775SOL    HW113218   2.560   0.391   1.308 -0.9501 -0.1169  0.3519
36775SOL    HW213219   2.486   0.352   1.183 -0.4536 -1.8567  0.5698
36776SOL     OW13220   6.332   4.452   3.057 -0.0444 -0.4196  0.0103
36776SOL    HW113221   6.321   4.507   2.979  2.0823 -0.3158 -0.2823
36776SOL    HW213222   6.303   4.365   3.029  1.0713 -0.4760 -1.0586
36777SOL     OW13223   2.642   9.297   7.229 -0.0298  0.2572 -0.2853
36777SOL    HW113224   2.609   9.364   7.289  1.9081  0.3469  0.7469
36777SOL    HW213225   2.618   9.214   7.270  0.2399  0.3226  0.0088
36778SOL     OW13226   2.240   1.207   7.865 -0.2382 -0.2623  0.0467
36778SOL    HW113227   2.301   1.149   7.911  1.0680  0.3903 -0.7989
36778SOL    HW213228   2.228   1.166   7.779  1.5120  1.1839 -0.9450
36779SOL     OW13229   6.750   5.604   0.140  0.3029 -0.1829 -0.2387
36779SOL    HW113230   6.838   5.640   0.145  0.4115 -0.4718 -0.0435
36779SOL    HW213231   6.759   5.513   0.170  0.1144 -0.5116 -1.1376
36780SOL     OW13232   0.075   8.150   2.124 -0.2212  0.3158 -0.1467
36780SOL    HW113233   0.150   8.127   2.179 -0.2095  1.0693  0.1556
36780SOL    HW213234   0.103   8.125   2.035  0.0669 -0.1576  0.0685
36781SOL     OW13235   2.328   7.574   5.528 -0.3885  0.2967  0.2441
36781SOL    HW113236   2.296   7.527   5.451  0.1569  0.7103 -0.2445
36781SOL    HW213237   2.423   7.575   5.517  0.0272 -2.1914  2.3837
36782SOL     OW13238   3.218   6.904   8.751 -0.2010  0.1938 -0.0767
36782SOL    HW113239   3.198   6.996   8.733 -0.4283  0.2963  0.6697
36782SOL    HW213240   3.147   6.875   8.809 -0.5258 -0.6525 -0.8705
36783SOL     OW13241   3.093   5.249   1.457  0.5207  0.1634 -0.2789
36783SOL    HW113242   3.015   5.204   1.490  1.1008 -0.5730  0.1275
36783SOL    HW213243   3.140   5.278   1.536  0.1403  1.5540 -0.5317
36784SOL     OW13244   7.494   3.100   4.640  0.0042  0.3175 -0.0691
36784SOL    HW113245   7.496   3.006   4.621  0.7624  0.8364 -3.0757
36784SOL    HW213246   7.401   3.120   4.652 -0.1197 -0.8693  1.3068
36785SOL     OW13247   9.413   4.075   9.717  0.5683  0.0227  0.3483
36785SOL    HW113248   9.368   4.002   9.674  0.0775  1.5579 -1.9058
36785SOL    HW213249   9.346   4.115   9.772 -0.5319  1.3656 -1.8143
36786SOL     OW13250   1.929   5.857   9.654  0.3150  0.3445 -0.4711
36786SOL    HW113251   1.882   5.926   9.701  0.9744 -0.0042  0.7198
36786SOL    HW213252   1.861   5.816   9.599 -0.9281 -0.4687  1.5671
36787SOL     OW13253   8.910   3.770   5.713 -0.1012  0.1237  0.1312
36787SOL    HW113254   8.918   3.815   5.797  0.1362 -2.5003  1.6125
36787SOL    HW213255   8.956   3.687   5.726 -0.7971 -0.7194 -2.3354
36788SOL     OW13256   2.708   5.355   8.157  0.2853  0.5045  0.2616
36788SOL    HW113257   2.681   5.363   8.248  1.0011  0.6373  0.4670
36788SOL    HW213258   2.797   5.390   8.155  1.1316 -1.5111 -0.0565
36789SOL     OW13259   3.670   1.937   7.934 -0.6773  0.8012  0.2226
36789SOL    HW113260   3.574   1.942   7.930 -0.9244 -1.0841  1.7830
36789SOL    HW213261   3.692   1.980   8.016 -0.4165 -0.3700  0.7952
36790SOL     OW13262   5.284   4.991  10.720 -0.6404 -0.1779  0.8032
36790SOL    HW113263   5.224   4.947  10.660  1.0707  1.7686 -2.6059
36790SOL    HW213264   5.240   5.073  10.743 -0.8889 -0.5003  1.5177
36791SOL     OW13265   7.510   7.725   0.389  0.4552  0.0068 -0.3020
36791SOL    HW113266   7.534   7.733   0.297 -1.6869 -0.6793 -0.9821
36791SOL    HW213267   7.426   7.679   0.388  0.3994 -0.0648  2.0080
36792SOL     OW13268   5.488   5.008   9.285 -0.2348  0.6455 -0.1193
36792SOL    HW113269   5.441   5.088   9.262  0.5753  1.2364  0.2373
36792SOL    HW213270   5.566   5.009   9.229  0.0332  0.3608  0.2446
36793SOL     OW13271   7.708   4.100   9.963 -0.4078  0.4237 -0.0214
36793SOL    HW113272   7.726   4.192   9.984 -0.5059  0.9623 -2.1220
36793SOL    HW213273   7.781   4.052  10.001  0.6770  1.5963 -0.5483
36794SOL     OW13274   0.012   0.460   6.648  0.0163 -0.3864  0.8160
36794SOL    HW113275   0.089   0.497   6.605 -1.3382  2.2912  0.4857
36794SOL    HW213276  -0.021   0.395   6.586  0.6376  0.1686 -0.1183
36795SOL     OW13277   0.096   5.356   9.402  0.2219 -0.4245 -0.5878
36795SOL    HW113278   0.155   5.291   9.441 -0.6805 -1.7824 -1.4019
36795SOL    HW213279   0.064   5.314   9.322  0.2550  1.3696 -1.6053
36796SOL     OW13280   1.564   3.558   0.551 -0.0120  0.4596 -0.3584
36796SOL    HW113281   1.476   3.591   0.571 -0.3337  0.1568 -1.2357
36796SOL    HW213282   1.623   3.620   0.594 -0.6454  0.9671 -0.2061
36797SOL     OW13283   4.462   2.430   9.906  0.3390  0.1856 -0.2195
36797SOL    HW113284   4.453   2.522   9.883 -1.3226  0.2845  0.6486
36797SOL    HW213285   4.373   2.402   9.928  1.2965 -0.4883  3.5899
36798SOL     OW13286   7.071   0.546   9.937 -0.0915 -0.4525  0.4446
36798SOL    HW113287   7.151   0.561   9.886 -0.5705  0.4950 -0.0524
36798SOL    HW213288   7.102   0.528  10.026  0.6420  0.8757  0.4756
36799SOL     OW13289   8.687   0.816   7.065 -0.5382 -0.1546 -0.2375
36799SOL    HW113290   8.613   0.827   7.124 -0.2690  2.1627 -0.2562
36799SOL    HW213291   8.704   0.722   7.065 -1.1041 -0.3297  2.6682
36800SOL     OW13292  10.266   1.262   5.872 -0.2668 -0.7489 -0.1996
36800SOL    HW113293  10.306   1.194   5.818 -1.2723 -0.5562 -1.2165
36800SOL    HW213294  10.208   1.215   5.932 -0.3942 -0.8529 -0.4029
36801SOL     OW13295   2.427   6.202   9.111  0.1092  0.0227  0.1892
36801SOL    HW113296   2.511   6.242   9.132  0.4450 -0.7734  0.3802
36801SOL    HW213297   2.368   6.233   9.180 -0.2429  2.0246 -0.9040
36802SOL     OW13298   2.624   2.166   8.870  0.0720 -0.5376  0.3120
36802SOL    HW113299   2.676   2.088   8.887 -0.4781 -1.2551 -1.1232
36802SOL    HW213300   2.601   2.199   8.957  1.2908 -1.2955  0.9424
36803SOL     OW13301   3.261   3.195   2.273  0.1783  0.0570 -0.6277
36803SOL    HW113302   3.239   3.198   2.180 -0.7683 -1.3569 -0.4916
36803SOL    HW213303   3.202   3.129   2.309  1.7976 -0.7934  0.6202
36804SOL     OW13304   7.628   6.429   2.209 -0.3058 -0.1133 -0.4941
36804SOL    HW113305   7.568   6.361   2.178 -1.2187  0.4211  0.0519
36804SOL    HW213306   7.665   6.394   2.289 -2.2753  0.7753  0.8852
36805SOL     OW13307   3.613   9.026   5.357 -0.4224 -0.1929 -0.9329
36805SOL    HW113308   3.663   9.090   5.307 -0.6667  1.6073  0.9493
36805SOL    HW213309   3.665   8.946   5.355  1.4370  0.9632 -0.8858
36806SOL     OW13310   5.638   5.554  10.739  0.0512 -0.4826  0.6167
36806SOL    HW113311   5.571   5.491  10.714  0.8027 -1.8827  1.9920
36806SOL    HW213312   5.673   5.521  10.821  1.4447  0.9968  0.6730
36807SOL     OW13313   6.855   6.283  10.757 -0.1616 -0.3617  0.3780
36807SOL    HW113314   6.875   6.199  10.717  1.3379 -0.0501  0.4172
36807SOL    HW213315   6.862   6.268  10.851 -1.1704 -0.4840  0.4462
36808SOL     OW13316   2.202   3.961   2.347  0.0318 -0.3302  0.1970
36808SOL    HW113317   2.190   3.881   2.398 -1.3112  0.4550  1.1822
36808SOL    HW213318   2.188   4.032   2.410 -1.2384  0.6755 -1.1485
36809SOL     OW13319   5.963   5.216   6.756 -0.5722  0.4119  0.9157
36809SOL    HW113320   5.907   5.141   6.777 -1.0690  0.1255 -1.2419
36809SOL    HW213321   6.027   5.181   6.694  0.5801  1.2935  1.5627
36810SOL     OW13322   1.366   4.859   4.980 -0.1046  0.2226 -0.0694
36810SOL    HW113323   1.393   4.767   4.987 -1.7176 -0.2152  1.0377
36810SOL    HW213324   1.359   4.888   5.071  0.2651  1.4148 -0.4139
36811SOL     OW13325   9.883   5.899   0.228  0.2652 -0.4671 -0.3695
36811SOL    HW113326   9.952   5.963   0.212  1.6651 -1.3187  1.9026
36811SOL    HW213327   9.925   5.814   0.215 -1.0345 -1.0172 -1.3268
36812SOL     OW13328   4.514   4.849   7.633  0.8878  0.5368  0.0954
36812SOL    HW113329   4.489   4.874   7.544  1.7601 -1.5752 -0.7875
36812SOL    HW213330   4.547   4.930   7.671 -0.3352  1.7016 -1.1653
36813SOL     OW13331   4.549   0.621   6.910  0.2038 -0.0570 -0.2994
36813SOL    HW113332   4.609   0.653   6.976  0.7066 -0.7941 -0.3895
36813SOL    HW213333   4.543   0.692   6.846 -0.3785  0.7036  0.5780
36814SOL     OW13334   4.094   2.642   7.134  0.2417  0.0810 -0.1969
36814SOL    HW113335   4.133   2.729   7.141  0.1918  0.0696  0.2726
36814SOL    HW213336   4.121   2.597   7.214 -1.7477  0.4938  0.7710
36815SOL     OW13337   3.720   7.917   7.963  0.0497  0.3028  0.0886
36815SOL    HW113338   3.743   7.875   8.046 -0.5162 -0.3449 -0.0735
36815SOL    HW213339   3.804   7.928   7.918  0.3220  0.3374  0.5995
36816SOL     OW13340   7.634   0.706   0.218 -0.3758  0.4534 -0.1290
36816SOL    HW113341   7.585   0.689   0.299 -0.5712 -0.4230 -0.4211
36816SOL    HW213342   7.604   0.638   0.158  0.9971  0.0686 -0.4028
36817SOL     OW13343   6.551   3.297   7.864  0.0474 -0.0341 -0.0729
36817SOL    HW113344   6.568   3.235   7.935 -0.2325 -0.5219 -0.4255
36817SOL    HW213345   6.548   3.382   7.907 -1.0679 -0.4199  0.6446
36818SOL     OW13346   8.234   2.617   7.975 -0.3229 -0.6015  0.2138
36818SOL    HW113347   8.142   2.594   7.967 -0.6722  0.5060  0.8160
36818SOL    HW213348   8.234   2.706   8.012  0.9856 -0.8208  0.8221
36819SOL     OW13349   3.937  10.400   5.633  0.6376  0.7110 -0.4234
36819SOL    HW113350   4.033  10.398   5.631  0.7090  2.6267 -2.0954
36819SOL    HW213351   3.916  10.479   5.683 -0.1945 -0.9981  2.1285
36820SOL     OW13352   4.859   8.127   8.810 -0.0017 -0.4967 -0.3377
36820SOL    HW113353   4.792   8.135   8.878  0.2006  0.5107 -0.2393
36820SOL    HW213354   4.815   8.082   8.738  0.1241 -2.7298  0.8834
36821SOL     OW13355   8.625   7.159   6.857 -0.3333  0.4136 -0.1181
36821SOL    HW113356   8.608   7.089   6.921  0.3063  1.8874  1.7514
36821SOL    HW213357   8.580   7.235   6.893  0.8903  1.5443 -0.9219
36822SOL     OW13358   7.893   9.467   5.608  0.3589  0.4907 -0.3574
36822SOL    HW113359   7.857   9.549   5.642  0.7369  0.0956  1.0631
36822SOL    HW213360   7.817   9.408   5.603  0.3839  0.3695  0.4325
36823SOL     OW13361   2.425   3.493   8.145  0.1680  0.4024 -0.2244
36823SOL    HW113362   2.411   3.520   8.236  0.4806 -2.1094  0.6541
36823SOL    HW213363   2.484   3.418   8.151 -1.3063 -1.0368 -2.3369
36824SOL     OW13364   6.109   0.907   5.507 -0.3050  0.0865  0.4119
36824SOL    HW113365   6.143   0.908   5.596  0.6761 -3.9701  0.2490
36824SOL    HW213366   6.086   0.816   5.490 -2.0739  0.9811 -2.9552
36825SOL     OW13367   2.076   3.408  10.123 -0.5997 -0.4544  0.2439
36825SOL    HW113368   2.051   3.391  10.214 -0.4212 -0.3377  0.3151
36825SOL    HW213369   2.116   3.326  10.094 -2.8131 -1.3473 -0.4908
36826SOL     OW13370   1.740   1.611   7.672  0.3528  0.6448  0.3420
36826SOL    HW113371   1.690   1.615   7.753 -0.8918 -0.1694 -0.3602
36826SOL    HW213372   1.772   1.701   7.659 -2.3497  1.6374 -0.0578
36827SOL     OW13373   5.731   8.225   3.918  0.0279  0.7455 -0.1066
36827SOL    HW113374   5.758   8.147   3.968 -1.2441  0.4326  0.1478
36827SOL    HW213375   5.730   8.195   3.827  2.8157  1.4495 -0.4419
36828SOL     OW13376  10.599   8.840  10.403  0.2630 -0.3654 -0.0858
36828SOL    HW113377  10.639   8.909  10.455 -0.0676  0.8672 -1.3939
36828SOL    HW213378  10.668   8.812  10.342 -0.6571  1.5521 -2.1386
36829SOL     OW13379   4.334  10.116   7.339  0.1981 -0.1143  0.4306
36829SOL    HW113380   4.354  10.208   7.355 -1.2579  0.3316 -0.1291
36829SOL    HW213381   4.407  10.084   7.285  1.2753  0.3869  1.5513
36830SOL     OW13382   5.640   0.046   9.620 -0.0245 -0.2100  0.0260
36830SOL    HW113383   5.634   0.072   9.712 -1.4437 -0.7262  0.0968
36830SOL    HW213384   5.583   0.107   9.574  0.5871 -0.0310 -0.5033
36831SOL     OW13385   5.684   8.883   2.083  0.1313  0.5478 -0.5278
36831SOL    HW113386   5.689   8.794   2.049  2.7535 -0.0620  1.1189
36831SOL    HW213387   5.616   8.926   2.030 -0.7065 -2.1821 -1.8393
36832SOL     OW13388   7.820   0.860   4.514 -0.1194  0.2181 -0.4452
36832SOL    HW113389   7.765   0.926   4.472  0.8399  0.9362 -0.6042
36832SOL    HW213390   7.868   0.907   4.582  0.5187 -0.3245 -0.5007
36833SOL     OW13391   9.990  10.371   0.946  0.1551  0.3492  0.0964
36833SOL    HW113392   9.900  10.381   0.975  0.3093  0.6010  0.5088
36833SOL    HW213393  10.042  10.384   1.025  0.5456  0.0196 -0.1006
36834SOL     OW13394   7.811   1.498   1.603  0.3632 -0.1411 -0.0268
36834SOL    HW113395   7.816   1.594   1.600  0.1513 -0.1564 -2.5848
36834SOL    HW213396   7.887   1.472   1.655  1.5343  1.3384 -0.9118
36835SOL     OW13397   4.277   4.400   3.238 -0.0715 -0.3587 -0.1337
36835SOL    HW113398   4.219   4.474   3.256  2.8197  2.4545 -1.3741
36835SOL    HW213399   4.220   4.333   3.200 -2.8676  1.0605  1.2660
36836SOL     OW13400   5.291   0.811   8.170  0.3552  0.0128 -0.2739
36836SOL    HW113401   5.201   0.836   8.191  0.0260 -1.0499 -0.3792
36836SOL    HW213402   5.300   0.832   8.077 -0.0481 -0.6048 -0.4597
36837SOL     OW13403   5.334   9.877   3.908  0.3075 -0.6169  0.3880
36837SOL    HW113404   5.297   9.950   3.858  0.9963  1.0376  2.1894
36837SOL    HW213405   5.283   9.875   3.989  1.3828 -1.0826  1.0669
36838SOL     OW13406   6.349   7.695   1.196 -0.2744  0.6790  0.8442
36838SOL    HW113407   6.420   7.682   1.133 -0.5427 -0.7129  0.7806
36838SOL    HW213408   6.348   7.789   1.214 -0.7591  1.2527 -1.8629
36839SOL     OW13409   4.237   7.934   7.732  0.5480 -0.1183  0.4138
36839SOL    HW113410   4.312   7.875   7.735  0.8244  0.0734 -1.6402
36839SOL    HW213411   4.258   8.003   7.796  2.2821  0.1184 -0.3613
36840SOL     OW13412   6.470  10.071   4.914  0.0792 -0.4716 -0.2360
36840SOL    HW113413   6.434   9.983   4.908  1.1962 -1.1182  1.5171
36840SOL    HW213414   6.563  10.058   4.934 -0.1980  0.9977  2.6146
36841SOL     OW13415   2.124   0.178   7.062  0.0660 -0.1477  0.3257
36841SOL    HW113416   2.202   0.218   7.100  0.2235 -0.8938  0.7992
36841SOL    HW213417   2.071   0.152   7.137  0.6687 -2.2095  0.1101
36842SOL     OW13418   9.837   6.477  10.749 -0.1214 -0.7163 -0.0724
36842SOL    HW113419   9.778   6.545  10.781  1.1603  1.5714 -2.2064
36842SOL    HW213420   9.781   6.419  10.696 -0.7273  0.6925 -1.0326
36843SOL     OW13421   1.312   1.280   0.796 -0.0378  0.8370  0.3929
36843SOL    HW113422   1.328   1.215   0.728 -1.7381  0.6408  0.1346
36843SOL    HW213423   1.342   1.238   0.877 -2.8319 -1.1665  0.5539
36844SOL     OW13424  10.517   5.713   8.929  0.0388  0.3233  0.0776
36844SOL    HW113425  10.596   5.764   8.948  0.1596  0.0333  0.3555
36844SOL    HW213426  10.546   5.646   8.868  0.1383 -0.1433  0.6256
36845SOL     OW13427   6.208   9.788   6.088  0.6904  0.5785 -0.3170
36845SOL    HW113428   6.270   9.861   6.080  1.0749  0.2408 -0.4741
36845SOL    HW213429   6.122   9.828   6.074  0.7599  1.2477  0.9731
36846SOL     OW13430   6.997   8.783   4.973 -0.9656  0.1580 -0.4590
36846SOL    HW113431   6.961   8.870   4.990 -1.5491 -0.3489  0.9782
36846SOL    HW213432   6.921   8.726   4.969 -0.4621 -0.6766  1.0944
36847SOL     OW13433   2.111   2.365   3.670  0.8601 -0.2929  0.1458
36847SOL    HW113434   2.046   2.417   3.718  0.2247 -0.0297 -0.9760
36847SOL    HW213435   2.060   2.296   3.629  1.4017 -0.5270 -0.1346
36848SOL     OW13436   5.333   4.655   4.979  0.7688 -0.0129  0.2261
36848SOL    HW113437   5.273   4.730   4.975 -1.4293 -1.7014 -0.7364
36848SOL    HW213438   5.412   4.690   5.020 -0.2732  2.7302  0.1327
36849SOL     OW13439   3.416   9.629   3.065 -0.8520  0.1102  0.3239
36849SOL    HW113440   3.459   9.701   3.019 -1.0666 -0.3837 -0.6685
36849SOL    HW213441   3.373   9.578   2.996  0.7646 -1.9936  0.7737
36850SOL     OW13442   6.299   4.756   9.897  0.1317  0.7405  0.1464
36850SOL    HW113443   6.226   4.703   9.931 -0.1226  1.4894  0.7928
36850SOL    HW213444   6.356   4.769   9.973  1.8989 -1.3037 -0.6906
36851SOL     OW13445   1.293   9.441   7.009 -0.2730 -0.5228  1.1797
36851SOL    HW113446   1.279   9.494   6.930 -0.5485 -2.8109 -0.3972
36851SOL    HW213447   1.305   9.506   7.079  1.6532  1.6664 -0.9693
36852SOL     OW13448   3.833   9.307   2.125 -0.3745  0.5617  0.1541
36852SOL    HW113449   3.837   9.268   2.212  0.6867  0.7725  0.2160
36852SOL    HW213450   3.914   9.357   2.117 -0.6463  0.8847 -0.7994
36853SOL     OW13451   9.660  10.489   8.397  0.7997 -0.2214 -0.3505
36853SOL    HW113452   9.570  10.506   8.426  1.0844 -2.1453  1.9885
36853SOL    HW213453   9.655  10.402   8.357  1.9050 -1.3352  1.7522
36854SOL     OW13454   6.241   7.038   0.352 -0.2361 -0.5407 -0.1470
36854SOL    HW113455   6.308   7.104   0.335 -1.5571  0.8366 -0.1822
36854SOL    HW213456   6.275   6.959   0.310  0.3597  0.6735 -2.0976
36855SOL     OW13457   3.139  10.543   9.201  0.2167 -0.0057  0.0905
36855SOL    HW113458   3.133  10.614   9.137 -0.4021 -0.9393 -0.9228
36855SOL    HW213459   3.048  10.520   9.220  0.3889 -1.2968 -0.5048
36856SOL     OW13460   0.687   6.592   6.084  0.3339 -0.1346  0.5310
36856SOL    HW113461   0.701   6.685   6.066 -0.6276 -0.3242 -1.4686
36856SOL    HW213462   0.607   6.591   6.138 -1.6319  0.1371 -2.1508
36857SOL     OW13463   3.699   8.564   0.562  0.4275 -0.7250 -0.2424
36857SOL    HW113464   3.763   8.536   0.627 -1.0059  0.6506  1.9035
36857SOL    HW213465   3.708   8.660   0.560 -2.2677 -0.3519  1.0689
36858SOL     OW13466   5.523   1.160   3.126  0.4014 -0.5168 -0.1847
36858SOL    HW113467   5.605   1.143   3.172  1.3583  1.3815 -1.0661
36858SOL    HW213468   5.550   1.167   3.034 -0.2211  2.8769 -0.2106
36859SOL     OW13469   6.867   8.436   9.586  0.6464 -0.2005 -0.1614
36859SOL    HW113470   6.898   8.361   9.536 -0.1892  0.8186 -2.3511
36859SOL    HW213471   6.944   8.492   9.597  1.3089 -1.3596  1.6201
36860SOL     OW13472   2.706   4.744   1.140  0.5264 -0.5342 -0.0035
36860SOL    HW113473   2.726   4.807   1.071 -0.4596 -0.1907  0.0038
36860SOL    HW213474   2.611   4.749   1.149  0.7954  1.6781  3.4394
36861SOL     OW13475   4.120   6.832   7.532  0.1485 -0.1564 -0.2418
36861SOL    HW113476   4.089   6.876   7.454  0.5266 -0.9123 -0.8287
36861SOL    HW213477   4.214   6.817   7.516  0.2321 -0.3020  0.3530
36862SOL     OW13478   9.506   1.347   5.401  0.0041 -0.4278 -0.4286
36862SOL    HW113479   9.548   1.260   5.397 -0.2153 -0.6036  0.8302
36862SOL    HW213480   9.413   1.328   5.409 -0.0223 -0.0865  0.1047
36863SOL     OW13481  10.626  10.790   8.088 -0.1642  0.3781 -0.1396
36863SOL    HW113482  10.689  10.740   8.140 -0.9781  0.3627  0.8718
36863SOL    HW213483  10.554  10.808   8.149 -0.2803  2.0374 -0.7178
36864SOL     OW13484   0.737   0.196   9.846  0.3649 -0.6874  0.5240
36864SOL    HW113485   0.809   0.179   9.786  1.0534 -0.1286  1.1700
36864SOL    HW213486   0.775   0.253   9.914 -1.3081  1.9923 -0.5977
36865SOL     OW13487   6.388   6.447   6.599  0.3102 -0.3844 -0.4482
36865SOL    HW113488   6.401   6.401   6.682 -0.6603 -0.9849 -0.6178
36865SOL    HW213489   6.471   6.436   6.552 -0.4126 -3.3995 -1.1741
36866SOL     OW13490   2.064   6.858   5.581 -0.0448 -0.3501  0.1110
36866SOL    HW113491   2.146   6.821   5.615  0.4870  0.5581 -0.1456
36866SOL    HW213492   2.058   6.944   5.622  0.8656  0.9951 -2.3683
36867SOL     OW13493   7.595   5.082   5.829  0.4928  0.0138  0.1509
36867SOL    HW113494   7.524   5.024   5.803 -0.5526  0.6473  1.5084
36867SOL    HW213495   7.620   5.127   5.748 -1.0087  0.1594 -0.2579
36868SOL     OW13496   8.703   6.218  10.703  0.0231 -0.3419  0.0751
36868SOL    HW113497   8.787   6.197  10.663 -0.7434 -0.2633 -1.6761
36868SOL    HW213498   8.645   6.237  10.629 -1.1391  1.1610  1.2835
36869SOL     OW13499   2.193   5.232  10.269 -0.2277  0.4432 -0.0326
36869SOL    HW113500   2.239   5.309  10.303 -0.9257  0.5893  0.6239
36869SOL    HW213501   2.223   5.160  10.324 -1.8227  0.7861  1.3685
36870SOL     OW13502   7.791  10.367   6.446  0.1486 -0.6853  0.2575
36870SOL    HW113503   7.852  10.436   6.472 -0.1273 -0.9687  1.7626
36870SOL    HW213504   7.765  10.390   6.357  2.3075 -0.4735 -0.3657
36871SOL     OW13505   8.399   8.224   7.488  0.3235  0.4308  0.2590
36871SOL    HW113506   8.411   8.290   7.420 -0.0325  1.0329  0.7681
36871SOL    HW213507   8.482   8.177   7.491  0.5253  0.7504 -0.2204
36872SOL     OW13508   5.581   9.256   3.286 -0.3066  0.0093 -0.0039
36872SOL    HW113509   5.493   9.289   3.302 -0.0897 -0.2499  1.8829
36872SOL    HW213510   5.631   9.279   3.364  0.7910 -1.5775 -0.1861
36873SOL     OW13511   0.517   1.630   7.509  0.3851  0.2247  0.2324
36873SOL    HW113512   0.540   1.620   7.416 -1.5185 -0.7085 -0.1847
36873SOL    HW213513   0.471   1.714   7.513 -1.6310 -0.7924 -0.1827
36874SOL     OW13514   5.779   3.669   0.003  0.2303 -0.3871 -0.6956
36874SOL    HW113515   5.796   3.576  -0.012  2.3694 -0.3469  0.9549
36874SOL    HW213516   5.856   3.713  -0.033 -0.5346  0.7167 -1.0226
36875SOL     OW13517  10.128   1.809   3.974  0.1750 -0.7927 -0.5302
36875SOL    HW113518  10.061   1.877   3.969 -1.3760 -2.2127  0.1030
36875SOL    HW213519  10.120   1.761   3.892  2.4243  0.7230 -1.7597
36876SOL     OW13520   5.693   9.671   7.951  0.0972 -0.0977 -0.2045
36876SOL    HW113521   5.780   9.635   7.932 -0.4002 -0.7584 -1.3559
36876SOL    HW213522   5.691   9.679   8.046  1.6386  0.5309 -0.1960
36877SOL     OW13523   1.626   1.457   8.952 -0.3341 -0.0597 -0.2581
36877SOL    HW113524   1.541   1.456   8.997  1.0274 -0.3602  2.4944
36877SOL    HW213525   1.649   1.550   8.948 -0.6094 -0.0072 -0.6500
36878SOL     OW13526   0.101   1.064   5.167 -0.0834  0.6358 -0.7580
36878SOL    HW113527   0.036   1.003   5.201  1.0081 -0.0403  0.1829
36878SOL    HW213528   0.068   1.151   5.190 -1.6295  0.4253 -2.0683
36879SOL     OW13529   7.179   0.628   7.756 -0.5137 -0.1183 -0.0139
36879SOL    HW113530   7.085   0.608   7.748 -0.4103 -0.7829  0.3191
36879SOL    HW213531   7.212   0.562   7.818  0.2529 -0.1538 -0.4495
36880SOL     OW13532   3.265   2.369   6.824  0.0711  0.2907 -0.0606
36880SOL    HW113533   3.315   2.334   6.751  1.8078  0.0693  1.1764
36880SOL    HW213534   3.176   2.378   6.790 -0.3239 -4.1996 -0.8537
36881SOL     OW13535   2.099   4.309   7.036  0.2771  0.3826  0.4446
36881SOL    HW113536   2.086   4.297   7.130 -1.0993  0.2422  0.2534
36881SOL    HW213537   2.061   4.395   7.018 -0.8673 -0.2449 -0.2278
36882SOL     OW13538   0.440  10.225   1.950  0.0877  0.0310 -0.6631
36882SOL    HW113539   0.359  10.228   2.002 -0.7302 -0.7814 -1.8539
36882SOL    HW213540   0.484  10.308   1.971 -0.8999  0.3641  0.2262
36883SOL     OW13541  10.422   7.314   0.435  0.0852 -0.1482  0.3114
36883SOL    HW113542  10.380   7.272   0.360  0.7716 -0.3160  0.0042
36883SOL    HW213543  10.502   7.353   0.399 -1.7446  3.7688  0.0245
36884SOL     OW13544   8.391   3.097   4.333  0.0970  0.4842  0.2946
36884SOL    HW113545   8.462   3.038   4.358 -2.0078 -2.1621  0.4384
36884SOL    HW213546   8.362   3.136   4.416  0.8417  0.9709  0.3338
36885SOL     OW13547   6.039   3.854   7.791 -0.4723 -0.0326 -0.5841
36885SOL    HW113548   6.082   3.787   7.737 -1.3710 -1.3469  0.2823
36885SOL    HW213549   6.007   3.806   7.868 -0.7745  1.4775  0.2640
36886SOL     OW13550   5.927   5.800   2.310 -0.4537 -0.0705  0.0457
36886SOL    HW113551   6.003   5.824   2.257  0.0689 -0.3868  0.6310
36886SOL    HW213552   5.891   5.722   2.267 -0.0834 -0.2746  0.0944
36887SOL     OW13553   1.258   7.366   9.797  0.4304  0.1862  0.1825
36887SOL    HW113554   1.225   7.297   9.740  0.7076  1.2905 -1.3978
36887SOL    HW213555   1.273   7.440   9.738  3.5240  0.4898  1.1958
36888SOL     OW13556   3.446   1.617   9.130 -0.1323 -0.0507  0.5380
36888SOL    HW113557   3.488   1.700   9.152 -2.7808  1.5500  0.0778
36888SOL    HW213558   3.395   1.595   9.208 -0.9070 -0.2190 -0.0071
36889SOL     OW13559   4.959   2.195  10.399  0.0692 -0.5276  0.2698
36889SOL    HW113560   5.030   2.225  10.343  0.3138 -1.4100  0.0914
36889SOL    HW213561   4.912   2.275  10.424 -0.9730 -0.2054 -2.4020
36890SOL     OW13562   5.845   3.551   2.327  0.4963  0.1236 -0.3579
36890SOL    HW113563   5.883   3.639   2.329 -0.0053  0.4245 -2.3466
36890SOL    HW213564   5.878   3.512   2.247 -0.0804 -1.1572  0.0039
36891SOL     OW13565   7.377   6.612   7.205 -0.4087 -0.0263 -0.4727
36891SOL    HW113566   7.393   6.633   7.113 -1.0542 -0.3043 -0.6531
36891SOL    HW213567   7.446   6.659   7.253 -0.6315  0.8712 -1.0176
36892SOL     OW13568   5.571   9.031   8.972 -0.0844  0.0089  0.5837
36892SOL    HW113569   5.503   9.011   8.908 -0.2571  1.3340  0.3436
36892SOL    HW213570   5.580   9.126   8.970  0.5821 -0.0056  1.8422
36893SOL     OW13571   7.396   8.244   2.735  0.0904  0.7291 -0.0086
36893SOL    HW113572   7.386   8.149   2.729  0.0754  0.7663 -0.6142
36893SOL    HW213573   7.483   8.261   2.702  0.0100  0.9492 -0.1068
36894SOL     OW13574   7.530   9.754   9.224  0.1948 -0.2145  0.3309
36894SOL    HW113575   7.447   9.707   9.226 -0.2591  0.4999 -0.6109
36894SOL    HW213576   7.532   9.796   9.138  2.2827 -1.5257 -0.3415
36895SOL     OW13577   4.648   6.171   7.761 -0.2168  0.1053 -0.0105
36895SOL    HW113578   4.583   6.167   7.830  0.7811  1.0267  1.0294
36895SOL    HW213579   4.726   6.207   7.803 -0.2146  2.8721 -2.0669
36896SOL     OW13580   2.364   4.462   4.255  0.3316 -0.4801 -0.0105
36896SOL    HW113581   2.421   4.522   4.304 -0.1516 -1.3910  1.7821
36896SOL    HW213582   2.276   4.479   4.290 -0.2290 -0.3673 -1.4269
36897SOL     OW13583   6.230  10.213   8.315 -0.7191 -0.1148  0.5706
36897SOL    HW113584   6.214  10.226   8.221 -0.4587 -0.7943  0.4216
36897SOL    HW213585   6.258  10.298   8.347  0.2709 -0.1180 -0.2102
36898SOL     OW13586   9.302   4.740   4.679  0.2724  0.3726  0.0247
36898SOL    HW113587   9.275   4.754   4.588 -0.2616  1.2870  0.3062
36898SOL    HW213588   9.383   4.690   4.672 -0.3559 -0.5731 -0.9115
36899SOL     OW13589   5.055   5.272   8.811 -0.3585  0.2297 -0.0816
36899SOL    HW113590   5.085   5.197   8.862 -2.7981 -1.3673 -0.8052
36899SOL    HW213591   5.009   5.233   8.736  0.3609  2.4735 -1.8107
36900SOL     OW13592   8.224  10.308   4.526  0.0007  0.0922 -0.0307
36900SOL    HW113593   8.164  10.380   4.545 -0.9035 -0.6910  0.1672
36900SOL    HW213594   8.167  10.238   4.492  0.9270 -0.3478 -0.7239
36901SOL     OW13595   4.445   4.762   7.015 -0.4411  0.0826 -0.3291
36901SOL    HW113596   4.457   4.679   6.969  1.1525 -1.2443  2.2262
36901SOL    HW213597   4.534   4.791   7.037 -0.8332  3.2275 -2.2194
36902SOL     OW13598   3.162   0.701   1.717  0.0173  0.0316 -0.9090
36902SOL    HW113599   3.236   0.690   1.777 -1.6380 -0.8405  1.1227
36902SOL    HW213600   3.158   0.618   1.669 -2.0105 -1.7451  1.9823
36903SOL     OW13601   6.358   1.444   7.042 -0.1969  0.0531  0.7229
36903SOL    HW113602   6.320   1.368   7.086  0.1696 -1.2656 -1.1313
36903SOL    HW213603   6.282   1.487   7.001 -0.2519  0.0056  0.7739
36904SOL     OW13604   0.522   9.259   6.414 -0.0891  0.0909 -0.3219
36904SOL    HW113605   0.560   9.339   6.449  0.3593  0.8079 -2.3090
36904SOL    HW213606   0.584   9.229   6.347 -0.4708 -1.6778  0.0478
36905SOL     OW13607   7.748   4.201   1.862 -0.2837 -0.2284 -0.1360
36905SOL    HW113608   7.741   4.144   1.785 -1.3838  0.2898 -0.4301
36905SOL    HW213609   7.798   4.277   1.832  0.0224 -0.4111 -0.0992
36906SOL     OW13610   7.237   3.549   5.519 -0.0685 -0.3540 -0.0895
36906SOL    HW113611   7.202   3.587   5.438  0.9550  1.2164  0.1618
36906SOL    HW213612   7.164   3.555   5.581 -0.4982 -0.4959 -0.5750
36907SOL     OW13613   8.874   7.284   5.913  0.7977  0.1019  0.1883
36907SOL    HW113614   8.815   7.296   5.838 -0.3850 -1.9932  0.7022
36907SOL    HW213615   8.953   7.332   5.889  0.8791 -1.3416 -2.9058
36908SOL     OW13616   4.987  10.538   9.073 -0.3420  0.0034 -0.6165
36908SOL    HW113617   4.902  10.501   9.099 -0.9143  1.4893 -0.2561
36908SOL    HW213618   4.965  10.603   9.006  0.4453  0.7617 -0.1576
36909SOL     OW13619   8.911   7.063   3.183  0.1659  0.2246 -0.2760
36909SOL    HW113620   8.992   7.021   3.212 -0.1887 -0.2685  0.0075
36909SOL    HW213621   8.883   7.012   3.107  1.7181  2.2055 -2.3351
36910SOL     OW13622   6.053   2.438   8.530  0.1832 -0.3792 -0.5440
36910SOL    HW113623   6.013   2.493   8.462  0.9077  0.1201 -0.5716
36910SOL    HW213624   5.990   2.367   8.542 -1.0032  0.7080 -0.1457
36911SOL     OW13625  10.526   9.863  10.100  0.0656 -0.2785  0.4164
36911SOL    HW113626  10.532   9.867  10.004  1.1326  1.0073  0.4952
36911SOL    HW213627  10.613   9.891  10.130 -0.2621 -0.6399  1.7645
36912SOL     OW13628   4.947   0.692   3.600 -0.1018  0.0763 -0.2543
36912SOL    HW113629   4.909   0.760   3.656 -1.1148 -0.0756 -0.7226
36912SOL    HW213630   5.039   0.687   3.626 -0.7881 -0.8892  2.2817
36913SOL     OW13631   3.193   8.726   8.864  0.3106 -0.6296 -0.3505
36913SOL    HW113632   3.191   8.693   8.774 -2.8198 -1.4288 -0.1120
36913SOL    HW213633   3.213   8.650   8.917  1.3702 -0.3233 -0.2953
36914SOL     OW13634  10.165   5.221   2.226 -0.2657 -0.5524 -1.4294
36914SOL    HW113635  10.099   5.290   2.219 -0.2796 -0.0335  2.0864
36914SOL    HW213636  10.247   5.263   2.200 -0.1923  1.1125  1.0676
36915SOL     OW13637   0.390   7.724   2.008  0.1462 -0.6485 -0.5086
36915SOL    HW113638   0.408   7.630   1.999  1.1533 -0.8779  2.6705
36915SOL    HW213639   0.472   7.766   1.983  0.9951 -0.9163  1.6294
36916SOL     OW13640  10.219   8.705   6.057 -0.3267 -0.1886 -0.6924
36916SOL    HW113641  10.151   8.680   6.120 -1.0735 -0.5658 -1.6253
36916SOL    HW213642  10.183   8.782   6.013  1.0483  1.3139  0.6873
36917SOL     OW13643   5.156   6.792   8.759 -0.1456 -0.5085  0.1320
36917SOL    HW113644   5.097   6.757   8.826 -1.9865  0.3343 -0.9486
36917SOL    HW213645   5.154   6.887   8.773 -0.4842 -0.3284 -1.0274
36918SOL     OW13646   9.523   4.538   1.675  0.7779  0.3483 -0.3514
36918SOL    HW113647   9.466   4.572   1.745  0.4809  0.4310 -0.6292
36918SOL    HW213648   9.611   4.549   1.710  0.6140 -0.0747  0.2155
36919SOL     OW13649   8.251   5.522   1.003  0.5737 -0.0797  0.8739
36919SOL    HW113650   8.342   5.547   1.022  1.2896 -1.5723 -0.3319
36919SOL    HW213651   8.243   5.533   0.908 -0.5607  0.1691  0.9897
36920SOL     OW13652   8.903   6.214   9.264 -0.1974  0.4974  0.5674
36920SOL    HW113653   8.856   6.270   9.202 -0.5025  0.4921  0.7918
36920SOL    HW213654   8.842   6.204   9.337  0.2731  0.7345  0.9917
36921SOL     OW13655   2.453   1.306   3.051 -0.6062 -0.1680 -0.0477
36921SOL    HW113656   2.513   1.339   3.117  0.2711 -0.4144 -0.7011
36921SOL    HW213657   2.507   1.250   2.995 -1.8727 -2.1750  0.6125
36922SOL     OW13658   6.320   9.518  10.792  0.3839  0.2295 -0.2664
36922SOL    HW113659   6.405   9.518  10.749  0.0623  0.4276 -0.9056
36922SOL    HW213660   6.257   9.536  10.722  0.0207  2.7416  0.6136
36923SOL     OW13661   4.733   2.332   1.916  0.2709 -0.1420  0.3208
36923SOL    HW113662   4.761   2.244   1.940 -0.8939 -0.5220  0.3497
36923SOL    HW213663   4.660   2.351   1.975 -2.3312 -0.8739 -2.3842
36924SOL     OW13664   5.420   4.812   5.949 -0.1335  0.3204  0.8089
36924SOL    HW113665   5.374   4.867   6.012 -0.7722  1.7752 -0.8488
36924SOL    HW213666   5.350   4.764   5.904  0.3666 -1.3539  1.7380
36925SOL     OW13667   2.931  10.685   7.545  0.0346  0.3167  0.0865
36925SOL    HW113668   2.872  10.643   7.483  0.1498  0.9759 -0.4849
36925SOL    HW213669   2.981  10.614   7.583 -0.1676 -0.1154 -0.4409
36926SOL     OW13670   7.853   4.526   4.883 -0.3990  0.0804 -0.1253
36926SOL    HW113671   7.771   4.575   4.884 -1.5307 -1.7251  0.6159
36926SOL    HW213672   7.850   4.475   4.802 -1.0424 -1.5482  0.8689
36927SOL     OW13673   9.597   9.412   2.847  0.3027 -0.5605 -0.1087
36927SOL    HW113674   9.681   9.447   2.818  0.2711 -0.5503 -0.1888
36927SOL    HW213675   9.613   9.380   2.936 -0.1696  1.5650  0.7979
36928SOL     OW13676   5.034   5.849   0.877  0.6140  0.1230  0.7627
36928SOL    HW113677   4.961   5.787   0.879  1.2016 -0.5799  0.9110
36928SOL    HW213678   5.069   5.841   0.788 -0.0345  1.1264  0.3966
36929SOL     OW13679   3.329  10.138   8.754  0.8643  0.4699 -0.4546
36929SOL    HW113680   3.324  10.232   8.769 -0.7995  0.3920 -0.4210
36929SOL    HW213681   3.284  10.099   8.828  1.8251 -0.3959 -0.2963
36930SOL     OW13682   6.058  10.495  10.371 -0.0699 -0.7534  0.3552
36930SOL    HW113683   6.095  10.553  10.305 -1.0452 -0.5593 -0.0451
36930SOL    HW213684   6.080  10.536  10.454 -1.0250  0.3926  0.0696
36931SOL     OW13685   9.899   6.831   4.362  0.2015 -0.3345 -0.2104
36931SOL    HW113686   9.881   6.746   4.403 -1.3820 -0.3348 -0.8448
36931SOL    HW213687   9.828   6.843   4.299 -0.4670  2.1183  0.8947
36932SOL     OW13688   5.395   2.908  10.560 -0.0544 -0.0655 -0.0630
36932SOL    HW113689   5.408   2.845  10.631  1.4580  0.0423 -0.2052
36932SOL    HW213690   5.327   2.967  10.593 -0.8856 -1.2692  0.4087
36933SOL     OW13691   0.828   0.695   7.748  0.0674 -0.3599 -0.1123
36933SOL    HW113692   0.912   0.651   7.762 -0.1691 -0.4439  1.0873
36933SOL    HW213693   0.774   0.670   7.822 -0.5036  0.9450 -0.0482
36934SOL     OW13694   8.468   9.090   3.789 -0.3238  0.4703 -0.2376
36934SOL    HW113695   8.453   8.997   3.806 -0.3329  0.4081 -0.5809
36934SOL    HW213696   8.382   9.131   3.796 -0.3452  0.4271 -0.2494
36935SOL     OW13697   5.276   3.462   0.981 -0.1712  0.2120 -0.2610
36935SOL    HW113698   5.226   3.461   0.900 -1.8821 -1.8750  0.7206
36935SOL    HW213699   5.232   3.527   1.036 -2.0680 -1.7293  0.6586
36936SOL     OW13700   2.195   0.417   8.278  0.4234  0.0996  0.1818
36936SOL    HW113701   2.210   0.477   8.206 -0.2495  0.9792  0.7568
36936SOL    HW213702   2.197   0.472   8.356 -0.4025 -0.5828  0.7039
36937SOL     OW13703   6.728   8.365  10.305 -0.0950 -0.8051  0.1857
36937SOL    HW113704   6.811   8.317  10.314  0.5856  0.2831 -0.1556
36937SOL    HW213705   6.702   8.350  10.213  0.6571  0.3041 -0.2257
36938SOL     OW13706   3.865   9.006   8.859 -0.0161  0.4620  0.0538
36938SOL    HW113707   3.920   9.054   8.797 -1.1331  0.6980 -0.7737
36938SOL    HW213708   3.822   8.938   8.807  0.7376 -0.8049  1.0132
36939SOL     OW13709   0.239   6.908   3.551 -0.3559 -0.1318 -0.1515
36939SOL    HW113710   0.148   6.936   3.545  0.1058  1.3355 -0.9923
36939SOL    HW213711   0.269   6.943   3.635 -0.5627 -0.6048  0.1202
36940SOL     OW13712   3.744   1.706   5.396 -0.2657  0.1654 -0.7660
36940SOL    HW113713   3.727   1.642   5.464 -0.3085  1.4055  0.4435
36940SOL    HW213714   3.679   1.774   5.410  0.3900  0.9448 -1.3726
36941SOL     OW13715   6.965   3.549   4.396 -0.1887 -0.1499 -0.2461
36941SOL    HW113716   6.917   3.612   4.341  3.2965  2.2824 -0.8913
36941SOL    HW213717   6.948   3.577   4.485 -0.8257 -0.0039 -0.4108
36942SOL     OW13718   4.765   2.863  10.421 -0.5581 -0.1200  0.3046
36942SOL    HW113719   4.746   2.886  10.329 -1.2028  1.7088  0.8409
36942SOL    HW213720   4.845   2.810  10.416 -0.1822  0.5187 -1.2749
36943SOL     OW13721   4.223   2.851   3.060 -0.0471 -0.1796 -0.0937
36943SOL    HW113722   4.305   2.901   3.058  0.8707 -1.6584 -1.1649
36943SOL    HW213723   4.231   2.788   2.988 -3.6008  1.8907 -2.6491
36944SOL     OW13724   3.560  10.527  10.674  0.0416 -0.2108  0.4180
36944SOL    HW113725   3.517  10.448  10.640 -1.1005  0.6110 -0.1269
36944SOL    HW213726   3.488  10.588  10.689  0.8149  0.4027  1.7757
36945SOL     OW13727   8.007   8.010   1.048  0.3983  0.0504 -0.4118
36945SOL    HW113728   8.083   8.022   1.104  1.3018  0.5202 -1.6890
36945SOL    HW213729   8.009   7.917   1.024 -0.9478 -0.5591  1.6011
36946SOL     OW13730   0.183   2.329   4.905  0.3700 -0.3219 -0.1108
36946SOL    HW113731   0.119   2.260   4.891  0.9480 -0.7242 -0.8224
36946SOL    HW213732   0.153   2.401   4.849  0.3500 -0.3801 -0.1746
36947SOL     OW13733   7.053   1.736   2.141 -0.2413  0.6224  0.0927
36947SOL    HW113734   7.006   1.739   2.058 -0.1328  0.7817  0.0357
36947SOL    HW213735   7.025   1.654   2.182 -0.3677  0.5905 -0.0574
36948SOL     OW13736   6.131   4.983   8.844  0.3844  0.0351  0.4517
36948SOL    HW113737   6.114   4.995   8.937  0.6226 -1.8165  0.7692
36948SOL    HW213738   6.226   4.969   8.839  0.0662 -2.7094  0.3527
36949SOL     OW13739  10.522   0.232   3.812 -0.1398 -0.3672  0.5130
36949SOL    HW113740  10.489   0.322   3.818  1.3469  0.2148  0.3799
36949SOL    HW213741  10.525   0.202   3.903 -0.9988 -0.4317  0.5282
36950SOL     OW13742   5.760   0.445   2.601 -0.5731  0.8214 -0.1803
36950SOL    HW113743   5.780   0.531   2.636 -1.1385  0.8635  0.0337
36950SOL    HW213744   5.843   0.397   2.609 -0.8465  0.6016  1.8598
36951SOL     OW13745  10.193   6.805   0.040 -0.2061  0.1452  0.3949
36951SOL    HW113746  10.250   6.856  -0.017 -0.8999  2.2104  1.4621
36951SOL    HW213747  10.252   6.746   0.086  0.5033 -0.7563 -1.5406
36952SOL     OW13748   9.126   7.158  10.790 -0.3125  0.1410 -0.2163
36952SOL    HW113749   9.059   7.220  10.762 -0.0076  1.0228  0.9066
36952SOL    HW213750   9.206   7.186  10.744  0.3142  1.9122  1.7804
36953SOL     OW13751   1.477   4.179   3.412 -0.1596  0.0945 -0.3765
36953SOL    HW113752   1.511   4.126   3.484 -1.0707 -0.2061 -0.1589
36953SOL    HW213753   1.534   4.158   3.338  0.4241 -0.0338  0.0978
36954SOL     OW13754   7.477   5.085   9.649 -0.0595  0.3190  0.0757
36954SOL    HW113755   7.422   5.107   9.573 -1.3199  1.3129  1.2032
36954SOL    HW213756   7.435   5.008   9.687  0.8003 -0.4163 -0.4298
36955SOL     OW13757   9.780   5.091   3.763 -0.5796  0.4169  0.0409
36955SOL    HW113758   9.804   5.155   3.830  0.8041  1.2273 -1.1679
36955SOL    HW213759   9.698   5.053   3.794 -1.7520  3.1602  0.6027
36956SOL     OW13760   6.892   0.051   1.193 -0.2610  0.0439 -0.2033
36956SOL    HW113761   6.867   0.080   1.281  0.1068  0.8618 -0.3571
36956SOL    HW213762   6.950  -0.023   1.208 -0.2662  0.1249  0.2380
36957SOL     OW13763  10.173   1.592   6.065 -0.2126  0.2205 -0.0223
36957SOL    HW113764  10.226   1.548   5.999 -0.1144  0.8574 -0.3714
36957SOL    HW213765  10.225   1.588   6.145 -0.9812 -1.9398  0.4486
36958SOL     OW13766   1.060   8.212   1.728 -0.4272 -0.4915  0.1356
36958SOL    HW113767   1.015   8.173   1.804  1.1557  1.6229  2.3156
36958SOL    HW213768   1.044   8.306   1.737  2.7397  0.1556 -0.0879
36959SOL     OW13769   9.820   4.772  10.681  0.4528  0.4204 -0.3377
36959SOL    HW113770   9.768   4.830  10.736  0.1963  0.8981 -1.0825
36959SOL    HW213771   9.908   4.778  10.717  0.1536  0.1830  0.4616
36960SOL     OW13772   8.558   2.489   8.793 -0.3478 -0.9846  0.0850
36960SOL    HW113773   8.565   2.485   8.698 -3.9944  1.5093 -0.5152
36960SOL    HW213774   8.484   2.432   8.814 -0.8840  0.0380  1.1028
36961SOL     OW13775  10.549   9.975   5.480 -0.2826 -0.0460  0.1631
36961SOL    HW113776  10.508   9.917   5.544 -1.1642  2.2976  1.8487
36961SOL    HW213777  10.548   9.925   5.398 -1.1508 -2.2958  1.4523
36962SOL     OW13778   3.135   4.371   4.313 -0.2325 -0.0290 -0.0427
36962SOL    HW113779   3.064   4.432   4.292 -0.7314 -0.6962 -0.3212
36962SOL    HW213780   3.130   4.304   4.245  0.9231  0.1277 -0.3004
36963SOL     OW13781   9.348   3.927   9.180 -0.2078  0.1747 -0.0368
36963SOL    HW113782   9.312   3.957   9.264 -1.3621 -1.2448  0.0253
36963SOL    HW213783   9.293   3.852   9.157  0.3303  0.3176 -1.8951
36964SOL     OW13784   5.062   2.240   9.573  0.0836 -0.1120  0.5077
36964SOL    HW113785   5.115   2.162   9.554 -0.5569 -0.2422 -0.9029
36964SOL    HW213786   5.125   2.304   9.605  0.5599 -1.3143  2.1293
36965SOL     OW13787   2.649   8.866   0.027  0.5225  0.1210 -0.4861
36965SOL    HW113788   2.731   8.890  -0.017  0.1677  0.7501 -0.8115
36965SOL    HW213789   2.657   8.904   0.114  1.5165 -1.6893  0.2826
36966SOL     OW13790   6.912   4.385   1.222  0.2617 -0.3487 -0.0090
36966SOL    HW113791   6.875   4.315   1.169  1.7425 -0.5122 -0.8815
36966SOL    HW213792   6.961   4.339   1.291  1.0715 -0.1950 -0.4683
36967SOL     OW13793   1.062   2.709   8.686  0.5373  0.1298 -0.0233
36967SOL    HW113794   1.120   2.674   8.754  1.1311  0.1394 -0.5134
36967SOL    HW213795   0.997   2.760   8.733 -0.3482 -1.5907  0.7183
36968SOL     OW13796   1.229   2.666   8.403 -0.6001  0.1115  0.2007
36968SOL    HW113797   1.303   2.726   8.391  1.0319 -1.8310 -0.2558
36968SOL    HW213798   1.245   2.597   8.338 -3.7825  0.4135 -1.0645
36969SOL     OW13799   6.404   9.416   2.053  0.0343 -0.1815 -0.3975
36969SOL    HW113800   6.481   9.359   2.061  0.3766  0.3309  0.0681
36969SOL    HW213801   6.338   9.376   2.110  0.8201  0.7572  1.2501
36970SOL     OW13802   7.090   9.210   7.016 -0.0056  0.5674  0.5220
36970SOL    HW113803   7.179   9.243   7.031  1.0159 -0.7126 -2.1178
36970SOL    HW213804   7.101   9.115   7.010 -1.8974  0.1967  1.8486
36971SOL     OW13805   7.072   7.818   3.253 -0.0226  0.1252 -0.0028
36971SOL    HW113806   7.100   7.876   3.182  1.3643  0.0900  0.4841
36971SOL    HW213807   7.043   7.738   3.208 -0.3620  0.5634 -0.5820
36972SOL     OW13808   9.551   9.254   8.993  0.0866  0.4066 -0.4011
36972SOL    HW113809   9.531   9.188   9.059 -2.9355  0.5802 -0.9871
36972SOL    HW213810   9.584   9.328   9.043  0.3018 -0.3580  0.6285
36973SOL     OW13811   6.547   0.235   0.469 -0.6900  0.0121  0.0869
36973SOL    HW113812   6.479   0.171   0.450  0.1011 -1.3871  1.7334
36973SOL    HW213813   6.508   0.296   0.531 -0.7705 -0.1559  0.2000
36974SOL     OW13814   6.255   1.109   3.064  0.6393 -0.3433 -0.6716
36974SOL    HW113815   6.266   1.187   3.010  1.3119 -0.3613 -0.5603
36974SOL    HW213816   6.188   1.134   3.129  1.6314  0.5137  0.0535
36975SOL     OW13817  10.499   2.127   1.366  0.7408  0.1868 -0.2618
36975SOL    HW113818  10.460   2.210   1.338 -0.0553 -0.0201  0.1838
36975SOL    HW213819  10.426   2.079   1.406  1.0173 -1.0520 -1.2112
36976SOL     OW13820   1.006   5.925   3.273 -0.0038 -0.4782  0.1672
36976SOL    HW113821   1.063   5.848   3.266  1.4443  0.5385  0.3176
36976SOL    HW213822   1.035   5.982   3.202 -0.5533  0.2539  0.5215
36977SOL     OW13823   7.563   5.597   7.414 -0.0198 -0.4880  0.4198
36977SOL    HW113824   7.576   5.531   7.347  0.2797  0.2239 -0.2474
36977SOL    HW213825   7.619   5.569   7.487  0.8280 -0.4852 -0.2128
36978SOL     OW13826   5.936   3.513   7.118  0.1881 -0.0104 -0.3875
36978SOL    HW113827   5.952   3.454   7.191 -1.2486 -0.3982 -0.3600
36978SOL    HW213828   6.001   3.488   7.052  1.8547  0.6884  0.9024
36979SOL     OW13829   5.226   2.030   9.566  0.8140 -0.2798 -0.3103
36979SOL    HW113830   5.278   1.988   9.497  1.3481 -3.5195  1.8355
36979SOL    HW213831   5.237   1.973   9.643 -2.9508  0.8718  1.3491
36980SOL     OW13832   2.338   0.365   5.378  0.2330 -0.4118  0.2346
36980SOL    HW113833   2.287   0.390   5.455  0.2821 -0.9827  0.4578
36980SOL    HW213834   2.403   0.434   5.368 -1.0437  0.7323 -0.4989
36981SOL     OW13835   1.480   1.120   0.018  0.0244  0.2970  0.1809
36981SOL    HW113836   1.486   1.082   0.105  1.6788  1.0289  0.4446
36981SOL    HW213837   1.417   1.065  -0.029  0.7267 -1.4395  1.1720
36982SOL     OW13838   4.588   2.775   1.911  0.2096  0.4643  0.0287
36982SOL    HW113839   4.595   2.695   1.964 -1.5840 -0.7900 -1.5068
36982SOL    HW213840   4.657   2.766   1.845  1.1651  1.0824  0.9132
36983SOL     OW13841   0.542   0.390   0.714 -0.6831 -0.2403 -0.4557
36983SOL    HW113842   0.511   0.392   0.804  0.9850 -0.4889  0.1560
36983SOL    HW213843   0.495   0.317   0.674 -1.0996 -0.4239  0.3519
36984SOL     OW13844   5.186   5.364   4.568 -0.1806 -0.0267 -0.5507
36984SOL    HW113845   5.220   5.350   4.656 -2.9715 -0.3697  0.5892
36984SOL    HW213846   5.199   5.281   4.523  0.2741 -0.2125 -0.0837
36985SOL     OW13847   4.372   8.905   5.675 -0.6116  0.2917  0.0334
36985SOL    HW113848   4.321   8.830   5.706 -0.9774  0.7390  0.5251
36985SOL    HW213849   4.406   8.945   5.755 -1.4530  1.3808 -0.1310
36986SOL     OW13850   5.836   5.979   5.233  0.7526  0.1385 -0.5285
36986SOL    HW113851   5.915   6.017   5.271 -0.6061  2.0202  0.5819
36986SOL    HW213852   5.816   5.904   5.289  2.2753 -1.0257 -1.4574
36987SOL     OW13853   7.539   4.734   1.012  0.2825  0.0595 -0.5917
36987SOL    HW113854   7.593   4.735   0.933 -0.3366 -0.2881 -1.0204
36987SOL    HW213855   7.527   4.641   1.032  1.5137  0.1207  0.6711
36988SOL     OW13856   6.897  10.761   6.307 -0.6354 -0.0173  0.8313
36988SOL    HW113857   6.860  10.687   6.355 -0.8999 -0.1129  0.4856
36988SOL    HW213858   6.821  10.810   6.276 -0.5211 -0.8077 -0.8047
36989SOL     OW13859   1.080   1.190   3.711  0.6693  0.1854 -0.2327
36989SOL    HW113860   1.152   1.138   3.745  0.2880 -0.0048  0.2933
36989SOL    HW213861   1.020   1.201   3.785 -0.0321  0.0031 -0.7507
36990SOL     OW13862   2.686   7.626   8.130  0.7477 -0.0491 -0.2705
36990SOL    HW113863   2.716   7.560   8.193 -1.0357 -0.0380  0.6276
36990SOL    HW213864   2.702   7.585   8.045  0.9498 -1.0798  0.2346
36991SOL     OW13865   9.410  10.072   8.308  0.1980  0.3657 -0.4640
36991SOL    HW113866   9.363  10.139   8.260  1.7966  2.2713  0.4907
36991SOL    HW213867   9.352  10.049   8.381 -1.3064 -1.0040 -1.9783
36992SOL     OW13868   1.156   2.628   4.968 -0.1192  0.2044 -0.3079
36992SOL    HW113869   1.139   2.537   4.942 -0.1167 -0.0903  0.6637
36992SOL    HW213870   1.100   2.680   4.911 -3.0463 -0.6131  1.5686
36993SOL     OW13871   3.930   6.532  10.415 -0.3790  0.6883 -0.2701
36993SOL    HW113872   3.958   6.550  10.326  0.4780  0.0002 -0.1562
36993SOL    HW213873   3.915   6.618  10.454  2.1527  1.1742 -0.1831
36994SOL     OW13874   7.832   7.625   8.069 -0.2816 -0.7418 -0.7406
36994SOL    HW113875   7.875   7.583   7.995  1.6919 -2.2563  1.1248
36994SOL    HW213876   7.830   7.557   8.137 -3.9788 -0.1234 -0.0295
36995SOL     OW13877  10.012   5.695  10.419  0.2292 -0.2984 -0.2896
36995SOL    HW113878  10.019   5.616  10.472 -0.5499  0.0723  0.3869
36995SOL    HW213879   9.923   5.692  10.382 -0.7095  1.3732  1.6243
36996SOL     OW13880   9.416   1.744   0.250 -0.1742  0.0382 -0.1384
36996SOL    HW113881   9.377   1.820   0.207 -0.9882 -0.9093 -1.1294
36996SOL    HW213882   9.418   1.767   0.343  1.6960  2.1596 -0.6339
36997SOL     OW13883   5.568   8.650   2.564 -0.1203 -0.1774 -0.7799
36997SOL    HW113884   5.557   8.628   2.471 -1.1647  0.0850 -0.7423
36997SOL    HW213885   5.478   8.665   2.595  0.2772  0.5630  0.0646
36998SOL     OW13886   5.322   7.471   9.460  0.5419 -0.1737 -0.7596
36998SOL    HW113887   5.320   7.378   9.483  0.6883  0.0878  0.4000
36998SOL    HW213888   5.272   7.513   9.530  3.6179  1.0215  0.8736
36999SOL     OW13889   6.336   9.550   5.952  0.0710 -0.2930  0.5567
36999SOL    HW113890   6.253   9.559   5.905 -0.2417 -0.7231  1.0167
36999SOL    HW213891   6.327   9.607   6.028  0.0427 -0.6411  0.8153
37000SOL     OW13892   8.595   6.010  10.255  0.3157 -0.9752 -0.3144
37000SOL    HW113893   8.654   5.977  10.323 -1.2997 -1.8080  0.7263
37000SOL    HW213894   8.512   5.966  10.272 -1.6949  2.7383  0.5177
37001SOL     OW13895  10.193   8.149  10.039  0.3468 -0.1549 -0.0327
37001SOL    HW113896  10.236   8.233  10.025 -0.0539  0.1324  0.4340
37001SOL    HW213897  10.265   8.086  10.041  0.7562  0.3132  0.7236
37002SOL     OW13898   3.696   7.620   9.555  0.5381 -0.6341  0.2039
37002SOL    HW113899   3.641   7.682   9.508  0.3246  0.6134  2.0073
37002SOL    HW213900   3.785   7.654   9.545  0.9783 -2.2188 -2.0438
37003SOL     OW13901   4.503   5.555   7.330 -0.1264 -0.3187  0.5866
37003SOL    HW113902   4.501   5.495   7.405 -0.3400 -0.1476  0.7224
37003SOL    HW213903   4.445   5.627   7.357 -1.7658 -1.1668 -0.5237
37004SOL     OW13904   4.208   6.278   5.776  0.0418  0.1772 -0.0590
37004SOL    HW113905   4.275   6.302   5.840 -0.9272  1.0718  0.6499
37004SOL    HW213906   4.252   6.215   5.718  0.7006 -1.3602  1.9928
37005SOL     OW13907   8.703   1.921   2.164 -0.0484  0.3226 -0.1708
37005SOL    HW113908   8.738   1.840   2.201  0.2962 -0.2045 -1.5983
37005SOL    HW213909   8.767   1.949   2.099  0.9869  3.0134  1.8025
37006SOL     OW13910   2.980   3.674   4.452  0.5032  0.3141 -0.3755
37006SOL    HW113911   3.057   3.649   4.503  0.9656  1.0948 -0.6641
37006SOL    HW213912   2.924   3.597   4.453 -0.1305  0.7035  2.4248
37007SOL     OW13913   9.170   2.934  10.283 -0.2759 -0.2520  0.0263
37007SOL    HW113914   9.130   2.862  10.234  0.3381 -0.6078  0.0433
37007SOL    HW213915   9.145   2.919  10.374  0.2352 -0.7118  0.0961
37008SOL     OW13916   4.640   1.062   5.654 -0.2613 -0.1865 -0.1219
37008SOL    HW113917   4.645   0.968   5.635 -1.4056 -0.3165  0.1284
37008SOL    HW213918   4.648   1.068   5.749 -0.6755 -0.0769 -0.0925
37009SOL     OW13919   8.315  10.001   7.400  0.6005  0.4202 -0.3000
37009SOL    HW113920   8.400   9.969   7.370 -0.1827 -1.6238 -0.4842
37009SOL    HW213921   8.266   9.922   7.423 -1.8116  1.4179 -1.6627
37010SOL     OW13922   4.329   1.273  10.492 -0.7046  0.1810 -0.1916
37010SOL    HW113923   4.332   1.307  10.582 -2.4827 -0.3163  0.0961
37010SOL    HW213924   4.364   1.184  10.499 -0.8156  0.1516 -0.0004
37011SOL     OW13925   6.383  10.018   3.858  0.5270  0.4492 -0.1306
37011SOL    HW113926   6.352   9.972   3.780  0.6651  0.6612 -0.3126
37011SOL    HW213927   6.312  10.007   3.922  0.9377 -0.7899  0.1424
37012SOL     OW13928   0.476   1.513   7.755 -0.6047 -0.3222  0.1243
37012SOL    HW113929   0.484   1.431   7.706 -0.2779  0.2496 -0.8090
37012SOL    HW213930   0.496   1.581   7.691  0.6674  0.4139  1.2541
37013SOL     OW13931   4.884   9.849   9.962  0.0195  0.2282 -0.3711
37013SOL    HW113932   4.824   9.774   9.959 -0.6678  0.7553 -0.2534
37013SOL    HW213933   4.966   9.813   9.995 -0.2166 -0.5255 -0.5862
37014SOL     OW13934   9.947   6.068   6.155  0.6528 -0.0693 -0.4502
37014SOL    HW113935   9.923   6.152   6.193 -1.7817 -0.8174 -0.1520
37014SOL    HW213936   9.975   6.015   6.230 -1.8636 -0.7864  0.0776
37015SOL     OW13937   8.256   4.253   4.215  0.7660  0.2332 -0.0061
37015SOL    HW113938   8.198   4.238   4.290 -0.4740 -0.2812 -1.0377
37015SOL    HW213939   8.223   4.333   4.175  1.2201  0.3263 -0.2052
37016SOL     OW13940   4.855   7.072   4.894 -0.8696  0.6621 -0.4155
37016SOL    HW113941   4.925   7.129   4.862  0.6484 -0.7009  0.3573
37016SOL    HW213942   4.785   7.082   4.829  1.1910 -0.2248 -2.9401
37017SOL     OW13943   7.626   9.848   3.270  0.1691  0.0833 -0.6512
37017SOL    HW113944   7.703   9.868   3.323  0.5600 -0.9332 -0.8091
37017SOL    HW213945   7.642   9.759   3.238 -1.8449 -0.8603  0.7641
37018SOL     OW13946  10.323   4.207   9.243 -0.1649 -0.4180 -0.3317
37018SOL    HW113947  10.264   4.164   9.181  0.4208 -1.9933  0.1550
37018SOL    HW213948  10.407   4.208   9.198 -0.2858  0.7707 -0.5591
37019SOL     OW13949   6.619   5.800   3.983  0.4636 -0.0510  0.3146
37019SOL    HW113950   6.602   5.832   3.894 -0.7996 -1.9133 -0.1852
37019SOL    HW213951   6.555   5.846   4.037 -0.2333 -0.4577 -0.1310
37020SOL     OW13952   4.920   2.063   0.871 -0.4790 -1.6595  0.4061
37020SOL    HW113953   4.846   2.124   0.872  0.8115 -0.0255  0.4992
37020SOL    HW213954   4.983   2.104   0.812  0.6672 -2.6321  0.9358
37021SOL     OW13955  10.749   5.468   9.854  0.0758  0.0823 -0.1182
37021SOL    HW113956  10.843   5.485   9.850  0.1793 -0.0777  1.2080
37021SOL    HW213957  10.736   5.420   9.936 -1.3997  1.8767  0.7931
37022SOL     OW13958   0.352   0.278  10.313 -0.3701 -0.0652 -0.0656
37022SOL    HW113959   0.434   0.288  10.264 -0.1748 -0.0711  0.2627
37022SOL    HW213960   0.295   0.347  10.279  0.1745  0.6927  0.5445
37023SOL     OW13961   4.413   6.395   9.489 -0.2059 -0.2710 -0.0948
37023SOL    HW113962   4.435   6.390   9.582  0.4771  2.0198 -0.0663
37023SOL    HW213963   4.498   6.394   9.445 -0.4504  0.1835 -0.5784
37024SOL     OW13964   5.172   6.145   0.844  0.1126  0.7655 -0.2924
37024SOL    HW113965   5.260   6.142   0.805 -0.3437  0.8337 -1.3630
37024SOL    HW213966   5.141   6.233   0.825 -0.4288  0.5377 -0.4674
37025SOL     OW13967   7.938   8.521   3.414  0.6163 -0.0750  0.6415
37025SOL    HW113968   8.031   8.525   3.390  0.9276 -0.2863  1.7124
37025SOL    HW213969   7.930   8.580   3.489  0.5887 -2.2786  2.5231
37026SOL     OW13970   7.168   0.518   7.135  1.2037 -0.2342 -0.7519
37026SOL    HW113971   7.237   0.558   7.187 -0.0392  0.6508  0.2640
37026SOL    HW213972   7.197   0.528   7.044  1.9794  0.9558 -0.3889
37027SOL     OW13973  10.607   1.931  10.362 -0.3710 -0.8088  0.2665
37027SOL    HW113974  10.671   1.918  10.292  0.0255 -0.0185  0.4808
37027SOL    HW213975  10.580   1.842  10.386 -0.3374 -1.1030 -0.7214
37028SOL     OW13976   3.228   8.900   2.245  0.0160 -0.1657 -0.5438
37028SOL    HW113977   3.206   8.965   2.311  1.5424 -0.0506 -0.0972
37028SOL    HW213978   3.265   8.951   2.172 -0.5681 -0.3883 -1.0051
37029SOL     OW13979   6.567   4.688  10.319 -0.5233  0.4789 -0.0383
37029SOL    HW113980   6.515   4.741  10.380  1.2318  1.0778  1.0154
37029SOL    HW213981   6.637   4.651  10.373  1.3170  1.3144 -1.7214
37030SOL     OW13982   0.106   5.499   8.222 -0.0013  0.0064 -0.6278
37030SOL    HW113983   0.042   5.430   8.235 -1.0093  0.9512 -0.3897
37030SOL    HW213984   0.104   5.518   8.129  0.6029 -0.5630 -0.7697
37031SOL     OW13985   9.492  10.237   4.018 -0.5317  0.1702 -0.1508
37031SOL    HW113986   9.424  10.171   4.007 -0.4954 -0.0957  1.1149
37031SOL    HW213987   9.493  10.256   4.112  0.1303  1.2537 -0.3499
37032SOL     OW13988   0.428   5.280   7.502  0.2314  0.2147 -0.2081
37032SOL    HW113989   0.397   5.265   7.413 -1.0103 -1.2698  0.4251
37032SOL    HW213990   0.520   5.256   7.501 -0.2226 -1.6293 -0.6855
37033SOL     OW13991   0.930   5.560   7.267 -0.1362 -1.3821 -0.2507
37033SOL    HW113992   0.996   5.496   7.293 -1.7809 -3.2512 -0.4274
37033SOL    HW213993   0.944   5.574   7.173  1.3305 -0.0643  0.1215
37034SOL     OW13994   3.698   4.953   5.726 -0.7151 -0.2941  0.2293
37034SOL    HW113995   3.677   4.884   5.788  1.0588 -0.4829  0.6658
37034SOL    HW213996   3.735   5.023   5.780 -0.7523  0.2379 -0.4247
37035SOL     OW13997  10.747   0.981   2.992  0.4952  0.7504 -0.0235
37035SOL    HW113998  10.767   0.951   3.081  0.1461  0.4167 -0.0537
37035SOL    HW213999  10.827   0.967   2.943  0.5917  0.6392  0.1650
37036SOL     OW14000   3.657   8.142   9.483 -0.0329 -0.4267 -0.1364
37036SOL    HW114001   3.619   8.228   9.500  2.2061  0.6223  0.0140
37036SOL    HW214002   3.601   8.103   9.416 -0.3938  1.6851 -1.1527
37037SOL     OW14003   8.758   0.354   4.454  0.6381 -0.3378  0.8733
37037SOL    HW114004   8.706   0.349   4.374  1.9411 -0.0314 -0.0320
37037SOL    HW214005   8.824   0.285   4.444  0.0877 -1.0982  2.2561
37038SOL     OW14006   9.776   1.087   5.418  0.3386  0.0932 -0.0100
37038SOL    HW114007   9.815   1.011   5.461  0.8102  0.7805  0.8176
37038SOL    HW214008   9.836   1.159   5.439 -0.1026  0.6967 -0.7669
37039SOL     OW14009   6.799   0.635   1.713  0.2602 -0.1893 -0.4257
37039SOL    HW114010   6.708   0.606   1.717  0.0745  0.4423  0.2483
37039SOL    HW214011   6.796   0.727   1.738  1.1252 -0.2457 -0.0676
37040SOL     OW14012   7.990   7.588   2.307  0.0613  0.5050 -0.4987
37040SOL    HW114013   7.966   7.649   2.377 -1.9678 -0.0406 -0.6667
37040SOL    HW214014   8.085   7.595   2.301  0.1757  1.3920  1.5425
37041SOL     OW14015   7.031   2.821   6.735  0.3782 -0.5280  0.0009
37041SOL    HW114016   7.000   2.908   6.709 -0.5063 -0.6242  0.6933
37041SOL    HW214017   6.996   2.762   6.669 -0.4164 -0.5533  0.4265
37042SOL     OW14018   3.574   2.889  10.027 -0.0295 -0.4898 -1.0096
37042SOL    HW114019   3.489   2.928  10.011  0.1365  1.7756  2.4005
37042SOL    HW214020   3.562   2.795  10.013 -3.7450 -0.5478  1.3535
37043SOL     OW14021   1.141   9.960   1.771  0.5095 -0.3629  0.0201
37043SOL    HW114022   1.097   9.994   1.693  0.8396  0.6515  0.2664
37043SOL    HW214023   1.085   9.985   1.844  1.1782  0.4283  0.2821
37044SOL     OW14024   5.238   0.082   3.142 -0.1066  0.1845  0.0105
37044SOL    HW114025   5.149   0.080   3.178 -0.5021 -0.0556 -0.9467
37044SOL    HW214026   5.276  -0.002   3.168 -0.9200 -0.6599 -1.3893
37045SOL     OW14027   6.703   1.715  10.214 -0.4313 -0.1236 -0.3478
37045SOL    HW114028   6.767   1.775  10.175 -1.3449  0.4932 -0.9502
37045SOL    HW214029   6.748   1.677  10.289  1.1701 -0.8372 -1.5999
37046SOL     OW14030   5.923   0.326  10.296  0.2943 -0.3039 -0.0061
37046SOL    HW114031   5.926   0.250  10.237  0.4937  0.1146 -0.5420
37046SOL    HW214032   5.868   0.389  10.250 -0.0701 -0.2128  0.5498
37047SOL     OW14033   5.464  10.558   8.537  0.3856  0.1604  0.0960
37047SOL    HW114034   5.521  10.614   8.485 -0.8208  0.3907 -1.0221
37047SOL    HW214035   5.498  10.469   8.522  1.2343  0.4042  0.4991
37048SOL     OW14036   3.831   1.235   9.381  0.4176 -0.0847  0.8678
37048SOL    HW114037   3.773   1.297   9.426  0.8446  0.5402  0.5743
37048SOL    HW214038   3.790   1.222   9.295  1.2083  1.1288  0.2819
37049SOL     OW14039   6.250  10.608   9.026 -0.5374 -0.2659  0.1671
37049SOL    HW114040   6.300  10.664   8.967  1.4874 -0.1625  1.8406
37049SOL    HW214041   6.210  10.668   9.089  0.8173 -0.5394  1.3620
37050SOL     OW14042   0.341   8.259   4.679  0.3312  0.0735 -0.1136
37050SOL    HW114043   0.314   8.168   4.689  1.1238 -0.2448 -0.7427
37050SOL    HW214044   0.421   8.255   4.627  0.7128  1.0900  0.3601
37051SOL     OW14045   4.667   8.108   8.233 -0.3040 -0.0628 -0.3555
37051SOL    HW114046   4.725   8.153   8.294  0.5558  0.0384 -1.2229
37051SOL    HW214047   4.581   8.148   8.249  0.4261  1.9531 -1.1075
37052SOL     OW14048  10.109   1.836   0.152  0.3088 -0.2807  0.1078
37052SOL    HW114049  10.053   1.787   0.213 -0.5728 -0.5537 -0.8944
37052SOL    HW214050  10.066   1.922   0.146 -1.3405 -1.1805 -2.3493
37053SOL     OW14051   4.804   1.859   8.431 -0.2717 -0.0325  0.0560
37053SOL    HW114052   4.736   1.793   8.441  0.4447 -0.8736 -0.4808
37053SOL    HW214053   4.805   1.879   8.338 -0.3674  0.6206  0.1889
37054SOL     OW14054   8.966   0.395   7.205 -0.3638  0.1218  0.1060
37054SOL    HW114055   9.054   0.432   7.197 -0.3729  0.1125 -0.0459
37054SOL    HW214056   8.980   0.307   7.241 -0.2482 -0.1659 -0.6065
37055SOL     OW14057   8.015  10.262   4.838  0.6461  0.4698 -0.8576
37055SOL    HW114058   7.953  10.311   4.893  1.1227 -0.0786  0.2037
37055SOL    HW214059   7.969  10.181   4.817  2.5766 -2.4026  4.1831
37056SOL     OW14060   4.521   0.772   7.592  0.1971 -0.6722 -0.4564
37056SOL    HW114061   4.593   0.735   7.643  0.4988  0.0166 -0.3795
37056SOL    HW214062   4.553   0.772   7.502  0.0211 -1.0035 -0.5257
37057SOL     OW14063   6.141   6.051   8.053  0.5284  0.0825 -0.6431
37057SOL    HW114064   6.138   5.972   7.999  1.2319  0.7460 -1.6959
37057SOL    HW214065   6.205   6.032   8.121 -1.5654 -1.3876  1.0422
37058SOL     OW14066   2.505   1.776   6.756 -0.1677 -0.1349  0.2030
37058SOL    HW114067   2.558   1.761   6.677 -0.5608  1.2835 -0.3660
37058SOL    HW214068   2.566   1.761   6.828 -0.0002 -2.2699 -0.2929
37059SOL     OW14069   3.801   2.066   1.018  0.1337 -0.3377 -0.2396
37059SOL    HW114070   3.826   2.053   0.926 -0.7742  2.2302 -0.9065
37059SOL    HW214071   3.718   2.019   1.027 -2.4460  3.3776 -2.2398
37060SOL     OW14072   7.083   2.329   1.509 -0.1435  0.6051  0.4087
37060SOL    HW114073   7.012   2.339   1.572 -0.0527  2.0636  0.3111
37060SOL    HW214074   7.043   2.283   1.435 -0.3113 -0.9039  1.4108
37061SOL     OW14075   7.233   2.788  10.061  0.0228 -0.1605  0.0514
37061SOL    HW114076   7.225   2.882  10.047  1.8179 -0.0714 -0.6112
37061SOL    HW214077   7.285   2.780  10.141 -0.5599 -0.6122  0.3948
37062SOL     OW14078   9.329   1.489   5.738 -0.2730  0.3495 -0.1370
37062SOL    HW114079   9.357   1.525   5.654  1.7315 -0.2310  0.2301
37062SOL    HW214080   9.254   1.433   5.717 -1.2889  2.0041 -1.1765
37063SOL     OW14081   6.531   7.712   4.066  0.1212 -0.0862  0.1371
37063SOL    HW114082   6.486   7.752   4.141  2.6804  2.8565  0.3266
37063SOL    HW214083   6.568   7.631   4.101 -0.5850  0.1048  1.4005
37064SOL     OW14084   2.915   1.495   9.262  0.4234  0.2141  0.1112
37064SOL    HW114085   2.856   1.491   9.187  1.1730  1.3365 -0.5701
37064SOL    HW214086   3.001   1.474   9.225  0.4973 -1.2676  1.0588
37065SOL     OW14087   1.672   6.681   9.490  0.3564  0.1018  0.2339
37065SOL    HW114088   1.664   6.774   9.466 -0.2950  0.0533  0.2595
37065SOL    HW214089   1.663   6.634   9.407  0.3940  0.0439  0.2625
37066SOL     OW14090   0.653   4.092   1.729  0.6093 -0.0288  0.2262
37066SOL    HW114091   0.680   4.113   1.639  0.9312 -0.4798  0.2146
37066SOL    HW214092   0.732   4.103   1.781 -0.0856  2.6111  0.8900
37067SOL     OW14093   3.791   7.363   1.099 -0.3466 -0.2556 -0.4658
37067SOL    HW114094   3.775   7.379   1.192  0.5440  0.9139 -0.4857
37067SOL    HW214095   3.817   7.449   1.065 -0.3401 -0.7407 -1.7297
37068SOL     OW14096   1.965   6.157   4.516 -0.1997  0.3663 -0.2586
37068SOL    HW114097   1.899   6.138   4.449 -1.7255  0.7962  1.0449
37068SOL    HW214098   1.949   6.249   4.539 -0.1216  0.0532  1.1130
37069SOL     OW14099  10.461   3.669   5.864  0.4112 -0.6602 -0.2110
37069SOL    HW114100  10.388   3.672   5.802  0.5654 -0.0368 -0.3669
37069SOL    HW214101  10.460   3.580   5.898  0.2531 -0.9722 -1.0216
37070SOL     OW14102   2.064   3.841   5.008  0.3409  0.1845  0.8622
37070SOL    HW114103   2.151   3.831   4.969  0.3715 -1.3621  1.2726
37070SOL    HW214104   2.052   3.763   5.062  0.2169  2.1067  3.8674
37071SOL     OW14105   3.080   6.374   8.049  1.0882  0.1438 -0.8195
37071SOL    HW114106   2.992   6.382   8.015  0.3881 -0.1693  0.7993
37071SOL    HW214107   3.076   6.298   8.108  2.1120  0.8072  0.1526
37072SOL     OW14108   4.997   3.651   3.226  1.1354  0.1341  0.0028
37072SOL    HW114109   5.060   3.596   3.273  0.2194 -1.0824 -0.1344
37072SOL    HW214110   4.952   3.700   3.296 -0.8469 -2.3283  0.5992
37073SOL     OW14111   1.783   5.935   1.076  0.1360  0.2789 -0.2072
37073SOL    HW114112   1.738   5.851   1.083  0.2276  0.3029  0.7867
37073SOL    HW214113   1.753   5.985   1.151  1.6622  0.3655  0.3758
37074SOL     OW14114   9.287   3.206   8.512  0.3990 -0.0470  0.1514
37074SOL    HW114115   9.345   3.230   8.585  0.4602 -0.5854  0.2844
37074SOL    HW214116   9.200   3.199   8.551  0.2328  0.7735 -0.0511
37075SOL     OW14117   8.813   6.396   2.766  0.3524  0.7641  0.2391
37075SOL    HW114118   8.900   6.429   2.790  0.4947 -0.3645  1.3430
37075SOL    HW214119   8.829   6.307   2.735 -0.2005  1.1934 -1.3784
37076SOL     OW14120  10.785   8.078   4.667  0.2789 -0.5462  0.5344
37076SOL    HW114121  10.694   8.051   4.677  0.4496 -2.2292 -1.6370
37076SOL    HW214122  10.791   8.110   4.577  1.7803 -0.2199  0.7200
37077SOL     OW14123   2.007   6.351   5.259 -0.4126 -0.4844 -0.3694
37077SOL    HW114124   1.984   6.418   5.323  2.8101  1.2062 -0.7545
37077SOL    HW214125   1.941   6.359   5.191 -1.0838  1.1243  0.4150
37078SOL     OW14126   6.221  10.198   5.999 -0.0815 -0.2799 -0.3282
37078SOL    HW114127   6.163  10.130   6.035  0.5630 -2.1013 -2.4644
37078SOL    HW214128   6.185  10.215   5.912  0.4376  1.3555 -0.2468
37079SOL     OW14129   5.210   5.832   0.653  0.1064  0.2006 -0.2736
37079SOL    HW114130   5.242   5.889   0.583 -0.0729  0.8885  0.1859
37079SOL    HW214131   5.149   5.772   0.610  0.8991 -0.1675 -0.9014
37080SOL     OW14132   1.923   1.226  10.428 -0.3555  1.1394 -0.2942
37080SOL    HW114133   1.953   1.157  10.488  0.4838  0.9687 -0.8941
37080SOL    HW214134   1.866   1.181  10.366  1.3096  0.6605 -1.5571
37081SOL     OW14135   7.504   7.305   0.382  0.0695 -0.5984 -0.7907
37081SOL    HW114136   7.467   7.270   0.301  1.1847 -0.4227 -1.3995
37081SOL    HW214137   7.578   7.358   0.354 -0.2796  0.5184  0.2656
37082SOL     OW14138   5.037   7.239   4.760 -0.0434 -0.0664  0.0531
37082SOL    HW114139   5.088   7.193   4.693 -2.2416 -0.6065 -1.3401
37082SOL    HW214140   5.097   7.246   4.834  1.9226 -0.9816 -1.3446
37083SOL     OW14141   7.295  10.512  10.495 -0.4782 -0.3952 -0.1175
37083SOL    HW114142   7.209  10.518  10.453 -0.8713 -0.5246  0.6526
37083SOL    HW214143   7.326  10.602  10.500 -0.1480 -0.4345 -1.2339
37084SOL     OW14144   8.036  10.796   2.852  0.2397  0.3986 -0.1439
37084SOL    HW114145   7.972  10.846   2.902  0.5194  0.6948 -0.0743
37084SOL    HW214146   7.998  10.709   2.843 -0.1922  0.5886 -0.1487
37085SOL     OW14147   9.732   3.311  10.058 -1.2480  0.1022  0.1133
37085SOL    HW114148   9.741   3.233  10.112 -1.1226  1.2595  1.8246
37085SOL    HW214149   9.658   3.358  10.095 -0.2272  1.6751  0.2688
37086SOL     OW14150  10.595   9.510   1.802  0.5255 -0.0553 -0.0967
37086SOL    HW114151  10.567   9.423   1.828 -0.3732  0.5537  1.0733
37086SOL    HW214152  10.691   9.504   1.798  0.4484 -1.2129 -0.5536
37087SOL     OW14153   1.008   4.379   0.474 -0.2820 -0.0872 -0.1814
37087SOL    HW114154   0.923   4.352   0.439 -2.4729  1.3244  3.4705
37087SOL    HW214155   1.004   4.475   0.473  1.0564 -0.0104  0.5116
37088SOL     OW14156   7.305  10.576   9.519  0.0670  0.2576  0.5273
37088SOL    HW114157   7.324  10.483   9.534  1.3854  0.5524  0.8212
37088SOL    HW214158   7.212  10.578   9.498 -0.0891 -1.0788  0.9708
37089SOL     OW14159   0.964   5.745   1.373  0.7214  0.1300  0.3843
37089SOL    HW114160   1.022   5.713   1.442  1.4986  0.2240 -0.2220
37089SOL    HW214161   0.904   5.805   1.418 -0.4256 -1.7058  1.4661
37090SOL     OW14162   2.645   7.429   1.645 -0.0807  0.1109 -0.3757
37090SOL    HW114163   2.675   7.466   1.728 -1.4592  0.1558  0.1328
37090SOL    HW214164   2.724   7.392   1.605  1.1802  2.6538 -0.4409
37091SOL     OW14165   2.857   5.055   5.630  0.0871 -0.0657 -0.0334
37091SOL    HW114166   2.794   5.012   5.571  0.4308 -1.5447  0.6188
37091SOL    HW214167   2.825   5.145   5.638 -1.3608 -0.5020 -0.5317
37092SOL     OW14168  10.110   7.141   9.079  0.1994  0.4095  0.4364
37092SOL    HW114169  10.185   7.100   9.034 -0.8668  0.1431 -1.1828
37092SOL    HW214170  10.078   7.073   9.138 -0.0070 -0.2213 -0.3779
37093SOL     OW14171   2.792   7.509   3.952 -0.4743 -0.2576  0.2590
37093SOL    HW114172   2.776   7.415   3.961  0.0458 -0.2897  0.9102
37093SOL    HW214173   2.710   7.544   3.916 -1.5355 -0.6160  2.1964
37094SOL     OW14174   2.994   0.990   8.161  0.2757 -0.2446 -0.1003
37094SOL    HW114175   2.948   0.979   8.245 -0.8476 -1.6700 -0.8635
37094SOL    HW214176   3.077   0.944   8.174 -0.4777 -1.6822 -0.1943
37095SOL     OW14177   4.736   2.643   0.752  0.2135 -0.8480  0.2159
37095SOL    HW114178   4.819   2.669   0.713 -1.1366 -1.3614 -3.4473
37095SOL    HW214179   4.759   2.577   0.818  2.6859 -0.8015 -0.5030
37096SOL     OW14180   1.785   2.800   5.759  0.4250  0.0951 -0.4032
37096SOL    HW114181   1.745   2.786   5.673  1.4020  0.8477 -0.9987
37096SOL    HW214182   1.711   2.812   5.818 -0.2862 -1.2010 -0.9791
37097SOL     OW14183   8.105   5.622   1.219 -0.3116 -0.0640  0.7095
37097SOL    HW114184   8.121   5.557   1.288 -0.1782 -1.0038 -0.1785
37097SOL    HW214185   8.143   5.584   1.141 -2.3854 -0.0594 -0.3875
37098SOL     OW14186   4.900   2.881   4.582 -0.4638 -0.0252 -0.3306
37098SOL    HW114187   4.831   2.854   4.643  0.2680  0.0589  0.5517
37098SOL    HW214188   4.909   2.975   4.596  0.5002 -0.1950  0.2760
37099SOL     OW14189   9.665   8.245   3.905  0.5847 -0.1926  0.1966
37099SOL    HW114190   9.633   8.221   3.817 -2.5483 -0.3306  1.2446
37099SOL    HW214191   9.599   8.306   3.938  1.8831  0.1312  2.3499
37100SOL     OW14192   3.079  10.455  10.119  1.1136 -0.3297  0.3555
37100SOL    HW114193   3.082  10.547  10.148  1.8490  0.2689 -1.4722
37100SOL    HW214194   3.046  10.408  10.195  0.9915  1.4071  1.4565
37101SOL     OW14195   1.835   7.341   6.984 -0.5233  0.1541  0.5108
37101SOL    HW114196   1.774   7.324   7.056 -1.0292  0.5874  0.1896
37101SOL    HW214197   1.787   7.398   6.924 -0.0281 -0.0184 -0.0649
37102SOL     OW14198   2.855   6.794   8.735  0.1396 -0.4708 -0.0391
37102SOL    HW114199   2.907   6.800   8.655  1.2154 -0.2310  0.6516
37102SOL    HW214200   2.920   6.779   8.804 -0.6470  0.4864  0.9351
37103SOL     OW14201   3.969   9.739   3.817 -0.0513 -0.1355 -0.9884
37103SOL    HW114202   4.057   9.703   3.818 -0.1936 -0.4840 -0.8727
37103SOL    HW214203   3.975   9.816   3.761  1.1562  2.0179  1.8849
37104SOL     OW14204   7.143   9.711   1.339  0.4048  0.0611  0.0332
37104SOL    HW114205   7.062   9.747   1.376 -1.0970 -2.8011 -0.2411
37104SOL    HW214206   7.150   9.752   1.253 -1.2766 -0.3274 -0.3177
37105SOL     OW14207   4.211   0.218   1.751  0.4124  0.0135 -0.1229
37105SOL    HW114208   4.251   0.204   1.837 -1.4390 -2.2680  0.4554
37105SOL    HW214209   4.280   0.259   1.699  2.1319 -0.0910  1.9483
37106SOL     OW14210   3.025   3.286   5.516 -0.6119 -0.3600  0.4173
37106SOL    HW114211   2.972   3.326   5.584 -0.8531 -0.5814  0.3579
37106SOL    HW214212   3.060   3.206   5.557 -2.1421 -1.4152 -0.2568
37107SOL     OW14213   3.531   0.131   7.840 -0.5016  0.0577  0.8814
37107SOL    HW114214   3.468   0.202   7.839  0.6191  1.0850  0.7274
37107SOL    HW214215   3.582   0.145   7.919  0.4863  0.1232  0.2499
37108SOL     OW14216  10.729   2.617   6.809  0.3799  0.3569 -0.0514
37108SOL    HW114217  10.770   2.531   6.803 -0.1799  0.1673 -1.6606
37108SOL    HW214218  10.724   2.648   6.718  0.2006  1.9159  0.4482
37109SOL     OW14219   7.828   8.000   9.373 -0.2743 -0.2519 -0.0742
37109SOL    HW114220   7.820   7.968   9.462  0.8501  0.1428  0.1862
37109SOL    HW214221   7.910   7.962   9.341 -0.9295 -0.8320 -1.1378
37110SOL     OW14222   4.535   0.849   3.486  0.2711 -0.1322 -0.1781
37110SOL    HW114223   4.498   0.850   3.574 -2.3394  0.0529 -1.1772
37110SOL    HW214224   4.629   0.862   3.499  0.0018 -0.3761  2.5630
37111SOL     OW14225  10.656   2.708   2.090 -0.1260 -0.1711 -0.0213
37111SOL    HW114226  10.589   2.679   2.152 -1.8114 -1.2968 -2.2187
37111SOL    HW214227  10.666   2.802   2.107 -0.8184 -0.3632  1.6437
37112SOL     OW14228   7.536   2.679   8.591 -0.2999 -0.3947 -0.1017
37112SOL    HW114229   7.614   2.627   8.608  0.1260  0.2472 -0.0355
37112SOL    HW214230   7.522   2.728   8.672 -0.9014 -0.6619 -0.0382
37113SOL     OW14231   9.336   5.682   0.879  0.6176 -0.0807  0.2925
37113SOL    HW114232   9.309   5.770   0.852  0.6322  0.4668  1.9607
37113SOL    HW214233   9.327   5.629   0.799  2.5701  1.8266 -1.3256
37114SOL     OW14234   4.495   1.723  10.686  0.0515 -0.2133 -0.2234
37114SOL    HW114235   4.541   1.807  10.697 -1.4927  0.7969 -1.0663
37114SOL    HW214236   4.565   1.660  10.668  1.1889  1.1129 -0.7057
37115SOL     OW14237   5.828   0.493  10.016  0.0927 -0.2787 -0.2167
37115SOL    HW114238   5.772   0.472  10.090  1.2170 -1.3107  0.3775
37115SOL    HW214239   5.794   0.441   9.943 -0.0275 -0.5060  0.0035
37116SOL     OW14240   5.865   8.760   9.537  0.6122 -0.0274  0.1584
37116SOL    HW114241   5.930   8.817   9.495  0.1069  1.5584  1.4345
37116SOL    HW214242   5.867   8.785   9.629 -0.5297 -1.2321  0.5356
37117SOL     OW14243   8.333   6.845   4.589  0.0421  0.7758  0.2708
37117SOL    HW114244   8.275   6.867   4.517 -1.1885  0.7282  1.2179
37117SOL    HW214245   8.284   6.782   4.642  1.2541  0.1514  0.6936
37118SOL     OW14246   7.850   1.746  10.245  0.0274 -0.0604  0.1432
37118SOL    HW114247   7.831   1.794  10.165 -0.0942  0.4451  0.4706
37118SOL    HW214248   7.898   1.668  10.216 -0.6425 -0.2440 -0.4833
37119SOL     OW14249  10.032   6.767   4.862  0.1997  0.1812  0.4700
37119SOL    HW114250  10.002   6.850   4.826 -0.0142  0.8275  2.0610
37119SOL    HW214251  10.021   6.776   4.956  3.5058 -0.2621  1.0350
37120SOL     OW14252   0.386   5.373   9.490 -0.1269  0.3666 -0.1125
37120SOL    HW114253   0.410   5.317   9.565 -1.7001 -0.1729  0.0262
37120SOL    HW214254   0.303   5.413   9.516 -0.5974  0.3229 -1.4844
37121SOL     OW14255   3.321   3.843   2.916  0.5566  0.3859  0.0099
37121SOL    HW114256   3.301   3.818   2.826 -0.1125  1.4386 -0.1495
37121SOL    HW214257   3.236   3.865   2.954  0.4416 -2.5259  1.7167
37122SOL     OW14258   7.407   4.476   7.591 -0.1007 -0.1178  0.6167
37122SOL    HW114259   7.489   4.495   7.546 -0.0628 -0.9703  0.3216
37122SOL    HW214260   7.402   4.542   7.661 -0.0613  1.1002 -0.4869
37123SOL     OW14261   2.184   0.079   4.653 -0.2795  0.1650 -0.0279
37123SOL    HW114262   2.258   0.136   4.636 -0.4975  0.2407 -0.7536
37123SOL    HW214263   2.217   0.013   4.714 -0.7218  2.6026  3.0933
37124SOL     OW14264   6.155   9.092   5.105  0.2968  0.0730  0.1175
37124SOL    HW114265   6.082   9.108   5.045 -0.6975 -0.5474  1.1144
37124SOL    HW214266   6.187   9.005   5.081 -0.3861 -0.3642  0.7434
37125SOL     OW14267   7.957   0.901   7.939 -0.0293  0.5343  0.4748
37125SOL    HW114268   7.898   0.950   7.996 -1.6922 -0.1826 -0.5833
37125SOL    HW214269   7.994   0.833   7.995  0.3116  1.3698  1.2968
37126SOL     OW14270   2.375   4.301   8.812 -0.0318  0.0450 -0.4554
37126SOL    HW114271   2.282   4.304   8.792 -0.0409 -0.0445 -0.4256
37126SOL    HW214272   2.413   4.374   8.763 -0.2823  0.7783  0.4115
37127SOL     OW14273   2.943   2.461   6.367 -0.5094 -0.6299  0.7083
37127SOL    HW114274   2.873   2.517   6.400  0.1569  0.0112  1.0527
37127SOL    HW214275   3.018   2.519   6.356  0.3898 -1.5532  1.6840
37128SOL     OW14276   2.534   3.896   7.151 -0.6474 -0.4594  0.0913
37128SOL    HW114277   2.598   3.898   7.223 -0.2661  1.0953 -0.2538
37128SOL    HW214278   2.584   3.867   7.075  0.1270  2.2033 -0.5359
37129SOL     OW14279  10.437   8.958   3.284 -0.2421 -0.0368 -0.2776
37129SOL    HW114280  10.444   9.022   3.213  1.7158 -3.4953 -3.5387
37129SOL    HW214281  10.348   8.924   3.276 -1.3790  2.1846  1.6274
37130SOL     OW14282   1.440   1.237   5.660 -0.2597 -1.0564 -0.5701
37130SOL    HW114283   1.439   1.297   5.735  1.8617  0.2898 -1.5050
37130SOL    HW214284   1.496   1.164   5.689 -0.1558 -0.9640 -0.5351
37131SOL     OW14285   9.352   5.420   1.387  0.0466 -0.0908 -0.6321
37131SOL    HW114286   9.376   5.399   1.297 -1.2671 -0.6833 -0.8675
37131SOL    HW214287   9.295   5.497   1.380 -0.5067 -0.4657 -0.3726
37132SOL     OW14288   6.948   7.577   3.965  0.0941  0.1204 -0.1338
37132SOL    HW114289   6.920   7.583   3.874 -0.6524  0.0645  0.0868
37132SOL    HW214290   6.901   7.649   4.009  0.4226  0.1269  0.2143
37133SOL     OW14291   6.479  10.099   6.350  0.2953  0.2004 -0.0300
37133SOL    HW114292   6.478  10.189   6.384  0.2882 -0.2269  1.1431
37133SOL    HW214293   6.550  10.057   6.397  0.8524 -0.1973 -1.1883
37134SOL     OW14294   2.768   1.139   0.917  0.1250  0.1669 -0.5856
37134SOL    HW114295   2.812   1.099   0.842 -0.6890  0.6834 -1.3502
37134SOL    HW214296   2.679   1.103   0.914  0.1329  0.0554  0.2481
37135SOL     OW14297   2.715   2.912   8.347  0.3435  0.2643  0.4369
37135SOL    HW114298   2.720   2.912   8.443 -1.3076  0.5423  0.5522
37135SOL    HW214299   2.764   2.835   8.321  1.3765  0.5376  1.4588
37136SOL     OW14300   1.149   0.935   5.082 -0.0178 -0.5327  0.1546
37136SOL    HW114301   1.210   0.997   5.041 -1.4194  0.5910 -0.3114
37136SOL    HW214302   1.131   0.974   5.168 -0.2830 -0.7264  0.1870
37137SOL     OW14303   0.779   4.008  10.180  0.2512  0.0041 -0.7911
37137SOL    HW114304   0.750   3.960  10.257 -0.3076  0.2038 -0.8723
37137SOL    HW214305   0.727   3.972  10.108 -0.9726  1.4504 -0.6882
37138SOL     OW14306   7.534   9.438   9.291  0.0534 -0.3784 -0.7993
37138SOL    HW114307   7.451   9.404   9.257 -1.4579  0.1721  2.0768
37138SOL    HW214308   7.510   9.490   9.367  2.9818  0.8075 -0.5442
37139SOL     OW14309   5.998   9.350   6.684  0.0053  0.3539 -0.2382
37139SOL    HW114310   5.917   9.402   6.688  0.1144  0.5627 -0.7437
37139SOL    HW214311   5.990   9.299   6.603  0.7425  0.9739 -0.7132
37140SOL     OW14312   6.526  10.247   3.109 -0.2799  0.1737  0.0784
37140SOL    HW114313   6.523  10.154   3.087 -0.5873  0.2581 -0.2472
37140SOL    HW214314   6.441  10.266   3.148 -0.0161  0.1984  0.6496
37141SOL     OW14315   3.412   0.382   0.678 -0.0267  0.0279 -0.0375
37141SOL    HW114316   3.367   0.314   0.729  0.4754 -0.3847 -0.1430
37141SOL    HW214317   3.368   0.381   0.593 -0.6861  0.5308  0.2862
37142SOL     OW14318   5.696   1.766   0.612 -0.4562 -0.0894 -0.7389
37142SOL    HW114319   5.605   1.782   0.590 -0.3103  1.2489 -0.4782
37142SOL    HW214320   5.696   1.756   0.708 -0.2670  0.4079 -0.6863
37143SOL     OW14321   6.353   5.187   4.461 -0.8963 -0.2242 -0.1832
37143SOL    HW114322   6.287   5.243   4.502 -0.6363 -0.7053  0.9423
37143SOL    HW214323   6.305   5.140   4.393 -1.4662  0.2269 -0.1079
37144SOL     OW14324   1.376   0.630   5.527 -0.0995 -0.1418  0.1815
37144SOL    HW114325   1.385   0.537   5.546  0.3423  0.1561  1.5363
37144SOL    HW214326   1.286   0.651   5.550  0.0288 -0.0719  0.6193
37145SOL     OW14327   8.498   3.648   7.446  0.0275 -0.0269  0.6402
37145SOL    HW114328   8.543   3.681   7.524  2.6194 -1.4982 -0.0759
37145SOL    HW214329   8.443   3.577   7.479  0.6015 -0.2054  1.2511
37146SOL     OW14330   5.429   7.712   1.200 -0.6057  0.4252 -0.3026
37146SOL    HW114331   5.475   7.632   1.225 -0.0742  0.7126 -0.3538
37146SOL    HW214332   5.498   7.770   1.167 -1.1558  0.4277 -1.4869
37147SOL     OW14333  10.237   7.251   2.896 -0.0024  0.0034  0.7491
37147SOL    HW114334  10.193   7.336   2.896 -0.9329 -0.4649  1.0377
37147SOL    HW214335  10.311   7.263   2.957 -0.2200  0.5464  0.9177
37148SOL     OW14336   5.961   6.773   6.062 -0.1001  0.0971 -0.0476
37148SOL    HW114337   5.991   6.858   6.093 -1.4387  0.3492  0.6296
37148SOL    HW214338   5.919   6.790   5.978  1.1684 -0.1866 -0.7690
37149SOL     OW14339   1.264   9.264   9.987  0.0745 -0.0857  0.0554
37149SOL    HW114340   1.219   9.348   9.980  0.3587  0.0419 -0.2779
37149SOL    HW214341   1.281   9.254  10.081  0.1610  0.2963  0.0832
37150SOL     OW14342   7.670   3.381   5.225 -0.3632  0.9320 -0.5592
37150SOL    HW114343   7.740   3.403   5.287 -1.0303 -0.2504  0.6940
37150SOL    HW214344   7.633   3.465   5.198 -1.1983  1.5022  2.0587
37151SOL     OW14345   7.852   3.855  10.583 -0.1580  0.0668  0.3100
37151SOL    HW114346   7.931   3.900  10.612  0.4302 -0.9740  0.3858
37151SOL    HW214347   7.822   3.905  10.508  0.9869  0.0620 -0.1691
37152SOL     OW14348   4.468   7.528   6.284  0.6947  0.2939  0.1547
37152SOL    HW114349   4.388   7.500   6.240  2.5108 -2.5239 -1.7287
37152SOL    HW214350   4.502   7.598   6.229  0.3479  0.3765  0.0434
37153SOL     OW14351   2.087   9.153   2.210  0.1380 -0.3098  0.2066
37153SOL    HW114352   2.063   9.117   2.125 -0.6260  0.4963  0.0605
37153SOL    HW214353   2.138   9.231   2.189 -2.2906  1.4422  0.3793
37154SOL     OW14354  10.291   8.512   0.524  0.1594 -0.0281  0.4835
37154SOL    HW114355  10.210   8.463   0.539 -1.0230  1.4669 -0.7112
37154SOL    HW214356  10.333   8.467   0.451 -0.6286  0.3838 -0.2332
37155SOL     OW14357   4.941   9.415   9.950 -0.2668  0.0985  0.2661
37155SOL    HW114358   4.867   9.392  10.006  1.7385 -0.4493  2.9007
37155SOL    HW214359   4.982   9.331   9.928  0.9174  0.4597  0.9402
37156SOL     OW14360   7.751   4.019   8.479 -0.9103 -0.2211 -0.3294
37156SOL    HW114361   7.797   4.075   8.542 -0.5643 -0.0228 -0.7549
37156SOL    HW214362   7.658   4.032   8.500 -0.8294  0.4809 -0.3968
37157SOL     OW14363   3.804   4.192   9.153 -0.1167  0.2445 -0.6703
37157SOL    HW114364   3.867   4.123   9.174  0.7574  1.0202 -0.6640
37157SOL    HW214365   3.835   4.268   9.202 -0.2244  1.0385 -1.7900
37158SOL     OW14366   5.217   8.773   5.778 -0.0249  0.1969 -0.4244
37158SOL    HW114367   5.195   8.734   5.862  0.1536 -0.0162 -0.4740
37158SOL    HW214368   5.182   8.711   5.713  2.2829 -1.1203 -0.5287
37159SOL     OW14369   8.937   5.302   1.886 -0.7442 -0.0625  0.1546
37159SOL    HW114370   8.997   5.369   1.919  0.4175  0.2161 -2.3370
37159SOL    HW214371   8.852   5.325   1.926  0.0903  1.5085  1.1487
37160SOL     OW14372   5.127   9.048   5.950  0.1743 -0.2723  0.2388
37160SOL    HW114373   5.159   9.095   5.873  0.0933  0.8983  0.8941
37160SOL    HW214374   5.076   8.975   5.914 -2.3802  1.9133 -0.9081
37161SOL     OW14375   0.194   4.584   8.846  0.1233  0.0121 -0.1567
37161SOL    HW114376   0.286   4.587   8.819  0.1159 -0.0527 -0.1898
37161SOL    HW214377   0.186   4.655   8.909  0.3433 -0.3586  0.2952
37162SOL     OW14378   1.535   3.769   4.887 -0.4828  0.5933 -0.0191
37162SOL    HW114379   1.603   3.707   4.911 -1.8916 -0.8442  0.4488
37162SOL    HW214380   1.456   3.736   4.929 -1.4630  2.2904 -0.3996
37163SOL     OW14381   6.094   0.182   0.799  0.2202  0.0011 -0.1077
37163SOL    HW114382   6.123   0.096   0.769 -0.6668 -0.5962  0.6927
37163SOL    HW214383   6.043   0.218   0.726  0.7709 -0.0556 -0.5232
37164SOL     OW14384   9.266   3.690   4.223 -0.0072  0.0753  0.0789
37164SOL    HW114385   9.215   3.766   4.251 -0.8337 -0.5568  0.3378
37164SOL    HW214386   9.229   3.665   4.138 -1.0294 -1.1484  0.8353
37165SOL     OW14387   5.609   1.707   6.004 -0.0594  0.2434  0.0087
37165SOL    HW114388   5.615   1.678   6.095 -0.4080  1.9871  0.6326
37165SOL    HW214389   5.569   1.634   5.957 -0.3478 -0.4808  1.3591
37166SOL     OW14390   3.042   8.103   8.190 -0.3905 -0.0978  0.0722
37166SOL    HW114391   3.070   8.014   8.166  0.4716  0.3261 -0.5547
37166SOL    HW214392   2.949   8.094   8.209 -0.0191 -1.4305  1.5095
37167SOL     OW14393   1.372   0.862  10.346 -0.1694 -0.4155 -0.2335
37167SOL    HW114394   1.339   0.792  10.401 -1.2955  1.4453  1.6221
37167SOL    HW214395   1.431   0.912  10.403  1.9054 -0.7029 -1.9788
37168SOL     OW14396   1.552   7.839   9.284 -0.0137 -0.2203  0.3666
37168SOL    HW114397   1.502   7.881   9.355  0.1553  1.1570 -0.2946
37168SOL    HW214398   1.638   7.824   9.321 -0.5235 -1.4382  1.1090
37169SOL     OW14399   7.831   6.880   6.819 -0.0263 -0.6256 -0.2293
37169SOL    HW114400   7.836   6.810   6.754  0.9812 -0.5469 -0.2546
37169SOL    HW214401   7.741   6.875   6.853 -0.0313 -1.8065 -0.3655
37170SOL     OW14402   1.885   2.975   1.970 -0.3832 -0.0130  0.2129
37170SOL    HW114403   1.859   3.065   1.985  0.2632  0.2245 -0.0791
37170SOL    HW214404   1.858   2.956   1.880 -0.6297 -0.1529  0.3148
37171SOL     OW14405   1.611   1.642   1.170 -0.0677  0.4633  0.6319
37171SOL    HW114406   1.703   1.623   1.192  0.6426  1.3699 -1.2886
37171SOL    HW214407   1.602   1.735   1.188 -0.1874  0.6729 -0.4560
37172SOL     OW14408   0.628  10.707   3.256 -0.1720 -0.5577  0.1907
37172SOL    HW114409   0.621  10.726   3.349 -0.4656 -1.8518  0.4535
37172SOL    HW214410   0.549  10.656   3.235 -0.4419  0.2740 -0.9190
37173SOL     OW14411   3.883   8.335   5.013 -0.3539  0.0302  0.1259
37173SOL    HW114412   3.807   8.384   4.982 -0.6416  0.0330  0.8314
37173SOL    HW214413   3.874   8.334   5.108 -0.3280 -1.3256  0.1364
37174SOL     OW14414   8.032   7.271   7.798 -0.3463 -0.2274  0.0517
37174SOL    HW114415   8.010   7.186   7.760  0.6465  0.4857 -2.2344
37174SOL    HW214416   8.117   7.258   7.839 -1.3258 -0.9385  2.0321
37175SOL     OW14417   2.676   5.848   1.892 -0.3636 -0.4789 -0.2770
37175SOL    HW114418   2.690   5.941   1.871  0.6258 -0.5222  0.1706
37175SOL    HW214419   2.601   5.848   1.952  0.9722  0.2469  1.4643
37176SOL     OW14420   0.525   1.517   5.281  0.1821 -0.2023  0.1002
37176SOL    HW114421   0.492   1.482   5.364 -0.3196  1.7317  0.7617
37176SOL    HW214422   0.614   1.547   5.302 -0.2337  1.0107  0.1571
37177SOL     OW14423   7.443   1.305   5.300 -0.0136  0.4696  0.1980
37177SOL    HW114424   7.513   1.357   5.340 -0.2642  1.9474 -1.1842
37177SOL    HW214425   7.373   1.368   5.284 -0.7288 -0.5007 -0.6179
37178SOL     OW14426   2.718   1.787   4.931 -0.4817  0.3218 -0.0682
37178SOL    HW114427   2.773   1.841   4.988  0.0000  1.1975 -1.3432
37178SOL    HW214428   2.692   1.713   4.987 -0.0223  1.1476  1.2807
37179SOL     OW14429  10.390  10.667   7.148  0.1071 -0.5160  0.5020
37179SOL    HW114430  10.335  10.594   7.174 -0.6050 -0.3605 -0.4945
37179SOL    HW214431  10.345  10.705   7.072  1.0478  0.2585  0.3097
37180SOL     OW14432   8.016   0.944   2.605  0.2150 -0.6027 -0.1249
37180SOL    HW114433   7.937   0.936   2.552  0.1666  0.6094 -0.2709
37180SOL    HW214434   8.069   0.868   2.581 -0.1405 -0.4882 -1.3375
37181SOL     OW14435   4.783   7.239  10.699  0.0594  0.4618 -0.4805
37181SOL    HW114436   4.736   7.191  10.767  1.3988 -0.9876 -0.5094
37181SOL    HW214437   4.750   7.202  10.617 -0.5586  1.2448 -0.6020
37182SOL     OW14438   1.555   8.033   8.297 -0.4737 -0.5426  0.2876
37182SOL    HW114439   1.475   8.034   8.350 -1.2487 -0.8504 -0.8349
37182SOL    HW214440   1.599   8.115   8.320 -0.6202 -0.8035  1.6209
37183SOL     OW14441   0.844   2.410  10.503 -0.2046  0.6308  0.1221
37183SOL    HW114442   0.767   2.365  10.537  0.8290 -1.5339 -0.2260
37183SOL    HW214443   0.822   2.431  10.412 -0.6704  0.7928  0.2707
37184SOL     OW14444   5.926   8.710   3.373 -0.2651 -0.5184 -0.3048
37184SOL    HW114445   5.960   8.776   3.434 -0.5638  0.5606 -1.2669
37184SOL    HW214446   5.998   8.648   3.364 -0.5257 -1.2178  1.8115
37185SOL     OW14447   4.980   6.067   6.290 -0.1206 -0.3232 -0.0718
37185SOL    HW114448   5.059   6.119   6.276 -0.7753  0.9659  0.8931
37185SOL    HW214449   4.908   6.129   6.282 -0.9185 -1.0498  1.1755
37186SOL     OW14450   0.949   4.793   5.378  0.7241  0.0974 -0.0906
37186SOL    HW114451   0.873   4.737   5.363  0.2636  0.7372 -0.2113
37186SOL    HW214452   0.912   4.879   5.398  1.4186  0.5575 -0.7092
37187SOL     OW14453   4.000   5.631   2.263  0.3928 -0.1751 -0.1546
37187SOL    HW114454   3.919   5.610   2.310  0.7891 -0.9876  0.1880
37187SOL    HW214455   4.000   5.571   2.189  0.3726  0.2652 -0.5154
37188SOL     OW14456   8.190   9.224   5.734  0.1109 -0.0294 -1.1915
37188SOL    HW114457   8.138   9.304   5.744 -0.3332 -0.3040 -1.2898
37188SOL    HW214458   8.206   9.195   5.824  0.3477  0.2172 -1.1529
37189SOL     OW14459   7.644   5.619   6.627  0.2214  0.1933 -0.6188
37189SOL    HW114460   7.624   5.583   6.541 -0.4991  0.1404 -0.4361
37189SOL    HW214461   7.565   5.667   6.652  0.2588 -0.1468  0.1923
37190SOL     OW14462   8.152   3.873   5.459  0.1553  0.1713  0.0523
37190SOL    HW114463   8.085   3.920   5.411 -0.5250 -1.1528 -0.3328
37190SOL    HW214464   8.122   3.782   5.461  0.3899  0.0544  2.5273
37191SOL     OW14465   6.419   5.700   1.799 -0.6135 -0.3082 -0.2599
37191SOL    HW114466   6.343   5.727   1.852 -0.1198  1.6920 -0.4894
37191SOL    HW214467   6.380   5.660   1.721 -1.4203 -0.3031  0.1275
37192SOL     OW14468   5.761   6.548   2.952 -0.3989 -0.1387  0.6339
37192SOL    HW114469   5.720   6.463   2.939  0.1621 -0.3934  0.5023
37192SOL    HW214470   5.764   6.559   3.047  0.0877 -0.5458  0.6692
37193SOL     OW14471   3.534   1.864   8.339 -0.1001 -0.3716 -0.3397
37193SOL    HW114472   3.599   1.818   8.286  0.5851 -0.1225  0.2684
37193SOL    HW214473   3.450   1.841   8.299  0.4235  0.2580 -1.8767
37194SOL     OW14474   3.143   4.814   4.054 -0.3781  0.4175 -0.0385
37194SOL    HW114475   3.206   4.768   3.998  1.3680  1.6926  0.7927
37194SOL    HW214476   3.190   4.830   4.135 -2.0672  0.7344  0.9287
37195SOL     OW14477   7.668   9.609   5.751  0.1979 -0.0900 -0.0728
37195SOL    HW114478   7.585   9.650   5.775  0.0536 -0.8865  0.8664
37195SOL    HW214479   7.679   9.538   5.814  0.6359 -1.2420 -1.4044
37196SOL     OW14480   4.025   9.138   4.531  0.0090 -0.1688  0.9869
37196SOL    HW114481   3.956   9.134   4.465  0.2610 -0.9661  0.7541
37196SOL    HW214482   4.092   9.194   4.491  0.5495 -1.3665  0.1654
37197SOL     OW14483  10.679   5.791  10.771  0.5698 -0.0472  0.0025
37197SOL    HW114484  10.744   5.772  10.703  0.1871  0.5405 -0.5306
37197SOL    HW214485  10.622   5.858  10.733 -2.1208 -2.5161 -0.7049
37198SOL     OW14486   9.384   7.679   6.672 -0.4117 -0.7372 -0.6372
37198SOL    HW114487   9.431   7.748   6.719 -1.2921  1.3745 -2.6655
37198SOL    HW214488   9.324   7.643   6.737 -2.4899  2.9208 -0.2600
37199SOL     OW14489   9.858   5.809   5.010 -0.2825 -0.3640 -0.1149
37199SOL    HW114490   9.927   5.783   4.950  0.0821  1.3447 -0.4781
37199SOL    HW214491   9.813   5.881   4.966 -1.4171 -0.5303  0.7173
37200SOL     OW14492   3.840   0.166   0.562  0.5520  0.1451 -0.3680
37200SOL    HW114493   3.864   0.099   0.625 -0.9426  0.2998  0.4178
37200SOL    HW214494   3.896   0.241   0.583  0.8338 -0.1802  0.0475
37201SOL     OW14495   0.048   1.498   3.009  0.2898 -0.1928  0.1084
37201SOL    HW114496  -0.017   1.452   2.957 -0.1001 -0.3695  0.7451
37201SOL    HW214497   0.095   1.553   2.946 -0.4183 -0.1269 -0.3722
37202SOL     OW14498   7.542  10.092   2.977 -0.4009 -0.5955  0.0915
37202SOL    HW114499   7.490  10.018   3.010  1.0053 -1.3944  0.5775
37202SOL    HW214500   7.633  10.068   2.994  0.1526  0.8076 -0.6737
37203SOL     OW14501  10.122   2.445   4.638  0.9538  0.4441  0.1993
37203SOL    HW114502  10.099   2.418   4.727 -2.8370  1.2445 -0.3486
37203SOL    HW214503  10.122   2.541   4.641  0.1488  0.4920 -0.7375
37204SOL     OW14504   4.374   4.487   5.564 -0.1716  0.1425 -0.2473
37204SOL    HW114505   4.346   4.490   5.472 -0.4386  0.6117 -0.1544
37204SOL    HW214506   4.432   4.562   5.573  0.5107 -0.3789 -0.2379
37205SOL     OW14507   9.673   3.139   4.743 -0.4337  0.5391 -0.3997
37205SOL    HW114508   9.719   3.101   4.817  0.8072 -1.7645 -2.2119
37205SOL    HW214509   9.702   3.230   4.741  2.3427 -0.2538 -0.1179
37206SOL     OW14510   0.666   2.510   2.161  0.2143  0.1210  0.3098
37206SOL    HW114511   0.651   2.464   2.078  0.8140  2.8555 -1.4284
37206SOL    HW214512   0.737   2.461   2.203  0.4224 -0.8741 -1.1542
37207SOL     OW14513   0.736   9.582   9.880 -0.0401 -0.0279  0.1525
37207SOL    HW114514   0.773   9.645   9.941 -0.1122  0.8800 -0.7106
37207SOL    HW214515   0.667   9.631   9.834 -0.5210 -0.9186 -0.0982
37208SOL     OW14516  10.096   3.671   7.274 -0.1907 -0.1314  0.4821
37208SOL    HW114517  10.144   3.622   7.207  1.3100 -0.3772  1.6890
37208SOL    HW214518  10.133   3.759   7.270 -1.0090  0.2150  0.1468
37209SOL     OW14519   2.161   9.139   6.752  0.0692  0.3791 -0.2309
37209SOL    HW114520   2.234   9.192   6.784  1.5735 -1.6044 -0.2609
37209SOL    HW214521   2.147   9.170   6.662  0.3857  1.2437  0.0053
37210SOL     OW14522   8.355   2.036   2.776  0.0110 -0.1347  0.8240
37210SOL    HW114523   8.345   2.014   2.684  0.6637  0.1231  0.6856
37210SOL    HW214524   8.342   1.953   2.823  0.1176 -0.3493  0.4735
37211SOL     OW14525  10.482   4.132   4.859 -0.3891  0.3289 -0.4479
37211SOL    HW114526  10.386   4.128   4.859 -0.4200  0.8890  0.4693
37211SOL    HW214527  10.503   4.225   4.868  0.2122 -0.0044  2.2536
37212SOL     OW14528   3.236   1.840   1.940 -0.3499  0.1841 -0.4614
37212SOL    HW114529   3.301   1.783   1.981 -0.9715 -0.3228 -0.1717
37212SOL    HW214530   3.175   1.781   1.897 -1.0679  0.6212 -0.0700
37213SOL     OW14531   6.470   7.545   7.267  0.0189  0.3924 -0.4335
37213SOL    HW114532   6.444   7.456   7.289 -0.4463  0.1287 -1.9300
37213SOL    HW214533   6.452   7.553   7.173  1.4936  1.5641 -0.6605
37214SOL     OW14534   2.784   4.939   0.976 -0.2899 -0.1880 -0.3452
37214SOL    HW114535   2.752   4.976   0.894 -0.3347 -0.8522 -0.6376
37214SOL    HW214536   2.877   4.922   0.959 -0.1128  0.3979  0.0123
37215SOL     OW14537   6.662   5.037   0.707 -0.4243  0.4118 -0.3757
37215SOL    HW114538   6.717   5.106   0.746  0.4195 -0.3161 -0.2600
37215SOL    HW214539   6.613   5.001   0.781  0.4050 -0.2610 -0.1380
37216SOL     OW14540   4.799   1.841   3.838 -0.6125  0.4652 -0.2222
37216SOL    HW114541   4.705   1.820   3.838 -0.4644 -0.2638  0.3553
37216SOL    HW214542   4.832   1.798   3.917  0.1098  1.1777 -0.1321
37217SOL     OW14543   2.103   3.345   4.662 -0.2102 -0.3979  0.2629
37217SOL    HW114544   2.168   3.279   4.640  0.8069 -0.0274  2.0002
37217SOL    HW214545   2.149   3.428   4.654 -1.1801  0.0727 -0.8451
37218SOL     OW14546   7.981  10.395   1.124 -0.6479 -0.0409  0.5965
37218SOL    HW114547   7.887  10.390   1.144 -0.8409 -2.3301 -0.5549
37218SOL    HW214548   7.986  10.457   1.052 -1.1062  0.9442  1.3774
37219SOL     OW14549   9.152   4.176   2.489  0.0728  0.3395 -0.1594
37219SOL    HW114550   9.141   4.081   2.497  1.3641  0.2339  0.7620
37219SOL    HW214551   9.083   4.213   2.544  1.3069 -0.1578  1.8089
37220SOL     OW14552  10.696   4.839   4.734  0.1304 -0.0289  0.0815
37220SOL    HW114553  10.631   4.893   4.687 -0.8663 -0.9446  0.3649
37220SOL    HW214554  10.777   4.890   4.729 -0.5806  1.1081 -0.3677
37221SOL     OW14555   9.702   6.655   8.540  0.9996  0.1171 -0.1399
37221SOL    HW114556   9.666   6.742   8.522 -0.3253 -0.1178  1.1501
37221SOL    HW214557   9.756   6.635   8.464  1.0360  1.9108 -0.6297
37222SOL     OW14558   6.165   2.213  10.241 -0.2011 -0.1195  0.4497
37222SOL    HW114559   6.072   2.209  10.262  0.2809  0.7816  3.1125
37222SOL    HW214560   6.177   2.299  10.201 -0.8486 -1.2239 -2.3995
37223SOL     OW14561   9.852   2.901   3.844  0.0737 -0.3524 -0.0021
37223SOL    HW114562   9.916   2.971   3.831 -0.3384  0.3217  1.4136
37223SOL    HW214563   9.868   2.840   3.772  1.3882  0.4864 -0.4501
37224SOL     OW14564   5.565   6.212   5.927  0.4304  0.4303  0.6908
37224SOL    HW114565   5.542   6.172   6.011  0.9361 -0.4936  0.3973
37224SOL    HW214566   5.523   6.298   5.930 -1.3908 -0.4193  0.9873
37225SOL     OW14567  10.096   9.733   7.004  0.1299  0.0712  0.1612
37225SOL    HW114568  10.112   9.675   6.930 -0.2636 -2.0434  1.6416
37225SOL    HW214569  10.034   9.798   6.971  0.2800 -0.5682 -1.4555
37226SOL     OW14570   0.309   7.484   8.267 -0.7205 -0.1504  0.0132
37226SOL    HW114571   0.362   7.564   8.270 -2.5112  1.1647 -1.2415
37226SOL    HW214572   0.315   7.455   8.176 -2.2854  0.1516 -0.2045
37227SOL     OW14573   1.509   3.749   9.646 -0.0736 -0.3514  0.0198
37227SOL    HW114574   1.463   3.818   9.598 -1.1415 -1.6423 -0.8926
37227SOL    HW214575   1.471   3.668   9.613  0.1211 -1.3505  2.0820
37228SOL     OW14576   2.533   8.672   8.791  0.1080  0.0830 -0.2731
37228SOL    HW114577   2.495   8.747   8.837  0.5042  0.4175 -0.4892
37228SOL    HW214578   2.502   8.681   8.701 -1.9049 -1.3854  0.1956
37229SOL     OW14579   2.533   4.513   2.299  0.6943  0.1739  0.4772
37229SOL    HW114580   2.474   4.515   2.224  0.4409  1.6868  0.6789
37229SOL    HW214581   2.507   4.435   2.349  0.0886 -0.1889 -0.3794
37230SOL     OW14582   3.604   2.076   6.119 -0.1867  0.4772 -0.0307
37230SOL    HW114583   3.544   2.149   6.135 -1.9491 -1.1897  1.4475
37230SOL    HW214584   3.691   2.114   6.135 -0.8624  2.6754 -1.1157
37231SOL     OW14585   9.848   6.087   1.051  0.1025  0.0436 -0.1932
37231SOL    HW114586   9.857   6.181   1.067  0.4527  0.1768 -1.0959
37231SOL    HW214587   9.774   6.061   1.105  0.3404  0.7294  0.4815
37232SOL     OW14588   4.726   0.456   1.607 -0.0280 -0.0966 -0.1519
37232SOL    HW114589   4.632   0.445   1.595 -0.5444  3.0296  0.2550
37232SOL    HW214590   4.738   0.456   1.702 -0.1207  2.2115 -0.0774
37233SOL     OW14591   1.852   5.028   4.784 -0.0223  0.1125 -0.7687
37233SOL    HW114592   1.794   5.075   4.844  0.6620  1.9285 -1.4556
37233SOL    HW214593   1.898   4.965   4.839 -0.4778  0.7275  0.3498
37234SOL     OW14594   9.520   4.111   4.756  0.0335  0.0022 -0.2670
37234SOL    HW114595   9.523   4.190   4.810 -0.6231 -0.9636  1.2475
37234SOL    HW214596   9.485   4.141   4.672  1.1640  1.5624 -0.2294
37235SOL     OW14597   8.699   1.482   5.733 -0.5459 -0.1815  0.0373
37235SOL    HW114598   8.650   1.474   5.652 -0.3626  1.9124 -0.3451
37235SOL    HW214599   8.781   1.525   5.708 -1.9094  3.8534  1.6495
37236SOL     OW14600   0.386   6.022   8.924  0.2521  0.1691 -0.0050
37236SOL    HW114601   0.393   6.071   8.842  0.3742  1.1877  0.5846
37236SOL    HW214602   0.466   6.045   8.972  0.0333 -0.1589  0.5264
37237SOL     OW14603   8.432   0.898   9.641  0.2716  0.6372 -0.8343
37237SOL    HW114604   8.452   0.812   9.603  1.2719  0.8003 -0.6832
37237SOL    HW214605   8.397   0.949   9.568 -2.6584 -0.6171 -0.4430
37238SOL     OW14606   2.100   1.643   3.960  0.0502 -0.1068 -0.0846
37238SOL    HW114607   2.040   1.655   3.886  0.2517 -0.0352 -0.2358
37238SOL    HW214608   2.070   1.561   4.001  0.4006 -0.5469 -0.6852
37239SOL     OW14609   6.592   3.192   8.127 -0.7100 -0.2023 -0.2251
37239SOL    HW114610   6.580   3.097   8.131 -3.0778  0.0032 -0.7395
37239SOL    HW214611   6.680   3.206   8.161 -0.8010 -2.4727  1.2320
37240SOL     OW14612   3.751   0.788   1.438 -0.2071 -0.5618 -0.1995
37240SOL    HW114613   3.781   0.833   1.517  1.1407  2.8246 -2.4206
37240SOL    HW214614   3.656   0.792   1.442 -0.3585 -3.1310  2.5178
37241SOL     OW14615   1.686   8.709  10.059 -0.1245  0.0949  0.4534
37241SOL    HW114616   1.739   8.630  10.069 -0.3725 -0.1022  0.2256
37241SOL    HW214617   1.737   8.778  10.101  1.3875  0.3820 -1.6950
37242SOL     OW14618   5.694   0.731   2.871 -0.1465 -0.4970  0.2087
37242SOL    HW114619   5.680   0.802   2.934 -3.2815  0.4804 -1.3732
37242SOL    HW214620   5.673   0.652   2.921  0.4849 -0.0672  1.1982
37243SOL     OW14621  10.107   8.639   9.916 -0.6805 -0.3931  0.0274
37243SOL    HW114622  10.045   8.640   9.989 -1.3703 -1.7361 -0.5044
37243SOL    HW214623  10.110   8.729   9.885  0.3411  0.4192  2.2875
37244SOL     OW14624   4.008   8.688   6.058 -0.7911  0.4348  0.1688
37244SOL    HW114625   3.966   8.770   6.035 -2.5454 -1.1526 -2.9793
37244SOL    HW214626   3.956   8.653   6.130 -2.5815  0.3001 -1.1350
37245SOL     OW14627   5.497   3.271   3.266 -0.2059  0.1265 -0.9578
37245SOL    HW114628   5.473   3.191   3.220  0.8758 -0.7420 -0.0819
37245SOL    HW214629   5.428   3.282   3.332  0.3481 -0.8582 -0.1921
37246SOL     OW14630   0.770   0.958   8.068 -0.0666  0.3728  0.5402
37246SOL    HW114631   0.777   0.916   8.153  0.0718 -0.5337  0.0928
37246SOL    HW214632   0.860   0.956   8.033 -0.2112  0.2917  0.1684
37247SOL     OW14633   5.674   2.538   8.237 -0.4043 -0.5174  0.0996
37247SOL    HW114634   5.620   2.577   8.169 -0.8288 -1.0690  0.1118
37247SOL    HW214635   5.641   2.448   8.245  0.7883 -0.9862 -0.1751
37248SOL     OW14636   6.717   3.621   2.925  0.0238  0.3780  0.0995
37248SOL    HW114637   6.622   3.619   2.921  0.0098  1.8422 -1.3873
37248SOL    HW214638   6.738   3.713   2.943  1.1448  0.0103  0.7245
37249SOL     OW14639   9.585   9.079   4.935 -0.1095  0.1412 -0.2345
37249SOL    HW114640   9.542   9.033   5.007 -0.4976  1.0109  0.1089
37249SOL    HW214641   9.580   9.018   4.861 -0.4647 -0.4237  0.2439
37250SOL     OW14642   7.766   3.232   7.656 -0.4124 -0.4401  0.0756
37250SOL    HW114643   7.713   3.311   7.651  3.1727  2.1201 -2.2398
37250SOL    HW214644   7.804   3.234   7.743 -0.9500 -0.0286  0.3039
37251SOL     OW14645   7.933   9.643   8.217  0.0297 -0.2160  0.3445
37251SOL    HW114646   7.878   9.702   8.268  0.3877  1.3524 -0.9725
37251SOL    HW214647   8.020   9.681   8.222  0.3781 -0.9315 -0.1023
37252SOL     OW14648   2.165   8.859   0.432 -0.3528  0.4060 -0.1891
37252SOL    HW114649   2.095   8.924   0.437 -0.3167  0.4023  0.4847
37252SOL    HW214650   2.246   8.910   0.432 -0.3538  0.4384 -1.5607
37253SOL     OW14651   1.003   6.368   1.215  0.0296 -0.9656  0.0589
37253SOL    HW114652   0.926   6.367   1.271 -0.0899 -0.8482 -0.1014
37253SOL    HW214653   1.061   6.433   1.253  0.8676 -2.3523  1.2635
37254SOL     OW14654   9.143   2.590   4.679 -0.4892 -0.3304  0.2630
37254SOL    HW114655   9.138   2.655   4.609  2.3884 -0.7866 -0.4851
37254SOL    HW214656   9.065   2.535   4.666 -1.2396  0.9834 -1.1056
37255SOL     OW14657   5.783   6.362   7.342 -0.1808 -0.0322 -0.0885
37255SOL    HW114658   5.746   6.345   7.429 -0.9634 -1.7911 -0.7326
37255SOL    HW214659   5.739   6.300   7.285  0.5553  0.8846 -1.7117
37256SOL     OW14660   8.506   1.531   8.087  0.1858  0.2719 -0.4615
37256SOL    HW114661   8.420   1.503   8.117  0.4911  1.0876  1.2571
37256SOL    HW214662   8.518   1.486   8.003 -0.3593 -2.7686  0.9764
37257SOL     OW14663   6.417   4.720   4.104 -0.2671 -0.0680  0.1104
37257SOL    HW114664   6.324   4.740   4.099 -0.3201 -0.5787 -2.1985
37257SOL    HW214665   6.423   4.629   4.075  1.0271  0.3504 -1.0680
37258SOL     OW14666   1.489   9.584   8.829 -0.0661  0.5643 -0.4616
37258SOL    HW114667   1.520   9.496   8.806  1.2305  1.2786 -1.5790
37258SOL    HW214668   1.434   9.610   8.755 -1.1199  0.3922  0.2459
37259SOL     OW14669   3.654   9.553   4.358  0.1018 -0.6440  0.4015
37259SOL    HW114670   3.657   9.610   4.435  1.1226 -2.1553  1.5312
37259SOL    HW214671   3.746   9.529   4.342 -0.1912 -1.0810 -0.7442
37260SOL     OW14672   7.391   2.204   5.004 -0.0400 -0.0733  0.4060
37260SOL    HW114673   7.339   2.283   4.990 -0.0064 -0.0642  0.3294
37260SOL    HW214674   7.459   2.209   4.937 -1.1961 -1.1532 -0.9011
37261SOL     OW14675   8.415   7.317   9.993 -0.2998 -0.0516 -0.2993
37261SOL    HW114676   8.327   7.350  10.010 -0.7466 -0.5534 -1.4882
37261SOL    HW214677   8.421   7.237  10.045 -0.4321  0.1480  0.0239
37262SOL     OW14678   6.710   8.113   9.412  0.3951 -0.0814 -0.0601
37262SOL    HW114679   6.796   8.147   9.386 -0.1638  1.5787  0.1200
37262SOL    HW214680   6.653   8.190   9.409 -0.4958 -0.5657  2.4828
37263SOL     OW14681   4.721   6.464   1.400  0.3071 -0.2610 -0.1800
37263SOL    HW114682   4.791   6.525   1.423 -0.3625 -0.1219  1.6099
37263SOL    HW214683   4.643   6.499   1.443  0.2162 -3.1672  2.2956
37264SOL     OW14684   8.320   7.793   8.661 -0.0662  0.0262  0.4580
37264SOL    HW114685   8.322   7.712   8.610 -0.7864 -0.2415  0.8372
37264SOL    HW214686   8.359   7.770   8.745 -0.8705 -0.1153  0.8063
37265SOL     OW14687   0.321   7.126   1.339 -0.1317  0.3899  0.2080
37265SOL    HW114688   0.353   7.061   1.401  0.2043  0.4800  0.1343
37265SOL    HW214689   0.227   7.131   1.354  0.0094  0.7211  0.9956
37266SOL     OW14690   0.860   8.079   4.400  0.1528 -0.2354  0.4076
37266SOL    HW114691   0.805   8.138   4.348  1.4866  0.8921  0.2043
37266SOL    HW214692   0.862   7.997   4.350 -0.1059  0.2139 -0.3511
37267SOL     OW14693   6.240   5.825   9.394 -0.3507 -0.0628 -0.3106
37267SOL    HW114694   6.249   5.783   9.308 -1.6487 -1.1174  0.0249
37267SOL    HW214695   6.274   5.913   9.382  1.2949 -0.7976 -1.3939
37268SOL     OW14696   9.545   8.290   8.706  0.0491  0.2188 -0.3576
37268SOL    HW114697   9.531   8.282   8.612 -0.4968  0.8097 -0.3355
37268SOL    HW214698   9.459   8.273   8.745  0.5043 -1.1462  0.1174
37269SOL     OW14699  10.348  10.721   9.466  0.1640 -0.6268 -0.0288
37269SOL    HW114700  10.379  10.811   9.472 -0.6161 -0.3262 -0.3083
37269SOL    HW214701  10.253  10.727   9.480  0.0487 -1.3538 -0.4153
37270SOL     OW14702   3.810   7.333   7.894 -0.3063  0.1099  0.0860
37270SOL    HW114703   3.756   7.411   7.902 -0.9898 -0.3108 -0.3854
37270SOL    HW214704   3.900   7.367   7.890 -0.5126  0.7984  1.0093
37271SOL     OW14705   2.825   8.968   6.020  0.0383  0.2877  0.3004
37271SOL    HW114706   2.917   8.959   5.996 -0.2731 -0.6076 -0.6354
37271SOL    HW214707   2.826   9.015   6.103  1.7488 -4.8844  3.6642
37272SOL     OW14708   6.490   3.624  10.367 -0.1001  0.2826  0.4882
37272SOL    HW114709   6.440   3.665  10.438 -0.4686 -1.1704  1.1112
37272SOL    HW214710   6.447   3.540  10.352  1.9359 -0.9024  0.8349
37273SOL     OW14711   8.756   0.114   1.404 -0.0947  0.1084  0.0338
37273SOL    HW114712   8.807   0.094   1.483 -0.2366 -1.3421 -0.2262
37273SOL    HW214713   8.773   0.207   1.388  1.1486  0.0480  0.8869
37274SOL     OW14714   4.166   9.209   3.860  0.0423  0.3694 -0.5447
37274SOL    HW114715   4.159   9.115   3.874  1.6331  0.1677 -0.9644
37274SOL    HW214716   4.075   9.239   3.851 -0.5612 -0.8962  0.9219
37275SOL     OW14717   2.207  10.442   9.131  0.2127 -0.7110 -0.3367
37275SOL    HW114718   2.179  10.406   9.047 -1.7789 -3.0756  1.1836
37275SOL    HW214719   2.135  10.501   9.156  0.7222 -0.1362 -0.2157
37276SOL     OW14720   1.704   9.685   5.356  0.6155  0.7068  0.2792
37276SOL    HW114721   1.683   9.734   5.435 -0.9159 -1.9806  1.7091
37276SOL    HW214722   1.636   9.709   5.293  0.9910  1.7687  0.2637
37277SOL     OW14723   3.942   1.418   8.477 -0.6465  0.2363  0.0543
37277SOL    HW114724   3.847   1.429   8.483 -0.7514  0.1594 -1.2769
37277SOL    HW214725   3.961   1.341   8.529 -1.3346  0.1688  0.2080
37278SOL     OW14726   9.808   7.287   5.366 -0.4796  0.2819  0.1851
37278SOL    HW114727   9.901   7.305   5.351 -0.0525 -1.8952 -0.1134
37278SOL    HW214728   9.763   7.367   5.338  1.3142  1.5277  0.7188
37279SOL     OW14729   9.083  10.086   7.094 -0.1317  0.0758  0.4535
37279SOL    HW114730   9.086  10.156   7.029 -1.4595 -0.1834  0.0888
37279SOL    HW214731   9.032  10.123   7.166 -0.4299 -0.3423  0.4630
37280SOL     OW14732   7.173   5.075   4.113 -0.2196 -0.2672  0.4954
37280SOL    HW114733   7.102   5.136   4.136  0.9221  0.8278  1.2256
37280SOL    HW214734   7.230   5.075   4.189  1.6306  0.4424 -0.8081
37281SOL     OW14735   9.364   5.711   6.645  0.0780  0.2095 -0.3937
37281SOL    HW114736   9.399   5.650   6.711  2.0000  1.0525 -0.5705
37281SOL    HW214737   9.303   5.658   6.594  0.8451 -1.2892  0.1643
37282SOL     OW14738   8.865   6.338   7.902  0.4828 -0.4235  0.0673
37282SOL    HW114739   8.849   6.429   7.877 -1.6551 -0.6482  0.4457
37282SOL    HW214740   8.878   6.341   7.996 -0.0284 -0.5434  0.1452
37283SOL     OW14741   8.967   4.948   8.276 -0.3886 -0.6014  0.1077
37283SOL    HW114742   8.917   4.970   8.355  0.7380  0.1961  0.6209
37283SOL    HW214743   8.955   5.024   8.219  0.9187 -0.0012  0.5913
37284SOL     OW14744   9.791   2.227   9.148 -0.7660  0.1724 -0.2256
37284SOL    HW114745   9.803   2.217   9.242  1.5116 -0.2047 -0.4870
37284SOL    HW214746   9.747   2.147   9.120 -0.1941 -0.3527  0.3416
37285SOL     OW14747   4.358   5.006   6.920  0.0988  0.0891  0.2268
37285SOL    HW114748   4.356   4.910   6.914 -1.5619  0.0999  0.3621
37285SOL    HW214749   4.424   5.032   6.856 -1.0304 -1.0359 -1.4651
37286SOL     OW14750   2.811  10.374   2.132  0.4142  0.6489 -0.1002
37286SOL    HW114751   2.802  10.465   2.160 -2.2103  0.1711  0.9967
37286SOL    HW214752   2.869  10.377   2.056  2.8108  2.8223  1.6603
37287SOL     OW14753   5.845   6.596   3.669  0.3177  1.0415 -0.3985
37287SOL    HW114754   5.899   6.659   3.716 -0.3465  0.6818  0.8760
37287SOL    HW214755   5.770   6.646   3.638 -0.3114  0.8559  0.7881
37288SOL     OW14756   3.886   3.830   3.644 -0.0896 -0.0853 -0.3905
37288SOL    HW114757   3.816   3.800   3.586 -0.7713  1.1570 -0.2411
37288SOL    HW214758   3.948   3.874   3.585 -0.0903 -0.0498 -0.3654
37289SOL     OW14759   7.382   2.893   0.475  0.0921  0.2835  0.0158
37289SOL    HW114760   7.446   2.933   0.417  0.0981  3.2079  1.8455
37289SOL    HW214761   7.299   2.901   0.428  0.1360  2.3631  0.2042
37290SOL     OW14762   4.857   3.189   5.181 -0.0826 -0.1617  0.2512
37290SOL    HW114763   4.841   3.269   5.132 -0.1256 -0.1632  0.2626
37290SOL    HW214764   4.818   3.120   5.128  1.4859 -0.4180 -0.6346
37291SOL     OW14765   9.269   2.203  10.676  0.0457 -0.5287 -0.4829
37291SOL    HW114766   9.236   2.178  10.763  0.2236  1.4525  0.2064
37291SOL    HW214767   9.344   2.145  10.661 -1.4163 -2.5330 -0.4110
37292SOL     OW14768   4.079   8.116   2.872  0.7083 -0.2314  0.1779
37292SOL    HW114769   4.029   8.056   2.817 -0.7925  1.0995  0.0443
37292SOL    HW214770   4.064   8.085   2.962 -0.8648  0.5007  0.1835
37293SOL     OW14771   3.556   4.372   4.789 -0.4140 -0.3884 -0.1279
37293SOL    HW114772   3.515   4.433   4.850  0.2508 -0.8323  0.7882
37293SOL    HW214773   3.556   4.288   4.835 -1.3435 -1.1098 -1.3772
37294SOL     OW14774   5.209   6.619   5.912  0.2485 -0.4531 -0.5356
37294SOL    HW114775   5.128   6.641   5.959  0.2779 -0.1520 -0.6223
37294SOL    HW214776   5.197   6.656   5.825 -0.5910 -2.6551 -1.3910
37295SOL     OW14777   6.474   6.317   6.806  0.2294  0.4639  0.4923
37295SOL    HW114778   6.534   6.363   6.865  2.2368 -2.4079  0.8734
37295SOL    HW214779   6.452   6.236   6.852 -1.8169  0.1859 -0.8433
37296SOL     OW14780   8.820   6.306   2.476  0.1237 -0.8798  0.4147
37296SOL    HW114781   8.797   6.241   2.409  1.2389  0.5248 -1.4388
37296SOL    HW214782   8.841   6.255   2.554 -2.3026 -2.5461  0.0950
37297SOL     OW14783   6.542  10.788   9.750 -0.6086 -0.1332  0.2683
37297SOL    HW114784   6.631  10.753   9.756 -1.4555 -2.2298  2.0602
37297SOL    HW214785   6.496  10.727   9.692 -1.2689  0.0296  0.6135
37298SOL     OW14786   9.501   2.712   9.473 -0.4522 -0.2828  0.1013
37298SOL    HW114787   9.463   2.632   9.510  1.6716 -0.5916  1.8579
37298SOL    HW214788   9.595   2.700   9.484  0.0410  1.5192 -1.6859
37299SOL     OW14789   8.686   9.204   4.907  0.0583 -0.0521  0.0924
37299SOL    HW114790   8.782   9.213   4.907  0.0331  0.3851 -1.1230
37299SOL    HW214791   8.669   9.138   4.839 -0.5152  0.0487  0.1391
37300SOL     OW14792   6.401   3.261   5.862 -0.3496 -0.1931  0.0730
37300SOL    HW114793   6.492   3.266   5.892 -0.4184 -0.6401  0.3640
37300SOL    HW214794   6.407   3.242   5.769 -0.1319  1.1587 -0.2042
37301SOL     OW14795   3.495   0.097  10.288 -0.1207  0.1810 -0.2268
37301SOL    HW114796   3.580   0.105  10.246 -0.3681  0.8259 -0.6111
37301SOL    HW214797   3.461   0.186  10.293 -0.9306 -0.1027 -0.4018
37302SOL     OW14798   0.826  10.117  10.301 -0.6105 -0.0968  0.1652
37302SOL    HW114799   0.865  10.053  10.361 -0.5855 -0.0115  0.2407
37302SOL    HW214800   0.826  10.074  10.216  0.0419  0.0668  0.0828
37303SOL     OW14801   4.510   6.850   5.357 -0.0751  0.2177  0.1212
37303SOL    HW114802   4.426   6.866   5.315 -1.0174  0.2320  1.9576
37303SOL    HW214803   4.513   6.755   5.370  0.1908  0.2187  0.0862
37304SOL     OW14804   6.116   9.174   7.168  0.3398 -0.0545 -0.3875
37304SOL    HW114805   6.112   9.205   7.258  1.6961 -0.4104 -0.1940
37304SOL    HW214806   6.028   9.192   7.133 -0.5727 -0.9540  1.3254
37305SOL     OW14807   3.896   7.986   7.161 -0.3322 -0.2076  0.2556
37305SOL    HW114808   3.851   8.026   7.086 -0.0727  0.4524  0.4454
37305SOL    HW214809   3.901   7.893   7.139  1.0069  0.1753 -1.2048
37306SOL     OW14810   2.265   9.176   8.937 -0.2654 -0.1968 -0.1473
37306SOL    HW114811   2.332   9.240   8.959 -1.8171  1.0225  1.2378
37306SOL    HW214812   2.271   9.109   9.006 -0.2669 -0.2578 -0.2053
37307SOL     OW14813   4.832   1.903   2.477  0.2022  0.0893 -0.2195
37307SOL    HW114814   4.879   1.827   2.510 -1.7264 -0.5406  1.3447
37307SOL    HW214815   4.741   1.873   2.469 -0.3760  1.8603 -0.8496
37308SOL     OW14816   0.273   0.334   9.806 -0.5630 -0.3067  0.1643
37308SOL    HW114817   0.197   0.372   9.850 -0.0847  0.0047  0.7367
37308SOL    HW214818   0.312   0.406   9.758 -0.7423 -0.5126 -0.2911
37309SOL     OW14819   1.903   3.361  10.560 -0.3626  0.0941  0.7922
37309SOL    HW114820   1.908   3.355  10.655  1.7067  0.6762  0.7815
37309SOL    HW214821   1.831   3.422  10.543 -0.9650 -0.2696  1.9630
37310SOL     OW14822   8.457   6.083   7.000  0.1352  0.7111 -0.0804
37310SOL    HW114823   8.481   6.012   6.942 -1.9625 -0.0692 -0.0793
37310SOL    HW214824   8.413   6.147   6.944  0.1227  1.0133  0.2646
37311SOL     OW14825   7.386   3.799   5.419 -0.6566 -0.3194 -0.3862
37311SOL    HW114826   7.427   3.735   5.478 -1.3354 -1.0401 -0.6626
37311SOL    HW214827   7.314   3.835   5.471  0.6106  1.3399  0.2878
37312SOL     OW14828   2.699   2.684   1.459  0.6605 -0.7207 -0.2887
37312SOL    HW114829   2.720   2.766   1.504 -2.9002 -0.5677  1.4367
37312SOL    HW214830   2.696   2.708   1.366 -0.7645  1.2982  0.2021
37313SOL     OW14831   7.023   6.209   8.750  0.3999 -0.6770 -0.1644
37313SOL    HW114832   7.054   6.238   8.664 -0.5852  0.1357 -0.2692
37313SOL    HW214833   7.027   6.114   8.746  1.5003 -0.6298 -0.6673
37314SOL     OW14834   9.930  10.743   6.169  0.3415  0.2474  0.2786
37314SOL    HW114835   9.890  10.799   6.235  1.3192 -1.6411  2.6352
37314SOL    HW214836  10.024  10.752   6.183  0.5536 -0.6523 -0.4327
37315SOL     OW14837   3.155   5.092   7.509  0.2620 -0.3668  0.0810
37315SOL    HW114838   3.064   5.116   7.528  0.2912 -1.1911  1.4307
37315SOL    HW214839   3.175   5.137   7.427 -0.2508  2.6855  1.4741
37316SOL     OW14840   8.639   0.820   7.524  0.4003 -0.1318  0.0758
37316SOL    HW114841   8.627   0.725   7.528 -0.9295  0.0733  1.5483
37316SOL    HW214842   8.726   0.834   7.563  0.5735 -0.7205 -0.0796
37317SOL     OW14843   2.393   7.256   8.657  0.2966 -0.0563  0.0606
37317SOL    HW114844   2.394   7.346   8.689  0.4681  0.3917 -1.1506
37317SOL    HW214845   2.302   7.241   8.629  0.2969 -0.2263  0.1455
37318SOL     OW14846   2.988   3.245   5.112 -0.0572 -0.5262  0.3395
37318SOL    HW114847   2.922   3.304   5.150  1.9089 -0.2078  3.5630
37318SOL    HW214848   3.044   3.302   5.060 -0.8957 -0.4120 -0.4696
37319SOL     OW14849  10.432   5.239   7.559  0.5401 -0.8074  0.4714
37319SOL    HW114850  10.518   5.209   7.530  0.3431 -0.1429 -0.8452
37319SOL    HW214851  10.451   5.316   7.612  0.7559 -0.6796  0.2111
37320SOL     OW14852   7.624   1.650   9.618  0.3127  0.0986 -0.0702
37320SOL    HW114853   7.542   1.691   9.647  0.2330  1.8851 -2.4980
37320SOL    HW214854   7.692   1.694   9.670 -0.1825 -1.5225  2.0890
37321SOL     OW14855   9.546  10.556   2.642  0.3735  0.6469  0.8751
37321SOL    HW114856   9.534  10.506   2.562  0.1282  0.7510  0.8446
37321SOL    HW214857   9.640  10.571   2.648  0.2952  1.5902  0.0243
37322SOL     OW14858   8.302   4.887   9.743  0.0831  0.1094  0.2005
37322SOL    HW114859   8.379   4.850   9.701  0.3236 -1.8814  2.1623
37322SOL    HW214860   8.232   4.876   9.679  0.7474 -1.2782 -0.3369
37323SOL     OW14861   5.554   2.046   1.316 -0.1695 -0.0276 -0.4364
37323SOL    HW114862   5.480   2.013   1.265 -1.2162  2.7169 -0.8871
37323SOL    HW214863   5.612   2.085   1.250  0.8040 -0.5832  0.0834
37324SOL     OW14864   6.546   9.128   0.503  0.0290 -0.3511  1.1034
37324SOL    HW114865   6.513   9.054   0.554 -1.2317  0.4115  1.4370
37324SOL    HW214866   6.467   9.171   0.469  0.7662  0.4212  0.3131
37325SOL     OW14867   3.516   8.332   1.020  0.2864  0.5948 -0.0430
37325SOL    HW114868   3.449   8.385   1.064 -0.3873 -0.3650  0.1088
37325SOL    HW214869   3.548   8.273   1.087  1.1879  0.9355 -0.1606
37326SOL     OW14870   7.568   9.400   2.380 -0.0493  0.5258  0.3730
37326SOL    HW114871   7.597   9.486   2.350  1.9753  0.1377  1.0639
37326SOL    HW214872   7.550   9.411   2.473 -0.0569  0.2731  0.4034
37327SOL     OW14873   4.674   7.246   5.282  0.3661  0.4308 -0.0557
37327SOL    HW114874   4.703   7.332   5.313  1.6743  0.3341 -0.9244
37327SOL    HW214875   4.605   7.266   5.219  1.0005  0.8969 -0.6258
37328SOL     OW14876   0.386   5.741   0.817 -0.2236  0.2655  0.3483
37328SOL    HW114877   0.298   5.742   0.779  0.1670  0.9485 -0.5777
37328SOL    HW214878   0.427   5.821   0.785  0.3818  0.5116  1.6537
37329SOL     OW14879   2.549   9.500   3.432 -0.0509 -0.7615 -0.0493
37329SOL    HW114880   2.481   9.467   3.491  0.1731  0.6559  1.0856
37329SOL    HW214881   2.630   9.492   3.483  0.1199  0.6946 -0.0406
37330SOL     OW14882   2.257   8.274   0.736 -0.2258 -0.3952  0.3606
37330SOL    HW114883   2.329   8.248   0.679 -1.1379 -2.5658  0.0940
37330SOL    HW214884   2.299   8.304   0.816  0.9689 -1.3798  0.1296
37331SOL     OW14885   0.766   4.151  10.559 -0.0132 -0.0636  0.0815
37331SOL    HW114886   0.807   4.090  10.499  0.0837  0.3209 -0.2441
37331SOL    HW214887   0.695   4.100  10.600  0.8230 -0.7508  0.7122
37332SOL     OW14888   8.374   1.141   5.216  0.1574 -0.9756 -0.2070
37332SOL    HW114889   8.309   1.210   5.227  1.0384  0.2748 -2.2982
37332SOL    HW214890   8.425   1.143   5.297 -1.0868 -0.5773  0.5928
37333SOL     OW14891   4.270   8.631   2.271  0.4785  0.1227  0.6664
37333SOL    HW114892   4.209   8.642   2.198  0.7244 -1.4087  0.1797
37333SOL    HW214893   4.304   8.719   2.288  0.4794  0.5149 -1.1339
37334SOL     OW14894   5.683   0.840   7.213 -0.2700 -0.0087  0.1681
37334SOL    HW114895   5.695   0.860   7.306 -0.1198 -1.0533  0.3815
37334SOL    HW214896   5.589   0.853   7.197 -0.3363 -0.0509  0.5246
37335SOL     OW14897  10.415   7.543   6.474 -0.1532 -0.0175 -0.0862
37335SOL    HW114898  10.385   7.532   6.384  0.1459 -2.9189  0.0701
37335SOL    HW214899  10.511   7.546   6.468 -0.1679  1.1394  0.0545
37336SOL     OW14900   4.100   1.827   8.602  0.2139 -0.1888  0.0596
37336SOL    HW114901   4.080   1.917   8.629  2.2548  1.0147 -2.0707
37336SOL    HW214902   4.032   1.774   8.643  0.8713  1.8192  4.2160
37337SOL     OW14903   0.298   6.707   4.402  0.0482  0.1418  0.0570
37337SOL    HW114904   0.245   6.786   4.395 -0.0161 -0.0753 -3.2437
37337SOL    HW214905   0.235   6.636   4.416 -0.3495  0.1758 -1.4590
37338SOL     OW14906  10.586  10.272   4.206  0.0893  0.1463  0.3027
37338SOL    HW114907  10.599  10.281   4.112 -0.5558 -0.5483  0.1309
37338SOL    HW214908  10.655  10.325   4.246  0.6643  0.0574 -0.5547
37339SOL     OW14909   4.525   7.601   7.936 -0.5093  0.0243  0.3778
37339SOL    HW114910   4.588   7.611   8.007 -0.7208  0.8220  0.4603
37339SOL    HW214911   4.566   7.539   7.876  0.2578  0.3643  0.5387
37340SOL     OW14912   8.441   9.653  10.568  0.1887  0.0176 -0.0892
37340SOL    HW114913   8.417   9.607  10.488 -0.3244 -0.2062  0.1858
37340SOL    HW214914   8.409   9.743  10.555  0.8552  0.2033 -0.4713
37341SOL     OW14915   3.612   6.230   3.482 -0.5334 -0.6709  0.0696
37341SOL    HW114916   3.591   6.239   3.389 -0.0645 -0.2212 -0.0025
37341SOL    HW214917   3.696   6.183   3.483  0.0700  0.3719  0.2008
37342SOL     OW14918   7.408   6.972   5.426 -0.5494 -0.0393  0.8616
37342SOL    HW114919   7.325   6.935   5.456 -0.6349  0.0236  0.7004
37342SOL    HW214920   7.383   7.043   5.367 -0.4018 -1.1840 -0.6495
37343SOL     OW14921   2.200   9.608   7.800  0.4769  0.2535 -0.0969
37343SOL    HW114922   2.273   9.607   7.738  0.2472 -0.6761 -0.3777
37343SOL    HW214923   2.181   9.701   7.815  0.3518  0.5052 -1.6564
37344SOL     OW14924   9.898   7.801  10.575 -0.1173  0.0132  0.2478
37344SOL    HW114925   9.971   7.843  10.621 -1.6920  1.8643  1.1964
37344SOL    HW214926   9.853   7.752  10.643 -0.2818 -0.3737 -0.1422
37345SOL     OW14927   8.839  10.560   1.472  0.0271 -0.2666  0.2132
37345SOL    HW114928   8.798  10.477   1.498 -0.5263 -0.3681 -0.9123
37345SOL    HW214929   8.851  10.607   1.554 -0.2908 -1.1759  0.8030
37346SOL     OW14930   7.020   8.299   7.012  0.1938 -0.1024  0.1761
37346SOL    HW114931   7.105   8.255   7.014  0.7621  0.9364 -0.2984
37346SOL    HW214932   7.039   8.388   6.983 -1.2256 -0.2591 -1.4293
37347SOL     OW14933   7.157   9.786   0.131  0.3341  0.0634 -0.0528
37347SOL    HW114934   7.093   9.752   0.069  0.4939 -0.1246 -0.1156
37347SOL    HW214935   7.232   9.810   0.077  0.1740  0.6425 -0.0273
37348SOL     OW14936   9.953   3.755   4.085 -0.7617  0.1896 -0.0699
37348SOL    HW114937   9.884   3.780   4.146 -1.9508 -0.9594 -0.8827
37348SOL    HW214938  10.033   3.789   4.124 -1.3761 -1.0168  2.4523
37349SOL     OW14939   2.045   5.645  10.566 -0.2367  0.5017 -0.1763
37349SOL    HW114940   2.120   5.611  10.614 -0.2850 -0.1208 -0.5249
37349SOL    HW214941   2.001   5.567  10.532 -0.1474  0.9211 -1.3021
37350SOL     OW14942   9.732   2.506   1.639 -0.1235  0.1965  0.0679
37350SOL    HW114943   9.644   2.499   1.602 -0.8836 -0.3793  1.8921
37350SOL    HW214944   9.782   2.555   1.573 -1.0410 -1.8287 -2.2621
37351SOL     OW14945   1.125   3.698   7.171  0.2907 -0.3275  0.2950
37351SOL    HW114946   1.178   3.776   7.155  0.1316 -0.1870  0.4497
37351SOL    HW214947   1.158   3.633   7.109  1.1079 -0.4547  0.8432
37352SOL     OW14948   5.206   2.607   8.436  0.0029  0.0772 -0.4125
37352SOL    HW114949   5.208   2.525   8.387 -1.9000  0.6009 -1.4723
37352SOL    HW214950   5.150   2.588   8.512  0.4805  0.1047 -0.0479
37353SOL     OW14951   7.045   6.603   0.858 -0.4469  0.3684  0.6087
37353SOL    HW114952   7.006   6.618   0.944 -0.5090  0.5219  0.5553
37353SOL    HW214953   7.108   6.533   0.872  0.6054  1.3738  1.0916
37354SOL     OW14954   1.586   8.904   9.884  0.5437  0.0578  0.1870
37354SOL    HW114955   1.609   8.946   9.966  1.6387  0.2416 -0.1970
37354SOL    HW214956   1.619   8.814   9.893 -1.6844 -0.7501  0.9633
37355SOL     OW14957   9.124  10.026   0.776 -0.4909  0.1658  0.4090
37355SOL    HW114958   9.104  10.076   0.696 -1.4396  0.8888  1.0803
37355SOL    HW214959   9.095  10.082   0.847  2.5392  0.5737  1.4177
37356SOL     OW14960   7.419   0.818   0.777 -0.4723  0.3461 -0.5043
37356SOL    HW114961   7.476   0.742   0.774  2.7140  2.5329 -0.8849
37356SOL    HW214962   7.430   0.859   0.691 -0.4405  2.2665  0.3638
37357SOL     OW14963   3.530   1.729   9.764  0.2506 -0.2170  0.1374
37357SOL    HW114964   3.524   1.780   9.683  1.6384 -1.3391 -0.7160
37357SOL    HW214965   3.565   1.791   9.828 -0.1725  0.4919 -0.3056
37358SOL     OW14966   1.197   6.439   0.265  0.0755 -0.0560 -0.3673
37358SOL    HW114967   1.123   6.378   0.268  0.0739 -0.0316  0.2621
37358SOL    HW214968   1.208   6.467   0.356 -1.2029  2.4435 -0.9097
37359SOL     OW14969  10.388   1.675  10.796  0.5670  0.1712  0.1871
37359SOL    HW114970  10.418   1.742  10.856  0.3792 -0.8566  1.4785
37359SOL    HW214971  10.364   1.601  10.852 -1.4989 -0.1273 -0.9915
37360SOL     OW14972   4.142   0.546   2.838 -0.0882  0.3174 -0.1779
37360SOL    HW114973   4.124   0.534   2.932  1.7969 -0.5441  0.1086
37360SOL    HW214974   4.062   0.516   2.795 -0.8954  0.5004  1.1273
37361SOL     OW14975   1.592   8.923   4.335 -0.1233 -0.1518 -0.5904
37361SOL    HW114976   1.507   8.962   4.359 -1.2640 -2.5228 -0.5258
37361SOL    HW214977   1.592   8.838   4.379  0.9173 -1.5603 -3.1615
37362SOL     OW14978   4.045   2.147   3.175  0.1877  0.2680 -0.0790
37362SOL    HW114979   4.067   2.054   3.182  1.6130  0.5908  0.0585
37362SOL    HW214980   4.087   2.175   3.093 -1.5308  0.4664 -0.9369
37363SOL     OW14981   6.426   7.972   7.372  0.1730 -0.5671 -0.1478
37363SOL    HW114982   6.340   7.949   7.336  0.1171 -1.7452  0.6746
37363SOL    HW214983   6.444   7.904   7.437  1.9683 -0.6667 -0.6850
37364SOL     OW14984   4.177  10.358   6.375 -0.0011 -0.8359  0.0526
37364SOL    HW114985   4.145  10.317   6.456 -1.7106 -2.6053 -1.4141
37364SOL    HW214986   4.224  10.288   6.329  1.9036  0.4461 -0.0523
37365SOL     OW14987   0.437   5.419   2.055  0.1339  0.2606  0.2776
37365SOL    HW114988   0.459   5.329   2.077 -1.0768 -0.0411  0.3667
37365SOL    HW214989   0.494   5.441   1.982  0.5237 -0.5409  0.3318
37366SOL     OW14990   4.874   2.035   1.132 -0.7052 -0.1400  0.3363
37366SOL    HW114991   4.954   2.004   1.176  1.1898  1.6664 -1.5954
37366SOL    HW214992   4.900   2.046   1.041 -2.0780  3.8311  0.2446
37367SOL     OW14993   6.478   4.438   5.843  0.0266 -0.3642 -0.4811
37367SOL    HW114994   6.383   4.443   5.847 -0.0451 -1.7250 -0.2214
37367SOL    HW214995   6.508   4.518   5.886 -0.9841 -0.2424  0.0179
37368SOL     OW14996   6.954   0.893   3.108  0.4175  0.0234  0.2187
37368SOL    HW114997   6.889   0.952   3.069 -0.9824 -2.1159 -0.8827
37368SOL    HW214998   7.015   0.951   3.154 -0.9872  2.2791 -0.6126
37369SOL     OW14999   4.960   4.374  10.338  0.2352  0.4926  0.6971
37369SOL    HW115000   4.867   4.384  10.357  0.2848  0.3336  1.0278
37369SOL    HW215001   4.986   4.294  10.384  0.6116  0.7238  0.8928
37370SOL     OW15002   1.719   5.382   0.508  0.1251  0.4648 -0.0285
37370SOL    HW115003   1.808   5.348   0.522 -0.3481 -1.1383 -0.6545
37370SOL    HW215004   1.702   5.366   0.415 -0.9560  0.4401  0.1648
37371SOL     OW15005   3.151   3.839   2.680  0.4409  0.1440 -0.6896
37371SOL    HW115006   3.105   3.902   2.735 -0.3588 -0.3606 -0.7555
37371SOL    HW215007   3.159   3.882   2.595  0.5308  0.4265 -0.5375
37372SOL     OW15008   3.606   3.671   8.770 -0.1758  0.4557 -0.0522
37372SOL    HW115009   3.665   3.621   8.713 -0.9643  0.3570 -0.8118
37372SOL    HW215010   3.555   3.605   8.817  1.7222  0.4788  2.2275
37373SOL     OW15011   4.357   2.466   7.053 -0.1710 -0.5311  0.2389
37373SOL    HW115012   4.321   2.554   7.066  0.1518 -0.2224 -0.8131
37373SOL    HW215013   4.303   2.429   6.983 -0.0423 -1.0223  0.3972
37374SOL     OW15014   5.923   9.019   1.498  0.2954 -0.0378  0.0737
37374SOL    HW115015   5.878   8.983   1.422 -0.6836  0.7934  0.2303
37374SOL    HW215016   5.981   8.949   1.528 -1.6248 -1.5417  0.4428
37375SOL     OW15017   6.025   8.222   4.046  0.1871  0.4211 -0.1845
37375SOL    HW115018   5.949   8.279   4.055 -0.0740 -0.1228  1.3836
37375SOL    HW215019   6.004   8.168   3.969 -1.3573 -0.1824  0.6032
37376SOL     OW15020   0.935   9.342   1.877  0.2267  0.9689  0.2566
37376SOL    HW115021   0.892   9.427   1.884  0.2480  0.9489  0.6512
37376SOL    HW215022   0.868   9.284   1.842  0.8798  1.6634 -2.3588
37377SOL     OW15023   2.996   3.492   8.718 -0.0463  0.5390  0.1733
37377SOL    HW115024   3.020   3.410   8.761 -1.7000 -0.1518 -0.1404
37377SOL    HW215025   2.936   3.535   8.778 -0.3121  0.8249 -0.2886
37378SOL     OW15026   1.794   7.810   9.413  0.1676 -0.2655 -0.6453
37378SOL    HW115027   1.846   7.743   9.458 -1.7224 -2.6924 -1.8070
37378SOL    HW215028   1.859   7.869   9.375  1.8878 -0.3042  1.9693
37379SOL     OW15029   8.541   9.352   4.673  0.1231 -0.3327  0.0207
37379SOL    HW115030   8.568   9.260   4.677  0.7332 -0.2436 -1.4199
37379SOL    HW215031   8.591   9.389   4.600 -2.0051  0.5123 -1.1173
37380SOL     OW15032   2.544   0.106   1.691  0.1014 -0.0425  0.3449
37380SOL    HW115033   2.513   0.065   1.610  0.5638 -1.5648  0.9059
37380SOL    HW215034   2.473   0.091   1.754 -0.9124  2.4147 -0.0904
37381SOL     OW15035   2.464  10.651   2.181  0.0921  0.5184  0.2098
37381SOL    HW115036   2.403  10.603   2.125  0.4668  1.2726 -0.8746
37381SOL    HW215037   2.497  10.722   2.126  1.6440  0.3817  0.8995
37382SOL     OW15038   2.280   6.528   1.299  0.2628 -0.5063 -0.3870
37382SOL    HW115039   2.287   6.583   1.221  0.0795  0.8510  0.5270
37382SOL    HW215040   2.336   6.570   1.364 -0.5785 -0.8889  0.6177
37383SOL     OW15041   7.639   0.902   4.807 -0.4937  0.2637  0.2116
37383SOL    HW115042   7.629   0.925   4.899 -1.9402 -3.9070  1.3070
37383SOL    HW215043   7.715   0.844   4.804 -2.8669 -3.1366 -0.2173
37384SOL     OW15044  10.368   1.136   6.253 -0.0506  0.1378 -0.0827
37384SOL    HW115045  10.394   1.084   6.329  0.1390  0.3339 -0.0132
37384SOL    HW215046  10.404   1.089   6.178  0.4762  0.3878  0.0099
37385SOL     OW15047   6.479   5.535   4.560 -0.3264 -0.4977  0.2051
37385SOL    HW115048   6.408   5.600   4.558  0.6200  0.6309  1.1672
37385SOL    HW215049   6.454   5.474   4.629 -0.1674  0.1578  0.8565
37386SOL     OW15050   6.675   3.436  10.139 -0.3565 -0.4488  0.0053
37386SOL    HW115051   6.668   3.425  10.045 -1.3081  0.4597 -0.0573
37386SOL    HW215052   6.597   3.487  10.163 -0.0619 -0.5443  1.2541
37387SOL     OW15053   0.029   6.650   3.516 -0.1952 -0.0057 -0.1697
37387SOL    HW115054  -0.011   6.737   3.512  0.2536  0.2361  0.4520
37387SOL    HW215055  -0.041   6.593   3.548 -0.5566  0.0784 -0.7895
37388SOL     OW15056   8.008   3.355  10.063 -0.0617 -0.4052 -0.0792
37388SOL    HW115057   8.090   3.308  10.073 -0.0662 -0.1792  1.2807
37388SOL    HW215058   7.957   3.332  10.141 -1.2696 -0.5006 -0.8614
37389SOL     OW15059   5.230   8.548   0.870  0.1694  0.0962 -0.2464
37389SOL    HW115060   5.145   8.506   0.858  1.0889 -2.3137  0.9506
37389SOL    HW215061   5.253   8.530   0.962  2.0642  0.4642 -0.6092
37390SOL     OW15062   5.530   1.760   2.707  0.4557 -0.1138 -0.1337
37390SOL    HW115063   5.527   1.709   2.626 -0.1704 -0.2924 -0.0071
37390SOL    HW215064   5.587   1.834   2.687  0.7478 -0.4500 -0.5632
37391SOL     OW15065   4.529  10.489   1.575  0.1340  0.0577  0.2189
37391SOL    HW115066   4.616  10.511   1.609  0.0302  1.1916 -0.2072
37391SOL    HW215067   4.469  10.524   1.641 -0.0253 -2.2064  1.3867
37392SOL     OW15068   5.384   0.333  10.781  0.4361 -0.4935  0.0049
37392SOL    HW115069   5.424   0.390  10.847  1.2543 -0.1084 -0.8065
37392SOL    HW215070   5.441   0.256  10.779  1.1292  0.0335 -1.1179
37393SOL     OW15071   7.018   3.578   7.685 -0.1219  0.0183  0.6208
37393SOL    HW115072   7.019   3.659   7.735  0.1317  0.1583  0.3973
37393SOL    HW215073   7.039   3.510   7.748  1.6993  0.3615  0.4421
37394SOL     OW15074   1.089  10.749   1.553 -0.0555  0.3462  0.4328
37394SOL    HW115075   0.997  10.767   1.531  0.0639 -0.7102 -1.0566
37394SOL    HW215076   1.088  10.660   1.588  0.5529 -0.1871 -0.8528
37395SOL     OW15077   0.817  10.793   5.167 -0.3055 -0.4452  0.6242
37395SOL    HW115078   0.757  10.718   5.158  0.7805 -1.2675 -0.0079
37395SOL    HW215079   0.904  10.754   5.166  0.2716  0.7906  0.9210
37396SOL     OW15080   9.221   6.985   1.880 -0.3895 -0.1033 -0.2117
37396SOL    HW115081   9.289   7.050   1.898 -0.7726  0.0344  0.8016
37396SOL    HW215082   9.264   6.919   1.825  0.8409 -0.5001  1.1727
37397SOL     OW15083   3.206   1.788   8.725 -0.0756 -0.7329 -0.1194
37397SOL    HW115084   3.112   1.803   8.717 -0.0788 -1.1692 -1.0730
37397SOL    HW215085   3.231   1.832   8.806 -1.2301 -1.2370  0.5265
37398SOL     OW15086   8.949   7.436   1.476  0.3451  0.7542  0.0563
37398SOL    HW115087   8.944   7.532   1.475  1.1590  0.8107 -1.0291
37398SOL    HW215088   8.920   7.411   1.564  1.5178  2.0956  0.8774
37399SOL     OW15089   8.634   7.138   1.977  0.3542  0.3780  0.0638
37399SOL    HW115090   8.669   7.220   2.012  2.3321  0.3788 -1.6895
37399SOL    HW215091   8.542   7.155   1.961 -0.1484  1.0167  3.1732
37400SOL     OW15092   9.751   3.279   3.263  0.5174 -0.5657  0.0206
37400SOL    HW115093   9.709   3.358   3.299  0.4257 -1.4399  1.9424
37400SOL    HW215094   9.786   3.307   3.179 -0.0840  1.3653  0.3649
37401SOL     OW15095   6.148   2.375   5.804  0.0030  0.1923 -0.2807
37401SOL    HW115096   6.088   2.446   5.783  1.3260  1.5042  0.1972
37401SOL    HW215097   6.139   2.313   5.731 -2.1206  0.1804 -0.0595
37402SOL     OW15098   8.158   5.656   6.209 -0.7905 -0.7435 -0.4143
37402SOL    HW115099   8.211   5.725   6.250 -1.4516  0.8722 -2.1384
37402SOL    HW215100   8.070   5.692   6.206 -1.8402 -2.8982  1.2844
37403SOL     OW15101   9.309   1.176   2.847 -0.1273 -0.1404 -0.3434
37403SOL    HW115102   9.393   1.172   2.801  0.5430 -0.5948  0.8723
37403SOL    HW215103   9.333   1.188   2.939 -1.3904 -0.5710  0.0567
37404SOL     OW15104   8.113   0.105   8.180  0.0266 -0.1926  0.2342
37404SOL    HW115105   8.142   0.155   8.257 -2.2154 -0.2342  1.1834
37404SOL    HW215106   8.170   0.135   8.110  0.6792  1.5370  1.4161
37405SOL     OW15107   3.908   0.685   7.767 -0.0111 -0.3250 -0.2821
37405SOL    HW115108   3.973   0.631   7.721  1.1666  0.9109 -0.1217
37405SOL    HW215109   3.854   0.722   7.697  1.2778  0.9150 -0.6730
37406SOL     OW15110   0.119   9.934   7.108 -0.8965 -0.6398  0.4591
37406SOL    HW115111   0.081   9.933   7.196  0.2493 -1.8014  0.9673
37406SOL    HW215112   0.194   9.874   7.113 -2.2892 -2.8191 -1.9406
37407SOL     OW15113   9.235   2.998   0.297  0.0846  0.2700 -0.0410
37407SOL    HW115114   9.253   2.904   0.302  0.6992  0.3796 -0.0922
37407SOL    HW215115   9.289   3.036   0.366 -1.4399  0.4189  1.1029
37408SOL     OW15116  10.006   9.837   7.704 -0.3486  0.8472  0.3982
37408SOL    HW115117  10.031   9.911   7.648  0.9687  0.1443  0.0227
37408SOL    HW215118   9.983   9.768   7.642  0.1249  0.3857  0.7389
37409SOL     OW15119   2.692   9.598   3.857  0.4674  0.2491  0.6229
37409SOL    HW115120   2.736   9.620   3.938  1.3332 -1.2757  0.6081
37409SOL    HW215121   2.620   9.540   3.883  0.0554  0.6515  0.3986
37410SOL     OW15122   7.111   8.932   7.916 -0.7084  0.0366 -0.3286
37410SOL    HW115123   7.134   8.844   7.946  0.4000  0.9885  1.8292
37410SOL    HW215124   7.016   8.935   7.920 -0.7112 -0.7753  0.5204
37411SOL     OW15125   3.710   2.902   5.672  0.1919  0.2906  0.2205
37411SOL    HW115126   3.633   2.880   5.619 -0.5486  0.5291  1.1518
37411SOL    HW215127   3.776   2.931   5.609 -0.1748 -0.7595 -0.6753
37412SOL     OW15128   9.279   2.479   9.554 -0.1447  0.1660  0.1272
37412SOL    HW115129   9.324   2.398   9.531 -1.9249 -0.8776  0.0918
37412SOL    HW215130   9.284   2.483   9.650  0.5471  0.4136  0.0891
37413SOL     OW15131   6.136   4.763   0.598 -0.0667 -0.0371  0.1025
37413SOL    HW115132   6.122   4.725   0.685  1.4834 -0.5068  0.1817
37413SOL    HW215133   6.219   4.725   0.569 -0.4272  0.3257 -1.4778
37414SOL     OW15134   3.330   2.849   7.866 -0.0733 -0.5274  0.3761
37414SOL    HW115135   3.362   2.769   7.907  0.6644 -0.6328 -0.3858
37414SOL    HW215136   3.365   2.846   7.777  1.0341  1.2571  0.7039
37415SOL     OW15137   1.273   8.541   0.657 -0.3957 -0.2072  0.4356
37415SOL    HW115138   1.337   8.588   0.602 -1.4391  0.3410 -0.3430
37415SOL    HW215139   1.323   8.469   0.695  0.8709  0.6424  0.4385
37416SOL     OW15140   3.142   8.935   3.812  0.1167  0.0437 -0.1850
37416SOL    HW115141   3.226   8.980   3.812 -1.3451  2.9647  0.7247
37416SOL    HW215142   3.095   8.970   3.736 -0.1510 -1.9902 -1.0470
37417SOL     OW15143   4.838   1.020   6.146  0.7533 -0.3368  0.0463
37417SOL    HW115144   4.876   0.981   6.067 -0.8814  0.3958 -1.1681
37417SOL    HW215145   4.825   0.947   6.206 -3.3978 -2.1479 -2.6066
37418SOL     OW15146   6.322   6.830   2.103 -0.4144  0.5382  0.1959
37418SOL    HW115147   6.330   6.740   2.133 -0.8537  0.1441 -0.8151
37418SOL    HW215148   6.362   6.883   2.173  0.0531 -0.4466  0.6907
37419SOL     OW15149   4.844   7.215   8.300 -0.8633  0.7806 -0.4614
37419SOL    HW115150   4.775   7.155   8.270  0.2537  0.1470 -1.9263
37419SOL    HW215151   4.919   7.195   8.244  0.6277  1.2417  1.2458
37420SOL     OW15152   5.214   4.594   7.513 -0.2434 -0.4728 -0.2863
37420SOL    HW115153   5.150   4.656   7.548  1.1942  1.0701 -0.2854
37420SOL    HW215154   5.175   4.561   7.433  0.0093  2.4576 -1.7268
37421SOL     OW15155   6.788   7.161   0.301 -0.3725 -0.0283 -0.1180
37421SOL    HW115156   6.880   7.176   0.277 -0.4038  0.9626  0.3356
37421SOL    HW215157   6.754   7.248   0.319 -1.3494 -0.4153 -0.0573
37422SOL     OW15158   0.047   9.088   7.175  0.3866  0.2152 -0.0312
37422SOL    HW115159  -0.006   9.022   7.130  1.3423 -0.4000 -0.2777
37422SOL    HW215160   0.035   9.069   7.268 -3.2268  2.7373  0.2109
37423SOL     OW15161   7.865   8.398   8.737  0.3765  0.1790  0.3844
37423SOL    HW115162   7.824   8.372   8.819  0.4180  1.6502  0.8999
37423SOL    HW215163   7.803   8.371   8.669  1.2261 -2.9089  0.6577
37424SOL     OW15164   8.968   4.381   8.626 -0.0045 -0.1254 -0.5659
37424SOL    HW115165   9.036   4.319   8.652 -1.3680 -1.9246 -1.0834
37424SOL    HW215166   8.937   4.349   8.541 -3.4176 -1.1661  0.8901
37425SOL     OW15167   7.637   6.968   5.573 -0.2439  0.1631 -0.7391
37425SOL    HW115168   7.621   6.877   5.598  1.4220 -0.5641 -2.1182
37425SOL    HW215169   7.563   6.991   5.518 -0.6258 -0.3810 -0.4660
37426SOL     OW15170   2.760   6.588   7.647 -0.2140  0.0033  0.3650
37426SOL    HW115171   2.698   6.558   7.580 -1.4396 -0.0919  1.5013
37426SOL    HW215172   2.829   6.522   7.646 -0.3097 -0.0983 -0.6708
37427SOL     OW15173   9.615   9.367   3.515 -0.2473 -0.7155  0.1407
37427SOL    HW115174   9.562   9.348   3.593 -0.9421 -0.0255 -0.1517
37427SOL    HW215175   9.702   9.384   3.550 -1.0468  1.9888  1.0724
37428SOL     OW15176   1.915   2.952   3.621  0.3660 -0.2646  0.3979
37428SOL    HW115177   1.939   2.994   3.704  1.2036 -0.4406  0.2529
37428SOL    HW215178   1.966   2.999   3.555 -1.2701  0.7267 -0.1992
37429SOL     OW15179   0.723   6.705  10.021  0.1461  0.2739 -0.0550
37429SOL    HW115180   0.722   6.631   9.961  0.1008  0.5565 -0.4018
37429SOL    HW215181   0.797   6.759   9.992  0.0129  0.5046  0.0291
37430SOL     OW15182   1.120   0.994   2.714  1.0505 -0.0616  0.1232
37430SOL    HW115183   1.162   0.922   2.761  3.0017  2.2443  2.2694
37430SOL    HW215184   1.168   1.072   2.744 -0.4600  2.0679 -2.5686
37431SOL     OW15185   1.870   7.097   9.620  0.2094  0.2349 -0.7045
37431SOL    HW115186   1.868   7.001   9.624 -2.4778  0.1898 -1.4557
37431SOL    HW215187   1.862   7.117   9.527 -1.4556  1.1589 -0.3953
37432SOL     OW15188   3.433   3.469  10.417  0.0816 -0.4559  0.2259
37432SOL    HW115189   3.366   3.426  10.363 -0.5689 -0.6426  1.1642
37432SOL    HW215190   3.404   3.454  10.507  0.0965  1.5619  0.5925
37433SOL     OW15191   0.326   5.315   5.795 -0.0073  0.5954  0.1087
37433SOL    HW115192   0.279   5.386   5.750 -0.2888 -1.5796 -3.4847
37433SOL    HW215193   0.260   5.276   5.853 -1.1253  0.8230 -0.9511
37434SOL     OW15194   8.326   4.286   3.419  0.7166  0.6385 -0.6583
37434SOL    HW115195   8.374   4.314   3.497  0.7879  0.2038 -0.5460
37434SOL    HW215196   8.393   4.268   3.354  0.8422 -1.7225  0.0566
37435SOL     OW15197   7.801   1.962   9.197  0.1351  0.8046 -0.0398
37435SOL    HW115198   7.847   1.997   9.121  0.1778 -0.2564 -0.5276
37435SOL    HW215199   7.870   1.929   9.254  0.0267 -1.9462 -1.3474
37436SOL     OW15200   1.453   8.750   4.519 -0.1936  0.0612 -0.1885
37436SOL    HW115201   1.489   8.662   4.508  1.0076  0.6321 -0.9854
37436SOL    HW215202   1.435   8.756   4.613 -0.5092 -1.1032 -0.1510
37437SOL     OW15203   0.968   7.385   9.562 -0.0822 -0.2840 -0.0126
37437SOL    HW115204   0.971   7.408   9.655 -0.9156  0.7243 -0.2218
37437SOL    HW215205   0.933   7.462   9.519  2.7500  0.2633 -1.5520
37438SOL     OW15206   3.973   3.132   0.108  0.7729  0.0482 -0.0952
37438SOL    HW115207   4.044   3.122   0.044  1.7985  0.0199  1.0098
37438SOL    HW215208   4.012   3.182   0.180 -0.0529 -0.7567  0.9507
37439SOL     OW15209   5.852   7.392   2.240 -0.2949 -0.5266 -0.2964
37439SOL    HW115210   5.933   7.429   2.205  1.0419  1.3189  4.0249
37439SOL    HW215211   5.795   7.468   2.255 -1.7850 -1.5016 -0.7700
37440SOL     OW15212   6.971   2.974   9.872 -0.6439  0.4942  0.2468
37440SOL    HW115213   7.016   3.057   9.857 -1.5904  0.6581 -2.3219
37440SOL    HW215214   6.880   2.998   9.889 -0.6183  0.0191  1.1068
37441SOL     OW15215   0.417   4.143   4.407  0.5273 -0.2010 -0.2224
37441SOL    HW115216   0.375   4.069   4.451 -0.0992  0.7086  0.7476
37441SOL    HW215217   0.485   4.103   4.353  1.5823 -1.3615  1.8403
37442SOL     OW15218   9.494   0.893  10.760 -0.3288  0.3538  0.0675
37442SOL    HW115219   9.406   0.895  10.798 -0.8696 -1.1159 -1.0100
37442SOL    HW215220   9.482   0.924  10.670 -0.3864 -2.8384 -1.1370
37443SOL     OW15221   9.788   1.499   4.685 -0.2286  0.3295 -0.8927
37443SOL    HW115222   9.715   1.450   4.722  0.2048 -0.0533 -0.5367
37443SOL    HW215223   9.784   1.480   4.591 -0.6241  0.3721 -0.8887
37444SOL     OW15224   9.683   6.662   9.831  0.1763  0.2093  0.4120
37444SOL    HW115225   9.719   6.678   9.918 -0.1681  2.4699  0.1901
37444SOL    HW215226   9.612   6.725   9.822  0.7145  0.5928 -1.7968
37445SOL     OW15227   6.026  10.425   9.930  0.3080  0.6063 -0.1565
37445SOL    HW115228   6.119  10.409   9.949  0.0394 -1.5447 -0.4445
37445SOL    HW215229   6.027  10.474   9.848  1.1969  0.8314 -0.0262
37446SOL     OW15230   3.893   9.809   8.606  0.2984 -0.0749  0.4826
37446SOL    HW115231   3.953   9.737   8.585  0.7228  0.7484 -1.2893
37446SOL    HW215232   3.947   9.874   8.649  0.3694  0.0797  0.1581
37447SOL     OW15233   7.194   3.377   1.236 -0.0884  0.8680  0.2447
37447SOL    HW115234   7.176   3.285   1.212  2.0896  0.4821 -0.1046
37447SOL    HW215235   7.118   3.403   1.287 -1.7789 -0.4518 -1.4235
37448SOL     OW15236   0.887   7.587   7.474 -0.4152 -0.1263 -0.0899
37448SOL    HW115237   0.799   7.548   7.468 -0.2151 -0.4225 -2.1019
37448SOL    HW215238   0.871   7.678   7.499 -1.3759  0.0020 -1.0775
37449SOL     OW15239   2.172   5.862   0.049 -0.1905  0.1717  0.3147
37449SOL    HW115240   2.088   5.840   0.091 -1.1525  2.3851 -0.2863
37449SOL    HW215241   2.238   5.830   0.110 -1.5257  2.6261  3.3484
37450SOL     OW15242   1.614   2.582   7.124 -0.3443  0.0382 -0.1598
37450SOL    HW115243   1.675   2.636   7.174 -0.3726 -0.0052 -0.0778
37450SOL    HW215244   1.553   2.549   7.189 -0.0368 -0.4896 -0.1345
37451SOL     OW15245   7.516   7.616   1.653  0.0303 -0.0590  0.1205
37451SOL    HW115246   7.554   7.629   1.740  2.1812  2.1552 -0.9915
37451SOL    HW215247   7.588   7.579   1.602 -0.6308  0.3209 -1.1157
37452SOL     OW15248   7.910   8.582   7.231 -0.1745  0.0240 -0.3027
37452SOL    HW115249   7.893   8.536   7.149 -2.8956  0.7824 -0.2501
37452SOL    HW215250   7.832   8.635   7.246 -0.6770 -1.4671  3.7422
37453SOL     OW15251   9.777   9.532   0.885  0.0303  0.1224  0.0176
37453SOL    HW115252   9.846   9.465   0.887 -1.0497 -1.0170  0.7122
37453SOL    HW215253   9.763   9.548   0.792  1.1515  0.2899 -0.1322
37454SOL     OW15254   7.909   7.183   8.075  0.4903  0.1098 -0.0317
37454SOL    HW115255   7.991   7.133   8.069  0.8231  0.7263 -0.7254
37454SOL    HW215256   7.896   7.219   7.987 -1.7113 -1.8087 -0.5870
37455SOL     OW15257   2.809   0.001   9.663 -0.1688 -0.0348 -0.4041
37455SOL    HW115258   2.742  -0.007   9.730  0.0648  1.4303  0.0319
37455SOL    HW215259   2.792  -0.072   9.603 -0.5531 -1.2030  1.0765
37456SOL     OW15260   1.711   0.352   8.904  0.7088  0.1025  0.1842
37456SOL    HW115261   1.687   0.312   8.820  3.4951 -0.1883 -0.5434
37456SOL    HW215262   1.775   0.419   8.882  1.8184 -0.2466  2.1288
37457SOL     OW15263   5.655   8.708   2.885  0.1881  0.1401 -0.2264
37457SOL    HW115264   5.631   8.796   2.916  3.2309  0.5379  1.4456
37457SOL    HW215265   5.709   8.723   2.808  2.1503 -0.0454  1.0380
37458SOL     OW15266   4.283  10.748   3.195  0.0884 -0.1735 -0.1286
37458SOL    HW115267   4.203  10.798   3.177 -0.6758 -0.6828  1.6521
37458SOL    HW215268   4.259  10.689   3.266  1.9936 -0.5101  0.2887
37459SOL     OW15269   2.597   4.160   9.426  0.0531  0.5365  0.1678
37459SOL    HW115270   2.574   4.121   9.342 -1.6722  1.3590  0.2288
37459SOL    HW215271   2.643   4.089   9.473  0.2985 -0.1929 -1.1190
37460SOL     OW15272   5.622  10.492   6.791 -0.1187  0.0771 -0.0294
37460SOL    HW115273   5.593  10.583   6.800  2.8969  1.1349 -0.0907
37460SOL    HW215274   5.565  10.455   6.723 -1.3211  1.9251 -0.0919
37461SOL     OW15275   2.086   2.457   2.864  0.5962 -0.2207  0.4133
37461SOL    HW115276   2.026   2.419   2.928  1.7843 -1.3303  0.9036
37461SOL    HW215277   2.102   2.546   2.895  1.2841 -0.7928  1.7810
37462SOL     OW15278  10.022   5.289   6.526  0.2232  0.3698  0.1984
37462SOL    HW115279   9.956   5.341   6.480 -0.5130 -0.1945  0.6030
37462SOL    HW215280  10.069   5.242   6.457  0.2149  0.7802 -0.0910
37463SOL     OW15281   9.312   2.513   9.801  0.1736 -0.9646 -0.5173
37463SOL    HW115282   9.309   2.439   9.862 -0.4881 -0.8499 -0.4068
37463SOL    HW215283   9.396   2.556   9.820 -0.8810  0.2470  1.7199
37464SOL     OW15284   5.364   1.653   5.162 -0.1567  0.0557 -0.2178
37464SOL    HW115285   5.279   1.622   5.191 -1.0317  1.6782 -0.9384
37464SOL    HW215286   5.369   1.629   5.070  0.0554  0.1690 -0.2379
37465SOL     OW15287   3.328   0.880   4.380 -1.0594  0.1903 -0.1452
37465SOL    HW115288   3.364   0.927   4.304 -2.6610  1.8718  0.0618
37465SOL    HW215289   3.255   0.829   4.344 -0.5606 -0.6046 -0.0421
37466SOL     OW15290   2.575   4.020   9.149  0.3548  0.0446 -0.2580
37466SOL    HW115291   2.593   4.043   9.058 -1.4771 -0.6070 -0.8508
37466SOL    HW215292   2.596   3.927   9.155  1.0505  0.2217  0.1721
37467SOL     OW15293   5.050   4.456   2.256 -0.0483  0.3695  0.5501
37467SOL    HW115294   5.115   4.402   2.209 -0.2607 -0.4053  1.1270
37467SOL    HW215295   4.965   4.423   2.226 -0.1796  0.4691  0.8091
37468SOL     OW15296   4.874   6.456   6.118 -0.1297 -0.4018 -0.0658
37468SOL    HW115297   4.847   6.514   6.047  0.9088 -2.1156 -1.9718
37468SOL    HW215298   4.968   6.446   6.105  0.4314  0.5910  2.6706
37469SOL     OW15299   7.393   9.489   7.984  0.3133 -0.2886  0.0764
37469SOL    HW115300   7.412   9.418   8.046 -1.1867 -0.4650  0.3702
37469SOL    HW215301   7.341   9.448   7.915 -1.2953  0.6599  0.6790
37470SOL     OW15302   8.472   0.146  10.358  0.2336 -0.2702  0.5265
37470SOL    HW115303   8.466   0.051  10.366  1.4421 -0.4416 -0.3923
37470SOL    HW215304   8.475   0.177  10.449 -0.3711 -1.0796  0.8380
37471SOL     OW15305   2.149   5.712   9.305  0.4851 -0.3074  0.1476
37471SOL    HW115306   2.243   5.707   9.285  0.4914  1.6548 -0.5487
37471SOL    HW215307   2.146   5.728   9.399  0.8630 -0.2532  0.1532
37472SOL     OW15308   9.848   5.345   7.109  0.2603  0.1045  0.1320
37472SOL    HW115309   9.937   5.365   7.080 -0.3918  0.6527 -1.6433
37472SOL    HW215310   9.855   5.332   7.203  2.6767 -2.4071 -0.2684
37473SOL     OW15311   8.590   6.381   3.826 -0.3587 -0.0569  0.0511
37473SOL    HW115312   8.518   6.444   3.822 -0.0613  0.2247 -2.3684
37473SOL    HW215313   8.656   6.424   3.879 -0.1697  1.7478 -1.5281
37474SOL     OW15314   9.694  10.653  10.580  0.2942 -0.2461  0.1388
37474SOL    HW115315   9.724  10.582  10.637 -0.2263 -0.7180 -0.1661
37474SOL    HW215316   9.638  10.707  10.637 -0.1306 -0.6516  0.1138
37475SOL     OW15317   9.809   1.106   6.741  0.4241 -0.1966  0.0659
37475SOL    HW115318   9.738   1.067   6.791  0.5461  0.4835  0.7888
37475SOL    HW215319   9.886   1.053   6.762  0.4750  0.0875  0.6058
37476SOL     OW15320   8.401   4.596   6.152 -0.1473 -0.1618  1.1118
37476SOL    HW115321   8.418   4.619   6.060  0.4393 -2.0110  0.7120
37476SOL    HW215322   8.306   4.600   6.160 -0.1505  0.8456  0.6581
37477SOL     OW15323  10.758   4.465   0.731  0.1806  0.0004  0.4708
37477SOL    HW115324  10.779   4.401   0.663  1.0752  0.7670 -0.0144
37477SOL    HW215325  10.727   4.413   0.805  0.9851 -0.9952  0.1322
37478SOL     OW15326  10.510   8.584   3.606 -0.0331 -0.0573 -0.1102
37478SOL    HW115327  10.510   8.501   3.558 -1.5865  0.0602 -0.3583
37478SOL    HW215328  10.467   8.646   3.547 -0.0645  0.6163  0.5999
37479SOL     OW15329   5.999   6.385   2.347 -0.1941  0.0522  0.0769
37479SOL    HW115330   6.031   6.429   2.268  3.0921 -0.1027  1.1328
37479SOL    HW215331   6.046   6.301   2.348  1.3899  0.8141  3.0006
37480SOL     OW15332   5.258   0.128   6.142 -0.1725 -0.1026 -0.0166
37480SOL    HW115333   5.188   0.189   6.116  0.0867  0.1379 -0.1552
37480SOL    HW215334   5.228   0.043   6.112 -1.2842 -0.3116  1.5501
37481SOL     OW15335   1.171   3.045   1.440  0.1438  0.1374 -0.4841
37481SOL    HW115336   1.224   2.968   1.420 -0.2414 -0.2923  0.1297
37481SOL    HW215337   1.148   3.036   1.533  0.5918  1.2964 -0.2466
37482SOL     OW15338   3.897   7.851   0.109 -0.0125  0.1316 -0.2574
37482SOL    HW115339   3.804   7.827   0.108  0.3641 -1.5025  0.5299
37482SOL    HW215340   3.908   7.901   0.190 -0.3216  0.9345 -0.6965
37483SOL     OW15341   6.056   1.380   3.176 -0.2388  0.3692  0.1917
37483SOL    HW115342   6.040   1.427   3.258  1.4654  1.3991 -0.0189
37483SOL    HW215343   6.035   1.444   3.108  0.1219  0.1428 -0.1357
37484SOL     OW15344  10.341  10.573   7.636  0.0936  0.1207 -0.3333
37484SOL    HW115345  10.355  10.498   7.694  0.8593  0.4834 -0.0364
37484SOL    HW215346  10.249  10.566   7.610  0.6679 -2.1212 -2.0152
37485SOL     OW15347   0.597   8.789   8.766 -0.2611  0.6291 -0.4104
37485SOL    HW115348   0.508   8.820   8.748 -0.2695  1.1410  0.4713
37485SOL    HW215349   0.653   8.863   8.743  0.0146  0.0682 -1.6382
37486SOL     OW15350  10.119   8.454   0.897  0.1557 -0.0216  0.3145
37486SOL    HW115351  10.025   8.435   0.898  0.2172 -0.3332  0.5137
37486SOL    HW215352  10.158   8.383   0.846  0.4396 -0.7133  1.4494
37487SOL     OW15353   0.724   4.114   4.595  0.2758  0.3011  0.4793
37487SOL    HW115354   0.726   4.127   4.500 -1.7283  1.1586  0.5041
37487SOL    HW215355   0.762   4.195   4.631  0.7786  0.0906  0.4414
37488SOL     OW15356   7.393   8.527  10.691 -0.2275  0.4635  0.2166
37488SOL    HW115357   7.409   8.603  10.747  0.4997 -0.6258  1.5822
37488SOL    HW215358   7.461   8.531  10.624 -1.1542  1.8370 -0.6775
37489SOL     OW15359   5.648   9.039   2.353  0.3952  0.3213  0.1705
37489SOL    HW115360   5.613   8.990   2.279  0.3850 -0.0984  0.4533
37489SOL    HW215361   5.609   8.999   2.430  1.3888 -0.0782  0.4868
37490SOL     OW15362  10.002   2.294   1.979  1.1452  0.8646  0.0166
37490SOL    HW115363   9.997   2.344   2.060 -1.5077 -0.8748  1.0641
37490SOL    HW215364   9.939   2.336   1.921 -0.6098 -0.6784  0.6742
37491SOL     OW15365   4.718   2.264   2.801 -0.5150 -0.0590 -0.5681
37491SOL    HW115366   4.623   2.256   2.811 -1.4987  4.8297 -3.0214
37491SOL    HW215367   4.738   2.223   2.718 -1.1072  1.3681 -1.4524
37492SOL     OW15368   5.358   8.053   6.043 -0.2580  0.3741 -0.9673
37492SOL    HW115369   5.428   8.074   6.104 -0.6954  1.9240 -0.9657
37492SOL    HW215370   5.399   7.994   5.979  1.2810  1.8642 -1.4272
37493SOL     OW15371   3.871   1.439   1.550 -0.2978  0.2168 -0.8976
37493SOL    HW115372   3.902   1.379   1.482  1.4582 -0.0204  0.0428
37493SOL    HW215373   3.925   1.517   1.539  2.2930 -0.9712  2.0794
37494SOL     OW15374   3.224   4.109   9.265 -0.0833  0.0956  0.5710
37494SOL    HW115375   3.243   4.180   9.203  2.0127 -1.3140 -0.5087
37494SOL    HW215376   3.171   4.047   9.215 -0.7368  0.2439  1.0744
37495SOL     OW15377   3.452  10.248   2.054  0.2848  0.2827 -0.3340
37495SOL    HW115378   3.525  10.309   2.065  1.1792 -0.9441  0.7843
37495SOL    HW215379   3.480  10.190   1.983  1.1161 -1.1421  1.1059
37496SOL     OW15380   5.913   0.132  10.100  0.4002  0.4791 -0.0382
37496SOL    HW115381   5.962   0.114  10.020  0.9053 -1.1697  0.6125
37496SOL    HW215382   5.826   0.096  10.084  0.1999  1.0013 -0.1757
37497SOL     OW15383   3.032   2.871   3.678 -0.0388  0.3051  0.2039
37497SOL    HW115384   3.117   2.838   3.650 -0.6044 -0.6093 -0.4974
37497SOL    HW215385   2.986   2.891   3.596 -0.5641  0.6343  0.5682
37498SOL     OW15386   0.839   0.028   0.014 -0.3872 -0.0986 -0.4598
37498SOL    HW115387   0.842  -0.010   0.102 -1.2166  1.1669  0.1633
37498SOL    HW215388   0.921   0.077   0.006 -0.8887  0.8942  0.1815
37499SOL     OW15389   8.317   0.811   3.600  0.3474  0.5656  0.1683
37499SOL    HW115390   8.408   0.835   3.621  0.9984  1.3270 -2.9871
37499SOL    HW215391   8.293   0.869   3.527 -1.2143 -2.3167 -1.8184
37500SOL     OW15392   8.983   9.333   8.325 -0.1480 -0.3385  0.3023
37500SOL    HW115393   8.948   9.359   8.240  0.7850 -2.7716 -0.9201
37500SOL    HW215394   9.006   9.415   8.368 -0.0671  0.9434 -2.0448
37501SOL     OW15395  10.419   5.149   5.663  0.2321 -0.5002  0.3746
37501SOL    HW115396  10.383   5.233   5.693  2.0024  1.0684 -1.5209
37501SOL    HW215397  10.354   5.116   5.602  0.1944  0.3314 -0.0576
37502SOL     OW15398   0.946   0.058   2.287  0.1146 -0.4650  0.4208
37502SOL    HW115399   1.015   0.093   2.344  1.7787 -1.8606 -0.6295
37502SOL    HW215400   0.979   0.070   2.199 -0.3040 -2.4409 -0.0696
37503SOL     OW15401   9.578   4.149   5.832  0.5957 -0.0649 -0.3904
37503SOL    HW115402   9.525   4.213   5.785  0.2159 -0.2876 -0.2632
37503SOL    HW215403   9.558   4.164   5.924  0.9995  0.0687 -0.3206
37504SOL     OW15404   9.954   3.457   4.102 -0.8830 -0.1340  0.0005
37504SOL    HW115405   9.998   3.437   4.019 -0.5760 -0.1387  0.1619
37504SOL    HW215406   9.938   3.551   4.098  1.7156  0.4578  1.1305
37505SOL     OW15407   6.294   9.213   7.685  0.0467  0.3295  0.5746
37505SOL    HW115408   6.225   9.196   7.749 -0.1042 -1.5275 -0.0250
37505SOL    HW215409   6.371   9.233   7.738 -1.0038  3.0853  1.2549
37506SOL     OW15410   3.848   1.721   7.834 -0.0356 -0.2884  0.3482
37506SOL    HW115411   3.853   1.635   7.877 -1.2606 -1.1565 -1.1559
37506SOL    HW215412   3.773   1.764   7.875 -0.3045 -0.5231  0.1063
37507SOL     OW15413   5.714   5.329   7.903  0.4411  0.0085  0.1544
37507SOL    HW115414   5.668   5.410   7.882  1.2018 -0.1660 -2.5985
37507SOL    HW215415   5.687   5.268   7.835  1.0956 -1.5739  1.2648
37508SOL     OW15416   4.419  10.763   0.453  0.3154 -0.0215  0.3596
37508SOL    HW115417   4.502  10.767   0.406  0.1121 -0.2260 -0.0223
37508SOL    HW215418   4.378  10.681   0.423  0.0724 -0.0290  0.7024
37509SOL     OW15419  10.452   4.645  10.769 -0.2921 -0.2864 -0.4839
37509SOL    HW115420  10.399   4.585  10.718 -0.8761  0.3556 -0.6567
37509SOL    HW215421  10.404   4.654  10.852  0.1183 -0.5444 -0.2186
37510SOL     OW15422   5.622   0.907   1.140  0.3623 -0.0550  0.4699
37510SOL    HW115423   5.699   0.938   1.188  1.3413 -1.6136 -0.0489
37510SOL    HW215424   5.596   0.826   1.183  1.7524 -1.9564 -1.9862
37511SOL     OW15425   9.582   0.579   1.661  0.3282  0.4013  0.4007
37511SOL    HW115426   9.566   0.504   1.719 -0.1938 -0.1424 -0.4304
37511SOL    HW215427   9.568   0.655   1.717 -1.0364 -0.0958  0.7911
37512SOL     OW15428   7.728   7.374   7.649  0.9612 -0.0243  0.7223
37512SOL    HW115429   7.759   7.396   7.561 -1.9435  0.3149 -0.3433
37512SOL    HW215430   7.725   7.458   7.695 -2.0069  0.7120 -0.5402
37513SOL     OW15431   8.773   6.056   7.139 -0.1400  0.8787  0.1367
37513SOL    HW115432   8.700   6.058   7.201  0.5753  0.3680  1.0217
37513SOL    HW215433   8.755   5.980   7.084 -1.9702  2.6065 -1.8436
37514SOL     OW15434   7.365   1.596   4.742  0.2915 -0.2657  0.4524
37514SOL    HW115435   7.333   1.635   4.824 -1.0965 -0.0093 -0.1861
37514SOL    HW215436   7.321   1.511   4.738  2.4094 -1.4825  1.2578
37515SOL     OW15437   9.030   9.347   9.332  0.0694 -0.7577 -0.3123
37515SOL    HW115438   9.025   9.355   9.237  0.3211 -2.8584 -0.5590
37515SOL    HW215439   9.063   9.259   9.346 -0.6483 -0.7484  1.7431
37516SOL     OW15440   5.961   8.058   7.161  0.1080  0.4708  0.1550
37516SOL    HW115441   5.923   7.999   7.226  1.5924  1.1589  1.7120
37516SOL    HW215442   5.890   8.075   7.100 -2.3368  2.1157  3.1855
37517SOL     OW15443   5.991   0.807   6.962 -0.1050  0.6038 -0.1627
37517SOL    HW115444   6.002   0.783   7.054  0.1187 -2.0798 -0.7824
37517SOL    HW215445   6.032   0.893   6.954  0.9912  0.3481  1.9988
37518SOL     OW15446   8.891   0.067   0.212 -0.3426  0.3581 -0.2678
37518SOL    HW115447   8.911   0.147   0.162 -2.7995  1.1133 -0.1598
37518SOL    HW215448   8.820   0.025   0.163  0.8870 -1.8126 -0.2982
37519SOL     OW15449   5.980  10.122   8.344  0.3063  0.8698  0.1465
37519SOL    HW115450   6.074  10.127   8.330  0.4276  1.7554  1.2093
37519SOL    HW215451   5.970  10.072   8.425 -0.2081 -0.2443 -0.5689
37520SOL     OW15452   5.677   1.328   6.629 -0.2256 -0.3780  0.1471
37520SOL    HW115453   5.658   1.257   6.689 -1.2136 -0.2831 -0.0309
37520SOL    HW215454   5.769   1.349   6.644 -0.4942 -0.2492  1.7210
37521SOL     OW15455   6.037   0.811   3.532 -0.0634 -0.1598 -0.3862
37521SOL    HW115456   6.063   0.826   3.441  0.8690 -1.8717 -0.4387
37521SOL    HW215457   6.011   0.719   3.535 -2.1524  0.4013  0.6458
37522SOL     OW15458   2.660   2.019   6.586 -0.1372 -0.1974  0.4704
37522SOL    HW115459   2.572   2.052   6.570  0.1281  0.1036 -0.4332
37522SOL    HW215460   2.666   2.011   6.681 -0.5581  1.4631  0.6691
37523SOL     OW15461   8.938   4.500   0.380  0.5895  0.2344 -0.0342
37523SOL    HW115462   8.982   4.484   0.463  2.2331 -0.4721 -1.0015
37523SOL    HW215463   8.956   4.422   0.328  0.7135  1.2306 -1.5288
37524SOL     OW15464   8.520   1.097   0.578 -0.4820  0.0699  0.2664
37524SOL    HW115465   8.587   1.042   0.619 -1.4455  0.5792  2.6808
37524SOL    HW215466   8.516   1.066   0.488  1.9347 -0.9635  0.4409
37525SOL     OW15467   9.605   5.578   3.350 -0.5255  0.2722 -0.4945
37525SOL    HW115468   9.657   5.513   3.398 -1.1739  0.0818 -0.0431
37525SOL    HW215469   9.518   5.573   3.389 -0.8300  0.7496 -1.0957
37526SOL     OW15470   2.069   1.930   2.292  0.4944  0.4682 -0.0516
37526SOL    HW115471   2.093   1.853   2.241  0.0086 -0.1053  0.5734
37526SOL    HW215472   2.045   1.895   2.378  1.9917  1.4645  0.8267
37527SOL     OW15473  10.319   5.747   4.110 -0.3790 -0.2951 -0.1014
37527SOL    HW115474  10.383   5.692   4.157 -0.8588 -1.1428 -0.4246
37527SOL    HW215475  10.238   5.736   4.159 -0.7876 -0.8725 -0.8967
37528SOL     OW15476   6.702   3.006   5.288 -0.2012  0.1759  0.7731
37528SOL    HW115477   6.749   2.982   5.208 -0.1345 -1.5746  1.2776
37528SOL    HW215478   6.754   3.076   5.327  1.5020 -1.0444  0.8113
37529SOL     OW15479   5.176   3.819   9.193 -0.2482  0.0029  0.4448
37529SOL    HW115480   5.190   3.800   9.286  0.9887  1.0422  0.4998
37529SOL    HW215481   5.262   3.808   9.153 -0.5523  0.5549 -0.3872
37530SOL     OW15482   9.110   4.515   9.247 -0.3847 -0.2240 -0.0562
37530SOL    HW115483   9.087   4.486   9.158  0.4709 -1.2758  0.0514
37530SOL    HW215484   9.093   4.438   9.302  1.1807 -0.2910  0.3606
37531SOL     OW15485   1.967   3.916   2.834  0.5061 -0.1659 -0.1716
37531SOL    HW115486   1.939   3.882   2.919  0.6243 -0.5018 -0.2669
37531SOL    HW215487   2.051   3.874   2.818  0.0639 -0.8174 -0.8780
37532SOL     OW15488   4.723   5.114   4.141  0.2605 -0.5534  0.3801
37532SOL    HW115489   4.792   5.141   4.202  0.8793 -0.8079 -0.2010
37532SOL    HW215490   4.659   5.070   4.196  0.5037 -0.2165  0.9466
37533SOL     OW15491   9.312   2.938   9.524 -0.0386  0.4294 -0.2543
37533SOL    HW115492   9.338   2.862   9.472  0.5758  0.9077 -0.6687
37533SOL    HW215493   9.374   2.941   9.596 -0.8404 -0.1843  0.4755
37534SOL     OW15494   1.267  10.595   0.791 -0.3762  0.2599 -0.5196
37534SOL    HW115495   1.218  10.527   0.745  1.3335 -1.9949  0.8378
37534SOL    HW215496   1.200  10.661   0.813 -2.0653 -0.8491 -2.0262
37535SOL     OW15497   5.376   5.444   0.230 -0.3201 -0.0406  0.1854
37535SOL    HW115498   5.468   5.463   0.250 -0.5648  0.9481  0.4123
37535SOL    HW215499   5.372   5.441   0.135  0.4096 -2.5314  0.1694
37536SOL     OW15500   0.794   2.319   7.845  0.3823  0.2385 -0.0024
37536SOL    HW115501   0.743   2.306   7.765  0.6355  1.0703 -0.3184
37536SOL    HW215502   0.785   2.413   7.864 -0.3883 -0.0983  1.4422
37537SOL     OW15503   7.816   9.629   0.244 -0.2771 -0.2083 -0.4531
37537SOL    HW115504   7.892   9.611   0.189 -1.2053 -1.6087 -1.3315
37537SOL    HW215505   7.847   9.696   0.305  1.3645 -0.0358 -1.4006
37538SOL     OW15506   0.759   7.341  10.097 -0.0239  0.8533  0.0284
37538SOL    HW115507   0.664   7.350  10.089  0.0171  0.6798 -0.6743
37538SOL    HW215508   0.784   7.408  10.161 -0.4575  1.8033 -0.7705
37539SOL     OW15509  10.096   5.471   7.010 -0.5322  0.0611  0.1927
37539SOL    HW115510  10.174   5.470   7.064 -0.0149 -0.5390 -0.5379
37539SOL    HW215511  10.103   5.392   6.956 -2.4356 -0.8815  1.2127
37540SOL     OW15512  10.627   7.647   7.735 -0.4885 -0.2487  0.2894
37540SOL    HW115513  10.690   7.579   7.760  0.3000  0.6696  0.8485
37540SOL    HW215514  10.666   7.690   7.659 -1.2006 -0.6972 -0.3483
37541SOL     OW15515   2.731   6.760   2.259 -0.0566  0.4662 -0.3078
37541SOL    HW115516   2.746   6.785   2.168 -2.2310  3.2759 -0.0418
37541SOL    HW215517   2.792   6.815   2.308  1.2893 -1.2204 -0.0015
37542SOL     OW15518   3.135   8.954  10.228 -0.6420 -0.3165  0.2588
37542SOL    HW115519   3.074   8.889  10.263 -2.6120  0.5788 -1.2519
37542SOL    HW215520   3.171   8.913  10.149 -1.3852  0.1360 -0.3317
37543SOL     OW15521   6.105   3.086   4.164 -0.0857  0.1221  0.3685
37543SOL    HW115522   6.026   3.056   4.209  0.3053 -0.2880  0.8079
37543SOL    HW215523   6.176   3.040   4.209  0.3694  0.1828 -0.2721
37544SOL     OW15524   8.855   7.012   8.174  0.5777  0.6302 -0.3928
37544SOL    HW115525   8.816   6.935   8.215  2.0703 -0.1908 -0.4370
37544SOL    HW215526   8.829   7.006   8.082  1.2144 -0.1924 -0.5290
37545SOL     OW15527  10.660   1.719   1.222 -1.1098  0.5564  0.6686
37545SOL    HW115528  10.710   1.799   1.205 -1.2274  0.5554  0.3043
37545SOL    HW215529  10.625   1.731   1.311 -3.3725  2.1285 -0.3242
37546SOL     OW15530   1.853   7.269   8.368  0.2218 -0.3714 -0.2997
37546SOL    HW115531   1.761   7.245   8.377  0.3282 -0.1966  1.8031
37546SOL    HW215532   1.853   7.364   8.359  0.2264 -0.3077  0.3686
37547SOL     OW15533   4.959   8.479   0.873 -0.1665  1.0461  0.5307
37547SOL    HW115534   4.884   8.538   0.862 -0.3334  0.4897 -2.1932
37547SOL    HW215535   4.919   8.392   0.880  0.1716  0.7597 -0.8111
37548SOL     OW15536   7.423   8.485   4.488 -0.1925  0.1110  0.4077
37548SOL    HW115537   7.434   8.407   4.434 -1.6602  0.2210 -0.0858
37548SOL    HW215538   7.456   8.557   4.434  1.1798 -0.1303  0.8699
37549SOL     OW15539   6.258   1.589   1.382  0.4093  0.1441  0.2321
37549SOL    HW115540   6.303   1.603   1.298  0.0350 -1.6788 -0.3160
37549SOL    HW215541   6.289   1.661   1.438 -0.5086  2.3426 -1.9005
37550SOL     OW15542   3.568   5.690   8.778  0.5556 -0.5506 -0.1871
37550SOL    HW115543   3.657   5.655   8.785 -0.0775 -1.8992  2.3745
37550SOL    HW215544   3.524   5.660   8.858 -2.0299  0.6202 -1.0624
37551SOL     OW15545  10.186   6.158   4.498  0.6150  0.5076 -0.6763
37551SOL    HW115546  10.178   6.122   4.586  1.1235  1.2220 -0.3262
37551SOL    HW215547  10.244   6.234   4.508 -0.1795  1.2416 -1.4342
37552SOL     OW15548   8.048   5.078   4.541 -0.4345  0.3411 -0.4801
37552SOL    HW115549   8.090   5.038   4.617 -0.7599 -0.7406 -0.8597
37552SOL    HW215550   8.090   5.164   4.533  0.6362 -0.1134  0.0459
37553SOL     OW15551   1.134   8.986   4.281 -0.5250 -0.4686 -0.1813
37553SOL    HW115552   1.060   9.030   4.322 -1.1933 -0.4678 -1.3284
37553SOL    HW215553   1.211   9.031   4.314 -1.0152 -0.6109  1.2074
37554SOL     OW15554  10.075   5.712   9.426 -1.0903  0.4240  0.3681
37554SOL    HW115555  10.154   5.759   9.454 -1.5675  1.4385  0.0400
37554SOL    HW215556  10.022   5.705   9.506  0.1498 -2.0504  1.0986
37555SOL     OW15557   1.006   6.168   7.011  0.1622 -0.5131  0.3858
37555SOL    HW115558   0.984   6.234   6.946  0.5708  0.1382  0.8960
37555SOL    HW215559   0.969   6.087   6.976  0.9841 -0.3253 -1.0122
37556SOL     OW15560   7.812  10.026   2.938  0.5530  0.2064  0.2034
37556SOL    HW115561   7.790   9.969   2.864  1.1211 -0.5716  0.6125
37556SOL    HW215562   7.855   9.968   3.000  0.5804  0.9676  0.9089
37557SOL     OW15563   1.962   3.189   7.160 -0.3640 -0.0460 -0.3582
37557SOL    HW115564   1.888   3.130   7.144 -0.0887 -0.6902  0.6680
37557SOL    HW215565   2.026   3.135   7.205  0.6152  0.5915 -0.9551
37558SOL     OW15566   9.974   6.835   7.711 -0.4243  0.2481 -0.5471
37558SOL    HW115567   9.926   6.888   7.776 -2.8684 -2.0998 -0.2312
37558SOL    HW215568   9.910   6.821   7.641  0.4869 -1.3558 -1.0933
37559SOL     OW15569   6.881  10.023   3.493 -0.4670 -0.2420 -0.5071
37559SOL    HW115570   6.857  10.076   3.417 -0.8092 -0.6424 -0.6754
37559SOL    HW215571   6.918   9.943   3.457 -0.2124 -0.2435 -0.2506
37560SOL     OW15572   4.920   8.959   9.063 -0.0788 -0.0263 -0.2407
37560SOL    HW115573   4.844   8.902   9.077  0.2797 -0.6167 -0.6297
37560SOL    HW215574   4.968   8.916   8.992  1.6649 -0.7538  1.2997
37561SOL     OW15575   9.218  10.247   9.311  0.1936 -0.0953  0.0532
37561SOL    HW115576   9.184  10.303   9.242 -0.2986 -1.5244 -0.9005
37561SOL    HW215577   9.293  10.203   9.271  0.6048 -0.0897  0.8027
37562SOL     OW15578  10.404   8.073  10.587  0.4413 -0.1630  0.0301
37562SOL    HW115579  10.323   8.049  10.542 -0.7637  0.2828  1.8553
37562SOL    HW215580  10.413   8.167  10.571  1.3232 -0.4356 -1.2210
37563SOL     OW15581   3.474   2.559   2.438  0.1562 -0.4032  0.1866
37563SOL    HW115582   3.526   2.591   2.364  1.0927  1.8601  1.7167
37563SOL    HW215583   3.491   2.621   2.508 -2.4597 -1.1939  1.6618
37564SOL     OW15584   3.914   6.204   1.311  0.0305 -0.0667 -0.6028
37564SOL    HW115585   3.976   6.230   1.380  0.8554 -2.3362 -0.3886
37564SOL    HW215586   3.862   6.282   1.295  0.0770  0.6823  2.3069
37565SOL     OW15587   0.563  10.536   8.629  0.0630 -0.0342 -0.0623
37565SOL    HW115588   0.619  10.591   8.575 -0.8931  1.1882  0.1549
37565SOL    HW215589   0.595  10.447   8.614  1.1706  0.4974 -0.9813
37566SOL     OW15590   8.589   8.928   7.465 -0.0236  0.0174  0.1300
37566SOL    HW115591   8.598   8.834   7.451 -2.7645 -0.2250 -0.5165
37566SOL    HW215592   8.533   8.935   7.542  0.1859  1.1294  0.1950
37567SOL     OW15593   1.767   3.945   2.444  0.0394 -0.4500 -0.6638
37567SOL    HW115594   1.764   3.891   2.523 -0.0119  0.3527 -0.1031
37567SOL    HW215595   1.677   3.945   2.411  0.2074 -1.3972 -1.1585
37568SOL     OW15596   2.510   6.929  10.379 -0.0350 -0.4553  0.3924
37568SOL    HW115597   2.514   6.991  10.452  0.2368 -0.3036  0.2513
37568SOL    HW215598   2.496   6.984  10.302  3.3437 -0.2091 -0.1802
37569SOL     OW15599   1.900   2.811   2.683 -0.5151 -0.4607 -0.2274
37569SOL    HW115600   1.862   2.815   2.595  0.6916 -0.0063 -0.7453
37569SOL    HW215601   1.874   2.894   2.724  0.0136 -0.0896 -0.6277
37570SOL     OW15602   8.450   9.690   1.759  0.3079 -0.0911 -0.2292
37570SOL    HW115603   8.396   9.727   1.688  0.2887  1.2201  0.4411
37570SOL    HW215604   8.515   9.758   1.777 -0.6038  0.2582  2.0270
37571SOL     OW15605   5.750  10.439   3.426 -0.3411  0.6704 -0.3036
37571SOL    HW115606   5.730  10.442   3.519  0.8379  0.9233 -0.0461
37571SOL    HW215607   5.669  10.467   3.383 -1.4059 -0.9198  0.5614
37572SOL     OW15608   8.625   6.991   9.980  0.2573 -0.5052 -0.3968
37572SOL    HW115609   8.622   7.049   9.905 -0.8009 -0.3888 -0.2835
37572SOL    HW215610   8.570   6.917   9.955 -1.6444  0.3898  0.9287
37573SOL     OW15611   0.605   7.892   7.964 -0.1996 -0.3013  0.6088
37573SOL    HW115612   0.518   7.932   7.955 -0.3172 -0.4898  0.8607
37573SOL    HW215613   0.586   7.801   7.988  0.0705 -0.0651  1.8092
37574SOL     OW15614   2.635  10.431   3.175 -0.0099  0.1431  0.0191
37574SOL    HW115615   2.585  10.351   3.158 -0.2985  0.6709 -1.9452
37574SOL    HW215616   2.620  10.485   3.097  1.8672  1.2348  0.3509
37575SOL     OW15617   2.167   7.133   8.305  0.2110 -0.2236  0.5559
37575SOL    HW115618   2.093   7.164   8.253  1.1920 -0.5371 -1.0866
37575SOL    HW215619   2.169   7.039   8.291  0.4918 -0.3155  1.1756
37576SOL     OW15620   2.048   6.724   5.878 -0.4788  0.3797 -0.1752
37576SOL    HW115621   2.094   6.759   5.802  1.6617  0.5649  1.1415
37576SOL    HW215622   1.989   6.794   5.905  1.6213  1.9306  0.6577
37577SOL     OW15623   3.600   9.814   6.679 -0.2703  0.0746  0.0028
37577SOL    HW115624   3.551   9.758   6.738  1.6111 -1.4298  0.2372
37577SOL    HW215625   3.536   9.878   6.646 -2.3985 -1.9426  0.0311
37578SOL     OW15626   8.966   9.028   4.833  0.2046  0.5746 -0.4982
37578SOL    HW115627   9.058   9.003   4.830  0.2205  0.4889  0.4050
37578SOL    HW215628   8.965   9.106   4.889 -0.0110  1.8545 -2.1932
37579SOL     OW15629   1.333   9.520   6.085  0.0794  0.1954 -0.7416
37579SOL    HW115630   1.268   9.533   6.154  1.3350 -0.6916  0.6654
37579SOL    HW215631   1.304   9.577   6.014 -1.6127  0.6525  0.2653
37580SOL     OW15632  10.034   6.251  10.562 -0.5119  0.0772 -0.5130
37580SOL    HW115633   9.995   6.231  10.477 -0.0274  1.2079 -1.0364
37580SOL    HW215634   9.966   6.230  10.625 -1.0087 -0.4605 -1.2054
37581SOL     OW15635   3.472  10.503   2.815 -0.0492  0.4174  1.1884
37581SOL    HW115636   3.553  10.472   2.774 -0.8272 -0.1717  0.0382
37581SOL    HW215637   3.478  10.474   2.905  0.4489 -0.7555  0.7936
37582SOL     OW15638   0.082  10.795   1.820  0.0549 -0.2449  0.6399
37582SOL    HW115639   0.119  10.747   1.895  0.5496 -0.3738  0.3188
37582SOL    HW215640   0.155  10.803   1.758 -0.3952 -0.2927  0.0944
37583SOL     OW15641   8.897   5.110   5.562 -0.1429 -0.1902 -0.1710
37583SOL    HW115642   8.850   5.193   5.560  0.3967  0.1441 -2.5728
37583SOL    HW215643   8.990   5.135   5.565  0.0096 -0.7933  1.3606
37584SOL     OW15644   3.205   5.627   7.580 -0.0850  0.1827 -0.1526
37584SOL    HW115645   3.243   5.715   7.582  0.1082  0.1492 -1.3343
37584SOL    HW215646   3.113   5.642   7.557 -0.2378  0.1153  0.3992
37585SOL     OW15647   6.823   8.160   6.864 -0.0312  0.1795 -0.0836
37585SOL    HW115648   6.864   8.112   6.792 -0.4929  1.4563 -1.2321
37585SOL    HW215649   6.893   8.213   6.901  0.6064 -1.6599  1.5187
37586SOL     OW15650   5.102  10.246   8.063 -0.0104 -0.2535  0.2239
37586SOL    HW115651   5.027  10.265   8.120  0.8084  0.1553  1.1928
37586SOL    HW215652   5.066  10.251   7.974 -0.9085  0.9749  0.6218
37587SOL     OW15653   5.547   5.017   4.124 -0.5063  0.0419 -0.0805
37587SOL    HW115654   5.585   4.929   4.113 -1.5598 -0.5405  0.6734
37587SOL    HW215655   5.574   5.065   4.046 -0.0616 -1.0222 -0.6069
37588SOL     OW15656   3.103   7.807   0.233  0.9261 -0.1078  0.2604
37588SOL    HW115657   3.167   7.865   0.273  0.3775  0.4671  0.3340
37588SOL    HW215658   3.018   7.847   0.255  0.5983  0.0929 -1.2689
37589SOL     OW15659   7.401   4.078   5.983 -0.3299 -0.0564  0.0239
37589SOL    HW115660   7.480   4.129   6.000 -0.5810  0.2526  0.2678
37589SOL    HW215661   7.357   4.073   6.068 -0.2444 -0.7867  0.0265
37590SOL     OW15662   4.371   1.620   2.566  0.2460  0.1975  0.2006
37590SOL    HW115663   4.277   1.627   2.584 -0.2564  2.5223 -2.6638
37590SOL    HW215664   4.410   1.602   2.651 -2.7083 -0.2512  1.5916
37591SOL     OW15665   8.612   7.972   6.814 -0.2246  0.4855  0.2658
37591SOL    HW115666   8.654   8.058   6.807 -0.7869  0.7599  0.2670
37591SOL    HW215667   8.525   7.990   6.849 -0.3324 -0.0888  0.3012
37592SOL     OW15668   4.026   4.528   0.285  0.4144  0.4336 -0.2700
37592SOL    HW115669   3.956   4.536   0.220  0.1089 -0.5045 -0.0754
37592SOL    HW215670   4.037   4.617   0.319  0.0765  0.7976 -1.0831
37593SOL     OW15671   9.265  10.606   1.592  0.1752 -0.0363 -0.0338
37593SOL    HW115672   9.198  10.600   1.661  0.2893  0.3348  0.1093
37593SOL    HW215673   9.345  10.631   1.638 -0.0318  1.5183 -0.4536
37594SOL     OW15674   8.610   6.213   5.002  0.5152 -0.1298  0.1248
37594SOL    HW115675   8.527   6.257   5.022  0.4162 -0.9619  1.6697
37594SOL    HW215676   8.606   6.197   4.908 -0.2857  1.4211 -0.1401
37595SOL     OW15677   4.060   3.632   5.148  0.6004  0.1173 -0.2947
37595SOL    HW115678   3.999   3.558   5.143 -0.1488  0.4546  2.2195
37595SOL    HW215679   4.004   3.710   5.141  0.6736  0.4292  1.7198
37596SOL     OW15680   7.155   0.026   8.601  0.0713  0.1965  0.3274
37596SOL    HW115681   7.228   0.006   8.543 -0.7408 -0.1323 -0.6191
37596SOL    HW215682   7.186   0.099   8.655  1.2308 -0.2101  0.2411
37597SOL     OW15683   7.556   6.552   8.767  0.2648 -0.3833 -0.1252
37597SOL    HW115684   7.618   6.497   8.718 -0.1943 -1.4670  0.4693
37597SOL    HW215685   7.607   6.584   8.842  0.3936 -0.4120 -0.2000
37598SOL     OW15686   5.352   9.633   8.065  0.1723  0.3926  0.6940
37598SOL    HW115687   5.287   9.572   8.100 -0.1261  0.5529  0.4292
37598SOL    HW215688   5.360   9.701   8.131 -0.0019  0.4238  0.6825
37599SOL     OW15689   8.574   8.950   6.067 -0.2292 -0.5063  0.2959
37599SOL    HW115690   8.620   8.922   5.988 -1.0628 -0.0384 -0.3750
37599SOL    HW215691   8.503   9.005   6.034  0.3879  1.0670  1.4554
37600SOL     OW15692   4.655  10.474   1.927 -1.1349 -0.4441  0.4190
37600SOL    HW115693   4.570  10.509   1.954 -0.3280  2.6237 -0.5801
37600SOL    HW215694   4.719  10.534   1.966  0.5646 -2.2706  0.5796
37601SOL     OW15695   5.518   6.254  10.360 -0.5673 -0.4886 -0.0187
37601SOL    HW115696   5.560   6.264  10.275 -0.1032  2.8263  0.4802
37601SOL    HW215697   5.453   6.324  10.364 -1.2278 -1.1316  2.0129
37602SOL     OW15698   9.880   3.486   2.545 -0.3079 -0.5140  0.3236
37602SOL    HW115699   9.942   3.413   2.543  1.5029  0.8708  1.9304
37602SOL    HW215700   9.845   3.491   2.456  0.0326 -2.8391 -0.0116
37603SOL     OW15701   1.859  10.590   8.404 -0.0399  0.4122 -0.5659
37603SOL    HW115702   1.796  10.598   8.475 -0.3193  0.1300 -0.7778
37603SOL    HW215703   1.913  10.669   8.410 -0.6825  0.8622 -0.6450
37604SOL     OW15704   9.528   2.729   9.018  0.8853  0.8835 -0.2362
37604SOL    HW115705   9.534   2.663   9.086 -0.1735 -0.7686 -1.6541
37604SOL    HW215706   9.440   2.767   9.029 -0.0306 -0.6558 -1.6829
37605SOL     OW15707   6.808   0.388   9.003 -0.4310  0.5218  0.0006
37605SOL    HW115708   6.762   0.304   9.001 -4.1151  2.2760  1.5521
37605SOL    HW215709   6.891   0.369   9.046  0.2082 -2.7374 -2.2882
37606SOL     OW15710   6.041   9.432   5.295  0.0206  0.0769 -0.3455
37606SOL    HW115711   6.074   9.521   5.281  0.6582 -0.3639 -1.9704
37606SOL    HW215712   6.114   9.385   5.337  0.3560 -0.0974 -1.0917
37607SOL     OW15713   8.049   4.256   7.385 -0.2950 -0.6181  0.3584
37607SOL    HW115714   8.126   4.233   7.436  2.0186  0.7421 -2.2187
37607SOL    HW215715   8.055   4.351   7.372 -0.7145 -0.8613 -2.3116
37608SOL     OW15716   8.096   4.930   6.461 -0.1432  0.4758  0.9067
37608SOL    HW115717   8.136   4.862   6.515 -0.9899 -0.0456  0.8849
37608SOL    HW215718   8.138   4.921   6.376 -1.5033 -1.2137  0.3659
37609SOL     OW15719   4.721   2.507   5.153  0.2709 -0.1151  0.6697
37609SOL    HW115720   4.723   2.475   5.063 -1.3143  2.4323 -0.3792
37609SOL    HW215721   4.664   2.444   5.199 -0.1922 -0.5702 -0.4919
37610SOL     OW15722   6.779   5.255   6.451 -0.0433 -0.0508 -0.1258
37610SOL    HW115723   6.858   5.305   6.473 -0.4432  0.5414 -0.0331
37610SOL    HW215724   6.786   5.241   6.356  0.0930  0.1331 -0.1439
37611SOL     OW15725   0.613   2.382   0.647 -0.4316  0.2006  0.2427
37611SOL    HW115726   0.560   2.364   0.570  1.0612  0.4706 -0.9116
37611SOL    HW215727   0.553   2.376   0.720 -1.2645 -3.5356 -0.5356
37612SOL     OW15728   6.762   5.964   1.208  0.5344 -0.1397 -0.7777
37612SOL    HW115729   6.756   5.871   1.229  0.6486  0.1502  0.6744
37612SOL    HW215730   6.851   5.988   1.231  0.3885  0.4035 -0.7653
37613SOL     OW15731   9.511   3.618   8.993  0.1262  0.4873  0.0774
37613SOL    HW115732   9.532   3.538   9.041  3.0812  0.1086 -1.6471
37613SOL    HW215733   9.430   3.597   8.947 -1.2683 -0.0735  2.5817
37614SOL     OW15734   6.251   7.645   7.713  0.2510 -0.6433 -0.0022
37614SOL    HW115735   6.193   7.598   7.652 -0.5778  1.1091 -0.6339
37614SOL    HW215736   6.322   7.676   7.657 -0.9923  1.7982 -0.4001
37615SOL     OW15737   3.530   5.635   1.698  0.0783  0.0201 -0.0857
37615SOL    HW115738   3.465   5.701   1.719  0.9716  0.0735  3.1849
37615SOL    HW215739   3.480   5.561   1.663 -1.3785  0.9949 -0.1219
37616SOL     OW15740   6.632   1.370   7.429 -0.3089  0.0029 -0.6168
37616SOL    HW115741   6.694   1.300   7.411  0.7898  0.4826  1.0056
37616SOL    HW215742   6.670   1.447   7.388 -0.3300  0.1030 -0.4501
37617SOL     OW15743   1.553   4.819   5.738  0.3747 -0.4484  0.4092
37617SOL    HW115744   1.573   4.913   5.735 -0.6745 -0.1921 -2.9823
37617SOL    HW215745   1.621   4.782   5.794  1.5473  2.1649  0.8912
37618SOL     OW15746   3.756   7.117   7.037 -0.2582 -0.2497  0.1757
37618SOL    HW115747   3.713   7.187   6.989 -0.4380  0.2813  1.0933
37618SOL    HW215748   3.815   7.161   7.097  0.5938 -0.9326 -0.1349
37619SOL     OW15749   6.530   5.869   0.678  0.1163 -0.5180  0.1816
37619SOL    HW115750   6.466   5.801   0.661 -2.0957  1.1428  1.4296
37619SOL    HW215751   6.523   5.887   0.771  0.8764  1.1956 -0.0488
37620SOL     OW15752   9.434   5.497   5.403 -0.5201 -0.3970 -0.6777
37620SOL    HW115753   9.379   5.569   5.435 -1.3914 -0.3673 -2.1271
37620SOL    HW215754   9.522   5.533   5.401 -1.0578  0.9432 -2.1374
37621SOL     OW15755   6.461  10.085   8.359 -0.1537  0.9462  0.2676
37621SOL    HW115756   6.375  10.126   8.365 -1.1391 -0.8398 -0.6619
37621SOL    HW215757   6.465  10.053   8.269  2.2564  2.5341 -0.2669
37622SOL     OW15758   0.471   5.129   2.513  0.0537 -0.2293 -0.0712
37622SOL    HW115759   0.497   5.056   2.570  0.5815 -1.1293 -1.4038
37622SOL    HW215760   0.411   5.090   2.449 -0.1423  0.6398 -0.4356
37623SOL     OW15761   1.167   8.421   6.247  0.5639 -0.0066  0.1451
37623SOL    HW115762   1.136   8.507   6.218  1.0004  1.0148  2.5147
37623SOL    HW215763   1.249   8.407   6.199  0.7115  1.1000  0.0661
37624SOL     OW15764   3.055   5.455   5.859  0.0352 -0.3142  0.1075
37624SOL    HW115765   3.081   5.528   5.803  0.7173 -0.1090  0.6730
37624SOL    HW215766   3.100   5.380   5.823  2.1804  0.1841  1.5675
37625SOL     OW15767   0.027   3.935   1.822 -0.2706  0.1070 -0.3190
37625SOL    HW115768  -0.015   3.902   1.901  0.1838  1.6090  0.5980
37625SOL    HW215769   0.067   4.018   1.849 -0.1148  0.6706 -2.1324
37626SOL     OW15770   7.538   3.147   3.609 -0.4744  0.0990 -0.1319
37626SOL    HW115771   7.485   3.152   3.530 -1.4796 -0.4292  0.4782
37626SOL    HW215772   7.499   3.076   3.660  0.4690  0.0822  0.6079
37627SOL     OW15773   0.130  10.181   7.594  0.1993  0.0507  0.4310
37627SOL    HW115774   0.132  10.267   7.635  0.8473  0.7217 -0.9459
37627SOL    HW215775   0.170  10.194   7.508  2.4452 -2.0867  1.0419
37628SOL     OW15776   9.701   0.792   7.663  0.5716  0.3863 -0.2105
37628SOL    HW115777   9.703   0.886   7.677  0.0168  0.1964  1.4257
37628SOL    HW215778   9.612   0.774   7.633  1.0205  0.4973 -1.6603
37629SOL     OW15779  10.170  10.393   1.142  0.6328 -0.2887  0.0590
37629SOL    HW115780  10.218  10.441   1.210 -2.0902 -0.1203  2.0217
37629SOL    HW215781  10.238  10.349   1.091  3.0105  2.2976  0.7334
37630SOL     OW15782   0.842   1.333   4.455  0.2837  0.1484 -0.7927
37630SOL    HW115783   0.770   1.270   4.458 -0.9084  1.4229 -1.4654
37630SOL    HW215784   0.920   1.281   4.476 -0.8325 -1.2390  0.1415
37631SOL     OW15785   5.833   0.697   8.013 -0.0469 -0.0554 -0.6831
37631SOL    HW115786   5.781   0.623   7.979 -0.6341 -1.9061  3.5912
37631SOL    HW215787   5.924   0.668   8.005 -0.2932 -1.6476  1.4766
37632SOL     OW15788   6.421   6.109   3.138  0.5469  0.8518 -0.3242
37632SOL    HW115789   6.442   6.199   3.163  0.8247  0.6898  0.0381
37632SOL    HW215790   6.347   6.085   3.194  1.1354  0.5058  0.3124
37633SOL     OW15791   9.516   6.219   0.255 -0.1398 -0.3629  0.3959
37633SOL    HW115792   9.587   6.171   0.297  0.6871 -0.7936 -1.3682
37633SOL    HW215793   9.465   6.151   0.210 -0.6471  0.1210  0.2268
37634SOL     OW15794  10.141   4.763  10.361 -0.0231 -0.5156 -0.2444
37634SOL    HW115795  10.184   4.825  10.301 -0.4089  1.8404  1.7398
37634SOL    HW215796  10.205   4.692  10.372  1.9882  1.2195  0.0090
37635SOL     OW15797   7.346   4.001   8.778 -0.0042 -0.1475  0.0380
37635SOL    HW115798   7.320   3.920   8.735 -1.5796  0.6132 -0.5289
37635SOL    HW215799   7.371   4.059   8.706 -3.3897  1.3922 -0.0898
37636SOL     OW15800   8.647   8.679   7.422  0.4409  0.2081  0.2509
37636SOL    HW115801   8.596   8.604   7.392 -2.7161  2.6241 -0.9821
37636SOL    HW215802   8.699   8.705   7.346  0.0564  0.3883  0.0453
37637SOL     OW15803   4.626   3.859  10.210 -0.0757  0.3040  0.2348
37637SOL    HW115804   4.638   3.951  10.189  0.4401  0.1606 -0.1242
37637SOL    HW215805   4.638   3.854  10.305  1.2098  0.4164  0.0954
37638SOL     OW15806   6.968   4.309   3.043  0.0011  0.4816  0.3414
37638SOL    HW115807   6.946   4.359   3.122 -3.2315 -0.5211  0.2413
37638SOL    HW215808   7.026   4.240   3.074 -0.3686  0.7267  1.6595
37639SOL     OW15809  10.595   7.385   3.792  0.3759  0.5386 -0.7937
37639SOL    HW115810  10.624   7.300   3.825 -1.4068 -0.1691 -0.9209
37639SOL    HW215811  10.544   7.422   3.864 -0.2269  0.7538 -1.3238
37640SOL     OW15812   2.714   0.236   1.895 -0.3819  0.0264  0.5350
37640SOL    HW115813   2.806   0.208   1.895 -0.1724  0.6581 -0.1768
37640SOL    HW215814   2.688   0.232   1.803 -1.0594 -0.1120  0.7274
37641SOL     OW15815   0.887   4.069   4.044  0.4060 -0.5168  0.5985
37641SOL    HW115816   0.803   4.085   4.087  0.4382  2.4560 -0.1788
37641SOL    HW215817   0.949   4.056   4.115 -0.3606 -0.6271  1.2561
37642SOL     OW15818   7.759   7.984   0.897 -0.3827  0.0852 -0.3670
37642SOL    HW115819   7.834   7.978   0.956 -0.0958 -1.4210 -0.8318
37642SOL    HW215820   7.789   7.942   0.816 -1.8654 -1.0305 -0.3848
37643SOL     OW15821   5.791   3.649   9.698 -0.3276  0.4070  0.3027
37643SOL    HW115822   5.707   3.682   9.666  0.0203  0.2393 -0.8500
37643SOL    HW215823   5.854   3.718   9.676  0.0866 -0.1620 -0.3347
37644SOL     OW15824   7.069   7.738   6.643  0.0732  0.4114  0.3251
37644SOL    HW115825   7.148   7.772   6.683  1.0278 -1.0198 -0.2438
37644SOL    HW215826   7.060   7.649   6.678 -0.4224  0.0053 -0.7670
37645SOL     OW15827   2.853   9.834   0.957  0.1831 -0.0379  0.1605
37645SOL    HW115828   2.868   9.828   0.863 -0.4367 -0.9377  0.1060
37645SOL    HW215829   2.758   9.835   0.967  0.2137 -1.2362  0.8215
37646SOL     OW15830   8.597   7.296   7.259  0.3856  1.1448  0.1213
37646SOL    HW115831   8.608   7.201   7.262 -3.0280  0.5443 -1.4623
37646SOL    HW215832   8.533   7.315   7.328  0.4578  2.1890 -0.0850
37647SOL     OW15833   9.289   9.384   8.181 -0.3290  0.2271  0.1120
37647SOL    HW115834   9.225   9.382   8.110 -1.4023  3.0353  0.8670
37647SOL    HW215835   9.337   9.466   8.167 -0.3070  0.6529  2.3964
37648SOL     OW15836   7.608   0.058   5.923 -0.0997 -0.4599  0.2555
37648SOL    HW115837   7.658   0.000   5.865  0.3946  0.0704  0.1391
37648SOL    HW215838   7.546   0.101   5.864  1.5839  1.4281 -0.2858
37649SOL     OW15839   5.824   3.449   2.569 -0.1314  0.1685 -0.5114
37649SOL    HW115840   5.841   3.503   2.492 -0.0186  0.4479 -0.2945
37649SOL    HW215841   5.840   3.360   2.540 -1.5700  0.1131 -1.2409
37650SOL     OW15842   0.773   6.040   2.280 -0.7643 -0.0231  0.2221
37650SOL    HW115843   0.733   5.961   2.317  1.1756 -0.5268  1.3731
37650SOL    HW215844   0.852   6.008   2.236  0.5059  1.3138  1.4197
37651SOL     OW15845  10.058   8.900   8.282 -0.2699  0.2082 -0.2318
37651SOL    HW115846   9.984   8.925   8.226 -1.3558 -3.7739 -0.9076
37651SOL    HW215847  10.028   8.920   8.371 -1.5926 -0.0453 -0.5979
37652SOL     OW15848   7.195   6.546   5.272  0.1815 -0.4323  0.0605
37652SOL    HW115849   7.256   6.557   5.346 -0.7383 -0.2641  0.8093
37652SOL    HW215850   7.125   6.609   5.289 -0.8426 -1.4934 -0.1243
37653SOL     OW15851   4.630   8.498   1.030 -0.4636  0.1132  0.2882
37653SOL    HW115852   4.584   8.573   0.993 -0.0435 -0.2806 -1.0695
37653SOL    HW215853   4.652   8.443   0.955  1.3839 -0.1798  0.9926
37654SOL     OW15854   1.521   3.586   3.206  0.1448  0.0246 -0.2805
37654SOL    HW115855   1.611   3.561   3.228 -0.2921 -0.9101  0.5463
37654SOL    HW215856   1.526   3.679   3.186  1.3144 -0.0354 -0.3382
37655SOL     OW15857   7.456   1.637   6.115 -0.0096 -0.0616 -0.6850
37655SOL    HW115858   7.545   1.667   6.096 -0.2445  0.9745 -0.2392
37655SOL    HW215859   7.462   1.599   6.203 -0.0402  0.2224 -0.5561
37656SOL     OW15860   3.647   0.548  10.440  0.2364 -0.4195 -0.0500
37656SOL    HW115861   3.737   0.517  10.428  0.0931 -0.8635  0.0377
37656SOL    HW215862   3.638   0.558  10.535 -0.0938 -1.2408  0.0137
37657SOL     OW15863   8.032   3.437   1.804  0.5159  0.4744 -0.0512
37657SOL    HW115864   7.988   3.487   1.735  0.7378 -0.7336 -1.1130
37657SOL    HW215865   8.022   3.345   1.777 -0.2426 -0.1213  2.0298
37658SOL     OW15866  10.627   6.419   2.159 -0.4187 -0.0037  0.0035
37658SOL    HW115867  10.613   6.339   2.109  0.9504 -1.3065  1.5973
37658SOL    HW215868  10.628   6.391   2.251  2.3143  1.4249  0.5254
37659SOL     OW15869  10.214   2.432   5.221  0.9135 -0.7175  0.5078
37659SOL    HW115870  10.134   2.480   5.201  1.7177  0.2439 -0.4491
37659SOL    HW215871  10.285   2.494   5.206  1.8446 -1.4208  1.7418
37660SOL     OW15872   8.833   9.941   0.091  0.0861  0.8042  0.7584
37660SOL    HW115873   8.894   9.955   0.018  0.1350  0.9157  0.8209
37660SOL    HW215874   8.752   9.911   0.050  0.7071 -1.0081  0.7794
37661SOL     OW15875   4.654   1.800   7.637  0.0901  0.4260 -0.2156
37661SOL    HW115876   4.643   1.757   7.722 -2.0954  0.6283 -0.3421
37661SOL    HW215877   4.737   1.847   7.646  0.7846 -0.9440  1.1674
37662SOL     OW15878   6.462   7.135   0.186  0.0938  0.6476  0.3397
37662SOL    HW115879   6.483   7.081   0.110  2.3955  2.0871 -0.1169
37662SOL    HW215880   6.508   7.093   0.259 -1.6892 -0.4334  0.9078
37663SOL     OW15881   1.975   8.721   7.776 -0.1774  0.0690  0.1479
37663SOL    HW115882   1.995   8.693   7.865 -1.2608  0.7870  0.6312
37663SOL    HW215883   1.893   8.678   7.755  0.5192 -0.8136 -0.8589
37664SOL     OW15884   2.133   1.341   6.281 -0.4628  0.1679 -0.1041
37664SOL    HW115885   2.101   1.345   6.371  1.1747 -0.0640  0.5158
37664SOL    HW215886   2.228   1.351   6.289 -0.3068  0.2889 -1.8218
37665SOL     OW15887   4.048   9.839   2.676  0.1118 -0.2490  0.1209
37665SOL    HW115888   4.116   9.779   2.704  0.0896 -0.7929 -0.9225
37665SOL    HW215889   4.090   9.925   2.673  0.5309 -0.4525  0.2437
37666SOL     OW15890   9.757   1.411   0.247 -0.5509 -0.2124 -0.1275
37666SOL    HW115891   9.757   1.399   0.343  1.3429 -1.4941 -0.2435
37666SOL    HW215892   9.808   1.490   0.232  0.7239 -1.0161 -0.1409
37667SOL     OW15893   1.842   2.461   1.239 -0.5768  0.1864  0.3988
37667SOL    HW115894   1.917   2.506   1.279  0.6889 -0.7822 -0.7663
37667SOL    HW215895   1.770   2.523   1.248  0.6027  1.6023  0.6691
37668SOL     OW15896   9.640   3.276   8.002 -0.2433  0.6426  0.1157
37668SOL    HW115897   9.656   3.348   8.064 -0.7473 -0.1896  1.2421
37668SOL    HW215898   9.673   3.309   7.918  2.4603  1.0275  1.2162
37669SOL     OW15899   3.010   3.717   5.600 -0.1122  0.0159  0.0809
37669SOL    HW115900   2.942   3.784   5.592  0.3871  0.6181  0.7895
37669SOL    HW215901   3.074   3.739   5.532  2.3429  3.0270  3.0291
37670SOL     OW15902   0.176   0.744   0.148 -0.4449  0.2686  0.0392
37670SOL    HW115903   0.128   0.826   0.140  1.2895  1.5829  2.0912
37670SOL    HW215904   0.261   0.762   0.108  0.1261 -0.3715  0.9464
37671SOL     OW15905   6.501   4.020   8.131  0.2401 -0.1928 -0.2543
37671SOL    HW115906   6.566   3.999   8.198  2.2171  0.1043 -1.9513
37671SOL    HW215907   6.443   4.083   8.172  2.4689  1.3850  0.6928
37672SOL     OW15908   9.407   6.829   1.281  0.3175  0.2750 -0.6940
37672SOL    HW115909   9.412   6.782   1.365  1.1842  2.1176  0.3534
37672SOL    HW215910   9.425   6.762   1.215  2.1996 -0.7524  0.7516
37673SOL     OW15911   4.857   4.302   9.883  0.3577  0.7051  0.2033
37673SOL    HW115912   4.808   4.380   9.910  0.1480  0.2107  1.3627
37673SOL    HW215913   4.799   4.257   9.822  0.5076  1.4797 -0.5187
37674SOL     OW15914   8.530   8.265  10.404 -0.4710  0.1320  0.0402
37674SOL    HW115915   8.475   8.342  10.421 -0.6018  0.1761 -0.5751
37674SOL    HW215916   8.538   8.261  10.309  0.3738 -0.0290  0.1041
37675SOL     OW15917   0.066   6.522   5.716 -0.3945  0.2316 -0.2709
37675SOL    HW115918   0.062   6.494   5.625  2.0034 -0.1345 -0.3149
37675SOL    HW215919   0.093   6.614   5.712 -0.0234  0.1426  0.0573
37676SOL     OW15920   3.421   5.352   1.625 -0.0527  0.4114 -0.1585
37676SOL    HW115921   3.492   5.332   1.685  0.3284  3.6248  0.6691
37676SOL    HW215922   3.463   5.360   1.539  0.0262 -0.7071 -0.2270
37677SOL     OW15923   3.422   1.668   1.062 -0.3327 -0.4592 -0.4646
37677SOL    HW115924   3.406   1.672   1.156 -0.7918 -0.0968 -0.5525
37677SOL    HW215925   3.457   1.580   1.047 -2.8658 -1.5831 -0.3292
37678SOL     OW15926   5.986  10.196  10.085  0.4586  0.6030  0.1052
37678SOL    HW115927   5.973  10.286  10.057  0.6122  0.6920  0.3156
37678SOL    HW215928   6.074  10.174  10.054 -0.2766 -0.0970 -1.5821
37679SOL     OW15929   5.950   7.378   6.808  0.3109 -0.6226 -0.4428
37679SOL    HW115930   6.030   7.338   6.776  1.0101  0.3706  0.0172
37679SOL    HW215931   5.898   7.395   6.730  0.0672 -2.2194 -0.6641
37680SOL     OW15932   6.462   2.562   6.810  0.3228  0.0791  0.7405
37680SOL    HW115933   6.518   2.485   6.811 -0.8345 -0.8088  0.3160
37680SOL    HW215934   6.475   2.600   6.724 -1.3588 -1.4411 -0.2720
37681SOL     OW15935   0.854   5.252   4.890 -0.5569  0.4887 -0.0867
37681SOL    HW115936   0.811   5.211   4.965 -2.2518  2.0992 -0.0935
37681SOL    HW215937   0.947   5.253   4.913 -0.8346 -0.5534  1.2212
37682SOL     OW15938   2.978  10.481   8.386 -0.2832 -0.0180  0.0626
37682SOL    HW115939   2.923  10.519   8.454 -1.1930  0.6490 -0.9962
37682SOL    HW215940   3.005  10.556   8.332  0.4815 -0.5125 -0.2685
37683SOL     OW15941   7.180  10.141   3.715 -0.6882  0.3834  0.5212
37683SOL    HW115942   7.203  10.185   3.633  0.2180  1.0497  1.1136
37683SOL    HW215943   7.094  10.101   3.698 -0.0714 -0.3392 -1.0651
37684SOL     OW15944   7.592   4.708   8.652 -0.6885 -0.3342  0.0724
37684SOL    HW115945   7.537   4.660   8.591 -0.0688  0.5610 -1.2517
37684SOL    HW215946   7.570   4.800   8.637 -0.8189 -0.1013  1.5225
37685SOL     OW15947   0.411   3.550   0.116  0.2016 -0.2268  0.3505
37685SOL    HW115948   0.429   3.460   0.089  0.0511 -0.1586  0.0209
37685SOL    HW215949   0.340   3.542   0.180  0.2297 -0.3463  0.3675
37686SOL     OW15950   1.644  10.007   6.904 -0.2126 -0.5747 -0.3082
37686SOL    HW115951   1.696  10.041   6.831  1.5715 -0.1206  1.0939
37686SOL    HW215952   1.674   9.917   6.915  1.2127  0.0392  1.2371
37687SOL     OW15953   2.886   5.917   9.728  0.0498  0.6151 -0.2919
37687SOL    HW115954   2.898   5.974   9.804 -0.3079  1.5982 -0.9583
37687SOL    HW215955   2.905   5.829   9.761  0.3914  1.0847  0.8078
37688SOL     OW15956   5.370   3.742   5.638 -0.0214  0.0503  0.0490
37688SOL    HW115957   5.461   3.771   5.644  0.0959 -0.5821  2.0326
37688SOL    HW215958   5.321   3.821   5.616  0.9661  0.4255 -0.8986
37689SOL     OW15959   7.268   5.297   4.820 -0.8675 -0.1250  0.6453
37689SOL    HW115960   7.227   5.351   4.887  0.1321 -0.4106  1.5115
37689SOL    HW215961   7.336   5.248   4.866  0.8026  0.6908 -0.8032
37690SOL     OW15962   9.014   3.363   1.215 -0.1792 -0.1681  0.1339
37690SOL    HW115963   8.958   3.426   1.259 -1.7428 -0.9966 -0.5426
37690SOL    HW215964   9.051   3.309   1.285  0.2697  0.7762  0.6319
37691SOL     OW15965   4.682  10.797   5.964  0.1292 -0.4636 -0.2286
37691SOL    HW115966   4.680  10.708   5.928 -0.3225 -0.3102 -0.5843
37691SOL    HW215967   4.644  10.852   5.896  1.6577  0.2185 -0.5674
37692SOL     OW15968   5.882   2.093   1.311  0.7153 -0.2004 -0.2120
37692SOL    HW115969   5.836   2.161   1.262 -1.5851 -2.5807 -1.6333
37692SOL    HW215970   5.898   2.131   1.397 -2.0232  1.5545 -0.3667
37693SOL     OW15971   7.526   5.770   8.129 -0.1552  1.0194  0.3136
37693SOL    HW115972   7.514   5.846   8.072  1.0575  1.4215  0.5692
37693SOL    HW215973   7.615   5.779   8.162 -0.1824 -0.2393  0.7672
37694SOL     OW15974   9.389   4.780   7.449  0.1830  0.0815 -0.3530
37694SOL    HW115975   9.328   4.804   7.379 -1.7605 -0.1129  1.1741
37694SOL    HW215976   9.400   4.685   7.439 -1.6321 -0.2919  0.6698
37695SOL     OW15977   7.861   9.160   6.043 -0.5087 -0.0232  0.0713
37695SOL    HW115978   7.942   9.210   6.058  0.3157 -1.6166  1.2721
37695SOL    HW215979   7.819   9.155   6.128 -2.1560  1.1625 -0.6286
37696SOL     OW15980   6.713   4.811   4.445 -0.3031  0.1477  0.0487
37696SOL    HW115981   6.767   4.781   4.372 -2.2465 -0.1640 -1.3254
37696SOL    HW215982   6.637   4.851   4.403 -2.2568 -1.4477  1.8816
37697SOL     OW15983   4.298   1.936   7.163 -0.0944 -0.6753 -0.2344
37697SOL    HW115984   4.344   2.017   7.183  0.3248 -1.2576  1.3709
37697SOL    HW215985   4.250   1.916   7.244 -1.4508 -1.2073 -1.1465
37698SOL     OW15986   9.187   5.674   5.141 -0.3580  0.0010  0.1126
37698SOL    HW115987   9.184   5.666   5.046  0.7145 -0.1940  0.0871
37698SOL    HW215988   9.261   5.620   5.168 -0.7645 -0.1059  1.0823
37699SOL     OW15989   4.972   3.496   3.952  0.2862  0.1584 -0.3469
37699SOL    HW115990   4.886   3.477   3.912  0.5328  0.3938 -1.0026
37699SOL    HW215991   4.952   3.549   4.029 -0.1434  0.3481 -0.5892
37700SOL     OW15992   0.522   5.004   3.799 -0.2775  0.1157  0.1509
37700SOL    HW115993   0.507   5.050   3.881  0.2746 -0.8626  0.8367
37700SOL    HW215994   0.454   5.035   3.740 -2.3357 -1.0208  1.7716
37701SOL     OW15995   5.959   2.783   9.380  0.2198 -0.7088 -0.5212
37701SOL    HW115996   6.006   2.725   9.320  0.4383 -0.5579 -0.4966
37701SOL    HW215997   5.976   2.871   9.346  1.5626 -0.4997  0.5987
37702SOL     OW15998   4.816   7.979   8.591  0.2250 -0.8468  0.0788
37702SOL    HW115999   4.856   7.893   8.602 -0.4392 -1.2701 -0.7346
37702SOL    HW216000   4.757   7.969   8.516  0.3443  0.3848 -0.2022
37703SOL     OW16001   1.212   3.193   8.074 -0.1413  0.7335  0.3136
37703SOL    HW116002   1.257   3.265   8.117  1.0079  1.1487 -1.4621
37703SOL    HW216003   1.131   3.182   8.123 -0.0080  2.7585  1.0666
37704SOL     OW16004   4.783   5.230   2.110  0.1454  0.1224  0.0711
37704SOL    HW116005   4.848   5.165   2.082  0.8154  0.5003  0.7027
37704SOL    HW216006   4.764   5.207   2.201 -0.8661 -0.1823 -0.2118
37705SOL     OW16007   5.210   8.363   9.004 -0.2106 -0.4787  0.2896
37705SOL    HW116008   5.249   8.451   8.999 -0.4817 -0.2346  2.0551
37705SOL    HW216009   5.165   8.361   9.088 -0.2913 -2.2917  0.2392
37706SOL     OW16010   5.776   6.017   1.653 -0.5812 -0.1250  0.4481
37706SOL    HW116011   5.793   5.978   1.568  1.9903 -0.5422  1.0865
37706SOL    HW216012   5.770   6.111   1.636  1.2838 -0.0671 -0.0638
37707SOL     OW16013   6.905   7.685   2.580 -0.2026  0.3985  0.0774
37707SOL    HW116014   6.960   7.608   2.565 -0.9582 -0.1288 -0.0904
37707SOL    HW216015   6.868   7.671   2.668 -0.3859  0.5344  0.0232
37708SOL     OW16016   7.075   6.118   1.482  0.6111 -0.2520 -0.6672
37708SOL    HW116017   6.998   6.110   1.538 -0.0686  0.5648 -1.4477
37708SOL    HW216018   7.135   6.175   1.530  1.0202 -1.3971  0.2265
37709SOL     OW16019  10.647   9.350   4.823 -0.9405  0.0716  0.1688
37709SOL    HW116020  10.646   9.275   4.763 -1.0936 -0.9227  1.3849
37709SOL    HW216021  10.559   9.387   4.816 -1.5242 -1.0665  0.9913
37710SOL     OW16022   7.699   6.527  10.526 -0.3183  0.6446 -0.1874
37710SOL    HW116023   7.713   6.622  10.527  2.4166  0.3469 -1.6353
37710SOL    HW216024   7.688   6.505  10.434 -2.7511 -0.3021  0.2503
37711SOL     OW16025  10.395   0.045   5.862  0.4258 -0.4573  0.0770
37711SOL    HW116026  10.428   0.017   5.776  0.7320  0.8886 -0.2719
37711SOL    HW216027  10.301   0.056   5.849  0.5016 -0.0675 -0.1380
37712SOL     OW16028   9.652   6.948   1.481  0.0179 -0.4483  0.3993
37712SOL    HW116029   9.693   6.973   1.398 -1.3793 -0.4049 -0.3012
37712SOL    HW216030   9.589   7.018   1.498 -1.7868 -1.9028 -0.0336
37713SOL     OW16031   8.313   7.171   5.886 -0.8911 -0.0581  0.4652
37713SOL    HW116032   8.275   7.090   5.921 -1.6523 -1.0320 -2.3276
37713SOL    HW216033   8.237   7.228   5.869 -0.6677 -0.0044 -0.4267
37714SOL     OW16034  10.278   5.549   0.142 -0.1390  0.4986  0.2566
37714SOL    HW116035  10.354   5.509   0.183  1.6098  0.6970 -2.5469
37714SOL    HW216036  10.267   5.502   0.059 -2.7986  0.8199  0.3269
37715SOL     OW16037   4.712   4.864   7.355 -0.2898  0.2466  0.1098
37715SOL    HW116038   4.739   4.953   7.374 -1.7753  0.5325  1.0954
37715SOL    HW216039   4.701   4.823   7.441 -0.7368 -0.5181 -0.2973
37716SOL     OW16040   4.089   9.412   1.958  0.1732 -0.3251  0.1727
37716SOL    HW116041   4.119   9.416   1.867 -1.2915  1.2808 -0.3011
37716SOL    HW216042   4.053   9.499   1.975 -1.4681 -1.2135  1.6047
37717SOL     OW16043   9.533   8.047   6.976  0.0263  0.5607  0.3491
37717SOL    HW116044   9.441   8.024   6.989  0.1572 -0.0286  0.2456
37717SOL    HW216045   9.582   7.974   7.016  0.4444  0.1915 -0.8070
37718SOL     OW16046   1.285   9.854   1.404  0.5341 -0.1320  0.4903
37718SOL    HW116047   1.311   9.920   1.468  0.2691 -0.2911  0.7644
37718SOL    HW216048   1.239   9.788   1.455 -0.9985  0.4561 -0.0654
37719SOL     OW16049   1.759   0.151   6.782 -0.2965 -0.3562 -0.0079
37719SOL    HW116050   1.810   0.232   6.784 -0.2530 -0.3818  1.8218
37719SOL    HW216051   1.821   0.083   6.806 -0.3874 -0.9275 -1.3112
37720SOL     OW16052   7.534  10.300   7.105  0.3504  0.5554  0.1206
37720SOL    HW116053   7.600  10.252   7.056 -0.2660  0.5287 -0.7014
37720SOL    HW216054   7.450  10.272   7.068 -0.1035  1.0033  0.7651
37721SOL     OW16055   7.047   3.714   1.994  0.5044 -0.0608  0.2061
37721SOL    HW116056   6.982   3.643   1.999 -0.0351  0.4752  1.6066
37721SOL    HW216057   7.002   3.784   1.946  0.6425 -0.2879 -0.2505
37722SOL     OW16058   6.488   3.902   6.041  0.3377  0.1643  0.0443
37722SOL    HW116059   6.413   3.949   6.004 -0.2255 -1.3573 -0.8532
37722SOL    HW216060   6.466   3.889   6.133  1.6949  3.8939  1.0969
37723SOL     OW16061   5.763   7.120   3.016 -0.1044  1.2426 -0.7409
37723SOL    HW116062   5.761   7.052   2.949 -0.5023  1.2981 -0.7834
37723SOL    HW216063   5.698   7.094   3.080  1.6232  0.1369  0.6667
37724SOL     OW16064   3.770   7.654   0.985  0.2506  0.0132  0.5279
37724SOL    HW116065   3.696   7.616   0.939 -0.3181  1.1419  0.4766
37724SOL    HW216066   3.794   7.731   0.932  2.9372 -1.5294 -0.7659
37725SOL     OW16067   5.340   8.637   5.224 -0.1120 -0.2634 -0.8494
37725SOL    HW116068   5.271   8.572   5.214 -1.2734  0.7807 -0.0420
37725SOL    HW216069   5.420   8.592   5.198 -1.1235 -1.4412 -2.0669
37726SOL     OW16070   5.564   9.120   1.353  0.0004  0.5967  0.2386
37726SOL    HW116071   5.476   9.135   1.318 -0.4595  1.2575  1.6088
37726SOL    HW216072   5.592   9.038   1.312 -1.7272 -0.2332  0.6248
37727SOL     OW16073   0.815   4.473   5.635 -0.4065  0.2358  0.2996
37727SOL    HW116074   0.854   4.553   5.670 -0.0932  0.4814 -0.5854
37727SOL    HW216075   0.729   4.468   5.677 -0.4691  1.0885  0.2930
37728SOL     OW16076   2.083   0.450   1.767 -0.2549  0.0200  0.7320
37728SOL    HW116077   2.052   0.370   1.724 -1.8423  0.0339  1.7658
37728SOL    HW216078   2.070   0.519   1.702 -1.7951 -0.0986  0.8787
37729SOL     OW16079   3.280   5.374   8.863 -0.2536  0.0226 -0.3244
37729SOL    HW116080   3.334   5.405   8.936 -1.2785  0.3432  0.3124
37729SOL    HW216081   3.213   5.442   8.852  0.6272  0.6193 -2.4154
37730SOL     OW16082   9.109   7.010   2.555  0.1345 -0.4160  0.4905
37730SOL    HW116083   9.039   6.985   2.615 -0.3192 -1.9270 -0.6148
37730SOL    HW216084   9.183   6.955   2.579  1.4733  2.0833  2.5148
37731SOL     OW16085   5.714  10.199   6.783 -0.4240 -0.2509 -0.2065
37731SOL    HW116086   5.713  10.169   6.874 -0.1035  0.1638 -0.0651
37731SOL    HW216087   5.701  10.294   6.788 -3.9879 -0.5524 -0.7647
37732SOL     OW16088   3.045   3.589   0.770 -0.3553  0.2673  0.4516
37732SOL    HW116089   3.020   3.663   0.715  1.4719  0.0682 -0.7264
37732SOL    HW216090   3.032   3.512   0.715 -0.3116 -0.1232  0.9762
37733SOL     OW16091   1.672  10.075   8.970 -0.5008  0.2601 -0.9482
37733SOL    HW116092   1.606  10.139   8.945 -0.4925  0.4892 -0.3977
37733SOL    HW216093   1.682  10.020   8.892 -2.5625 -0.8423 -0.5088
37734SOL     OW16094   4.302  10.552   1.105 -0.0392 -1.0329  0.3190
37734SOL    HW116095   4.272  10.637   1.135 -2.3126 -1.6821  0.0955
37734SOL    HW216096   4.345  10.570   1.021 -3.4853 -0.3503 -1.5002
37735SOL     OW16097   2.769   4.849   5.437 -0.2357  0.0199  0.2201
37735SOL    HW116098   2.695   4.789   5.443  0.4216 -0.8108  0.1880
37735SOL    HW216099   2.841   4.803   5.479  0.2428  0.8698  0.3681
37736SOL     OW16100   7.329  10.478   8.522  0.7469  0.5446  0.6896
37736SOL    HW116101   7.302  10.467   8.613 -3.2100 -0.5403 -0.4276
37736SOL    HW216102   7.334  10.389   8.488 -0.0121  0.9865 -0.6488
37737SOL     OW16103   2.768   3.677   7.724 -0.6275 -0.0879  0.2349
37737SOL    HW116104   2.749   3.628   7.645 -0.5246 -0.0475  0.1850
37737SOL    HW216105   2.762   3.769   7.699 -0.9835 -0.0722  0.3678
37738SOL     OW16106   9.152   3.000   6.089  0.1667  0.5446  0.4098
37738SOL    HW116107   9.116   2.916   6.061  0.8970 -0.1292  1.4336
37738SOL    HW216108   9.080   3.062   6.075 -0.5918 -0.3530  0.2046
37739SOL     OW16109   3.306   1.038   1.829  0.0851 -0.0220  0.0573
37739SOL    HW116110   3.281   1.036   1.736 -0.8792 -0.5859  0.3197
37739SOL    HW216111   3.371   1.108   1.834  0.3319 -0.1432 -1.0888
37740SOL     OW16112  10.634   9.591   5.521  0.1042 -0.0148 -0.5633
37740SOL    HW116113  10.724   9.595   5.552 -0.5694 -0.6623  1.6630
37740SOL    HW216114  10.625   9.667   5.464  1.3200  1.6021  1.2616
37741SOL     OW16115   8.156   4.446   0.983 -0.3769 -0.1311 -0.1899
37741SOL    HW116116   8.210   4.371   1.009  0.0825  0.0923 -0.4859
37741SOL    HW216117   8.211   4.522   1.002  0.1300  0.0412 -2.1146
37742SOL     OW16118   5.688   1.814   6.992  0.5120 -0.0330  0.0386
37742SOL    HW116119   5.782   1.823   6.976  0.5418 -0.6354 -0.1529
37742SOL    HW216120   5.650   1.891   6.950  0.9955  0.7092  0.9208
37743SOL     OW16121   0.407   4.927   7.106  0.3791 -0.0109 -0.0704
37743SOL    HW116122   0.366   4.918   7.020 -1.6683  1.0556  0.7446
37743SOL    HW216123   0.463   4.849   7.114 -1.6463 -1.6604 -1.1689
37744SOL     OW16124   3.510   1.062   2.455 -0.0946 -0.4449  0.3619
37744SOL    HW116125   3.603   1.045   2.466  0.1668  0.2752 -0.5310
37744SOL    HW216126   3.499   1.075   2.360 -1.2354 -1.2446  0.3654
37745SOL     OW16127   1.025   8.242   8.763  0.5834 -0.4707  0.3948
37745SOL    HW116128   0.961   8.313   8.762  0.1836 -0.7576  2.3699
37745SOL    HW216129   1.110   8.286   8.765  0.3272  0.0860  3.6138
37746SOL     OW16130   4.200   1.574   8.534 -0.3475 -0.0247 -0.2991
37746SOL    HW116131   4.183   1.658   8.576 -1.6598  0.2626 -1.3322
37746SOL    HW216132   4.122   1.522   8.552 -0.3060 -0.3955 -1.1361
37747SOL     OW16133  10.576   1.680   8.200  0.4941  0.7537 -0.5011
37747SOL    HW116134  10.625   1.642   8.127 -2.4032 -2.1391 -1.1662
37747SOL    HW216135  10.617   1.643   8.278  1.4130  1.0671 -0.8210
37748SOL     OW16136   6.024   7.391   7.988  0.0041 -0.4569  0.7658
37748SOL    HW116137   6.116   7.416   7.979 -0.3414  0.8439  0.6955
37748SOL    HW216138   6.027   7.304   8.027  1.2852 -0.9004 -0.2254
37749SOL     OW16139   5.308  10.297   8.643 -0.5726 -0.5530 -0.2097
37749SOL    HW116140   5.301  10.369   8.706  0.2614 -0.0117 -0.7184
37749SOL    HW216141   5.395  10.261   8.658  0.0032  0.1821 -1.6742
37750SOL     OW16142   9.721   2.942   9.546 -0.4078 -0.0214  0.3212
37750SOL    HW116143   9.746   2.849   9.545  0.7711  0.2690  0.8206
37750SOL    HW216144   9.792   2.986   9.499 -0.2020  0.7839  1.3500
37751SOL     OW16145   1.772   5.545   1.952 -0.5554 -0.1602 -0.0302
37751SOL    HW116146   1.852   5.564   1.901  0.0107 -0.3725  0.7599
37751SOL    HW216147   1.706   5.603   1.914 -0.2679 -0.6392 -1.3005
37752SOL     OW16148   0.474   7.348   4.474 -0.0616  0.0158 -0.3360
37752SOL    HW116149   0.563   7.383   4.486 -0.3254  0.6136 -0.0706
37752SOL    HW216150   0.434   7.356   4.561 -0.3680 -0.2695 -0.4524
37753SOL     OW16151   3.135   8.359   1.399 -0.5797 -0.6185  0.0163
37753SOL    HW116152   3.050   8.362   1.355  0.3704 -1.3945 -1.9877
37753SOL    HW216153   3.123   8.297   1.471 -1.0106 -2.8763 -1.9151
37754SOL     OW16154   8.298   8.887   0.098  0.0749  0.2662 -0.1968
37754SOL    HW116155   8.384   8.921   0.071 -0.0494 -1.3016 -2.9931
37754SOL    HW216156   8.235   8.942   0.050 -0.2918 -0.9460 -1.1468
37755SOL     OW16157   7.888   1.266   6.135  0.2411 -0.3353  0.1922
37755SOL    HW116158   7.861   1.189   6.085  2.6674 -0.8661 -0.4301
37755SOL    HW216159   7.972   1.241   6.175  0.9503  1.8500  0.2403
37756SOL     OW16160   3.801   5.819   1.148  0.0233  0.2101 -0.3185
37756SOL    HW116161   3.875   5.878   1.131 -1.6840  2.7930  0.5377
37756SOL    HW216162   3.838   5.751   1.204  2.2221  0.1388 -1.7268
37757SOL     OW16163   1.682   7.791   4.601 -0.3973 -0.3503 -0.1256
37757SOL    HW116164   1.635   7.741   4.667  0.1848  0.2822  0.7981
37757SOL    HW216165   1.770   7.755   4.601  0.1244  0.8459  0.7921
37758SOL     OW16166   7.956   3.179   2.889 -0.5324  0.0038  0.4589
37758SOL    HW116167   8.026   3.122   2.922  0.2090  0.5201 -0.1669
37758SOL    HW216168   8.003   3.254   2.852 -1.4334  0.4240  0.1441
37759SOL     OW16169   6.923   5.149   8.515 -0.0444 -0.2880  0.1332
37759SOL    HW116170   6.986   5.158   8.444 -0.0990 -0.5161  0.0557
37759SOL    HW216171   6.893   5.238   8.532  0.4126 -0.1546  0.2755
37760SOL     OW16172   2.331   6.010   7.071 -0.6581 -0.1454  0.0596
37760SOL    HW116173   2.283   5.977   6.996 -0.9294  1.3919 -0.4752
37760SOL    HW216174   2.376   6.088   7.039 -1.4772  1.0620  1.6867
37761SOL     OW16175   4.113   1.515   7.539  0.4515 -0.2728  0.2373
37761SOL    HW116176   4.108   1.563   7.456  0.1587  1.2462  1.0812
37761SOL    HW216177   4.029   1.468   7.545  0.6840 -0.8067 -0.5462
37762SOL     OW16178   7.945   9.323   7.201 -0.2614 -0.2822 -0.2581
37762SOL    HW116179   7.873   9.358   7.253  0.6787 -0.2547  1.0729
37762SOL    HW216180   7.906   9.251   7.152 -0.8950 -1.2775  1.6089
37763SOL     OW16181  10.688   6.224   8.216 -0.1241  0.8518 -0.6399
37763SOL    HW116182  10.635   6.192   8.142  0.0406  1.5363 -1.0579
37763SOL    HW216183  10.761   6.270   8.175  0.4222  0.5163 -0.0534
37764SOL     OW16184   2.248   5.931   7.661 -0.2895  0.2106 -0.4031
37764SOL    HW116185   2.199   6.013   7.666 -1.6301 -0.6041  0.7190
37764SOL    HW216186   2.180   5.863   7.658  0.6415 -1.1158  3.3625
37765SOL     OW16187   8.937   6.324   9.837  0.4432 -0.5619  0.2970
37765SOL    HW116188   8.922   6.230   9.843 -0.5046 -0.4123  0.4611
37765SOL    HW216189   8.851   6.361   9.818  0.8122  0.2703  0.1961
37766SOL     OW16190   7.004  10.541   9.231  0.1684  0.0093  0.0281
37766SOL    HW116191   7.090  10.506   9.207  0.1917  0.4453 -0.5491
37766SOL    HW216192   6.949  10.524   9.154 -0.0558  0.4330  0.0931
37767SOL     OW16193   6.525   9.409   9.270 -0.2326  0.7293 -0.4745
37767SOL    HW116194   6.512   9.494   9.228 -1.9972  0.0146 -1.4880
37767SOL    HW216195   6.501   9.345   9.203 -0.3270 -0.5427  0.7213
37768SOL     OW16196   9.140   6.732   8.904  0.3005 -0.4034  0.1392
37768SOL    HW116197   9.178   6.760   8.988  1.1331  3.4674 -1.3140
37768SOL    HW216198   9.216   6.715   8.849 -0.0958  1.6857 -1.1212
37769SOL     OW16199   8.281   8.308   0.743 -0.1850  0.0474 -0.1453
37769SOL    HW116200   8.216   8.358   0.794 -1.4207 -0.1785 -1.4339
37769SOL    HW216201   8.288   8.224   0.789 -0.9107  0.0333 -0.0394
37770SOL     OW16202   1.307   6.058   8.759 -0.0052 -0.3712 -0.6273
37770SOL    HW116203   1.244   5.990   8.737  1.2400 -1.2799 -1.4892
37770SOL    HW216204   1.370   6.016   8.818 -0.1031  0.4790  0.1130
37771SOL     OW16205   7.104   9.474   3.471  0.1246 -0.5100  0.2931
37771SOL    HW116206   7.010   9.485   3.461  0.2432  1.1155  0.7699
37771SOL    HW216207   7.122   9.387   3.434 -1.2810 -0.0757 -1.5458
37772SOL     OW16208   5.358   0.553   8.595 -0.1310 -0.7254 -0.0654
37772SOL    HW116209   5.436   0.607   8.581  0.5535 -0.9851  2.2854
37772SOL    HW216210   5.389   0.463   8.591 -0.6714 -0.8843 -0.8819
37773SOL     OW16211   4.692  10.191   0.428  0.1437 -0.2067  0.5143
37773SOL    HW116212   4.621  10.134   0.398 -0.7229  0.0373  1.9665
37773SOL    HW216213   4.663  10.279   0.404 -0.4018 -0.0417  1.7119
37774SOL     OW16214   2.438   3.564   3.801  0.1955  0.2935  0.2457
37774SOL    HW116215   2.508   3.505   3.772 -0.1871 -0.1674  0.2337
37774SOL    HW216216   2.387   3.511   3.863  1.0303  1.2628  1.8447
37775SOL     OW16217   6.268   2.794   8.969  0.0583 -0.8011  0.1432
37775SOL    HW116218   6.308   2.724   9.022 -1.1991 -1.9416 -0.3543
37775SOL    HW216219   6.293   2.772   8.879  3.1690  1.7710  0.2128
37776SOL     OW16220   9.998   6.127   9.352 -0.3594  0.4997 -0.1901
37776SOL    HW116221   9.958   6.212   9.373  0.8984  0.9926  0.2798
37776SOL    HW216222  10.050   6.105   9.429  0.7999  0.2030 -1.0355
37777SOL     OW16223   8.151   6.209   5.894  0.4816  0.0647 -0.0370
37777SOL    HW116224   8.076   6.234   5.840 -1.2844  1.5380  2.8192
37777SOL    HW216225   8.123   6.126   5.935  0.8497  0.0971  0.2802
37778SOL     OW16226   4.145   0.221   2.355  0.5022 -0.3319  0.5886
37778SOL    HW116227   4.060   0.239   2.314  0.8243 -1.6501 -0.7596
37778SOL    HW216228   4.198   0.298   2.336 -0.0584  0.0323  0.4816
37779SOL     OW16229   3.096   1.827   0.706  0.0704 -0.0270  0.4434
37779SOL    HW116230   3.017   1.779   0.681  0.4522 -0.4385 -0.0046
37779SOL    HW216231   3.157   1.758   0.733  0.2242  0.3002  0.9443
37780SOL     OW16232   7.001   3.353   1.452  0.1714 -0.1437 -0.1382
37780SOL    HW116233   7.004   3.424   1.516 -1.3434 -0.5614  0.4465
37780SOL    HW216234   7.015   3.273   1.503  1.0524 -0.3394 -0.6678
37781SOL     OW16235   2.351   4.424   6.705  0.2710 -0.0937 -0.2021
37781SOL    HW116236   2.356   4.329   6.708  1.4497 -0.1185 -1.7722
37781SOL    HW216237   2.279   4.443   6.645  0.4826 -0.0040 -0.4293
37782SOL     OW16238   0.513   3.039   5.339  0.4065 -0.3200 -0.3269
37782SOL    HW116239   0.596   3.025   5.294  0.2916 -0.0632 -0.6323
37782SOL    HW216240   0.514   3.132   5.361  0.7113 -0.5646  0.7232
37783SOL     OW16241   3.183   7.337  10.669 -0.1375 -0.7758 -0.0624
37783SOL    HW116242   3.191   7.246  10.639  0.2617 -0.7391 -0.0785
37783SOL    HW216243   3.217   7.389  10.597 -0.7336 -0.5855 -0.2089
37784SOL     OW16244   4.233   1.449   2.025  0.4069  0.5783 -0.2463
37784SOL    HW116245   4.146   1.484   2.047  0.5970  0.2567  1.1258
37784SOL    HW216246   4.245   1.471   1.933 -0.8675  1.1889 -0.2921
37785SOL     OW16247   8.841   7.243   9.648  0.3736 -0.1012  0.4275
37785SOL    HW116248   8.823   7.222   9.557  2.0618  0.6667 -0.1233
37785SOL    HW216249   8.864   7.336   9.647  1.0435 -0.2414  1.5333
37786SOL     OW16250   7.277   5.573   7.404 -0.2915 -0.2122  0.7903
37786SOL    HW116251   7.364   5.612   7.402 -1.2570  2.1073 -0.1835
37786SOL    HW216252   7.254   5.570   7.497  0.5037 -0.0774  0.9976
37787SOL     OW16253  10.270   7.523  10.131 -0.1097 -0.2533  0.2388
37787SOL    HW116254  10.202   7.459  10.152 -0.0915 -0.0758  0.8546
37787SOL    HW216255  10.348   7.490  10.175 -0.3313  0.6888  1.3988
37788SOL     OW16256   3.150   8.810   6.663  0.0872  0.2547 -0.0857
37788SOL    HW116257   3.244   8.795   6.653  0.1763  0.3992  0.4907
37788SOL    HW216258   3.109   8.729   6.632  0.4577 -0.2381  0.6644
37789SOL     OW16259   1.608   8.161   5.822  0.2533  0.2748  0.3805
37789SOL    HW116260   1.530   8.180   5.770  0.0896  0.8720  0.8351
37789SOL    HW216261   1.620   8.238   5.877  0.9357  0.0209  0.6016
37790SOL     OW16262   9.695   8.483   8.432  0.3236  0.0929  0.0594
37790SOL    HW116263   9.629   8.545   8.463  0.3093 -0.1314  0.4764
37790SOL    HW216264   9.647   8.402   8.417  0.7058 -0.4580  1.5881
37791SOL     OW16265   3.354   0.069   8.302 -0.4573 -0.7241  0.3805
37791SOL    HW116266   3.324   0.059   8.393 -0.9449 -1.4058  0.1440
37791SOL    HW216267   3.430   0.127   8.309 -1.2622  0.2856  1.0882
37792SOL     OW16268   1.900   7.721   4.227 -0.4380 -0.0974  0.0883
37792SOL    HW116269   1.930   7.641   4.269  0.7597  0.2624 -0.0593
37792SOL    HW216270   1.870   7.693   4.140  1.3924 -0.2027 -0.5506
37793SOL     OW16271   0.423   3.264   9.407 -0.0734  0.1096  0.5859
37793SOL    HW116272   0.494   3.209   9.440 -1.1001 -1.8012 -0.2295
37793SOL    HW216273   0.356   3.202   9.378 -1.2023  1.8011 -0.6305
37794SOL     OW16274   9.686   3.759   7.073 -0.0940  0.0588  0.1685
37794SOL    HW116275   9.677   3.838   7.127 -1.1440 -0.2095  0.4097
37794SOL    HW216276   9.635   3.778   6.994  2.0442  0.7459 -1.1302
37795SOL     OW16277   5.324   9.257   8.030 -0.0655  0.3455 -0.5964
37795SOL    HW116278   5.327   9.232   8.123  0.0859  1.6962 -0.2110
37795SOL    HW216279   5.243   9.219   7.997 -1.3416  1.8011  0.7139
37796SOL     OW16280   8.992   2.940   8.557 -0.1747 -0.3520  0.1602
37796SOL    HW116281   8.997   2.898   8.643 -1.3488 -0.1323  0.3535
37796SOL    HW216282   9.022   3.030   8.573 -0.6717 -0.2244  0.4163
37797SOL     OW16283   4.131   6.451  10.137 -0.6245 -0.5551 -0.4276
37797SOL    HW116284   4.160   6.414  10.054  0.9083  2.1804 -1.2139
37797SOL    HW216285   4.198   6.423  10.200  0.6109  0.9030 -1.0438
37798SOL     OW16286   2.918   3.302   8.074 -0.3512 -0.2504  0.0788
37798SOL    HW116287   2.926   3.348   7.990 -1.5418  0.4783  0.3416
37798SOL    HW216288   2.948   3.365   8.139  0.8616 -0.9203  0.2139
37799SOL     OW16289   0.129   4.623  10.010 -0.4672 -0.7528 -0.2574
37799SOL    HW116290   0.185   4.619   9.933  0.5053  2.7143  0.1252
37799SOL    HW216291   0.188   4.612  10.084 -0.9082 -0.8699  0.0841
37800SOL     OW16292   9.099   8.520   5.186  0.0644  0.6581 -0.5468
37800SOL    HW116293   9.176   8.546   5.236 -0.4573 -1.1221  1.3188
37800SOL    HW216294   9.096   8.425   5.195 -2.5914  0.7046 -0.1508
37801SOL     OW16295   6.306   7.413  10.004 -0.3898 -0.9331 -1.2015
37801SOL    HW116296   6.242   7.358   9.959  1.7852 -3.9906 -0.8594
37801SOL    HW216297   6.284   7.406  10.096 -1.3079  0.5165 -1.2794
37802SOL     OW16298   9.023   4.217   9.082 -0.0685  0.2262  0.1033
37802SOL    HW116299   9.103   4.212   9.030 -0.4432 -0.5780 -0.4130
37802SOL    HW216300   8.995   4.126   9.093 -0.2108  0.3979  1.3985
37803SOL     OW16301   5.208   3.754   1.359  0.6204  0.5481 -0.0411
37803SOL    HW116302   5.248   3.829   1.403  1.6479  0.0455 -0.0952
37803SOL    HW216303   5.277   3.719   1.302  0.3434 -0.7790  0.4043
37804SOL     OW16304   2.419   6.985   6.153  0.4518 -0.0065 -0.1366
37804SOL    HW116305   2.392   7.065   6.197 -1.0178  0.1465 -1.2595
37804SOL    HW216306   2.363   6.917   6.190  0.9235 -0.3239  0.0052
37805SOL     OW16307   8.926  10.596   5.256 -0.7924 -0.2658 -0.4994
37805SOL    HW116308   8.860  10.587   5.325 -0.8853  0.5608 -0.4742
37805SOL    HW216309   8.948  10.506   5.233 -1.2393 -0.5532  0.1515
37806SOL     OW16310   8.640   2.990   9.721 -0.0138 -0.1804  1.0100
37806SOL    HW116311   8.711   2.960   9.665 -0.4064  2.0147 -0.8136
37806SOL    HW216312   8.570   2.925   9.710  0.5099 -0.6105  0.2125
37807SOL     OW16313   0.809   0.907   6.867 -0.1798  0.3350  0.0762
37807SOL    HW116314   0.851   0.886   6.783  0.2519  0.4303  0.2649
37807SOL    HW216315   0.715   0.896   6.850 -0.0256 -0.9286 -0.0682
37808SOL     OW16316   5.568   3.503   3.562 -0.1385 -0.0678  0.0974
37808SOL    HW116317   5.608   3.566   3.623 -1.1332 -0.5789  1.3179
37808SOL    HW216318   5.490   3.548   3.529 -1.1355 -0.7835  1.3589
37809SOL     OW16319   1.862   5.413   9.292 -0.0084  0.0965 -0.1475
37809SOL    HW116320   1.883   5.492   9.341  0.5541 -0.2753  0.2304
37809SOL    HW216321   1.912   5.421   9.211  0.4079 -0.0678  0.0855
37810SOL     OW16322   3.027   0.673   2.845 -0.2515  0.4424  0.1219
37810SOL    HW116323   3.078   0.639   2.772 -1.2908 -1.5939  0.2922
37810SOL    HW216324   3.034   0.605   2.912 -1.7866  0.9022  0.7764
37811SOL     OW16325   3.827  10.662   8.842 -0.2596  0.3131 -0.2557
37811SOL    HW116326   3.752  10.610   8.872  0.4170 -0.1863  0.6091
37811SOL    HW216327   3.834  10.733   8.906  1.6006 -1.1302  1.2430
37812SOL     OW16328   5.699   4.306   6.758  0.7043 -0.1116 -0.0616
37812SOL    HW116329   5.701   4.396   6.725 -0.0196 -0.0494  0.0591
37812SOL    HW216330   5.607   4.289   6.778  0.8667 -0.8005  0.1389
37813SOL     OW16331   5.598   3.041   4.584  0.1707 -0.7602 -0.0714
37813SOL    HW116332   5.543   2.963   4.591  1.1341 -1.3307  2.3087
37813SOL    HW216333   5.592   3.082   4.671  0.4890  1.2830 -0.9500
37814SOL     OW16334   4.536   1.325   6.188 -0.8105 -0.1190 -0.2442
37814SOL    HW116335   4.549   1.300   6.279 -0.0503  0.8605 -0.0693
37814SOL    HW216336   4.585   1.406   6.178  0.8540 -1.2428 -2.0496
37815SOL     OW16337   4.447   8.687   8.184  0.7240  0.3775 -0.2129
37815SOL    HW116338   4.360   8.670   8.148  0.0810  1.0318  0.9467
37815SOL    HW216339   4.499   8.612   8.157 -0.3299 -0.2706 -0.5306
37816SOL     OW16340   4.877   9.509   7.337  0.4883 -0.4186 -0.6110
37816SOL    HW116341   4.878   9.597   7.376 -0.5750  0.9664 -3.3758
37816SOL    HW216342   4.791   9.474   7.360  0.2307  0.0053 -0.9066
37817SOL     OW16343  10.626   2.864   8.828 -0.6680 -0.0929 -0.0490
37817SOL    HW116344  10.710   2.867   8.781 -0.6666  0.4324 -0.0246
37817SOL    HW216345  10.587   2.781   8.802  0.2151 -0.7193  0.5484
37818SOL     OW16346  10.487   3.741   0.473 -0.3567 -0.2616 -0.1666
37818SOL    HW116347  10.429   3.816   0.485  0.3227  0.1356  0.7843
37818SOL    HW216348  10.569   3.779   0.440 -0.5713 -0.8021 -1.3779
37819SOL     OW16349   2.898   7.452   4.452 -0.7122  0.0605 -0.3178
37819SOL    HW116350   2.833   7.520   4.471 -0.6197  0.1545 -0.3425
37819SOL    HW216351   2.918   7.414   4.538 -0.8549 -0.0199 -0.3180
37820SOL     OW16352   4.847   1.096   2.952 -0.3097 -0.3779  0.5528
37820SOL    HW116353   4.940   1.120   2.946 -0.4583 -0.0639 -0.7144
37820SOL    HW216354   4.847   1.001   2.940 -0.3720 -0.0770 -3.2879
37821SOL     OW16355   0.126   8.455   5.614 -0.0374  0.1174 -0.2683
37821SOL    HW116356   0.136   8.432   5.522  1.1407 -2.8456  0.4991
37821SOL    HW216357   0.214   8.479   5.642 -0.0416 -0.7179  0.4837
37822SOL     OW16358   0.983   0.812   5.384 -0.1477 -0.2073 -0.0499
37822SOL    HW116359   0.902   0.784   5.426 -0.7411 -1.3442 -1.8042
37822SOL    HW216360   0.971   0.788   5.292  1.3002  1.6327 -0.7721
37823SOL     OW16361   4.678   0.481   9.856 -0.1627  0.3851  0.7769
37823SOL    HW116362   4.656   0.497   9.764 -1.2592 -2.7050  0.3894
37823SOL    HW216363   4.595   0.455   9.896  0.6231  0.0234  2.2219
37824SOL     OW16364   4.215   6.858   6.875  0.0396  0.2679 -0.0733
37824SOL    HW116365   4.188   6.832   6.787  1.7864  0.1178 -0.6084
37824SOL    HW216366   4.199   6.952   6.879  2.6989  0.9052 -1.7142
37825SOL     OW16367   4.269   9.203   2.409 -0.2521  0.1618  0.2669
37825SOL    HW116368   4.260   9.173   2.500  1.9589 -1.4425  0.0469
37825SOL    HW216369   4.292   9.124   2.360 -0.3894  1.1779 -1.5081
37826SOL     OW16370   6.409   0.115   4.283 -0.4495 -0.1913 -0.0914
37826SOL    HW116371   6.418   0.030   4.242 -1.3158  0.4759 -1.7380
37826SOL    HW216372   6.316   0.136   4.276 -0.3882  0.5585  1.0035
37827SOL     OW16373   8.169   3.172   2.508  0.1805 -0.0722 -0.5548
37827SOL    HW116374   8.179   3.222   2.589  0.2703  1.8413 -1.6887
37827SOL    HW216375   8.088   3.205   2.469  0.2020 -0.8689 -1.3187
37828SOL     OW16376   3.824   9.187  10.596  0.1928 -0.4550  0.5100
37828SOL    HW116377   3.843   9.280  10.605  0.2189 -0.1536 -2.0173
37828SOL    HW216378   3.748   9.183  10.538  1.9539 -2.0238 -1.8384
37829SOL     OW16379  10.216   0.416   8.865 -0.1574  0.1034 -0.1304
37829SOL    HW116380  10.186   0.494   8.818 -1.0232  0.5452  1.1001
37829SOL    HW216381  10.296   0.390   8.819  0.1685  1.7300 -0.5524
37830SOL     OW16382   1.222   4.983  10.598 -0.0907  0.0154 -0.5742
37830SOL    HW116383   1.183   5.017  10.678  0.1827 -2.8520  0.8881
37830SOL    HW216384   1.302   4.939  10.627  0.3722 -0.5286 -2.5215
37831SOL     OW16385   7.189   5.782   7.836  0.6568 -0.1334  0.1473
37831SOL    HW116386   7.132   5.851   7.801  1.3854 -0.4806 -1.9097
37831SOL    HW216387   7.150   5.759   7.920 -1.6022  0.4061 -0.6660
37832SOL     OW16388   0.828  10.003   4.287 -0.2048 -0.1843  0.2546
37832SOL    HW116389   0.871   9.965   4.210  0.9554  1.2826  0.1504
37832SOL    HW216390   0.880   9.972   4.361  1.2329  1.7716  0.1125
37833SOL     OW16391  10.407   2.568   5.076 -0.3212  0.3309 -0.0233
37833SOL    HW116392  10.475   2.504   5.057  0.5222  1.2424 -0.2041
37833SOL    HW216393  10.442   2.619   5.149  0.0551  2.0049 -1.3003
37834SOL     OW16394   9.466   9.563   7.639  0.1106  0.4302 -0.0047
37834SOL    HW116395   9.547   9.565   7.690  0.1653  1.6548 -0.0923
37834SOL    HW216396   9.425   9.648   7.657 -2.1758 -0.9186  1.6025
37835SOL     OW16397   0.651   4.947   5.599  0.4120  0.4184  0.2127
37835SOL    HW116398   0.655   4.950   5.504 -0.7687  1.6118  0.1777
37835SOL    HW216399   0.583   5.009   5.623  1.1885  0.6963  1.8841
37836SOL     OW16400   5.459   5.141   7.824 -0.0186 -0.3335  0.5388
37836SOL    HW116401   5.403   5.165   7.898  2.8255  1.8417  2.1660
37836SOL    HW216402   5.405   5.160   7.747 -1.9978  0.3552  2.0091
37837SOL     OW16403   2.149   9.855   9.042 -0.1300 -0.7518 -0.5278
37837SOL    HW116404   2.207   9.921   9.079  0.1754 -1.4835  0.3590
37837SOL    HW216405   2.186   9.835   8.956 -1.2307  1.4715 -1.5986
37838SOL     OW16406   7.526   7.619   8.888 -0.6582  0.4012  0.1473
37838SOL    HW116407   7.574   7.701   8.875  0.3922 -0.4524 -1.7203
37838SOL    HW216408   7.594   7.551   8.884 -1.4853 -0.5849  1.7781
37839SOL     OW16409   9.896   1.678   5.893 -0.2305 -0.1825 -0.0841
37839SOL    HW116410   9.966   1.742   5.907  0.3567 -0.4016 -1.7589
37839SOL    HW216411   9.842   1.684   5.971  1.0940  0.7232  0.8067
37840SOL     OW16412   0.078   4.889   8.781  0.1940 -0.8969 -0.2512
37840SOL    HW116413   0.064   4.820   8.716  0.5281 -1.6087  0.4227
37840SOL    HW216414   0.095   4.968   8.728 -0.2042 -1.3129 -1.0251
37841SOL     OW16415   6.098   3.103   7.853 -0.3701 -0.0288  0.2312
37841SOL    HW116416   6.184   3.091   7.811 -0.2025  1.4811  0.0785
37841SOL    HW216417   6.039   3.123   7.780 -0.5128  0.5345  0.4997
37842SOL     OW16418   4.699   6.275   9.045  0.2061 -0.7266 -0.4052
37842SOL    HW116419   4.748   6.282   8.963  1.9932  0.4743  0.6919
37842SOL    HW216420   4.767   6.277   9.113 -1.3261  0.0118  1.1606
37843SOL     OW16421   7.645   8.281   3.277  0.1873  0.6358  0.4451
37843SOL    HW116422   7.711   8.211   3.275  0.1289  0.5444  1.3660
37843SOL    HW216423   7.562   8.236   3.264  0.1144  0.4714  1.3909
37844SOL     OW16424   0.751   7.098   2.158 -0.1926 -0.1733  0.0092
37844SOL    HW116425   0.696   7.146   2.220 -0.4156  0.0176 -0.3313
37844SOL    HW216426   0.743   7.148   2.076 -1.0924 -1.2433 -0.5825
37845SOL     OW16427   8.305   5.276   1.188 -0.0346  0.0905  0.2307
37845SOL    HW116428   8.271   5.208   1.129  2.5195 -1.6429  0.5781
37845SOL    HW216429   8.313   5.353   1.132 -1.3361 -0.3718 -0.6530
37846SOL     OW16430   3.954   7.656   9.495  0.0565 -0.0864 -0.1660
37846SOL    HW116431   4.015   7.630   9.564 -0.2733  0.1878  0.2353
37846SOL    HW216432   3.954   7.582   9.434 -1.1216 -1.2217  1.1244
37847SOL     OW16433   9.505   1.048   5.414 -0.4121  0.6845 -0.6352
37847SOL    HW116434   9.488   1.067   5.507 -0.9983 -0.3802 -0.5072
37847SOL    HW216435   9.600   1.036   5.409 -0.4539  0.0711 -0.0360
37848SOL     OW16436   1.814   6.912   4.589  0.4846 -0.3733  0.1575
37848SOL    HW116437   1.878   6.966   4.542  0.6850 -1.0589 -0.3737
37848SOL    HW216438   1.732   6.961   4.582  0.7449  0.0429  0.0075
37849SOL     OW16439   3.929   9.629   5.294 -0.0565 -0.0307  0.1795
37849SOL    HW116440   3.990   9.619   5.367  0.1376 -0.1991 -0.0064
37849SOL    HW216441   3.852   9.577   5.321  0.6101 -1.3581 -0.3961
37850SOL     OW16442   9.400   1.798   1.525 -0.3384 -0.2287  0.2199
37850SOL    HW116443   9.343   1.810   1.601  1.6792  1.3629  1.6114
37850SOL    HW216444   9.404   1.885   1.484 -0.2079 -0.7124 -0.8095
37851SOL     OW16445   4.381   9.220   5.962  0.7414 -0.0781 -0.3374
37851SOL    HW116446   4.333   9.266   5.892  1.3443  1.7858  0.4188
37851SOL    HW216447   4.429   9.150   5.917 -0.9580 -0.6331 -1.3991
37852SOL     OW16448   2.657   4.654   6.082 -0.1737 -0.4030  0.3946
37852SOL    HW116449   2.591   4.701   6.133 -0.4970  0.7077 -0.9719
37852SOL    HW216450   2.607   4.594   6.026  0.1246 -1.0526  0.8136
37853SOL     OW16451  10.773   8.696   0.580 -0.4657  0.0896 -0.4111
37853SOL    HW116452  10.713   8.663   0.647 -1.1783  1.6843 -0.1991
37853SOL    HW216453  10.749   8.649   0.500 -0.3776 -1.0025  0.1905
37854SOL     OW16454  10.688   2.229   3.294 -0.2828  0.1012 -0.0251
37854SOL    HW116455  10.742   2.164   3.250 -0.4138  0.4699 -0.7407
37854SOL    HW216456  10.623   2.178   3.342  0.1657 -0.3180  0.1399
37855SOL     OW16457   4.520   2.286  10.529  0.6686  0.2101 -0.2713
37855SOL    HW116458   4.585   2.355  10.540  0.0445  0.9190 -0.8172
37855SOL    HW216459   4.460   2.321  10.463 -0.6201 -0.1511  0.6653
37856SOL     OW16460   1.302   9.834   9.801 -0.0419  0.2787 -0.2779
37856SOL    HW116461   1.384   9.815   9.757 -1.1764  0.2935 -2.5561
37856SOL    HW216462   1.239   9.849   9.730 -2.3262 -1.0180  1.3040
37857SOL     OW16463   7.546   4.838   3.898  0.2369 -0.3489 -0.1841
37857SOL    HW116464   7.466   4.852   3.848  0.7803 -1.6901 -1.4887
37857SOL    HW216465   7.519   4.783   3.972 -0.1212 -0.4072 -0.3593
37858SOL     OW16466   0.281   8.091   8.369  0.3372  0.0970 -0.1946
37858SOL    HW116467   0.299   8.063   8.459  1.1715  0.3988 -0.2616
37858SOL    HW216468   0.339   8.166   8.356 -0.2268  0.4359 -0.7801
37859SOL     OW16469  10.389   3.748   8.619  0.4308 -0.6688  0.0419
37859SOL    HW116470  10.346   3.805   8.555  0.2187 -0.2895  0.5196
37859SOL    HW216471  10.385   3.796   8.701 -0.8602 -1.9048  0.7330
37860SOL     OW16472   9.141   1.169   8.971  0.3215 -0.0716  0.4171
37860SOL    HW116473   9.164   1.184   8.880 -1.9718  1.9415  0.0628
37860SOL    HW216474   9.152   1.074   8.984 -1.7496 -0.9014 -2.7489
37861SOL     OW16475   6.432   4.995   6.232  0.2413 -0.7049  0.0069
37861SOL    HW116476   6.404   4.923   6.176  0.4295 -1.6973  1.1374
37861SOL    HW216477   6.350   5.032   6.267  0.1504 -0.4621 -0.4607
37862SOL     OW16478   8.628   6.556   1.810  0.0762  0.0343 -0.4516
37862SOL    HW116479   8.608   6.635   1.859  0.1972  1.4304 -2.4970
37862SOL    HW216480   8.617   6.484   1.872 -0.5221  1.6127  1.3356
37863SOL     OW16481   2.865   7.604   6.634  0.4262  0.2261 -0.0800
37863SOL    HW116482   2.906   7.623   6.719  0.9633 -0.7145 -0.1153
37863SOL    HW216483   2.800   7.536   6.654  0.8817 -0.3418 -0.4827
37864SOL     OW16484   5.689   3.680   3.728  0.6097  0.3029  0.1706
37864SOL    HW116485   5.643   3.744   3.782  0.3538  0.4170 -0.1795
37864SOL    HW216486   5.782   3.695   3.748  0.4857 -0.5024  1.5294
37865SOL     OW16487   8.061   4.902   0.725 -0.1527 -0.0941 -0.9240
37865SOL    HW116488   8.057   4.812   0.693  0.2457 -0.4059 -0.1196
37865SOL    HW216489   8.070   4.894   0.820  0.5000  0.7722 -0.8945
37866SOL     OW16490   3.427   6.389  10.530  0.0389 -0.6557  0.0714
37866SOL    HW116491   3.391   6.313  10.575 -1.7460  0.2341  0.2335
37866SOL    HW216492   3.521   6.376  10.532 -0.1129 -1.7828  2.0236
37867SOL     OW16493   1.586   5.945   7.950 -0.1645  0.1580  0.3540
37867SOL    HW116494   1.629   5.963   8.033  1.2111 -0.8945 -0.0787
37867SOL    HW216495   1.501   5.909   7.973 -0.2918  1.0206  1.2735
37868SOL     OW16496   0.669   7.342   9.471 -0.1626  0.0596  0.4325
37868SOL    HW116497   0.705   7.327   9.559  2.4306 -1.1076 -0.7203
37868SOL    HW216498   0.746   7.356   9.416 -1.6403 -0.5389 -1.9030
37869SOL     OW16499   9.066   3.241  10.131  0.2965 -1.0569 -0.2070
37869SOL    HW116500   9.018   3.207  10.055 -1.1069  1.4529 -0.5770
37869SOL    HW216501   9.030   3.193  10.205 -2.8837  0.5892 -0.4875
37870SOL     OW16502   6.502   1.101   1.823  0.4364 -0.1020  0.3820
37870SOL    HW116503   6.518   1.140   1.909  1.4914 -0.2336  0.2676
37870SOL    HW216504   6.514   1.173   1.762 -0.2393 -0.0256  0.3356
37871SOL     OW16505   1.208  10.504   1.853  0.6829  0.0873  0.0600
37871SOL    HW116506   1.296  10.476   1.881  0.6952  0.4868  0.4350
37871SOL    HW216507   1.173  10.551   1.928 -1.5353 -3.5688  1.5848
37872SOL     OW16508  10.283   4.273   7.116 -0.0464 -0.1126  0.1952
37872SOL    HW116509  10.246   4.300   7.200  1.6178  0.6732  0.7295
37872SOL    HW216510  10.241   4.189   7.098 -0.1920 -0.4826  2.0141
37873SOL     OW16511   0.731   6.416   2.988  0.0970 -0.3734  0.0882
37873SOL    HW116512   0.803   6.375   3.036  0.9062  2.7777  1.8720
37873SOL    HW216513   0.661   6.424   3.052 -1.3166 -1.9390 -1.1856
37874SOL     OW16514   1.188   6.970   6.771 -0.1833  0.1620 -0.2307
37874SOL    HW116515   1.094   6.988   6.765 -0.4424 -0.5075  1.3651
37874SOL    HW216516   1.194   6.892   6.826  1.3077  0.1395 -0.3903
37875SOL     OW16517   8.136   3.144   6.200  0.0956  0.0525 -0.4284
37875SOL    HW116518   8.085   3.195   6.137 -1.0694 -1.2669 -0.6017
37875SOL    HW216519   8.084   3.064   6.214  0.6390  0.0252  1.7284
37876SOL     OW16520   2.928   8.741   3.454  0.6400 -0.7496  0.4022
37876SOL    HW116521   2.908   8.803   3.524  1.1280  0.4857 -0.5138
37876SOL    HW216522   2.972   8.793   3.387  0.4244 -1.9475 -0.7232
37877SOL     OW16523   0.027   0.402   5.750  0.1183 -0.2566 -0.0462
37877SOL    HW116524   0.069   0.345   5.685 -0.1191 -0.7136  0.1981
37877SOL    HW216525  -0.031   0.458   5.699  0.5537 -0.0404 -0.3182
37878SOL     OW16526   8.221  10.510   4.876  0.0261 -0.0109  0.1755
37878SOL    HW116527   8.219  10.518   4.972  2.4927 -1.8293  0.4760
37878SOL    HW216528   8.170  10.431   4.858 -0.6288  0.4566 -0.0614
37879SOL     OW16529   4.862   7.440   2.076 -0.0294  0.9794  0.2292
37879SOL    HW116530   4.905   7.368   2.121 -2.9853 -1.2135 -0.2051
37879SOL    HW216531   4.894   7.434   1.986 -2.1077 -1.5788 -0.4599
37880SOL     OW16532  10.749   4.711   2.489  0.4794 -0.2082  0.0272
37880SOL    HW116533  10.676   4.699   2.429  1.4046 -0.0469 -1.1692
37880SOL    HW216534  10.727   4.658   2.566 -1.4728  0.8290  0.2454
37881SOL     OW16535   6.280   1.970   7.972  0.7702  0.0037 -0.2990
37881SOL    HW116536   6.375   1.960   7.971  0.8417  0.6681 -0.9489
37881SOL    HW216537   6.259   1.993   8.063  1.1704 -0.6272 -0.0411
37882SOL     OW16538   3.969   7.548   1.594  0.5723 -0.0494  0.3683
37882SOL    HW116539   3.937   7.572   1.681  0.0128  0.5584  0.0056
37882SOL    HW216540   3.891   7.516   1.549  0.7831  0.0091 -0.0338
37883SOL     OW16541   1.521   4.116   5.666  0.7167  0.0554  0.2054
37883SOL    HW116542   1.472   4.192   5.696  1.1532 -0.3369  1.9884
37883SOL    HW216543   1.459   4.067   5.612 -0.0743  0.7966  0.4201
37884SOL     OW16544  10.297   4.241   3.133  0.7866  0.4859 -0.0050
37884SOL    HW116545  10.243   4.320   3.128 -0.4941 -0.1359  2.4080
37884SOL    HW216546  10.264   4.194   3.210  1.8285 -2.1819 -1.0668
37885SOL     OW16547   8.169   1.255   9.012 -0.0505 -0.0434 -0.5799
37885SOL    HW116548   8.210   1.169   9.016 -0.6884 -0.5199 -2.7179
37885SOL    HW216549   8.075   1.236   9.008 -0.3435  0.8815  1.0648
37886SOL     OW16550   0.995   6.097   0.100 -0.8153  0.0424 -0.4820
37886SOL    HW116551   0.940   6.021   0.120 -0.5380 -0.2206 -0.6875
37886SOL    HW216552   0.990   6.152   0.178 -0.5687 -0.4633 -0.1000
37887SOL     OW16553  10.747   9.765   0.724 -0.0693  0.0557 -0.0235
37887SOL    HW116554  10.674   9.711   0.694  0.7270 -1.1079  0.0952
37887SOL    HW216555  10.704   9.843   0.761 -1.1988 -0.1108 -0.9148
37888SOL     OW16556   0.554   8.143  10.207 -0.0334  0.1389 -0.2575
37888SOL    HW116557   0.527   8.123  10.297 -1.1384 -0.9481 -0.8002
37888SOL    HW216558   0.649   8.143  10.211 -0.0522 -0.5220  0.8000
37889SOL     OW16559   1.037   0.553   9.758 -0.0080 -0.2817 -0.4958
37889SOL    HW116560   1.014   0.642   9.732 -0.0838 -0.4946 -1.1848
37889SOL    HW216561   1.083   0.563   9.841 -1.5480  0.2513  0.3246
37890SOL     OW16562   3.919   5.353   0.343 -0.4842 -0.1131 -0.4042
37890SOL    HW116563   3.839   5.323   0.300 -0.7006 -3.3327  1.8793
37890SOL    HW216564   3.889   5.400   0.421 -0.1292  0.2278 -0.4660
37891SOL     OW16565   5.343   3.683   2.794  0.0712  0.3829  0.1469
37891SOL    HW116566   5.401   3.760   2.792 -0.0985  0.5130 -1.6585
37891SOL    HW216567   5.332   3.659   2.702 -1.3487 -0.7052  0.5608
37892SOL     OW16568   7.099   7.196   7.944 -0.2366  0.2288 -0.3962
37892SOL    HW116569   7.152   7.219   7.868  0.1728  2.0493  0.3731
37892SOL    HW216570   7.164   7.176   8.012 -0.5667  0.3096 -0.0569
37893SOL     OW16571   5.949   0.493   0.452 -0.1245 -0.1449 -0.2064
37893SOL    HW116572   5.996   0.575   0.435 -1.2531  0.1825 -1.9053
37893SOL    HW216573   5.863   0.520   0.485 -0.5637 -0.6332 -0.9295
37894SOL     OW16574   5.469   6.710   8.050  0.0107  0.0168  0.2918
37894SOL    HW116575   5.496   6.732   7.961 -0.6532  0.6454  0.2423
37894SOL    HW216576   5.479   6.791   8.100  0.5825 -0.3829  0.8464
37895SOL     OW16577   8.441   9.765   6.716  0.3779 -0.3804 -0.2068
37895SOL    HW116578   8.387   9.767   6.795 -0.4770  0.0610 -0.7801
37895SOL    HW216579   8.530   9.783   6.746  0.1864 -0.9457  0.7399
37896SOL     OW16580   0.361   5.083   1.223  0.1372  0.5842 -0.4947
37896SOL    HW116581   0.377   5.175   1.201  0.1071  0.9075  0.7889
37896SOL    HW216582   0.292   5.086   1.289  0.7446 -0.3107  0.1943
37897SOL     OW16583  10.296   1.459   2.835  0.0128 -0.8523  0.0062
37897SOL    HW116584  10.263   1.396   2.898 -0.8022 -1.1120 -0.6721
37897SOL    HW216585  10.276   1.544   2.874 -0.3385 -1.0111  0.1762
37898SOL     OW16586   8.904  10.142   9.583  0.4376  0.1218  0.2773
37898SOL    HW116587   8.866  10.119   9.667  0.9528  0.9725  0.7621
37898SOL    HW216588   8.864  10.226   9.560  0.6359  0.1187 -0.1051
37899SOL     OW16589   2.634   6.856   7.466  0.1048  0.6094  0.1508
37899SOL    HW116590   2.553   6.829   7.510 -0.9951 -0.8230 -2.5505
37899SOL    HW216591   2.624   6.950   7.452  0.2446  1.0028  2.3004
37900SOL     OW16592   8.794   5.991   6.881 -0.3341  0.2533  0.3995
37900SOL    HW116593   8.707   5.962   6.854 -0.6093 -0.2961  1.8230
37900SOL    HW216594   8.819   6.056   6.815 -2.1315  0.9910  0.4131
37901SOL     OW16595   7.988   3.753   2.718 -0.1458 -0.3985  0.0712
37901SOL    HW116596   8.061   3.781   2.774  0.8168 -0.9532 -0.8506
37901SOL    HW216597   8.031   3.713   2.642 -1.4332 -0.9625 -0.3848
37902SOL     OW16598   1.641   6.511   2.170 -0.3696  0.2924  0.2170
37902SOL    HW116599   1.603   6.589   2.212 -0.9348  1.2527 -1.9454
37902SOL    HW216600   1.601   6.437   2.216 -0.3274  1.2558  1.8745
37903SOL     OW16601   7.195   8.658   4.334 -0.8482  0.2107  0.0601
37903SOL    HW116602   7.280   8.618   4.320 -0.9215  0.0282  0.1323
37903SOL    HW216603   7.136   8.585   4.353 -1.5782  0.0649 -2.4833
37904SOL     OW16604   3.463  10.580   3.697 -0.4584 -0.7017 -0.1653
37904SOL    HW116605   3.414  10.663   3.691 -0.9515 -1.0811 -1.9134
37904SOL    HW216606   3.551  10.607   3.722 -0.7294  0.2996 -0.2180
37905SOL     OW16607   2.278   2.280   6.300 -0.4140  0.7951 -0.0318
37905SOL    HW116608   2.325   2.252   6.222  1.7851  3.4913  0.1731
37905SOL    HW216609   2.329   2.244   6.373  0.2819  2.1166  0.1651
37906SOL     OW16610   0.550   5.652   7.497 -0.4581 -0.1767 -0.1634
37906SOL    HW116611   0.456   5.667   7.486 -0.7172 -0.6968  1.1383
37906SOL    HW216612   0.558   5.612   7.584  1.0642  0.7213  0.1483
37907SOL     OW16613   5.174  10.727   5.853 -0.4693  0.3580  0.0617
37907SOL    HW116614   5.125  10.648   5.829 -1.4368  0.8977  0.1728
37907SOL    HW216615   5.257  10.695   5.888 -2.0721 -0.8317  3.1454
37908SOL     OW16616   5.863   5.144   2.511 -0.5728 -0.3962  0.0525
37908SOL    HW116617   5.803   5.212   2.540  0.0801 -0.1004  0.7331
37908SOL    HW216618   5.936   5.191   2.472 -0.6830 -0.7497 -0.6037
37909SOL     OW16619   7.486   1.319   1.230 -0.3535  0.3196  0.1805
37909SOL    HW116620   7.522   1.344   1.315  0.3053 -1.3245  0.4166
37909SOL    HW216621   7.479   1.223   1.234  0.4038  0.1328 -1.8703
37910SOL     OW16622   9.784   8.292   6.848  0.0216 -0.4078  0.9546
37910SOL    HW116623   9.760   8.375   6.806  1.8617 -0.4008 -0.2205
37910SOL    HW216624   9.822   8.240   6.777  2.0903 -0.9050  2.3418
37911SOL     OW16625   2.132   3.614   0.014  0.1235 -0.5780 -0.2748
37911SOL    HW116626   2.114   3.520   0.021  1.3221 -0.7855  0.1703
37911SOL    HW216627   2.045   3.654   0.011 -0.4082 -1.6856 -0.3355
37912SOL     OW16628   7.161  10.430   5.670  0.3161 -0.0641 -0.0354
37912SOL    HW116629   7.166  10.516   5.627 -1.4220 -0.3518 -0.9052
37912SOL    HW216630   7.079  10.392   5.638 -0.6463 -0.6756  2.8505
37913SOL     OW16631   7.255   8.601   1.554 -0.4046 -0.3452 -0.3857
37913SOL    HW116632   7.337   8.567   1.591  0.7784  1.3780 -1.2579
37913SOL    HW216633   7.283   8.655   1.480 -2.3219  0.4973 -0.5516
37914SOL     OW16634  10.045   3.883   7.747 -0.1321  0.2738  0.1600
37914SOL    HW116635  10.028   3.876   7.841 -1.7402 -1.3021 -0.1748
37914SOL    HW216636   9.959   3.898   7.708  0.4589  0.5535 -1.0887
37915SOL     OW16637   0.703   0.537   2.824 -0.5489  0.0580  0.0062
37915SOL    HW116638   0.690   0.607   2.760  0.0125  0.1735  0.0141
37915SOL    HW216639   0.630   0.547   2.886 -1.9176 -0.9178 -1.3622
37916SOL     OW16640   0.260   0.731   8.056 -0.4053  0.0042  0.4198
37916SOL    HW116641   0.245   0.683   7.975 -1.2631  0.3986  0.3343
37916SOL    HW216642   0.226   0.819   8.039  1.6839  0.8585  0.3704
37917SOL     OW16643   1.452   9.847   6.092  0.1674  0.3885  0.0182
37917SOL    HW116644   1.461   9.941   6.078 -1.7411  0.4465 -1.1979
37917SOL    HW216645   1.476   9.807   6.009  1.5193 -0.2845  0.6932
37918SOL     OW16646   4.711   3.627   7.937  0.4487  0.1868  0.4905
37918SOL    HW116647   4.742   3.540   7.909 -0.8976 -0.5517  1.1652
37918SOL    HW216648   4.657   3.609   8.014 -1.7772  1.3323 -0.7095
37919SOL     OW16649   2.380   0.677   4.085 -0.2222  0.4575  0.3216
37919SOL    HW116650   2.385   0.766   4.119 -0.6779  0.2909  0.8405
37919SOL    HW216651   2.330   0.629   4.151  1.4835 -0.5952  0.8802
37920SOL     OW16652   4.662   7.814   8.219 -0.0642  0.2301 -0.0499
37920SOL    HW116653   4.656   7.909   8.209 -0.5989  0.0272 -2.0704
37920SOL    HW216654   4.750   7.792   8.188  0.2046  0.0899  0.7899
37921SOL     OW16655   1.011   9.409   8.554  0.7412 -0.0136  0.6318
37921SOL    HW116656   0.926   9.411   8.597  0.0648 -0.2150 -0.6567
37921SOL    HW216657   0.998   9.458   8.473  1.8171 -0.1887  0.3343
37922SOL     OW16658   7.524   0.682   1.946 -0.1495 -0.0812  0.7586
37922SOL    HW116659   7.604   0.729   1.968 -0.0990 -0.1756  0.7778
37922SOL    HW216660   7.454   0.737   1.980 -0.0196 -0.9577  2.5888
37923SOL     OW16661  10.314   4.430   2.003  0.1336  0.2597 -0.3319
37923SOL    HW116662  10.366   4.426   1.923 -0.9873  0.3108 -1.0802
37923SOL    HW216663  10.327   4.345   2.045  0.7221  0.2354 -0.5518
37924SOL     OW16664   6.150   6.732   7.974 -0.2609 -0.1055  0.2276
37924SOL    HW116665   6.145   6.787   8.053  1.7428 -0.7071  0.8325
37924SOL    HW216666   6.193   6.652   8.004 -0.3141 -0.7243 -1.2931
37925SOL     OW16667   8.447   0.253   8.180 -0.5465  0.1557  0.4314
37925SOL    HW116668   8.446   0.348   8.185  0.5011  0.2382 -0.6350
37925SOL    HW216669   8.527   0.227   8.227 -0.8549 -0.2104  0.7655
37926SOL     OW16670  10.706   5.380   4.414 -0.0408  0.4233 -0.0435
37926SOL    HW116671  10.611   5.377   4.407  0.0610  0.3028 -3.5043
37926SOL    HW216672  10.734   5.290   4.397  0.7072  0.3848  1.2993
37927SOL     OW16673   5.040   7.174   9.576  0.0790 -0.3697 -0.4276
37927SOL    HW116674   5.132   7.172   9.551  0.8126 -2.1442  2.0512
37927SOL    HW216675   4.993   7.188   9.493  2.5327  0.8907 -1.7112
37928SOL     OW16676   6.854   3.789   2.503  0.1229 -0.5418 -0.3415
37928SOL    HW116677   6.914   3.823   2.569 -0.8239 -0.4697  0.5111
37928SOL    HW216678   6.897   3.710   2.470  0.7048 -0.4692  0.2242
37929SOL     OW16679   0.276   4.317   1.688  0.2633 -0.0615 -0.2063
37929SOL    HW116680   0.219   4.275   1.624  0.0496 -1.4603  0.8541
37929SOL    HW216681   0.328   4.245   1.724  0.3147  0.6700  1.2465
37930SOL     OW16682   9.303   1.929   0.087 -0.2478  0.2049 -0.0694
37930SOL    HW116683   9.369   1.945   0.020  0.2444 -3.0150 -0.5146
37930SOL    HW216684   9.228   1.895   0.038 -0.3616 -0.9364  0.8643
37931SOL     OW16685   9.448   4.294   3.037 -0.0522 -1.2296 -0.0213
37931SOL    HW116686   9.438   4.386   3.014 -0.8044 -1.5114 -0.9012
37931SOL    HW216687   9.432   4.290   3.131 -1.6093 -0.6762 -0.2445
37932SOL     OW16688   1.250   7.863   8.539  0.0318 -0.4364 -0.3481
37932SOL    HW116689   1.316   7.932   8.536  0.6448 -1.0056 -0.1415
37932SOL    HW216690   1.181   7.898   8.595  0.2294  0.0923 -0.4269
37933SOL     OW16691   3.888   2.699   6.925  0.1254  0.3617 -0.0300
37933SOL    HW116692   3.920   2.628   6.870 -0.4377  0.1928 -0.1468
37933SOL    HW216693   3.964   2.724   6.979  0.3327 -0.3131  0.0008
37934SOL     OW16694   7.555   3.887  10.289 -0.3291  0.1596 -0.2609
37934SOL    HW116695   7.551   3.867  10.195 -0.6971  2.2277 -0.7394
37934SOL    HW216696   7.635   3.939  10.299 -1.0018  1.1206  0.2964
37935SOL     OW16697   1.322   4.260   3.064  0.2322  0.2506 -0.1949
37935SOL    HW116698   1.319   4.190   3.129 -1.7571  1.6572  1.3649
37935SOL    HW216699   1.334   4.216   2.980 -0.4457 -1.8833  0.7788
37936SOL     OW16700   1.587   0.908   2.046  0.0430  0.2062 -0.4003
37936SOL    HW116701   1.603   0.837   1.984 -1.3188 -1.4276  1.0189
37936SOL    HW216702   1.651   0.895   2.115 -0.2680  0.2823 -0.0921
37937SOL     OW16703   3.368   0.684   5.821  0.1941 -0.1535  0.1467
37937SOL    HW116704   3.280   0.672   5.785  0.5133 -1.8953 -0.1031
37937SOL    HW216705   3.364   0.770   5.864 -1.5743 -0.1324  0.0246
37938SOL     OW16706   4.231   7.884   7.252  0.1402 -0.7267  0.0271
37938SOL    HW116707   4.155   7.873   7.194 -1.1063 -1.1200  1.6463
37938SOL    HW216708   4.201   7.849   7.337  2.4437 -1.7243  0.5035
37939SOL     OW16709  10.020   3.536   1.423  0.2518 -0.7834  0.3141
37939SOL    HW116710  10.110   3.564   1.440  1.1891 -3.1087 -0.3738
37939SOL    HW216711  10.021   3.507   1.332 -1.0326 -1.4120  0.4755
37940SOL     OW16712   6.981   5.867   9.345 -0.0555  0.0482  0.1685
37940SOL    HW116713   6.938   5.952   9.337  1.0218  0.5486 -0.5547
37940SOL    HW216714   6.945   5.829   9.424 -0.3212  1.3263  0.6845
37941SOL     OW16715   5.818   2.004   5.500  0.3859 -0.0039  0.0938
37941SOL    HW116716   5.757   2.033   5.568  0.3655  0.4779 -0.1214
37941SOL    HW216717   5.775   1.929   5.459  0.5726 -0.5386  0.8613
37942SOL     OW16718   3.017   8.587   6.475 -0.1331  0.1970  0.0775
37942SOL    HW116719   2.964   8.540   6.411 -0.6091  0.3484  0.3530
37942SOL    HW216720   3.107   8.568   6.450 -0.3152 -0.0272 -0.4262
37943SOL     OW16721   5.560  10.453   0.268  0.5950  0.4953  0.4061
37943SOL    HW116722   5.629  10.412   0.319 -0.1641  0.2490  1.2614
37943SOL    HW216723   5.519  10.516   0.327 -0.9238 -0.4760  0.4565
37944SOL     OW16724   8.579  10.534   6.530 -0.7673 -0.0261 -0.2094
37944SOL    HW116725   8.616  10.611   6.486  1.9054 -0.2670  1.3696
37944SOL    HW216726   8.545  10.567   6.613 -1.6560 -0.2468 -0.4721
37945SOL     OW16727  10.297   0.817   6.962 -0.5217 -0.2540  0.2310
37945SOL    HW116728  10.386   0.794   6.989 -1.0490 -2.4570  0.2976
37945SOL    HW216729  10.272   0.888   7.021  1.1564  0.3782  0.2405
37946SOL     OW16730   2.940   6.453   1.808 -0.9394  0.2351  0.3962
37946SOL    HW116731   2.914   6.363   1.788 -3.2704  1.0303 -0.5136
37946SOL    HW216732   2.938   6.498   1.723 -0.7176  1.3570  0.9656
37947SOL     OW16733   2.721   9.574   0.705  0.0793  0.0289 -0.3009
37947SOL    HW116734   2.654   9.559   0.772 -1.8841  0.4306 -2.0568
37947SOL    HW216735   2.797   9.524   0.735 -1.3549 -1.3201  1.2900
37948SOL     OW16736   0.661   2.782   1.180 -0.0341  0.0882  0.1322
37948SOL    HW116737   0.740   2.767   1.232 -0.6142  1.8831  1.6159
37948SOL    HW216738   0.611   2.700   1.187  0.9010 -0.4633  0.5517
37949SOL     OW16739   9.254   4.966   4.036 -0.5670  0.2019  0.1817
37949SOL    HW116740   9.267   4.937   4.126 -0.5185 -0.4632 -0.0369
37949SOL    HW216741   9.336   5.010   4.013  0.3981 -1.7405 -0.3333
37950SOL     OW16742   0.947   1.437   4.115 -0.6830 -0.1095 -0.1831
37950SOL    HW116743   1.002   1.378   4.166 -0.5594 -0.5166 -0.7831
37950SOL    HW216744   0.879   1.465   4.176 -0.7137 -0.8324  0.1226
37951SOL     OW16745   6.038   6.750   6.936 -1.0102 -0.2967 -0.8540
37951SOL    HW116746   6.032   6.703   7.020 -0.6818  1.0100 -0.0729
37951SOL    HW216747   5.974   6.821   6.944 -0.5196  0.2167 -1.4652
37952SOL     OW16748  10.600   2.114   2.467 -0.0741 -0.1028 -0.4230
37952SOL    HW116749  10.642   2.032   2.494 -1.3643 -0.0647  1.9497
37952SOL    HW216750  10.507   2.101   2.489 -0.5005  1.5652 -1.1158
37953SOL     OW16751  10.795   5.573   8.527  0.4699 -0.2290  0.4579
37953SOL    HW116752  10.881   5.601   8.558 -0.2738  3.6389 -0.5038
37953SOL    HW216753  10.773   5.635   8.458 -3.1779 -0.9780  0.7638
37954SOL     OW16754   7.674   3.957   7.641  0.0619 -0.2210 -0.0436
37954SOL    HW116755   7.742   4.023   7.658 -0.8141  1.0825 -1.3240
37954SOL    HW216756   7.634   3.942   7.727  0.9762  0.1079  0.4581
37955SOL     OW16757   4.958   3.505   5.160 -0.2634 -0.0506  0.3577
37955SOL    HW116758   4.921   3.551   5.085  0.0104 -0.5599 -0.0944
37955SOL    HW216759   4.966   3.572   5.227  0.1210  0.5694 -0.2929
37956SOL     OW16760   8.237   8.669   3.079  0.6886 -0.2061  0.3628
37956SOL    HW116761   8.194   8.716   3.008  0.8191  0.2641  0.5953
37956SOL    HW216762   8.210   8.715   3.158  1.3791 -0.0930  0.5347
37957SOL     OW16763   8.472   2.098   8.077 -0.0722 -0.3163 -0.3791
37957SOL    HW116764   8.566   2.104   8.062 -0.0996 -1.4092 -1.0654
37957SOL    HW216765   8.433   2.145   8.004 -0.0873 -1.3961 -1.0849
37958SOL     OW16766  10.321   5.546   8.315  0.6040  0.4139 -0.5338
37958SOL    HW116767  10.263   5.613   8.278 -0.6829 -0.0751  0.5386
37958SOL    HW216768  10.313   5.556   8.410  2.4019  0.4132 -0.3452
37959SOL     OW16769   7.179   5.833   5.803  0.5923  0.0153 -0.0360
37959SOL    HW116770   7.192   5.918   5.846 -1.2660  0.4641 -0.2601
37959SOL    HW216771   7.100   5.845   5.750  0.0967 -1.9507  0.1773
37960SOL     OW16772   0.469   7.729   1.030  0.0839  0.3808 -0.1960
37960SOL    HW116773   0.461   7.795   0.962 -0.6168 -1.1995 -1.7114
37960SOL    HW216774   0.548   7.680   1.007 -0.1632 -0.1761  0.1196
37961SOL     OW16775   9.794   3.913   6.729 -0.2142 -0.0063  0.1930
37961SOL    HW116776   9.719   3.961   6.763  0.8244 -0.0339  2.7954
37961SOL    HW216777   9.781   3.824   6.761 -0.0946 -0.5279 -1.1522
37962SOL     OW16778   2.437   6.971   6.871  0.0312  0.1091  0.2371
37962SOL    HW116779   2.490   6.943   6.946  0.0212 -0.1571  0.1469
37962SOL    HW216780   2.389   7.047   6.903 -1.5443 -1.2261  1.1708
37963SOL     OW16781  10.188   7.818   3.013  0.0169 -0.2264 -0.2359
37963SOL    HW116782  10.144   7.831   2.929 -3.0263  0.2486  1.3007
37963SOL    HW216783  10.255   7.887   3.015 -1.3660  1.2546 -1.3486
37964SOL     OW16784   0.103   6.242   8.688  1.1674 -0.1929 -0.2488
37964SOL    HW116785   0.101   6.265   8.781  0.9431  1.9019 -0.7292
37964SOL    HW216786   0.033   6.294   8.648  1.6332 -0.6083 -1.6805
37965SOL     OW16787   6.705  10.265   8.217  0.0923  0.6161 -0.4553
37965SOL    HW116788   6.742  10.325   8.281 -0.1845 -0.4031  0.6799
37965SOL    HW216789   6.706  10.179   8.259 -2.8661  0.3890 -0.6185
37966SOL     OW16790   8.308   3.864   2.260  0.2082  0.6366  0.7832
37966SOL    HW116791   8.302   3.871   2.165  0.0750  1.2214  0.8307
37966SOL    HW216792   8.217   3.860   2.290  0.2564 -0.1000  0.8531
37967SOL     OW16793   5.716   9.713   5.173  0.7516 -0.2139  0.1038
37967SOL    HW116794   5.705   9.674   5.260 -0.9054  0.5941  0.2988
37967SOL    HW216795   5.684   9.803   5.183 -1.5622 -0.7142 -1.7848
37968SOL     OW16796   3.833   9.966   8.967 -0.0205 -0.1158 -0.0075
37968SOL    HW116797   3.779   9.949   8.889 -2.3215 -1.0876  1.6873
37968SOL    HW216798   3.900   9.898   8.964  0.4909  0.4017 -1.5636
37969SOL     OW16799   1.224   2.056   0.957  0.3822 -0.6761  0.1142
37969SOL    HW116800   1.196   2.098   1.038  1.3201 -1.3708  0.8251
37969SOL    HW216801   1.256   1.969   0.984 -0.4363 -1.4074 -1.1632
37970SOL     OW16802   5.872   7.496   8.631 -0.0996  0.2447  0.0354
37970SOL    HW116803   5.826   7.569   8.671 -0.9979  0.1608 -0.7867
37970SOL    HW216804   5.908   7.532   8.550  0.8387  0.1676  0.4049
37971SOL     OW16805   6.761   5.203   6.953  0.2680 -0.0327  0.2604
37971SOL    HW116806   6.781   5.190   6.860 -1.3628 -3.2573  0.2071
37971SOL    HW216807   6.670   5.233   6.953  1.1016  2.7228  0.8176
37972SOL     OW16808   5.702   2.443   3.605  0.3029  0.5561  0.7227
37972SOL    HW116809   5.764   2.481   3.543 -0.0543  1.1668  0.7363
37972SOL    HW216810   5.616   2.471   3.574  0.1269  0.9817  1.5655
37973SOL     OW16811   1.005   4.891   0.676 -0.2659 -0.2583 -0.0915
37973SOL    HW116812   1.098   4.888   0.653 -0.4727 -0.1046 -1.0119
37973SOL    HW216813   1.004   4.922   0.766  0.5890 -0.5302  0.0260
37974SOL     OW16814   8.136   0.841   0.863 -0.6882 -0.2077  0.1872
37974SOL    HW116815   8.214   0.820   0.810 -0.8864  0.2842 -0.3139
37974SOL    HW216816   8.104   0.756   0.892 -1.4843 -0.6578 -1.8090
37975SOL     OW16817   9.249   9.424   1.312 -0.1963  0.1096  0.1023
37975SOL    HW116818   9.188   9.422   1.385  2.0809 -0.6035  2.1307
37975SOL    HW216819   9.333   9.446   1.351  0.7345  2.1796 -2.6993
37976SOL     OW16820   8.645   6.338   1.386  0.2252  0.1273  0.4944
37976SOL    HW116821   8.683   6.373   1.467  1.2447 -0.2614  0.1975
37976SOL    HW216822   8.602   6.256   1.413  0.2907  0.1582  0.6943
37977SOL     OW16823   7.896   8.656  10.197 -0.0060  0.1415  0.6344
37977SOL    HW116824   7.941   8.725  10.245  0.2994  0.0693  0.4552
37977SOL    HW216825   7.914   8.676  10.105  0.4882 -0.4472  0.5989
37978SOL     OW16826   3.346  10.642   2.345 -0.5631 -0.3130  0.2933
37978SOL    HW116827   3.395  10.571   2.305  0.1574  0.1609  0.3313
37978SOL    HW216828   3.315  10.695   2.272  2.1716  1.5111  0.3295
37979SOL     OW16829   1.770   1.474  10.373  0.5455  0.0646  0.0757
37979SOL    HW116830   1.779   1.510  10.462 -1.2149  0.6821  0.0398
37979SOL    HW216831   1.827   1.397  10.373  1.5270  0.7402  1.3407
37980SOL     OW16832   9.960   5.276   1.680 -0.4572 -0.1945  0.0998
37980SOL    HW116833  10.053   5.299   1.679 -0.1822 -1.1988  0.8688
37980SOL    HW216834   9.939   5.265   1.772 -1.2798 -0.2498 -0.0875
37981SOL     OW16835   7.828   9.982   6.324  0.4556 -0.1718  0.2040
37981SOL    HW116836   7.752  10.040   6.337  0.3476 -0.5791  1.5149
37981SOL    HW216837   7.901  10.042   6.308 -0.1237  0.2258 -1.0794
37982SOL     OW16838   3.622   0.371   2.782  0.2777  0.2857  0.2696
37982SOL    HW116839   3.623   0.300   2.847 -1.3658 -0.3794 -0.3980
37982SOL    HW216840   3.605   0.327   2.699 -0.8158  1.4620 -0.1443
37983SOL     OW16841   3.593   8.430   0.054 -0.2725  0.2450  0.1387
37983SOL    HW116842   3.533   8.493   0.095  0.6250  0.8316  0.5635
37983SOL    HW216843   3.585   8.447  -0.040 -0.5966  0.4711  0.2058
37984SOL     OW16844   3.840   3.464   7.506 -0.3787 -0.0351  0.6501
37984SOL    HW116845   3.822   3.381   7.461 -0.0533  0.2165  0.0529
37984SOL    HW216846   3.906   3.507   7.452  0.9863 -0.3078  2.0353
37985SOL     OW16847   1.206   5.471   1.881 -0.4288 -0.1119 -0.1030
37985SOL    HW116848   1.112   5.467   1.900 -0.3794  0.4887  0.3113
37985SOL    HW216849   1.229   5.563   1.895  0.1837 -0.2177 -0.3865
37986SOL     OW16850  10.496   6.931   4.980 -0.0342  0.4125  0.5139
37986SOL    HW116851  10.543   6.993   4.924  1.5289 -1.3862 -0.2759
37986SOL    HW216852  10.561   6.902   5.044 -1.1824  0.7341  1.8769
37987SOL     OW16853   3.774   8.269   2.207  0.1012  0.1377  0.0041
37987SOL    HW116854   3.718   8.212   2.260 -1.2199  1.1183 -0.2945
37987SOL    HW216855   3.815   8.210   2.143 -1.1110 -0.5246 -0.1937
37988SOL     OW16856   8.939   5.264   2.824  0.1108 -0.0101  0.2395
37988SOL    HW116857   8.922   5.306   2.739  0.7293 -1.8804 -0.8479
37988SOL    HW216858   8.867   5.202   2.834  0.4454 -0.3210  0.7267
37989SOL     OW16859   0.200   3.037   0.641 -0.1824 -0.1883 -0.7132
37989SOL    HW116860   0.270   3.023   0.704  0.3847  0.5343 -1.1655
37989SOL    HW216861   0.125   3.064   0.694  0.0585 -0.3489 -0.2830
37990SOL     OW16862   9.715   6.415   2.140 -0.4450  0.1950  0.1625
37990SOL    HW116863   9.746   6.498   2.177 -0.0583  0.4975 -0.8072
37990SOL    HW216864   9.623   6.409   2.168  0.0134  0.0699  1.7241
37991SOL     OW16865   1.949  10.317   1.294 -0.0932 -0.2036  0.0949
37991SOL    HW116866   1.855  10.328   1.280 -0.0834 -0.7434 -0.4284
37991SOL    HW216867   1.962  10.222   1.298  0.5024 -0.1493 -0.3879
37992SOL     OW16868   5.361   9.291   5.036  0.0287  0.2856 -0.3481
37992SOL    HW116869   5.433   9.334   5.082  1.5127  0.9700 -3.0844
37992SOL    HW216870   5.358   9.335   4.951 -2.7384 -0.7009 -0.8467
37993SOL     OW16871   3.425  10.597   8.940 -0.3157 -0.0852  0.6599
37993SOL    HW116872   3.436  10.681   8.895 -0.2180 -1.0952 -1.3392
37993SOL    HW216873   3.426  10.619   9.033  3.3028  1.7119  0.3571
37994SOL     OW16874   7.555   9.295   6.515 -0.2908  0.1045  0.3765
37994SOL    HW116875   7.511   9.372   6.479  0.0882 -0.1166 -0.5918
37994SOL    HW216876   7.486   9.229   6.522 -0.9266  0.8972  2.4857
37995SOL     OW16877   2.416   2.582   0.860 -0.7292  0.0816  0.0151
37995SOL    HW116878   2.454   2.598   0.774 -1.4861  2.7528  0.0804
37995SOL    HW216879   2.449   2.654   0.914 -0.5791 -1.3219  1.8989
37996SOL     OW16880   3.345   0.180   7.106  0.3714 -0.1587 -0.1721
37996SOL    HW116881   3.294   0.256   7.133 -0.7574 -0.9567  0.0400
37996SOL    HW216882   3.403   0.213   7.037  0.9162  1.1813  0.8839
37997SOL     OW16883   4.265   0.081   6.440  0.2508  0.0957  0.0880
37997SOL    HW116884   4.240   0.078   6.348  0.9943  0.5483 -0.1340
37997SOL    HW216885   4.361   0.083   6.439  0.2932 -0.6875  0.8926
37998SOL     OW16886   9.576   2.860   3.090 -0.2833 -0.0067 -0.3762
37998SOL    HW116887   9.666   2.835   3.069  0.2401  1.2632  0.2223
37998SOL    HW216888   9.522   2.797   3.043  0.9029 -0.0121 -1.8317
37999SOL     OW16889  10.101   8.068   2.328  0.9229 -0.1788 -0.1214
37999SOL    HW116890  10.153   8.024   2.395  0.1527 -1.7109 -0.4762
37999SOL    HW216891  10.069   7.997   2.272  1.0761  1.0069 -1.7914
38000SOL     OW16892   5.801   0.041   5.302 -0.4483  0.2844 -0.5718
38000SOL    HW116893   5.707   0.027   5.315 -0.5120  1.0314 -0.1899
38000SOL    HW216894   5.842  -0.037   5.339 -0.9217 -0.1001 -0.8461
38001SOL     OW16895   8.335   9.561   2.208 -0.9987  0.4991  0.3608
38001SOL    HW116896   8.292   9.592   2.287  0.3469  0.3588  1.1663
38001SOL    HW216897   8.428   9.574   2.223 -0.6425 -0.4258 -0.8026
38002SOL     OW16898   3.813   3.247   8.111  0.2852 -0.0888 -0.0790
38002SOL    HW116899   3.822   3.165   8.063 -0.6919  0.6107 -1.5384
38002SOL    HW216900   3.719   3.264   8.112  0.4263  0.7552  0.6767
38003SOL     OW16901   2.056   3.326   3.919 -0.0491 -0.1667  0.1776
38003SOL    HW116902   2.151   3.334   3.925 -0.1599  1.4071  0.1398
38003SOL    HW216903   2.027   3.318   4.010  0.1189 -0.7655  0.1825
38004SOL     OW16904   9.098   9.338   6.587  0.0526  0.1987  0.3388
38004SOL    HW116905   9.022   9.325   6.530  0.1981  0.4213  0.0879
38004SOL    HW216906   9.062   9.341   6.675 -0.2385  0.3692  0.2160
38005SOL     OW16907   3.295   4.328   9.124  0.5943 -0.3602  0.2988
38005SOL    HW116908   3.377   4.371   9.147  0.2688  1.2093 -1.3046
38005SOL    HW216909   3.303   4.306   9.032 -0.5851 -0.6939  0.2530
38006SOL     OW16910   5.382  10.197   6.765 -0.4267 -0.0134  0.4629
38006SOL    HW116911   5.399  10.291   6.771  2.4143 -0.4507  0.8820
38006SOL    HW216912   5.441  10.167   6.696 -0.8836 -1.5654  0.7245
38007SOL     OW16913   9.371  10.471   9.088  0.3967 -0.0979 -0.1286
38007SOL    HW116914   9.394  10.514   9.171 -0.4896 -1.3024  0.7867
38007SOL    HW216915   9.435  10.503   9.025  0.1342  2.0904  0.6364
38008SOL     OW16916   6.560   6.639   7.439 -0.0920  0.2822  0.4118
38008SOL    HW116917   6.467   6.619   7.446  0.6657 -3.2625  2.8053
38008SOL    HW216918   6.582   6.682   7.522  0.2189  2.6172 -0.7914
38009SOL     OW16919   2.802   5.623   0.942 -1.0578  0.5733  0.4435
38009SOL    HW116920   2.861   5.680   0.992 -0.3433  0.1328  0.1190
38009SOL    HW216921   2.758   5.571   1.010  0.5679 -0.6603  0.6266
38010SOL     OW16922   9.106   5.132   3.622  0.6318 -0.2932  0.3874
38010SOL    HW116923   9.194   5.134   3.660  0.0944 -1.4477  1.7921
38010SOL    HW216924   9.087   5.039   3.610 -0.6960 -0.1032  0.8755
38011SOL     OW16925   5.651   7.565   9.689 -0.4843 -0.2051 -0.2190
38011SOL    HW116926   5.674   7.520   9.608 -1.5552  2.1110 -1.8969
38011SOL    HW216927   5.733   7.601   9.721 -0.0159 -1.3210 -0.1133
38012SOL     OW16928   0.285   2.993  10.228 -0.1557  0.2665  0.6408
38012SOL    HW116929   0.262   2.911  10.270  1.6262  0.8196  2.8839
38012SOL    HW216930   0.344   2.968  10.156 -1.8838 -0.5614 -0.5516
38013SOL     OW16931   9.515   4.972   1.448 -0.5344 -0.1072 -0.0264
38013SOL    HW116932   9.489   4.881   1.455  0.0039 -0.1692  1.5414
38013SOL    HW216933   9.460   5.008   1.378 -2.5623 -0.9871  1.0563
38014SOL     OW16934   9.225   0.912   5.872 -0.6566  0.2803 -0.3933
38014SOL    HW116935   9.297   0.940   5.816  2.4219  0.6131  3.3264
38014SOL    HW216936   9.180   0.993   5.896  1.2084  0.8357  1.4726
38015SOL     OW16937   0.022  10.276   2.368  0.4179  0.2427  0.1583
38015SOL    HW116938  -0.001  10.208   2.431  0.2824 -0.8435 -1.0292
38015SOL    HW216939   0.061  10.345   2.422  1.5079 -1.1790  1.3132
38016SOL     OW16940   7.923   4.753   3.180  0.5788 -0.1468 -0.1401
38016SOL    HW116941   7.915   4.668   3.137  0.7475  0.5803 -1.6897
38016SOL    HW216942   7.881   4.814   3.119 -0.8325  0.7079  1.6053
38017SOL     OW16943   5.659   1.731   8.255  0.2974  0.2080  0.0012
38017SOL    HW116944   5.640   1.667   8.187  0.0534 -0.1724  0.4181
38017SOL    HW216945   5.642   1.684   8.337 -0.2401  0.9172  0.3081
38018SOL     OW16946   0.859   5.136   5.627  0.3994 -0.3031 -0.2377
38018SOL    HW116947   0.857   5.182   5.543  0.3308 -0.7142 -0.4626
38018SOL    HW216948   0.801   5.061   5.614  2.2972 -1.7778 -0.6567
38019SOL     OW16949   9.309   9.133   5.605 -0.1791  0.2588  0.2431
38019SOL    HW116950   9.355   9.128   5.689 -0.8204 -2.6081  0.5281
38019SOL    HW216951   9.366   9.087   5.544  0.1282  2.0467 -0.8905
38020SOL     OW16952   2.968   4.532   5.930  0.5467 -0.0927 -0.3357
38020SOL    HW116953   2.961   4.540   6.025  0.8285  1.5881 -0.4229
38020SOL    HW216954   2.940   4.617   5.897  1.3423 -0.3374 -1.7183
38021SOL     OW16955   1.182   0.435   7.594 -0.3279  0.4942  0.5829
38021SOL    HW116956   1.116   0.366   7.599 -0.6855  0.6800 -0.9405
38021SOL    HW216957   1.142   0.502   7.539  0.1386  1.7914  1.7821
38022SOL     OW16958   3.583   2.027   6.840 -0.2151 -0.8223 -0.2926
38022SOL    HW116959   3.583   1.936   6.870  1.4419 -0.4013  1.1159
38022SOL    HW216960   3.671   2.042   6.806 -0.2527  0.4239  0.0925
38023SOL     OW16961   9.156   7.684   8.706 -0.8272 -0.7360  0.3093
38023SOL    HW116962   9.153   7.640   8.621 -1.3431 -1.7686  0.8369
38023SOL    HW216963   9.143   7.777   8.686  0.1682 -0.8202 -0.8298
38024SOL     OW16964  10.199   7.015   8.293 -0.7807  0.4086  0.3617
38024SOL    HW116965  10.247   7.053   8.219 -1.4033  0.4080 -0.0521
38024SOL    HW216966  10.231   6.925   8.299 -1.0388  0.2736 -0.1906
38025SOL     OW16967   4.169   8.810   9.032 -0.3422  0.2446  0.3513
38025SOL    HW116968   4.261   8.783   9.040 -0.0558  0.9824 -0.3230
38025SOL    HW216969   4.162   8.889   9.085 -0.1995  1.0516 -0.7964
38026SOL     OW16970   2.201   1.355   0.455 -0.0161  0.0432  0.2760
38026SOL    HW116971   2.250   1.300   0.394  1.5243  2.0728 -0.4531
38026SOL    HW216972   2.112   1.321   0.454  0.4845 -1.3086 -1.4481
38027SOL     OW16973   8.517   7.354   6.999  0.1810 -0.3693  0.6036
38027SOL    HW116974   8.549   7.317   7.081 -0.6699 -0.7621  0.7710
38027SOL    HW216975   8.528   7.449   7.009 -0.1544 -0.3985  1.2762
38028SOL     OW16976   0.964  10.257   6.301 -0.0798  0.3313  0.2781
38028SOL    HW116977   0.965  10.165   6.327 -1.1897  0.9869  2.9730
38028SOL    HW216978   0.878  10.289   6.327  0.8940  2.5155  1.1311
38029SOL     OW16979   9.084   0.058   3.484 -0.0576 -0.1687 -0.1653
38029SOL    HW116980   9.154   0.016   3.434  0.5392  1.5782 -0.8649
38029SOL    HW216981   9.123   0.075   3.570  0.2916  0.5219 -0.4539
38030SOL     OW16982   7.196   2.075   9.572  0.1674 -0.7016 -0.3287
38030SOL    HW116983   7.240   2.055   9.655  0.6877  3.9818  0.8516
38030SOL    HW216984   7.107   2.042   9.583 -0.2560  1.0480  2.9236
38031SOL     OW16985   3.901   7.070   1.872 -0.4042 -0.4478  0.1763
38031SOL    HW116986   3.983   7.083   1.920 -1.0093  0.0841  1.1050
38031SOL    HW216987   3.927   7.074   1.780  0.9120 -2.3265  0.4114
38032SOL     OW16988   1.856   5.971   7.614 -0.2819  0.7805 -0.1282
38032SOL    HW116989   1.924   5.903   7.604 -0.8729 -0.0991  1.4377
38032SOL    HW216990   1.878   6.036   7.548 -0.1068 -1.2653 -2.2171
38033SOL     OW16991   6.612  10.612   2.368 -0.0713  0.7211 -0.1872
38033SOL    HW116992   6.639  10.529   2.408 -0.0277  1.2483  0.9175
38033SOL    HW216993   6.567  10.659   2.438 -1.7004  0.8896 -1.3051
38034SOL     OW16994   1.019   9.224   5.650  0.0117  0.8797 -0.0449
38034SOL    HW116995   0.999   9.134   5.625 -0.0902  0.5623  1.1120
38034SOL    HW216996   1.106   9.240   5.613  2.4864 -1.5531  3.9449
38035SOL     OW16997   0.497  10.328   2.298  0.0890  0.1892  0.1531
38035SOL    HW116998   0.462  10.407   2.339  0.4160 -0.1008  1.0027
38035SOL    HW216999   0.531  10.358   2.214 -1.0785  0.7002 -0.1579
38036SOL     OW17000   2.702   6.746   6.085  0.3822 -0.6703  0.1677
38036SOL    HW117001   2.727   6.823   6.137 -0.8985  0.1616 -0.4029
38036SOL    HW217002   2.746   6.673   6.128  0.6563  0.2123  1.4477
38037SOL     OW17003   2.064   8.762  10.522 -0.7899  0.2190  0.0345
38037SOL    HW117004   2.023   8.681  10.550  1.4886 -1.0912 -0.1444
38037SOL    HW217005   2.120   8.787  10.595 -0.0743  0.5968 -0.6278
38038SOL     OW17006   1.220   1.445   5.602 -0.0331 -0.7609  0.3596
38038SOL    HW117007   1.155   1.409   5.661 -0.4600  0.2553  0.5363
38038SOL    HW217008   1.294   1.384   5.607 -0.9334 -1.8983  0.1985
38039SOL     OW17009   5.876   2.367   9.592  0.5622  0.2757 -0.0438
38039SOL    HW117010   5.795   2.335   9.553  0.2681 -0.0659  0.8039
38039SOL    HW217011   5.939   2.370   9.520 -0.3931  1.2415 -0.8589
38040SOL     OW17012   7.885   2.591   4.964  0.2517  0.2419 -0.0704
38040SOL    HW117013   7.940   2.561   5.035 -0.3929 -0.7627  0.0236
38040SOL    HW217014   7.914   2.681   4.947  1.3259  0.0201  0.5311
38041SOL     OW17015   4.674   4.253   6.947  1.0381  0.4137 -0.1280
38041SOL    HW117016   4.691   4.325   6.885  2.4121  1.7405  1.6623
38041SOL    HW217017   4.761   4.233   6.983  0.5945 -1.8243 -0.1884
38042SOL     OW17018   4.242   8.445   8.842 -0.4346  0.2981 -0.0432
38042SOL    HW117019   4.196   8.419   8.922 -0.4806 -0.1056 -0.2005
38042SOL    HW217020   4.334   8.447   8.868 -0.4759  0.4644  0.0975
38043SOL     OW17021  10.321   5.797   0.243 -0.2057 -0.2816 -0.6252
38043SOL    HW117022  10.265   5.815   0.319  2.2173  0.6949  1.0454
38043SOL    HW217023  10.299   5.708   0.218 -1.5056 -0.4110  0.8228
38044SOL     OW17024   2.172   9.219   3.701 -0.1138 -0.3384  0.7572
38044SOL    HW117025   2.197   9.224   3.608 -0.4841 -2.1988  0.5191
38044SOL    HW217026   2.077   9.213   3.700 -0.3742  2.3274  1.4534
38045SOL     OW17027   5.078   2.616   0.267  0.4667  0.4462 -0.5840
38045SOL    HW117028   5.031   2.696   0.293  0.7127 -0.5994  3.8091
38045SOL    HW217029   5.016   2.569   0.212 -2.2233  0.9803  1.7287
38046SOL     OW17030   4.902   5.286   8.081  0.3486  0.1540 -0.6279
38046SOL    HW117031   4.964   5.284   8.008  1.0445 -1.5501 -0.0539
38046SOL    HW217032   4.816   5.295   8.040  0.8129  0.5448 -1.5554
38047SOL     OW17033   2.778   3.971   1.834  0.4894  0.5033  0.1233
38047SOL    HW117034   2.735   3.891   1.804  1.1469  0.9509 -2.1793
38047SOL    HW217035   2.772   3.967   1.930 -2.7035 -0.4803 -0.0263
38048SOL     OW17036   6.803   5.134   0.946 -0.0902 -0.1909 -0.3782
38048SOL    HW117037   6.813   5.149   1.041 -0.6989  2.2793 -0.6406
38048SOL    HW217038   6.857   5.056   0.929  2.5965  1.0634  1.5087
38049SOL     OW17039   5.419   4.332  10.224 -0.1217 -0.0166 -0.2932
38049SOL    HW117040   5.501   4.313  10.178  0.3998  0.0833  0.5751
38049SOL    HW217041   5.381   4.407  10.176  0.0457 -0.3654 -0.9867
38050SOL     OW17042   2.728   5.247   0.204  0.6057  0.6096  0.3463
38050SOL    HW117043   2.639   5.266   0.176 -0.3338  1.3403  3.4048
38050SOL    HW217044   2.783   5.273   0.130 -1.5478  2.5241 -0.6945
38051SOL     OW17045   5.792   1.370   2.981 -0.1921  0.2088 -0.2692
38051SOL    HW117046   5.761   1.458   2.959  2.1016  1.4406  1.0005
38051SOL    HW217047   5.818   1.376   3.073  3.7033 -0.5414 -1.1438
38052SOL     OW17048   8.519   2.337   6.785 -0.0315 -0.1104 -0.7596
38052SOL    HW117049   8.517   2.243   6.801  0.1402  0.1706  1.1079
38052SOL    HW217050   8.609   2.355   6.758  0.0981 -0.4045 -0.5338
38053SOL     OW17051   7.616   4.648   4.949  0.5974  0.4852 -0.2741
38053SOL    HW117052   7.521   4.662   4.947  0.4143 -0.5604  0.3186
38053SOL    HW217053   7.640   4.654   5.041  1.0612  0.4329 -0.3871
38054SOL     OW17054  10.747  10.783   0.267 -0.3027 -0.1246 -0.0457
38054SOL    HW117055  10.799  10.713   0.308 -0.9536 -0.2484  0.5860
38054SOL    HW217056  10.810  10.853   0.250 -0.0102 -0.0813  1.1609
38055SOL     OW17057   6.655   7.058  10.597 -1.1298  0.0118  0.0568
38055SOL    HW117058   6.576   7.035  10.548 -0.6747 -1.0244 -0.2094
38055SOL    HW217059   6.723   7.066  10.531 -0.7491 -0.3361  0.4024
38056SOL     OW17060   0.016   7.709   6.641  0.1354  0.1170  0.7680
38056SOL    HW117061  -0.037   7.735   6.716  0.0513 -1.7725  1.4196
38056SOL    HW217062   0.092   7.767   6.643 -0.5624  1.0326  1.4430
38057SOL     OW17063   3.079   3.229   8.694 -0.2273  0.7337 -0.2674
38057SOL    HW117064   3.149   3.218   8.629 -0.3704 -1.7470 -0.1037
38057SOL    HW217065   3.114   3.189   8.774 -1.5066  0.1574  0.0357
38058SOL     OW17066   5.671   3.681   5.725 -0.6856  0.2810 -0.4607
38058SOL    HW117067   5.756   3.704   5.763 -0.1302  0.2880 -1.6668
38058SOL    HW217068   5.607   3.723   5.782  0.1557  1.1325 -0.1178
38059SOL     OW17069   9.553   1.370   2.884  0.2718 -0.8867  0.5644
38059SOL    HW117070   9.605   1.299   2.848 -0.9321 -1.8068  0.5590
38059SOL    HW217071   9.499   1.329   2.952 -1.1552 -0.2096 -0.0996
38060SOL     OW17072   6.322   1.748   0.115 -0.0036 -1.1078 -0.3591
38060SOL    HW117073   6.398   1.782   0.068 -0.7581  0.9052 -0.2052
38060SOL    HW217074   6.310   1.808   0.188  0.3985 -3.4585  1.8126
38061SOL     OW17075   6.328   5.371   6.425  0.2282  0.3317 -0.0062
38061SOL    HW117076   6.271   5.333   6.359 -0.0027 -1.3689  1.1336
38061SOL    HW217077   6.275   5.440   6.465 -0.8282 -0.8165  0.6213
38062SOL     OW17078   4.008   6.286   1.973 -0.0548 -0.4855 -0.6465
38062SOL    HW117079   4.008   6.313   2.065  0.2030  0.4920 -0.9211
38062SOL    HW217080   3.933   6.332   1.935 -0.3415 -1.1282 -0.8610
38063SOL     OW17081   0.406   6.935   9.471  0.8186  0.6466 -0.0229
38063SOL    HW117082   0.431   6.863   9.413 -0.5456 -0.8088  1.1159
38063SOL    HW217083   0.450   6.915   9.554  0.0848  0.8963  0.4303
38064SOL     OW17084   9.923   2.945   7.328  0.5581  0.4066  0.0409
38064SOL    HW117085   9.986   3.010   7.359 -0.2100  0.0327  2.6017
38064SOL    HW217086   9.848   2.954   7.386 -0.2858 -1.5760 -0.6584
38065SOL     OW17087  10.579   5.002  10.252  0.1943 -0.7041  0.6250
38065SOL    HW117088  10.512   4.934  10.253 -0.0658 -0.4574  1.9523
38065SOL    HW217089  10.654   4.963  10.297  1.1520 -1.1449 -1.2527
38066SOL     OW17090   8.999   6.990   3.645  0.1679  0.0135  0.3110
38066SOL    HW117091   9.017   6.909   3.693 -0.1349  0.1771  0.7127
38066SOL    HW217092   9.084   7.034   3.638  1.0512 -1.9498 -2.9910
38067SOL     OW17093   9.255   2.095   1.105  0.2379  0.3159  0.3167
38067SOL    HW117094   9.178   2.043   1.130 -0.4299  1.0566 -0.1642
38067SOL    HW217095   9.258   2.089   1.009  0.9468  0.0710  0.3466
38068SOL     OW17096   7.778   0.001  10.044 -0.2997 -0.3632 -0.4331
38068SOL    HW117097   7.728  -0.066   9.998  0.1554 -1.1639  0.2092
38068SOL    HW217098   7.854   0.018   9.989 -0.4163 -0.3709 -0.5954
38069SOL     OW17099   6.283   4.374   6.094  0.1159  0.3401 -0.2268
38069SOL    HW117100   6.237   4.424   6.027 -2.4033 -0.9856  0.3706
38069SOL    HW217101   6.230   4.386   6.174  0.4639 -1.6955  0.3705
38070SOL     OW17102   2.217   1.159   3.772  0.1878 -0.1369  0.1593
38070SOL    HW117103   2.170   1.237   3.801 -0.3727 -0.6736  0.7255
38070SOL    HW217104   2.271   1.134   3.847 -1.8136 -1.9484  1.0747
38071SOL     OW17105   0.692   0.898  10.621 -0.4893 -0.1117 -0.0273
38071SOL    HW117106   0.724   0.988  10.623  0.8227 -0.5451 -0.4801
38071SOL    HW217107   0.765   0.846  10.656 -1.8426 -0.8476  1.8910
38072SOL     OW17108   1.872   1.902   6.297  0.4061 -0.0917 -0.5287
38072SOL    HW117109   1.926   1.958   6.352 -0.7685  0.2575  0.3069
38072SOL    HW217110   1.884   1.814   6.333 -0.8591  0.2209  0.7629
38073SOL     OW17111  10.079   3.134   3.420 -0.0240 -0.0459 -0.0442
38073SOL    HW117112   9.993   3.093   3.412  0.9715 -2.6924  1.4628
38073SOL    HW217113  10.108   3.145   3.329 -1.0072 -1.3195 -0.5510
38074SOL     OW17114   6.720   8.798   9.280  0.5647  0.2728  0.4032
38074SOL    HW117115   6.663   8.874   9.278 -0.4177 -0.4619 -0.8229
38074SOL    HW217116   6.690   8.747   9.355 -0.4382 -0.1274 -0.2520
38075SOL     OW17117   1.870   3.133   3.842  0.1558 -0.1377 -0.3882
38075SOL    HW117118   1.792   3.122   3.896  0.5146 -0.4366  0.0809
38075SOL    HW217119   1.896   3.224   3.856 -0.9560  0.4223 -1.7260
38076SOL     OW17120   0.001   9.364   7.154 -0.1510  0.5802 -0.2677
38076SOL    HW117121   0.060   9.367   7.079  0.8566  1.7994  0.5247
38076SOL    HW217122  -0.054   9.287   7.139  0.9664 -0.0066 -1.5359
38077SOL     OW17123   1.772   1.530   7.105 -0.1453 -0.2614 -0.1814
38077SOL    HW117124   1.801   1.569   7.188  1.1550 -1.3165 -0.1106
38077SOL    HW217125   1.687   1.571   7.088 -0.3594  0.1107  1.5733
38078SOL     OW17126  10.556   4.222   9.074  0.0899  0.2745 -0.6167
38078SOL    HW117127  10.636   4.207   9.124 -0.2360  0.4235 -0.0382
38078SOL    HW217128  10.558   4.316   9.053  0.4167  0.1364 -1.2297
38079SOL     OW17129   9.534   8.869   7.021  0.4378  0.0788  0.3457
38079SOL    HW117130   9.533   8.856   6.926 -0.2665  0.0062  0.3534
38079SOL    HW217131   9.536   8.964   7.033  2.7462  0.0868  0.2790
38080SOL     OW17132   3.686   3.639  10.597 -0.1363  0.0550 -0.4655
38080SOL    HW117133   3.670   3.568  10.660  0.5987 -0.5738 -0.9592
38080SOL    HW217134   3.696   3.595  10.513  0.0342  0.7770 -0.8331
38081SOL     OW17135   2.494  10.516   4.961 -0.2765 -0.0854 -0.0964
38081SOL    HW117136   2.570  10.463   4.985 -0.7169 -0.4199  0.5962
38081SOL    HW217137   2.458  10.472   4.884  0.6030  0.4537 -0.8317
38082SOL     OW17138   2.957   5.058   9.835 -0.0887  0.8159  1.2426
38082SOL    HW117139   2.865   5.084   9.832 -0.2004  0.6533 -2.7725
38082SOL    HW217140   2.981   5.044   9.743  3.9057  0.5768  2.1211
38083SOL     OW17141   8.366   5.357   0.249 -0.1981 -0.4030  0.0885
38083SOL    HW117142   8.371   5.367   0.344  2.5611  0.2047 -0.0490
38083SOL    HW217143   8.273   5.370   0.229 -0.7005  0.4390  2.5920
38084SOL     OW17144  10.472   0.704   7.576  0.4850  0.3929 -0.2146
38084SOL    HW117145  10.423   0.633   7.619  1.8576 -0.0560  0.6988
38084SOL    HW217146  10.433   0.711   7.489 -1.9884  0.8957  0.8382
38085SOL     OW17147   7.699   8.743   5.728  0.2322 -0.5895 -0.3568
38085SOL    HW117148   7.789   8.774   5.733 -0.2093  0.8561 -0.7172
38085SOL    HW217149   7.704   8.659   5.684  1.6927 -1.9780  2.1984
38086SOL     OW17150   5.337   9.312   4.382  0.0470 -0.7182 -0.0826
38086SOL    HW117151   5.318   9.227   4.342  0.9029 -1.6123  1.3117
38086SOL    HW217152   5.278   9.373   4.339 -3.0825 -2.5879  1.2336
38087SOL     OW17153   1.846   9.621  10.173 -0.3780 -0.3120  0.0734
38087SOL    HW117154   1.809   9.688  10.230 -0.4048 -0.3477  0.0974
38087SOL    HW217155   1.795   9.543  10.192 -1.5485  0.0858 -1.2216
38088SOL     OW17156   5.593  10.224   9.307 -0.1458 -0.4379 -0.7079
38088SOL    HW117157   5.651  10.161   9.263  1.5199  1.0321 -0.7402
38088SOL    HW217158   5.652  10.274   9.364 -1.2435  1.6593 -1.3210
38089SOL     OW17159   4.558   6.726   3.561  0.1419  0.2632 -0.8479
38089SOL    HW117160   4.573   6.659   3.493 -0.4264 -1.2255  0.4249
38089SOL    HW217161   4.641   6.773   3.567  1.3056 -1.7384 -0.3223
38090SOL     OW17162   9.417   4.085   6.765  0.1229  0.5626 -0.0596
38090SOL    HW117163   9.446   4.175   6.747  0.0942  0.6050  0.1085
38090SOL    HW217164   9.403   4.047   6.678 -0.0220  0.7701 -0.1282
38091SOL     OW17165  10.349   3.207   1.646 -0.3871 -0.6095  0.1535
38091SOL    HW117166  10.311   3.122   1.668 -0.1512 -0.2351  2.1996
38091SOL    HW217167  10.274   3.266   1.641 -0.4214 -0.6495  0.1916
38092SOL     OW17168   4.884   0.057   7.126  0.1141  0.6379 -0.2672
38092SOL    HW117169   4.869   0.021   7.213 -0.0610 -1.5410 -1.1349
38092SOL    HW217170   4.817   0.017   7.072  2.6204 -1.3064 -2.1967
38093SOL     OW17171   5.716   7.579   9.124 -0.6968  0.5194 -0.4447
38093SOL    HW117172   5.661   7.537   9.190 -0.4666  0.1193 -0.5092
38093SOL    HW217173   5.805   7.552   9.146 -0.6398  0.2226 -1.0469
38094SOL     OW17174   1.878   3.835   8.047 -0.4325 -0.3730  0.0998
38094SOL    HW117175   1.846   3.819   8.137 -0.8264  0.7510  0.1689
38094SOL    HW217176   1.913   3.924   8.049  0.7294 -0.7991 -0.5560
38095SOL     OW17177   3.669   9.523   6.147  0.6660  0.0541 -0.5130
38095SOL    HW117178   3.709   9.553   6.066  1.5799 -0.2318 -0.1708
38095SOL    HW217179   3.582   9.493   6.120 -0.0132  2.2374 -0.9960
38096SOL     OW17180   4.344   1.485   7.967 -0.3987 -0.1260 -0.3454
38096SOL    HW117181   4.335   1.431   8.045  0.8605  2.9224  2.0911
38096SOL    HW217182   4.292   1.562   7.984  2.3830  2.0768 -1.0214
38097SOL     OW17183   0.043   7.129   1.404  0.2757  0.2110  0.3262
38097SOL    HW117184   0.043   7.125   1.500  0.3320  0.0306  0.3190
38097SOL    HW217185  -0.030   7.187   1.382  0.9515  1.1578  0.5158
38098SOL     OW17186   0.473   9.057  10.108 -0.4274 -0.4741  0.1111
38098SOL    HW117187   0.402   9.056  10.044 -1.9346 -0.1795  1.7012
38098SOL    HW217188   0.454   8.983  10.166  1.2653 -1.1411 -0.1314
38099SOL     OW17189   8.854   3.540   6.328 -0.0608 -0.4511 -0.4024
38099SOL    HW117190   8.890   3.594   6.398 -0.3554 -1.2129  0.3540
38099SOL    HW217191   8.866   3.450   6.358 -0.8442 -0.7737 -1.0056
38100SOL     OW17192   7.924   9.785   5.775 -0.3212 -0.2475 -0.1121
38100SOL    HW117193   7.932   9.879   5.759  0.0905 -0.0046  1.4057
38100SOL    HW217194   7.830   9.767   5.765 -0.2340  0.0426 -1.7309
38101SOL     OW17195   5.411   3.918   9.793  0.6889  0.3880 -0.5771
38101SOL    HW117196   5.436   3.986   9.856  0.5622  0.6822 -0.8435
38101SOL    HW217197   5.326   3.945   9.761  1.3259  0.9307 -1.8556
38102SOL     OW17198   8.955   4.879   7.298 -0.3207  0.0303 -0.0752
38102SOL    HW117199   8.927   4.873   7.207 -0.8803 -0.4350  0.1183
38102SOL    HW217200   9.044   4.846   7.299  0.4794  2.0454 -0.8011
38103SOL     OW17201   0.694   3.341   7.396  0.1420 -0.0542 -0.0663
38103SOL    HW117202   0.698   3.428   7.436 -0.4189 -0.4100  0.7949
38103SOL    HW217203   0.608   3.337   7.355  1.0178  0.6118 -2.0925
38104SOL     OW17204   8.101   4.340   1.557 -0.3220 -0.5025  0.1971
38104SOL    HW117205   8.138   4.259   1.593  2.3508  1.5033  2.4195
38104SOL    HW217206   8.009   4.338   1.583 -0.1161 -2.3992  0.9482
38105SOL     OW17207   3.125   7.071   4.324 -0.2752  0.0510  0.4873
38105SOL    HW117208   3.156   7.105   4.240  0.5010  1.5387  1.3421
38105SOL    HW217209   3.200   7.077   4.383 -1.1533  0.2248  1.6280
38106SOL     OW17210   1.719   0.015   2.385 -0.0925  0.4283 -0.2583
38106SOL    HW117211   1.710   0.110   2.372 -0.1741  0.7053  1.5395
38106SOL    HW217212   1.737  -0.020   2.297 -1.1789  1.9590 -1.1415
38107SOL     OW17213   3.251   1.495   1.969 -0.5515  0.2908  0.0947
38107SOL    HW117214   3.256   1.554   2.045 -1.8780 -0.6870  0.9895
38107SOL    HW217215   3.226   1.410   2.006  0.7119 -0.7126 -1.2298
38108SOL     OW17216   0.510   1.527   7.046  0.4094 -0.2899  0.3856
38108SOL    HW117217   0.432   1.493   7.001  1.4755 -0.0696 -1.7531
38108SOL    HW217218   0.508   1.621   7.032  1.7262 -0.4158 -0.8926
38109SOL     OW17219   5.386   8.681   7.090  0.0410 -0.1517  0.6723
38109SOL    HW117220   5.329   8.633   7.150 -0.9204  0.9480  0.6748
38109SOL    HW217221   5.414   8.615   7.025  0.3812 -1.1447  1.7928
38110SOL     OW17222   7.532   5.542   5.246  0.0732  0.4764 -0.1506
38110SOL    HW117223   7.562   5.465   5.198  1.0135  0.9843 -0.4089
38110SOL    HW217224   7.610   5.575   5.290 -0.2487  1.4341 -0.2604
38111SOL     OW17225   1.131   9.895  10.008 -0.3382  0.1729 -0.2479
38111SOL    HW117226   1.202   9.855   9.957 -0.9835  0.8948 -1.7595
38111SOL    HW217227   1.176   9.938  10.081  0.7962  0.5959 -1.1608
38112SOL     OW17228   2.447   7.662   1.847  1.1738 -0.2407 -0.3497
38112SOL    HW117229   2.408   7.662   1.760  1.1083  0.1010 -0.3199
38112SOL    HW217230   2.455   7.569   1.869 -1.3383 -0.3577  0.3980
38113SOL     OW17231   9.608   7.898   0.468 -0.1183  0.2722 -0.6153
38113SOL    HW117232   9.621   7.920   0.561 -0.9014  0.1679 -0.4759
38113SOL    HW217233   9.651   7.814   0.458  2.4471  1.5372 -1.0269
38114SOL     OW17234   8.949   0.573   6.148 -0.7688  0.4556 -0.1479
38114SOL    HW117235   8.984   0.493   6.108  1.5203  1.3289 -0.0280
38114SOL    HW217236   8.997   0.582   6.230  0.5931  3.0131 -1.1162
38115SOL     OW17237   3.166   9.023   1.859  0.3732 -0.2453 -0.6471
38115SOL    HW117238   3.201   8.937   1.882 -0.0598  0.1504  1.7243
38115SOL    HW217239   3.072   9.008   1.845 -0.2694  0.1672  2.4664
38116SOL     OW17240   5.524   0.080   7.770  0.1475  0.3724  0.1097
38116SOL    HW117241   5.462   0.094   7.699  0.3593  0.3252 -0.0861
38116SOL    HW217242   5.470   0.073   7.849 -0.0960  0.2765 -0.0674
38117SOL     OW17243   4.246  10.285   4.613  0.4221 -0.0923 -0.5935
38117SOL    HW117244   4.171  10.261   4.668  0.5806 -2.0940 -1.1522
38117SOL    HW217245   4.215  10.359   4.561  0.2768  1.8644  2.1073
38118SOL     OW17246   3.281  10.597   0.573 -0.6014  0.2596 -0.3876
38118SOL    HW117247   3.199  10.593   0.622 -0.8845  0.8318 -0.7986
38118SOL    HW217248   3.332  10.523   0.605  0.0089  1.6485  2.1712
38119SOL     OW17249  10.319   0.156   4.700  0.3243  0.0584 -0.1801
38119SOL    HW117250  10.397   0.136   4.751  1.2982  2.9419 -0.3523
38119SOL    HW217251  10.246   0.140   4.761  1.2508  0.3673  1.0571
38120SOL     OW17252  10.547   1.512   4.797 -0.3961  0.6863  0.1882
38120SOL    HW117253  10.478   1.482   4.738 -0.5993  0.2903  0.6256
38120SOL    HW217254  10.622   1.527   4.739  0.3561 -2.5442  0.1357
38121SOL     OW17255   7.721   3.450   4.564  0.1412  0.1136 -0.0714
38121SOL    HW117256   7.808   3.466   4.527 -0.7446  2.5813 -1.2895
38121SOL    HW217257   7.686   3.378   4.511  1.1855 -0.5020  0.0428
38122SOL     OW17258   8.868   6.455   2.263  0.0076  0.0729  0.1128
38122SOL    HW117259   8.930   6.395   2.221  0.5789  0.3813  0.4833
38122SOL    HW217260   8.865   6.425   2.354 -0.8269 -0.2819 -0.0258
38123SOL     OW17261  10.279   9.517   0.051  0.1370 -0.1016 -0.3856
38123SOL    HW117262  10.308   9.608   0.065 -2.0847  0.4334  1.2920
38123SOL    HW217263  10.301   9.472   0.132 -3.5836  0.3819  1.0629
38124SOL     OW17264   1.334   2.863   3.281  0.2140 -0.5281  0.0433
38124SOL    HW117265   1.370   2.825   3.361 -0.1410 -1.6520 -0.3132
38124SOL    HW217266   1.406   2.856   3.217 -0.0800 -1.2579 -0.2147
38125SOL     OW17267   1.942   6.330   7.592 -0.2417  0.2565 -0.0250
38125SOL    HW117268   1.968   6.416   7.559 -0.4545  0.6165  0.7225
38125SOL    HW217269   1.920   6.279   7.513  1.1832  0.4429 -0.5623
38126SOL     OW17270   6.560   1.878   8.008 -0.4630  0.0452  0.7553
38126SOL    HW117271   6.596   1.909   8.091  2.4094  0.4098 -0.5399
38126SOL    HW217272   6.623   1.813   7.977 -0.8349  0.7528 -1.6830
38127SOL     OW17273   9.131   8.786   0.294 -0.4704  0.5106 -0.0590
38127SOL    HW117274   9.045   8.827   0.299  0.3391  2.1597  1.1945
38127SOL    HW217275   9.170   8.823   0.215 -0.7950 -0.0869 -0.5170
38128SOL     OW17276   3.928   8.213   5.353 -0.6556  0.5579 -0.1480
38128SOL    HW117277   3.989   8.150   5.390 -1.6865 -0.5580 -0.2723
38128SOL    HW217278   3.934   8.289   5.410  0.0726  0.0665  0.4522
38129SOL     OW17279   0.519   8.448   9.701  0.3149  0.3910  0.7722
38129SOL    HW117280   0.462   8.475   9.774  0.1339  1.3493  0.2950
38129SOL    HW217281   0.575   8.524   9.686 -0.9844  0.9969 -1.3934
38130SOL     OW17282   1.521   0.284   0.334  0.0044 -0.2168  0.1957
38130SOL    HW117283   1.568   0.240   0.263  0.7885 -0.9854  1.1672
38130SOL    HW217284   1.524   0.223   0.407  1.7980  1.6885  1.8542
38131SOL     OW17285   0.609   5.077   3.146 -0.0806  0.0676 -0.0071
38131SOL    HW117286   0.519   5.088   3.179 -0.0204  0.4136  0.0482
38131SOL    HW217287   0.659   5.144   3.192  0.8281 -1.9880  2.2338
38132SOL     OW17288   0.130   6.648   0.029 -0.1902 -0.1089  0.1416
38132SOL    HW117289   0.196   6.634  -0.038  0.4995  0.9344  0.5830
38132SOL    HW217290   0.096   6.736   0.012 -0.3338 -0.0125  0.8855
38133SOL     OW17291   7.999   6.405   7.149  0.0350 -0.1078 -0.0984
38133SOL    HW117292   7.921   6.429   7.099  0.1516  0.1254 -0.1681
38133SOL    HW217293   8.071   6.418   7.089  0.1978  0.3938  0.2023
38134SOL     OW17294   1.662   5.169   5.156 -0.4980 -0.1537  0.5487
38134SOL    HW117295   1.641   5.121   5.076 -0.8470 -2.0035  1.6877
38134SOL    HW217296   1.583   5.219   5.175 -1.1928 -1.3039  0.8077
38135SOL     OW17297   0.319   8.769   4.509  0.2549  0.5282  0.0375
38135SOL    HW117298   0.359   8.685   4.532  1.7459  1.5748  1.5511
38135SOL    HW217299   0.275   8.798   4.589  0.9748  1.8198  0.0035
38136SOL     OW17300   1.791   4.485   4.118  0.1085  0.1431 -0.0966
38136SOL    HW117301   1.828   4.554   4.063  1.9520 -0.4909  0.2602
38136SOL    HW217302   1.730   4.439   4.060  0.3685  0.8306 -0.9415
38137SOL     OW17303   1.854   1.276  10.793 -0.0905  0.0222  0.1937
38137SOL    HW117304   1.869   1.182  10.804 -2.5265 -0.4956 -0.4113
38137SOL    HW217305   1.777   1.282  10.737  0.0733  2.4094  0.1209
38138SOL     OW17306   8.821   1.149   9.850  0.0593  0.7068 -0.0574
38138SOL    HW117307   8.824   1.111   9.938  1.4928  0.5558 -0.1496
38138SOL    HW217308   8.901   1.118   9.808 -0.5146  0.9301 -1.3601
38139SOL     OW17309   7.550   2.951   4.166 -0.7909  0.0469  0.1478
38139SOL    HW117310   7.644   2.942   4.180 -1.1504 -1.7390  1.8952
38139SOL    HW217311   7.517   2.989   4.248 -1.7360 -0.7705  0.1741
38140SOL     OW17312   3.202   7.715   7.562  0.0166 -0.2506  0.2621
38140SOL    HW117313   3.231   7.717   7.654 -2.0823  0.8353  0.9582
38140SOL    HW217314   3.177   7.624   7.547  1.3768 -0.6768  0.3889
38141SOL     OW17315   9.827   3.845   7.969 -0.2488 -0.2343 -0.0576
38141SOL    HW117316   9.810   3.819   8.060  0.7969 -2.9428 -0.5444
38141SOL    HW217317   9.768   3.790   7.917 -2.3647  2.7018 -1.0746
38142SOL     OW17318   3.121  10.458   7.592 -0.0715 -0.2442  0.2307
38142SOL    HW117319   3.159  10.389   7.537 -1.0094  1.1102 -2.2815
38142SOL    HW217320   3.190  10.523   7.601 -0.4513  0.3659 -0.9667
38143SOL     OW17321   8.244   2.514   5.738 -0.5463  0.1716 -0.1897
38143SOL    HW117322   8.243   2.507   5.833 -1.4451 -0.3383 -0.2269
38143SOL    HW217323   8.197   2.437   5.708 -1.1991  0.8705 -1.0159
38144SOL     OW17324   9.946   2.943  10.127  0.4420  0.5533  0.0672
38144SOL    HW117325   9.870   2.992  10.158  1.0458  1.4263  0.1853
38144SOL    HW217326  10.006   2.943  10.201  1.4245  1.6732 -0.7074
38145SOL     OW17327   9.179   4.704   6.327  0.4343 -0.3449 -0.4122
38145SOL    HW117328   9.160   4.688   6.420  3.5289  1.5972  0.7204
38145SOL    HW217329   9.104   4.754   6.296 -0.7376 -1.1497  0.9522
38146SOL     OW17330  10.452   7.269   4.623 -0.1566  0.1179  0.1342
38146SOL    HW117331  10.426   7.306   4.539  2.5878 -2.5792 -2.1222
38146SOL    HW217332  10.528   7.321   4.649  0.8550 -0.8999 -0.6808
38147SOL     OW17333   9.826   4.255   5.902  0.2521  0.9728  0.0618
38147SOL    HW117334   9.840   4.336   5.853  1.3980  1.0099  0.4234
38147SOL    HW217335   9.739   4.224   5.873 -1.3105  3.5356  1.6225
38148SOL     OW17336   0.669   9.287   0.718  0.5252  0.1982 -0.2227
38148SOL    HW117337   0.730   9.272   0.645 -0.5228 -1.5866 -0.7909
38148SOL    HW217338   0.719   9.261   0.795  0.8525 -0.1770 -0.5543
38149SOL     OW17339   2.166   9.885   2.879  0.4560 -0.4946 -0.2709
38149SOL    HW117340   2.166   9.865   2.972  1.0112  1.1398  0.1051
38149SOL    HW217341   2.259   9.889   2.855  0.4179 -4.4317 -1.7645
38150SOL     OW17342   0.584  10.600   0.112 -0.5941  0.2810 -0.2962
38150SOL    HW117343   0.627  10.547   0.045 -1.2417 -0.4207 -0.1630
38150SOL    HW217344   0.606  10.691   0.088 -0.9833  0.0584 -1.5710
38151SOL     OW17345   2.308   8.380   8.021  0.4725  0.4709 -0.1870
38151SOL    HW117346   2.338   8.365   8.111 -0.6530  1.5013  0.3822
38151SOL    HW217347   2.323   8.297   7.977  0.6626 -0.1834  1.0641
38152SOL     OW17348   0.201   5.509   5.401 -0.3302  0.5317  0.2600
38152SOL    HW117349   0.204   5.581   5.464 -1.7074 -0.2930  1.3371
38152SOL    HW217350   0.108   5.485   5.396  0.1261 -1.3837  0.2149
38153SOL     OW17351   9.708   7.470  10.052  0.2127 -0.0421 -0.1757
38153SOL    HW117352   9.754   7.523  10.117 -0.1414  0.6648 -0.4881
38153SOL    HW217353   9.736   7.380  10.070 -1.1123 -0.0901  1.9897
38154SOL     OW17354   2.167   4.995   3.648  0.4410 -0.5125  0.1746
38154SOL    HW117355   2.157   4.904   3.621 -0.9372 -0.4538  0.4397
38154SOL    HW217356   2.144   5.046   3.571  0.4861 -0.3753  0.2516
38155SOL     OW17357   8.077   2.063  10.126 -1.1866  0.0128  0.3873
38155SOL    HW117358   8.031   2.146  10.116 -2.0734 -0.6162 -1.3402
38155SOL    HW217359   8.027   2.002  10.071  1.7207 -0.7160 -1.6558
38156SOL     OW17360   0.181   2.775   0.874 -0.0195  0.5135 -0.6381
38156SOL    HW117361   0.232   2.694   0.868  0.3948  0.6523  0.5337
38156SOL    HW217362   0.102   2.758   0.824 -1.6789 -2.0107  2.4255
38157SOL     OW17363   0.270   6.645  10.541 -0.7489  0.1978  0.0809
38157SOL    HW117364   0.281   6.631  10.446  0.9903 -1.4212  0.4533
38157SOL    HW217365   0.311   6.730  10.558  0.0191 -0.0453 -0.4714
38158SOL     OW17366   9.143   6.828   6.684  0.7629 -0.0509  0.1660
38158SOL    HW117367   9.118   6.920   6.675 -0.0848 -0.3259 -0.3761
38158SOL    HW217368   9.116   6.788   6.601 -0.6641 -1.1857  1.1430
38159SOL     OW17369   7.013   0.071   7.004  0.0689  0.2433  0.2380
38159SOL    HW117370   6.999   0.163   6.982  2.2097  0.2581 -1.4210
38159SOL    HW217371   7.097   0.049   6.963 -0.3649 -2.4592  0.6091
38160SOL     OW17372   4.516   6.916   8.652  0.0993 -0.3094 -0.0697
38160SOL    HW117373   4.584   6.980   8.631  0.1537 -0.0937  0.7355
38160SOL    HW217374   4.549   6.833   8.617  0.8345 -0.2290  0.4380
38161SOL     OW17375  10.757   4.007   8.155 -0.7410 -0.1879 -0.3858
38161SOL    HW117376  10.785   3.924   8.194  2.1856  0.6733 -0.4409
38161SOL    HW217377  10.662   4.009   8.170 -0.6823 -2.7746  1.0194
38162SOL     OW17378   3.553  10.049   7.028  0.1199  0.9687  0.1701
38162SOL    HW117379   3.503  10.093   7.097 -0.7697 -0.0739  0.2118
38162SOL    HW217380   3.495  10.048   6.953  0.0748 -0.2297  0.2047
38163SOL     OW17381   7.262   6.342   5.079  0.1841  0.4780  0.1367
38163SOL    HW117382   7.317   6.401   5.028 -0.5293  0.4990 -0.6236
38163SOL    HW217383   7.220   6.399   5.144 -0.3070  0.7643 -0.4306
38164SOL     OW17384   3.555  10.678   8.396  0.0329 -0.0509  0.2968
38164SOL    HW117385   3.494  10.623   8.445 -1.5158  2.1167  0.9310
38164SOL    HW217386   3.514  10.764   8.393  0.9089  0.4224 -3.2764
38165SOL     OW17387   6.098   4.640   4.784 -0.1733  0.0169 -0.3125
38165SOL    HW117388   6.071   4.622   4.694 -3.3944  0.0368  0.5497
38165SOL    HW217389   6.115   4.734   4.785  1.6082 -0.2367 -1.2201
38166SOL     OW17390   9.858   1.894   4.948 -0.0387 -0.3832  0.5686
38166SOL    HW117391   9.773   1.856   4.973  0.1323 -1.3219 -0.1966
38166SOL    HW217392   9.889   1.837   4.878  1.4018 -0.2649  1.0840
38167SOL     OW17393   7.781   5.007   8.557 -0.3638 -0.1629  0.1959
38167SOL    HW117394   7.739   4.932   8.515 -1.6260  0.4541  0.3153
38167SOL    HW217395   7.736   5.083   8.521 -0.9382  0.4171  2.0573
38168SOL     OW17396   6.542   1.769   5.725 -0.1737  0.1411  0.2831
38168SOL    HW117397   6.616   1.830   5.733 -1.0131  1.0610  1.5404
38168SOL    HW217398   6.476   1.819   5.678  0.4878 -1.2085 -2.2540
38169SOL     OW17399   3.822   2.705   9.314 -0.1712 -0.4259 -0.5833
38169SOL    HW117400   3.729   2.724   9.324 -0.2811 -1.3168  0.2678
38169SOL    HW217401   3.833   2.683   9.222 -0.6050  0.6366 -0.9080
38170SOL     OW17402  10.680   7.783   0.163  0.5177  0.3780  0.3763
38170SOL    HW117403  10.690   7.877   0.180  0.5403  0.1348  1.8508
38170SOL    HW217404  10.586   7.768   0.165  0.5188  0.3538  0.2267
38171SOL     OW17405   4.505   8.593   2.010  0.5472 -0.5233 -0.4315
38171SOL    HW117406   4.446   8.526   1.975  0.9211 -2.1701  1.8732
38171SOL    HW217407   4.448   8.667   2.030 -0.2461 -0.9712 -0.9671
38172SOL     OW17408   8.421   7.076  10.153 -0.1803 -0.1032 -0.1643
38172SOL    HW117409   8.489   7.028  10.107 -0.0866  0.9312 -1.1566
38172SOL    HW217410   8.468   7.128  10.218 -0.2519 -1.0631  0.6777
38173SOL     OW17411   1.112   1.622   2.128  0.2711  0.2598 -0.5177
38173SOL    HW117412   1.107   1.657   2.217  1.5579 -1.0095  0.0888
38173SOL    HW217413   1.029   1.575   2.117 -0.1550  0.9171 -0.2341
38174SOL     OW17414   9.845   6.654  10.341  0.5729 -0.0148  0.0088
38174SOL    HW117415   9.799   6.700  10.412  3.2310  1.3924  0.9452
38174SOL    HW217416   9.800   6.569  10.335 -2.7676  1.5759  0.0793
38175SOL     OW17417   7.780   3.189   5.565 -0.7639  0.2235  0.0143
38175SOL    HW117418   7.704   3.234   5.528 -0.6540 -0.0340 -0.5318
38175SOL    HW217419   7.783   3.105   5.520 -2.2327 -1.2859  2.5607
38176SOL     OW17420   9.043   5.846   9.399  0.0205  0.0286 -0.7928
38176SOL    HW117421   9.088   5.926   9.427 -0.9533  0.2677  0.1464
38176SOL    HW217422   9.081   5.826   9.313 -0.3304  1.9782 -1.4448
38177SOL     OW17423   7.501  10.610   0.512  0.4603 -0.4795 -0.3493
38177SOL    HW117424   7.493  10.558   0.432  2.6184 -1.2709 -0.1016
38177SOL    HW217425   7.595  10.620   0.526  0.1241  0.9607  1.2679
38178SOL     OW17426   3.008   4.656   2.552  0.1584 -0.5122 -0.1311
38178SOL    HW117427   2.914   4.661   2.535 -0.0380 -1.0110  0.7790
38178SOL    HW217428   3.044   4.731   2.505 -0.8592  0.4953  0.6241
38179SOL     OW17429   7.921   8.588   5.949  0.1658  0.3406 -0.1459
38179SOL    HW117430   7.941   8.666   5.898  0.5486  0.6034  0.4018
38179SOL    HW217431   7.980   8.592   6.024 -0.6130  0.1323  0.4962
38180SOL     OW17432   1.888   0.329   4.037 -0.1497 -0.5290 -0.0351
38180SOL    HW117433   1.970   0.279   4.040 -1.0768 -2.2051 -0.9381
38180SOL    HW217434   1.888   0.371   3.950 -0.0633 -0.2012  0.1231
38181SOL     OW17435  10.793   4.487   8.656 -0.4246  0.2141  0.0666
38181SOL    HW117436  10.780   4.433   8.579  0.5538  0.2844 -0.1584
38181SOL    HW217437  10.871   4.539   8.637 -0.8892  1.1488  0.5882
38182SOL     OW17438   6.404   4.440   9.103  0.1470  0.4187 -0.0188
38182SOL    HW117439   6.389   4.476   9.190  1.7608  0.7836  0.1516
38182SOL    HW217440   6.404   4.345   9.117 -1.3658  0.4038  0.0300
38183SOL     OW17441   6.507   0.549   5.778 -0.4684  0.2042  0.2048
38183SOL    HW117442   6.438   0.615   5.772  0.5649  1.4386  1.3176
38183SOL    HW217443   6.525   0.541   5.872  0.5571 -0.4660 -0.0328
38184SOL     OW17444   1.294   2.707   5.990 -0.2230  0.0819 -0.1953
38184SOL    HW117445   1.279   2.673   6.078 -0.3222  0.4044 -0.0885
38184SOL    HW217446   1.354   2.780   6.002  0.8161 -0.6897 -0.5327
38185SOL     OW17447  10.536   2.943   8.215  0.0326 -0.5244 -0.3068
38185SOL    HW117448  10.541   2.925   8.121  0.0232 -0.9144 -0.2333
38185SOL    HW217449  10.536   3.039   8.221  0.1105 -0.4984 -0.6991
38186SOL     OW17450  10.641   8.905   9.783 -0.0695  0.1722 -0.5162
38186SOL    HW117451  10.691   8.845   9.838  3.7358  2.3523 -1.1848
38186SOL    HW217452  10.590   8.957   9.844 -0.3490 -1.1073  0.3908
38187SOL     OW17453   0.649   1.715  10.511 -0.9106 -0.0649 -0.3616
38187SOL    HW117454   0.592   1.684  10.581 -1.2377 -2.9596 -1.7421
38187SOL    HW217455   0.723   1.755  10.556 -1.6946 -0.6984  1.5990
38188SOL     OW17456   2.056   3.462   6.554 -0.6875 -0.1108  0.5755
38188SOL    HW117457   2.134   3.408   6.563 -0.2243  0.6382  1.1713
38188SOL    HW217458   2.078   3.544   6.599 -1.3284  0.6205 -0.4007
38189SOL     OW17459   5.654   8.341   9.086  0.0566 -0.1895 -0.7811
38189SOL    HW117460   5.662   8.408   9.018  1.9558  0.1894 -0.2414
38189SOL    HW217461   5.621   8.389   9.163 -0.1648 -0.2177 -0.8568
38190SOL     OW17462   3.371   2.796   4.242 -0.1998 -0.2138  0.0238
38190SOL    HW117463   3.376   2.873   4.184  0.7227 -0.0151  0.3447
38190SOL    HW217464   3.346   2.724   4.184  0.8816 -0.0500 -0.6777
38191SOL     OW17465   3.954   0.462   7.316 -0.2295  0.2505 -0.5347
38191SOL    HW117466   4.000   0.405   7.254  1.2679  0.4762  0.3281
38191SOL    HW217467   3.976   0.551   7.287  1.8572  0.3859  1.1980
38192SOL     OW17468   9.366   2.252   5.463 -0.3871  0.1212 -0.3350
38192SOL    HW117469   9.442   2.266   5.408 -0.5649 -0.8454 -0.8567
38192SOL    HW217470   9.366   2.325   5.524 -0.1731  1.2133 -1.6031
38193SOL     OW17471   9.637   2.851  10.181 -0.3148  0.0749  0.3858
38193SOL    HW117472   9.583   2.871  10.105  0.6420  3.0509  0.3842
38193SOL    HW217473   9.690   2.776  10.154 -0.8636  0.3046 -1.4207
38194SOL     OW17474   6.174  10.495   5.888 -0.2791  1.1410 -0.5455
38194SOL    HW117475   6.147  10.487   5.979 -0.1002  1.9906 -0.4056
38194SOL    HW217476   6.134  10.577   5.858  0.2440  1.2340 -1.0118
38195SOL     OW17477   4.362   0.834   5.723  0.0411 -0.2859  0.9606
38195SOL    HW117478   4.388   0.757   5.672  0.9166 -1.4438  3.0017
38195SOL    HW217479   4.267   0.841   5.710  0.1621 -0.8373 -0.3655
38196SOL     OW17480   9.915   4.211   3.081 -0.1751  0.3846  0.0727
38196SOL    HW117481   9.890   4.193   3.172  1.8144  3.6297  1.4173
38196SOL    HW217482   9.985   4.149   3.063 -2.0474 -1.8261 -0.1868
38197SOL     OW17483   7.586   3.495   5.845  0.4906  0.2214  0.1446
38197SOL    HW117484   7.626   3.554   5.909 -1.5778  1.3213  0.5220
38197SOL    HW217485   7.564   3.550   5.771  2.6888 -1.0193 -1.5314
38198SOL     OW17486   9.611   1.344   0.015  0.1950 -0.0498 -0.2510
38198SOL    HW117487   9.675   1.380   0.077  0.6927  1.0915 -1.3860
38198SOL    HW217488   9.601   1.253   0.041  0.7065  0.2976  1.2420
38199SOL     OW17489   7.578   4.321   7.325 -0.1963 -0.1333 -0.3096
38199SOL    HW117490   7.641   4.254   7.353 -0.3715  0.0466  0.5616
38199SOL    HW217491   7.612   4.402   7.364  0.7468  0.5545 -2.4423
38200SOL     OW17492  10.691   6.756  10.639  0.3333  0.2644 -0.6492
38200SOL    HW117493  10.682   6.675  10.589  0.3661  0.4552 -0.9712
38200SOL    HW217494  10.734   6.816  10.579 -1.4313  1.1316 -1.1242
38201SOL     OW17495   5.273   3.199   0.824  0.4799 -0.5097  0.5280
38201SOL    HW117496   5.199   3.256   0.845  1.3982  0.4655  1.1539
38201SOL    HW217497   5.238   3.139   0.758 -0.7495  0.2114  0.4937
38202SOL     OW17498   6.529   5.565   2.696  0.0834 -0.1963 -0.1158
38202SOL    HW117499   6.577   5.532   2.771 -0.0750 -1.6428 -0.6091
38202SOL    HW217500   6.471   5.632   2.732  2.0864  1.2613  0.5533
38203SOL     OW17501   7.329   1.464   7.795 -0.6159 -0.6829 -1.4049
38203SOL    HW117502   7.338   1.378   7.753 -0.0792 -1.6264  0.5374
38203SOL    HW217503   7.417   1.502   7.789 -0.2290 -1.3285 -0.1452
38204SOL     OW17504   6.312   1.759   6.759  0.2022 -0.0607 -0.0870
38204SOL    HW117505   6.387   1.705   6.734  0.5611  0.6618 -0.6154
38204SOL    HW217506   6.239   1.726   6.706 -0.4232 -2.1934  1.9768
38205SOL     OW17507   1.086   3.339   9.022  0.0744 -0.5634 -0.2838
38205SOL    HW117508   1.113   3.353   9.112 -0.8028  0.8859 -0.2079
38205SOL    HW217509   1.116   3.417   8.975 -1.5977 -0.1184 -0.7065
38206SOL     OW17510   4.884   1.846   4.820 -0.7162  0.5648 -0.5245
38206SOL    HW117511   4.868   1.891   4.737  1.0221  0.6234 -0.8609
38206SOL    HW217512   4.966   1.799   4.806 -1.6168 -1.4110  0.3677
38207SOL     OW17513   7.422   8.579   6.848 -0.1442  0.0538 -0.0688
38207SOL    HW117514   7.487   8.511   6.867 -1.4224 -1.4049 -0.7026
38207SOL    HW217515   7.394   8.561   6.758 -0.9836  1.0265 -0.0242
38208SOL     OW17516   1.464   5.883   0.207  0.6210 -0.4849 -0.6838
38208SOL    HW117517   1.452   5.872   0.112  0.5307  0.6081 -0.8092
38208SOL    HW217518   1.468   5.794   0.241 -0.0375 -0.8920 -1.6311
38209SOL     OW17519   4.277   8.756   9.354 -0.0989  0.0419  0.3684
38209SOL    HW117520   4.274   8.850   9.337 -1.4221 -0.1141 -0.3805
38209SOL    HW217521   4.291   8.717   9.268 -1.0192 -0.5060  0.4590
38210SOL     OW17522   4.962   0.606   6.676 -0.0223  0.0676  0.2348
38210SOL    HW117523   5.026   0.605   6.605 -0.2534 -0.3778  0.0339
38210SOL    HW217524   4.878   0.619   6.633 -0.1530 -0.1128  0.4362
38211SOL     OW17525   8.430  10.281   6.688  0.0463 -0.0876 -0.4171
38211SOL    HW117526   8.491  10.208   6.684 -0.3969 -0.7499  2.5100
38211SOL    HW217527   8.486  10.359   6.682  0.9918 -0.6822  0.3754
38212SOL     OW17528   2.111   3.358   3.642 -0.0786  0.3446 -0.5839
38212SOL    HW117529   2.085   3.338   3.731 -0.5938 -2.3164 -1.2560
38212SOL    HW217530   2.192   3.309   3.628 -0.2572  0.3412 -1.7102
38213SOL     OW17531   1.941   0.960   9.857  0.6025  0.0216 -0.1805
38213SOL    HW117532   2.021   0.929   9.899 -1.3918 -1.9992  2.5340
38213SOL    HW217533   1.911   1.032   9.913 -1.7398 -2.2507  1.7448
38214SOL     OW17534   7.083   3.809   4.670  0.2496  0.2735  0.3304
38214SOL    HW117535   7.174   3.813   4.640 -0.4380 -1.6455 -2.3783
38214SOL    HW217536   7.036   3.871   4.615 -0.4893 -0.8118 -0.3142
38215SOL     OW17537   9.751   4.677   8.392  0.7572  0.4711  0.0619
38215SOL    HW117538   9.662   4.680   8.359 -0.9239 -0.5287  3.9045
38215SOL    HW217539   9.779   4.768   8.394 -0.6965  0.9498 -0.1011
38216SOL     OW17540   0.164   0.197   0.453  0.2939  0.0415 -0.3654
38216SOL    HW117541   0.095   0.244   0.499  0.8946  1.1306 -0.5537
38216SOL    HW217542   0.209   0.148   0.522  0.3133  0.5692  0.0070
38217SOL     OW17543   8.159   5.163   0.637 -0.4768 -0.3047 -0.2916
38217SOL    HW117544   8.122   5.093   0.690 -1.3553  0.8723  0.6858
38217SOL    HW217545   8.184   5.120   0.555 -1.2700 -1.6915  0.1685
38218SOL     OW17546   8.854   3.043   3.087  0.0114 -0.2702  0.1311
38218SOL    HW117547   8.905   3.108   3.135 -1.4802  0.0112  1.4308
38218SOL    HW217548   8.853   3.075   2.997  1.4593  0.0971  0.2243
38219SOL     OW17549   7.018   3.125   8.492  0.1731  0.2446 -0.2453
38219SOL    HW117550   7.040   3.209   8.532 -0.3065  1.2127 -1.9316
38219SOL    HW217551   6.954   3.087   8.552  2.5649 -0.3637  2.1197
38220SOL     OW17552   8.649   9.058   8.613 -0.3288 -0.2628  0.3602
38220SOL    HW117553   8.574   9.051   8.553  0.6428 -2.0246 -0.7260
38220SOL    HW217554   8.640   8.983   8.672  0.2059 -0.0892  0.6688
38221SOL     OW17555   3.029   5.133   8.450  0.0099 -0.1420 -0.8718
38221SOL    HW117556   3.053   5.149   8.542  0.4187  0.1454 -1.0278
38221SOL    HW217557   3.008   5.040   8.447  0.8593 -0.3457 -0.6767
38222SOL     OW17558   0.417   9.406   4.686  0.0928 -0.0668 -0.6850
38222SOL    HW117559   0.324   9.382   4.684 -0.1057  0.3323  1.4403
38222SOL    HW217560   0.452   9.362   4.764  1.5170  0.3937 -1.0211
38223SOL     OW17561   7.232   3.995   2.193  0.7601  0.1924  0.4169
38223SOL    HW117562   7.142   4.008   2.162  1.4617 -0.7530 -2.2800
38223SOL    HW217563   7.240   3.901   2.203  1.6111  0.2086 -0.0180
38224SOL     OW17564   5.249   5.240   0.361  0.3317 -0.1575  0.2963
38224SOL    HW117565   5.282   5.189   0.287  0.3057 -0.2250  0.3310
38224SOL    HW217566   5.294   5.324   0.354 -0.7109  0.3428 -0.5994
38225SOL     OW17567   4.112   7.075   0.626 -0.5769  0.3553 -0.1993
38225SOL    HW117568   4.089   7.165   0.602  1.0895  0.8119 -0.2240
38225SOL    HW217569   4.075   7.021   0.556  0.4089  1.2560 -1.4539
38226SOL     OW17570   0.348   0.210   7.402  0.1451 -0.5375  0.1962
38226SOL    HW117571   0.430   0.180   7.442 -0.1384  0.3520  1.5144
38226SOL    HW217572   0.331   0.147   7.332  0.9666 -1.8373  1.1198
38227SOL     OW17573   2.215   7.836   8.218  0.5437 -0.5601 -0.1167
38227SOL    HW117574   2.183   7.767   8.276  0.7926 -0.4391  0.1695
38227SOL    HW217575   2.184   7.811   8.131 -3.3284  1.2908  0.5150
38228SOL     OW17576   2.469   0.687   5.142 -0.6299 -0.0647  0.0183
38228SOL    HW117577   2.530   0.662   5.072 -1.1830 -2.0567  0.1786
38228SOL    HW217578   2.514   0.660   5.223  0.1211  2.4536  0.5195
38229SOL     OW17579   3.314   0.447   1.933  0.3495 -0.2174 -0.0173
38229SOL    HW117580   3.237   0.430   1.987 -0.7864  0.9766 -1.1795
38229SOL    HW217581   3.312   0.379   1.865 -0.2547  0.3819 -0.6136
38230SOL     OW17582   0.781   9.308   9.514  0.4864  0.1346 -0.2607
38230SOL    HW117583   0.780   9.265   9.429  0.0994  1.1274 -0.7704
38230SOL    HW217584   0.689   9.312   9.540  0.4829  0.9040 -0.3599
38231SOL     OW17585   2.927   5.440   6.099 -0.1113 -0.0357 -0.0021
38231SOL    HW117586   2.843   5.481   6.081 -0.0752 -0.6011 -1.6255
38231SOL    HW217587   2.977   5.450   6.017  0.9820 -0.6966  0.5522
38232SOL     OW17588   4.883   8.939   5.752  0.0188 -0.2222 -0.8487
38232SOL    HW117589   4.836   8.914   5.831 -0.3461 -0.5441 -1.1629
38232SOL    HW217590   4.924   9.023   5.773 -2.1288  0.9678 -1.1467
38233SOL     OW17591   4.306   3.175   8.296 -0.0641 -0.6741  0.6620
38233SOL    HW117592   4.380   3.196   8.354  0.1863  1.6413 -0.3639
38233SOL    HW217593   4.243   3.130   8.353  1.7978 -2.1041  1.7251
38234SOL     OW17594   9.010   5.343   0.639  0.3425 -0.0754  0.3722
38234SOL    HW117595   9.010   5.300   0.725  2.5423  1.5556  1.2814
38234SOL    HW217596   9.039   5.275   0.578 -1.0636 -1.1990  0.8968
38235SOL     OW17597   5.282   7.393  10.062  0.3740  0.4250  0.4073
38235SOL    HW117598   5.312   7.445  10.136  0.2632 -0.2662  0.9490
38235SOL    HW217599   5.323   7.434   9.986  3.9764 -1.2720  1.2112
38236SOL     OW17600   6.779   6.585   3.196  0.1401  0.0067  0.4975
38236SOL    HW117601   6.866   6.546   3.188  0.2352 -0.0669  1.6764
38236SOL    HW217602   6.739   6.538   3.269 -1.4132 -0.8936 -0.8659
38237SOL     OW17603   8.928   9.354   0.677 -0.0626  0.4704  0.9664
38237SOL    HW117604   8.890   9.345   0.765  0.1192 -0.5825  0.9433
38237SOL    HW217605   9.022   9.361   0.693  0.1144 -1.2323  0.7833
38238SOL     OW17606  10.433   6.601   2.055  0.7508  0.0462 -0.0057
38238SOL    HW117607  10.390   6.531   2.006 -1.1496  0.1545  1.3961
38238SOL    HW217608  10.526   6.579   2.052  0.6272 -0.4541 -2.7959
38239SOL     OW17609   2.987   1.897   1.418  0.0395  1.0418 -0.2512
38239SOL    HW117610   2.935   1.824   1.451 -0.8088  1.0911 -1.4293
38239SOL    HW217611   3.045   1.920   1.491 -0.6941  0.1497  0.6394
38240SOL     OW17612   6.472   7.559   3.299  0.3493 -0.5699 -0.4762
38240SOL    HW117613   6.406   7.513   3.248 -1.0278 -1.5984  2.0387
38240SOL    HW217614   6.458   7.652   3.280 -1.6044 -0.7970 -0.2954
38241SOL     OW17615   1.762   4.728   5.034 -0.6438  0.3700  0.3509
38241SOL    HW117616   1.771   4.666   5.107  0.0944 -0.0763 -0.1105
38241SOL    HW217617   1.678   4.705   4.994 -2.4483  2.3679  2.6541
38242SOL     OW17618   0.106  10.477   9.188 -0.4221  0.1529  0.4836
38242SOL    HW117619   0.164  10.509   9.256  0.8454  1.8351 -1.2714
38242SOL    HW217620   0.075  10.556   9.143 -1.7020 -0.8534 -0.5121
38243SOL     OW17621   3.691   3.714   2.242  0.2326  0.1205  0.3387
38243SOL    HW117622   3.686   3.687   2.334  3.1036 -1.1250  0.2367
38243SOL    HW217623   3.644   3.646   2.194  1.2210 -0.8415  0.6876
38244SOL     OW17624   0.412   7.611   7.693 -0.4197  0.1346 -0.1264
38244SOL    HW117625   0.318   7.598   7.689 -0.6277  1.3669  0.1509
38244SOL    HW217626   0.426   7.660   7.774  0.3293  0.8596 -0.6772
38245SOL     OW17627   4.591   8.842   4.256 -0.3070  0.0630 -0.4987
38245SOL    HW117628   4.593   8.907   4.326 -0.7947  0.7742 -1.1346
38245SOL    HW217629   4.499   8.817   4.249 -0.3250  0.2751 -1.1250
38246SOL     OW17630   5.811   4.456   7.447 -0.1700  0.5480  0.1122
38246SOL    HW117631   5.855   4.372   7.439 -1.5690 -0.1789 -0.0992
38246SOL    HW217632   5.872   4.519   7.407 -0.2014 -0.7171 -2.0527
38247SOL     OW17633   0.038   9.702   1.347 -0.3752 -0.9863 -0.5347
38247SOL    HW117634   0.069   9.646   1.277  1.2856 -1.7567  0.7332
38247SOL    HW217635  -0.003   9.642   1.410  0.8648 -0.7632  0.5394
38248SOL     OW17636   1.532   8.808   7.422  0.2350 -0.2668 -0.1992
38248SOL    HW117637   1.439   8.814   7.444  0.5588  0.9697  0.9374
38248SOL    HW217638   1.535   8.829   7.328 -0.4827  1.5436  0.1233
38249SOL     OW17639   2.314   6.742   0.749 -0.2350  0.4343 -0.0962
38249SOL    HW117640   2.379   6.675   0.770  0.5384  1.3181  0.3817
38249SOL    HW217641   2.308   6.795   0.828 -2.1648 -0.1078  0.1811
38250SOL     OW17642   6.233   8.446   9.728  0.5150  0.1898  0.2993
38250SOL    HW117643   6.196   8.406   9.649 -2.2982 -1.2107  2.1354
38250SOL    HW217644   6.286   8.377   9.767 -2.3364 -1.1517  2.1791
38251SOL     OW17645   2.108   2.831   2.052 -0.1273 -0.5630  0.6160
38251SOL    HW117646   2.071   2.808   2.137 -0.9588  0.7529  0.6527
38251SOL    HW217647   2.050   2.900   2.018  0.7752 -0.3248 -0.5471
38252SOL     OW17648   5.847   1.307   9.749  0.0947  0.3596 -0.2694
38252SOL    HW117649   5.860   1.320   9.656  0.4069 -0.8816 -0.4116
38252SOL    HW217650   5.853   1.395   9.787 -0.2971  0.9000 -1.4366
38253SOL     OW17651   1.153   7.922   3.306 -0.0652 -0.0775 -0.4300
38253SOL    HW117652   1.235   7.896   3.264  0.3513  0.0672  0.2786
38253SOL    HW217653   1.120   7.994   3.252  0.1657 -0.2627 -0.8261
38254SOL     OW17654   8.280   0.475   0.620 -0.1112  0.1499  0.1424
38254SOL    HW117655   8.290   0.404   0.683 -0.1102  0.2866  0.2970
38254SOL    HW217656   8.319   0.551   0.663  1.5127 -0.1485 -0.7231
38255SOL     OW17657  10.532  10.397   6.457 -0.0049 -0.1322 -0.2052
38255SOL    HW117658  10.552  10.464   6.522 -1.4501  0.8852 -0.7399
38255SOL    HW217659  10.568  10.432   6.375 -0.2284 -0.3009 -0.3757
38256SOL     OW17660   0.902   2.038   4.294 -0.3702  0.0594  0.3320
38256SOL    HW117661   0.922   1.973   4.361  0.1227 -0.3309 -0.1922
38256SOL    HW217662   0.889   2.119   4.343  2.1594  0.2881  0.7690
38257SOL     OW17663   7.009   8.191   5.676 -0.0958  0.0793 -0.2457
38257SOL    HW117664   7.017   8.170   5.583 -1.7065  0.7555 -0.5859
38257SOL    HW217665   6.914   8.195   5.691  0.1232  1.6900  1.0030
38258SOL     OW17666   2.910   3.875   8.647  0.2415  0.1025 -0.4194
38258SOL    HW117667   2.889   3.873   8.740  1.3104  0.4090 -0.1655
38258SOL    HW217668   2.999   3.840   8.641 -0.2320 -1.0058 -1.4566
38259SOL     OW17669   6.149  10.275   5.736  0.6039  0.5876  0.2242
38259SOL    HW117670   6.158  10.357   5.785 -0.9048  1.0199 -0.1727
38259SOL    HW217671   6.135  10.302   5.646  1.2307 -0.1509 -0.1027
38260SOL     OW17672   2.923   3.465   7.854  0.2897 -0.2245  0.3455
38260SOL    HW117673   2.898   3.420   7.773 -0.3342 -0.7030  0.7953
38260SOL    HW217674   2.864   3.541   7.858  1.0304  0.3928 -0.1761
38261SOL     OW17675   1.128   8.823   6.470 -0.0909 -0.3728  0.7205
38261SOL    HW117676   1.046   8.853   6.511 -0.2261 -0.9035  0.8448
38261SOL    HW217677   1.166   8.764   6.535 -0.2593 -1.1545  0.1198
38262SOL     OW17678   2.035   4.843  10.653 -0.2916 -0.1723 -0.4537
38262SOL    HW117679   2.102   4.897  10.695 -0.5466 -0.4305  0.2916
38262SOL    HW217680   2.055   4.753  10.680 -1.8204 -0.1079  1.0253
38263SOL     OW17681   5.694   8.938   1.799  0.6366 -0.3151 -0.0017
38263SOL    HW117682   5.666   9.009   1.742  0.5571 -0.4220 -0.0966
38263SOL    HW217683   5.744   8.981   1.868  0.9216 -0.2087 -0.2713
38264SOL     OW17684  10.320   5.508   0.948 -0.2483 -0.3607  0.5372
38264SOL    HW117685  10.316   5.603   0.933 -0.3983 -0.6259 -1.2976
38264SOL    HW217686  10.259   5.471   0.884 -0.9308 -1.6629  1.8645
38265SOL     OW17687   2.962   6.230   9.970 -0.2859  0.2970  0.4542
38265SOL    HW117688   3.012   6.267  10.043 -0.0249  0.2257  0.3146
38265SOL    HW217689   3.028   6.190   9.914 -0.4121  0.9278 -0.1605
38266SOL     OW17690   2.407   0.870   2.684 -0.0405 -0.4039 -0.0412
38266SOL    HW117691   2.475   0.809   2.656  2.3507  0.4035  3.3497
38266SOL    HW217692   2.372   0.831   2.764 -2.5586  0.0015 -0.8572
38267SOL     OW17693   1.465   2.766   8.305 -0.2233  1.1721 -0.6876
38267SOL    HW117694   1.498   2.721   8.227  1.5598 -2.0532  1.6694
38267SOL    HW217695   1.544   2.803   8.346 -0.6266  0.3007  0.9709
38268SOL     OW17696   3.038   1.049   5.219 -0.1175  0.1559 -0.0674
38268SOL    HW117697   2.994   1.134   5.221  0.8088  0.6551 -0.2135
38268SOL    HW217698   3.114   1.060   5.278  0.8335 -0.0911 -1.2141
38269SOL     OW17699   6.360   0.745   3.574  0.4841  0.3401 -0.0594
38269SOL    HW117700   6.364   0.778   3.484 -2.8946 -0.4468 -0.6126
38269SOL    HW217701   6.389   0.654   3.568 -1.2280 -0.2017 -0.7245
38270SOL     OW17702  10.499  10.389   6.874 -0.2130  0.1630  0.5573
38270SOL    HW117703  10.473  10.379   6.783  0.4456  0.7551  0.2984
38270SOL    HW217704  10.427  10.437   6.915 -0.4684 -0.0280  0.3336
38271SOL     OW17705   9.311   2.343  10.018 -0.5054  0.0126  0.2563
38271SOL    HW117706   9.353   2.264   9.984 -1.4455 -0.1545 -0.5729
38271SOL    HW217707   9.308   2.331  10.112  2.6788  0.7218  0.5483
38272SOL     OW17708   4.131   0.039   5.058 -0.5483  0.2512 -0.5150
38272SOL    HW117709   4.126   0.128   5.022 -0.5562  0.8263  0.8497
38272SOL    HW217710   4.121   0.051   5.153 -1.2649 -1.2750 -0.3730
38273SOL     OW17711   9.865   6.570   4.433 -0.7733  0.2651  0.2776
38273SOL    HW117712   9.944   6.556   4.485  1.0991  4.0543 -1.2269
38273SOL    HW217713   9.859   6.491   4.379  1.8471 -0.2799  0.6267
38274SOL     OW17714   6.346   0.411   6.473  0.3457  0.1802  0.0677
38274SOL    HW117715   6.292   0.378   6.544 -0.4286  0.9692 -0.1372
38274SOL    HW217716   6.431   0.427   6.513 -0.6667  2.7173  1.4116
38275SOL     OW17717   0.877   5.519   2.053  0.6069  0.7290 -0.7085
38275SOL    HW117718   0.904   5.608   2.074  0.9975  0.7807 -1.4043
38275SOL    HW217719   0.789   5.511   2.092  1.7520  0.3729  2.0723
38276SOL     OW17720   7.229   9.215   2.358  0.0068 -0.0737  0.5691
38276SOL    HW117721   7.189   9.301   2.346 -1.2744 -0.8848 -1.6828
38276SOL    HW217722   7.221   9.197   2.451  0.2813  2.2028  1.0943
38277SOL     OW17723   2.879   3.783   6.464  0.2318  0.3597  0.7189
38277SOL    HW117724   2.812   3.741   6.410 -0.7196  1.1052  1.2904
38277SOL    HW217725   2.866   3.746   6.551 -1.0604  2.2680  1.3864
38278SOL     OW17726  10.137   5.698   8.083 -0.2583  0.0880  0.3532
38278SOL    HW117727  10.095   5.722   8.001  0.8076 -1.0303 -0.5645
38278SOL    HW217728  10.161   5.606   8.071  1.2978  0.3309  1.3063
38279SOL     OW17729   9.094   8.801   6.991  0.1180  0.0589 -0.2362
38279SOL    HW117730   9.059   8.838   7.072  0.8909  0.4413 -0.0638
38279SOL    HW217731   9.063   8.710   6.990 -1.1839  0.4747 -0.2925
38280SOL     OW17732   6.909   1.782   0.894  0.0932  0.4828  0.1758
38280SOL    HW117733   6.870   1.695   0.887  1.0065  0.0805 -0.0976
38280SOL    HW217734   6.919   1.796   0.989 -1.3766  0.9151  0.2882
38281SOL     OW17735   2.401   2.201   1.735  0.1907  0.8423 -0.3901
38281SOL    HW117736   2.478   2.152   1.706  0.3458  0.2571  0.9441
38281SOL    HW217737   2.348   2.136   1.782 -0.0208  1.7587  0.6551
38282SOL     OW17738   2.866   8.158   7.585 -0.1187  0.2385 -0.1497
38282SOL    HW117739   2.931   8.092   7.561 -0.5543 -0.3259  0.2052
38282SOL    HW217740   2.827   8.185   7.501 -0.8395 -0.9024 -0.2124
38283SOL     OW17741  10.749   4.719   4.453  0.5199  0.0200 -0.2513
38283SOL    HW117742  10.818   4.677   4.402  1.1459  1.0505 -0.2904
38283SOL    HW217743  10.792   4.742   4.536  0.8742  2.5268 -1.0326
38284SOL     OW17744   7.479   4.208   1.676 -0.3280 -0.3836  0.3385
38284SOL    HW117745   7.471   4.189   1.583 -0.4706 -0.0136  0.2710
38284SOL    HW217746   7.453   4.127   1.720 -1.4907 -0.1748  0.0704
38285SOL     OW17747   5.433   1.625   2.431 -0.4005 -0.0158 -0.1826
38285SOL    HW117748   5.398   1.553   2.378  0.0962 -0.2383 -0.2172
38285SOL    HW217749   5.522   1.597   2.452 -0.1308  0.6840 -0.3723
38286SOL     OW17750   1.483   7.616   0.974 -0.6315  0.1835  0.3745
38286SOL    HW117751   1.424   7.604   1.049 -0.1533  1.0124  0.8908
38286SOL    HW217752   1.551   7.675   1.006  0.7375 -1.0808 -0.0814
38287SOL     OW17753   5.630   5.373   8.787  0.3999  0.1194 -0.7018
38287SOL    HW117754   5.724   5.359   8.788  0.1777 -1.4943 -0.5164
38287SOL    HW217755   5.593   5.289   8.760 -1.0335  0.4117  0.2354
38288SOL     OW17756   1.472   7.560   2.271  0.2943 -0.3233 -0.5677
38288SOL    HW117757   1.568   7.568   2.270  0.2651  0.0142 -1.2793
38288SOL    HW217758   1.440   7.650   2.272 -0.0226 -0.4354  0.0057
38289SOL     OW17759   9.198   4.046   8.417 -0.0464  0.2319 -0.3355
38289SOL    HW117760   9.165   4.092   8.494 -2.1191  0.3646 -1.2374
38289SOL    HW217761   9.276   4.000   8.448  0.1945  1.6854  1.3878
38290SOL     OW17762   9.904   0.529   5.102 -0.5388  0.6255  0.0842
38290SOL    HW117763   9.949   0.504   5.022 -0.8353  0.7173 -0.1136
38290SOL    HW217764   9.942   0.473   5.170  0.0467  0.8706 -0.0295
38291SOL     OW17765   7.066   7.184   2.785  0.0575  0.2210  0.5065
38291SOL    HW117766   6.995   7.241   2.815  1.1956  1.0921  1.6389
38291SOL    HW217767   7.138   7.203   2.844  1.4365 -0.2305 -0.9787
38292SOL     OW17768   3.869   4.522   6.085 -0.2104 -0.3314  0.1604
38292SOL    HW117769   3.891   4.545   5.995  0.3202 -2.9258 -0.4626
38292SOL    HW217770   3.829   4.435   6.078 -1.8979  0.1882  2.2657
38293SOL     OW17771   5.587   5.673  10.474  0.0840 -0.3096 -0.3724
38293SOL    HW117772   5.511   5.679  10.533  0.2235 -0.2011 -0.2032
38293SOL    HW217773   5.659   5.647  10.531 -0.0956 -1.7622 -0.7577
38294SOL     OW17774  10.371   4.709   8.865  0.0916 -0.5415  0.3983
38294SOL    HW117775  10.358   4.803   8.854 -2.7913 -0.8926  0.1194
38294SOL    HW217776  10.312   4.668   8.802  1.4297 -2.5822  0.3598
38295SOL     OW17777   8.726   2.267   9.571  0.7357 -0.9479 -0.0672
38295SOL    HW117778   8.786   2.223   9.631 -0.0565 -1.2115  0.5468
38295SOL    HW217779   8.656   2.301   9.627 -0.8426 -2.5520 -0.9808
38296SOL     OW17780   3.837   1.025   6.927  0.7307 -0.1230  1.0862
38296SOL    HW117781   3.859   1.097   6.867  2.0837 -1.8954 -0.7146
38296SOL    HW217782   3.836   0.947   6.871 -1.0175 -1.4985  2.8841
38297SOL     OW17783   8.282   1.875   3.250 -0.2445 -0.4227  0.1029
38297SOL    HW117784   8.316   1.925   3.324 -2.2654  1.1193  0.0739
38297SOL    HW217785   8.275   1.785   3.282 -1.2777  0.2575  1.8867
38298SOL     OW17786   4.611   9.041   7.040  0.3200  0.2514  0.1772
38298SOL    HW117787   4.626   8.965   6.983 -0.5104  2.0299 -2.6028
38298SOL    HW217788   4.518   9.036   7.063  0.6601 -0.4826  1.5260
38299SOL     OW17789   3.260   0.832   1.991 -0.0503 -0.5688  0.0123
38299SOL    HW117790   3.202   0.862   2.061  1.4058  0.5184  0.7963
38299SOL    HW217791   3.276   0.911   1.939  2.1616 -0.3832  0.8783
38300SOL     OW17792  10.246   7.345   1.940  0.1705 -0.4305 -0.1994
38300SOL    HW117793  10.171   7.304   1.896 -0.1918  0.3782 -0.3511
38300SOL    HW217794  10.212   7.428   1.972  1.0668  0.0482 -0.4544
38301SOL     OW17795   1.808   6.940   9.120 -0.1032 -0.3610  0.6998
38301SOL    HW117796   1.778   6.861   9.074 -1.5215 -0.2447  1.3826
38301SOL    HW217797   1.792   6.922   9.212  0.9349  0.1670  0.9952
38302SOL     OW17798  10.337   1.494   8.823  0.0924 -0.1574 -0.1110
38302SOL    HW117799  10.323   1.504   8.729  0.7272  3.2616  0.0503
38302SOL    HW217800  10.432   1.500   8.834  0.0929 -1.3423  0.7048
38303SOL     OW17801   9.368   0.975   9.046  0.1195  0.1865 -0.1561
38303SOL    HW117802   9.290   0.921   9.056 -0.6207  1.2099 -0.2226
38303SOL    HW217803   9.386   1.007   9.135  1.9967 -2.0466  0.3553
38304SOL     OW17804   8.651   5.355   2.811  0.2664  0.0029 -0.2031
38304SOL    HW117805   8.557   5.371   2.801  0.0015 -2.3486 -2.4449
38304SOL    HW217806   8.692   5.418   2.752 -0.1475 -0.9634 -1.5726
38305SOL     OW17807   7.624  10.509  10.190  0.0284  0.4220  0.0389
38305SOL    HW117808   7.586  10.460  10.263  0.8445 -0.2079  0.0603
38305SOL    HW217809   7.655  10.591  10.230  0.6034  0.0172  0.4412
38306SOL     OW17810   1.312   8.435   6.625 -0.1379  0.1371  0.0881
38306SOL    HW117811   1.255   8.509   6.648 -0.3819 -0.2206  0.6614
38306SOL    HW217812   1.361   8.466   6.549 -0.7590  0.6283 -0.1263
38307SOL     OW17813   2.552   4.697   9.387  0.4905  0.5872  0.1723
38307SOL    HW117814   2.554   4.733   9.298 -0.0289  1.4254  0.4845
38307SOL    HW217815   2.537   4.603   9.375 -1.3054  0.9216 -0.5997
38308SOL     OW17816   5.502   1.037   8.019  0.0645  0.3827  0.2704
38308SOL    HW117817   5.531   0.967   8.076 -0.4676 -0.0853 -0.0228
38308SOL    HW217818   5.540   1.117   8.057  1.1340 -0.1209  0.2868
38309SOL     OW17819   6.946   1.172   6.845  0.3980 -0.0507  0.5543
38309SOL    HW117820   7.033   1.204   6.870 -0.0802  0.0045  2.2604
38309SOL    HW217821   6.950   1.078   6.862  0.6635 -0.3630 -1.0718
38310SOL     OW17822   7.891   6.085   7.261  0.0488  0.1975  0.5991
38310SOL    HW117823   7.807   6.102   7.217  0.0423 -0.5464  0.3095
38310SOL    HW217824   7.950   6.059   7.191  0.6152  1.0068  0.7619
38311SOL     OW17825   0.204   2.908   8.037  0.2240  0.8052  0.2907
38311SOL    HW117826   0.283   2.900   7.985 -0.3547 -0.8444 -0.3878
38311SOL    HW217827   0.206   2.998   8.069  1.3849  1.3951 -1.2949
38312SOL     OW17828   9.020   5.966   6.255 -0.0379  0.1005  0.6707
38312SOL    HW117829   8.951   5.953   6.190 -0.3198  1.3891  0.6924
38312SOL    HW217830   9.078   6.032   6.217 -0.5124  1.2918  1.9409
38313SOL     OW17831   7.010   2.750   5.161  0.3880 -0.0458  0.1816
38313SOL    HW117832   7.102   2.724   5.163  0.1800 -0.7712  0.5761
38313SOL    HW217833   6.965   2.674   5.123 -0.5124 -1.2046  3.2813
38314SOL     OW17834   0.506   4.329  10.562  0.0596  0.2052 -0.6007
38314SOL    HW117835   0.527   4.238  10.580  0.7919  0.8415  2.3538
38314SOL    HW217836   0.466   4.361  10.643  0.9208  2.8142 -1.0984
38315SOL     OW17837   4.367  10.176   3.766  0.0101  0.1909 -0.4111
38315SOL    HW117838   4.356  10.084   3.741 -0.3709  0.4303 -1.1630
38315SOL    HW217839   4.372  10.175   3.861 -2.7739 -0.3620 -0.1692
38316SOL     OW17840   4.866   3.625   0.254  0.6532  0.4255 -0.4180
38316SOL    HW117841   4.846   3.563   0.183 -0.1736 -0.3293  0.4437
38316SOL    HW217842   4.782   3.641   0.296  1.3901 -0.6877  1.6108
38317SOL     OW17843   1.312   5.446   2.510 -0.5153  0.5003  0.1044
38317SOL    HW117844   1.370   5.456   2.435  0.7855  0.9643  1.1187
38317SOL    HW217845   1.226   5.426   2.473  0.0091  1.0981 -1.4980
38318SOL     OW17846   5.906   0.630   5.151 -0.2123 -0.4752 -0.2594
38318SOL    HW117847   5.858   0.697   5.101  0.5839  0.9533  0.8201
38318SOL    HW217848   5.948   0.576   5.084  1.2070  1.6582 -1.2156
38319SOL     OW17849  10.497   9.932   2.644  0.1129 -0.0961 -1.0941
38319SOL    HW117850  10.503   9.903   2.735 -1.1672  1.5550 -0.4327
38319SOL    HW217851  10.566   9.998   2.635  0.1245 -0.1321 -1.2696
38320SOL     OW17852   6.319   8.162   4.612 -0.1232 -0.4600  0.4426
38320SOL    HW117853   6.306   8.255   4.630 -0.6790 -0.4755  0.1253
38320SOL    HW217854   6.398   8.159   4.559  1.5699 -0.4070  2.7887
38321SOL     OW17855   7.606   3.544   0.508 -0.0891 -0.1112  0.4391
38321SOL    HW117856   7.552   3.597   0.449 -1.9517 -1.3447  0.9302
38321SOL    HW217857   7.596   3.454   0.475  2.0309 -0.3481  0.3213
38322SOL     OW17858   7.119   6.436  10.385 -0.2009 -0.1655 -0.2281
38322SOL    HW117859   7.197   6.486  10.408 -0.3575  0.5579 -1.1869
38322SOL    HW217860   7.058   6.450  10.457 -0.0016  0.5044 -0.1888
38323SOL     OW17861   7.852   5.660   1.966 -0.1620  0.2963  0.5694
38323SOL    HW117862   7.885   5.653   2.055  0.3568  0.6828  0.4136
38323SOL    HW217863   7.894   5.587   1.919 -0.2903  0.2042  0.5981
38324SOL     OW17864   4.045   7.472   7.965 -0.0615 -0.5640  0.3379
38324SOL    HW117865   4.093   7.542   7.921  0.4775  0.2129  2.0546
38324SOL    HW217866   4.111   7.425   8.015 -0.7977 -0.6903  1.2163
38325SOL     OW17867   9.566   1.405  10.554  0.0919  0.2437  0.2151
38325SOL    HW117868   9.617   1.357  10.620  0.9680 -0.4122 -0.8921
38325SOL    HW217869   9.476   1.401  10.585  0.4405 -0.3744  1.1883
38326SOL     OW17870  10.260   2.154   5.560  0.3375  0.0458  0.0066
38326SOL    HW117871  10.314   2.077   5.543  1.6715  0.8009  0.7233
38326SOL    HW217872  10.170   2.122   5.549  0.7091 -2.2396  2.5187
38327SOL     OW17873   3.178   8.748   9.655 -0.2290 -0.2223 -0.8942
38327SOL    HW117874   3.137   8.671   9.616  0.2961 -0.6100 -0.6974
38327SOL    HW217875   3.241   8.712   9.718  1.2129  0.3314 -1.9728
38328SOL     OW17876   2.593   6.069   2.293  0.0381 -0.3234  0.0125
38328SOL    HW117877   2.503   6.077   2.260  0.0098 -1.6341 -0.2737
38328SOL    HW217878   2.584   6.070   2.388 -0.3546 -1.0296 -0.0098
38329SOL     OW17879   3.411   6.762   0.445  0.2141  0.4918  0.3356
38329SOL    HW117880   3.396   6.697   0.376 -0.8383  1.4389 -0.3747
38329SOL    HW217881   3.323   6.785   0.475  0.4894  2.2444 -0.0822
38330SOL     OW17882   8.110   5.736   3.466  0.3201  0.0336  0.0319
38330SOL    HW117883   8.048   5.688   3.521  0.6851 -0.0032  0.4136
38330SOL    HW217884   8.072   5.732   3.378 -0.0274 -0.3120  0.1964
38331SOL     OW17885   4.537   5.123   4.616  0.0274 -0.0490  0.9312
38331SOL    HW117886   4.475   5.184   4.576 -1.0767 -0.6114  1.7516
38331SOL    HW217887   4.585   5.177   4.679 -0.7056  0.0527  1.4092
38332SOL     OW17888   9.140  10.368   6.939  0.4351 -0.0642  0.2765
38332SOL    HW117889   9.189  10.421   7.001  0.1346  1.4760 -0.7659
38332SOL    HW217890   9.071  10.426   6.906 -1.3430 -1.7720  0.7716
38333SOL     OW17891   3.754   9.238   5.204  0.0242  0.3819 -0.3974
38333SOL    HW117892   3.804   9.170   5.158 -1.8022 -0.0545 -1.8848
38333SOL    HW217893   3.727   9.298   5.135 -3.0632 -0.4482 -0.0601
38334SOL     OW17894   0.681   2.525   7.219  0.1063 -0.0475 -0.2502
38334SOL    HW117895   0.736   2.569   7.283  2.5242 -1.3015 -1.3017
38334SOL    HW217896   0.636   2.596   7.173  3.1924  1.3973 -1.3247
38335SOL     OW17897   7.998   9.683   3.342 -0.3061 -0.5843 -0.1071
38335SOL    HW117898   7.957   9.752   3.394 -0.1917 -2.2888  2.4367
38335SOL    HW217899   7.925   9.631   3.308 -0.3597 -0.0709 -0.7880
38336SOL     OW17900   4.193   8.825   6.877  0.2761  0.2217  0.0593
38336SOL    HW117901   4.156   8.783   6.954 -1.6156  1.1769 -0.2707
38336SOL    HW217902   4.142   8.791   6.804  1.8183 -0.4149 -0.7771
38337SOL     OW17903   9.102   6.526   9.931 -0.1505  0.2020 -0.7062
38337SOL    HW117904   9.066   6.613   9.912 -1.3254  0.1348  0.9632
38337SOL    HW217905   9.032   6.466   9.904 -0.7371 -0.0131  1.1753
38338SOL     OW17906   4.093   1.910   2.924  0.0373 -0.0687  0.1312
38338SOL    HW117907   4.106   1.962   2.845 -0.9093  1.0150  0.6469
38338SOL    HW217908   3.997   1.908   2.935  0.1336 -0.6436  0.9513
38339SOL     OW17909   2.497   9.666   5.822  0.4883 -0.7544 -0.2883
38339SOL    HW117910   2.526   9.606   5.754  2.4626 -1.8971  1.4584
38339SOL    HW217911   2.554   9.742   5.813  0.0569 -0.4563 -0.5416
38340SOL     OW17912   5.995  10.431   4.269  0.0248 -0.7792 -0.7637
38340SOL    HW117913   6.032  10.519   4.274 -2.5203  0.4121 -0.8490
38340SOL    HW217914   5.959  10.416   4.357  1.7309 -2.4316 -0.2849
38341SOL     OW17915   1.679   0.038   8.478 -0.2559 -0.1003  0.2991
38341SOL    HW117916   1.660  -0.036   8.535 -1.2785 -0.3570 -0.3534
38341SOL    HW217917   1.774   0.036   8.468 -0.1180 -0.4460  1.4421
38342SOL     OW17918   5.521   7.263   9.722  0.1434  0.2216  0.5560
38342SOL    HW117919   5.545   7.327   9.655 -0.5996 -0.9057 -0.8312
38342SOL    HW217920   5.461   7.203   9.678  0.6974 -1.3541  1.8510
38343SOL     OW17921   2.964  10.435   7.906 -0.2457  0.2022  0.2030
38343SOL    HW117922   3.038  10.452   7.964  1.0647 -2.3293 -0.5900
38343SOL    HW217923   2.943  10.521   7.869  1.6505  1.1636  1.1993
38344SOL     OW17924  10.537   8.164   1.380 -0.9513  0.4643  0.5920
38344SOL    HW117925  10.542   8.163   1.475  0.4997 -0.2299  0.5324
38344SOL    HW217926  10.489   8.084   1.358  1.4889 -1.1149  0.6686
38345SOL     OW17927   0.736   2.026   4.864  0.1891 -0.1662  0.4935
38345SOL    HW117928   0.742   2.007   4.958 -0.5333  2.0844  1.0435
38345SOL    HW217929   0.823   2.005   4.831  0.7945  0.0050  1.8799
38346SOL     OW17930   7.216   4.506   5.109 -0.2107 -0.1066  0.0527
38346SOL    HW117931   7.284   4.554   5.062  0.7324 -1.1875  0.2582
38346SOL    HW217932   7.240   4.513   5.201 -1.0086  0.4353  0.2270
38347SOL     OW17933   2.468   9.975   3.763  0.1955 -0.1295 -0.5110
38347SOL    HW117934   2.480  10.058   3.716  0.1309 -0.5905 -1.3735
38347SOL    HW217935   2.550   9.928   3.747 -0.0781 -0.5465 -0.6907
38348SOL     OW17936   1.054   6.983   9.449 -0.5017 -0.1895 -0.2382
38348SOL    HW117937   1.042   7.017   9.538  0.6441  2.4860 -1.0088
38348SOL    HW217938   1.027   7.055   9.392 -1.5500 -1.9758 -2.0989
38349SOL     OW17939   8.616   6.538   8.793  0.4011 -0.3453  0.5606
38349SOL    HW117940   8.564   6.572   8.721  1.5982  2.4522  0.8792
38349SOL    HW217941   8.681   6.482   8.751  1.2958  1.5049 -0.6662
38350SOL     OW17942   5.958   2.356   6.168 -0.6957  0.7793 -0.1930
38350SOL    HW117943   5.900   2.377   6.241 -0.9865  1.0849 -0.5095
38350SOL    HW217944   5.900   2.351   6.092 -0.4667 -0.0271 -0.3240
38351SOL     OW17945   4.210   4.919   1.947  0.1467  0.2193  0.1455
38351SOL    HW117946   4.162   4.949   1.871 -0.3121 -0.5819  0.1027
38351SOL    HW217947   4.302   4.925   1.922 -0.0143 -0.9198 -0.8376
38352SOL     OW17948  10.391  10.344   7.778  0.4653 -0.4623 -0.0998
38352SOL    HW117949  10.474  10.327   7.822 -0.0421 -3.5685 -0.1563
38352SOL    HW217950  10.326  10.341   7.847  0.0720 -1.4915 -0.4983
38353SOL     OW17951  10.693   3.933   1.235  0.2121  0.4956  0.1589
38353SOL    HW117952  10.616   3.954   1.289 -0.7882  0.5866 -1.2670
38353SOL    HW217953  10.734   4.018   1.219  0.7683  0.4216  1.1181
38354SOL     OW17954   0.852   4.473   0.843 -0.3050  0.4882  0.0420
38354SOL    HW117955   0.805   4.547   0.881 -0.0015  0.3168  0.7871
38354SOL    HW217956   0.861   4.494   0.751 -2.9186 -0.0089 -0.4182
38355SOL     OW17957   7.593   5.528   2.132  0.3368  0.8023  0.2267
38355SOL    HW117958   7.506   5.515   2.170  0.3232  0.1380 -0.0244
38355SOL    HW217959   7.595   5.621   2.110 -0.6267  0.6738 -0.5092
38356SOL     OW17960   0.658  10.634   5.357 -0.2908 -0.6280  0.5930
38356SOL    HW117961   0.604  10.603   5.284 -1.4574  3.2910 -0.4975
38356SOL    HW217962   0.611  10.607   5.435 -0.5874 -2.4091 -0.1659
38357SOL     OW17963   8.787  10.606   4.006 -0.8606  0.5758  0.0506
38357SOL    HW117964   8.829  10.534   3.959 -0.7016  1.1777 -0.7618
38357SOL    HW217965   8.797  10.585   4.098 -0.3455 -0.1746 -0.1735
38358SOL     OW17966   3.150   3.943  10.396 -0.5030 -0.1369  0.2258
38358SOL    HW117967   3.215   3.889  10.442 -0.7886  0.7391  1.7149
38358SOL    HW217968   3.144   3.904  10.309  0.3309 -1.6412  0.8035
38359SOL     OW17969   5.054   4.822   8.714 -0.0309  0.1567 -0.0310
38359SOL    HW117970   5.020   4.743   8.672  0.3945 -0.7063  1.1770
38359SOL    HW217971   5.075   4.881   8.642  0.3270 -1.1200 -1.0076
38360SOL     OW17972   5.650   0.463   1.307  0.2691  0.0666 -0.4781
38360SOL    HW117973   5.733   0.471   1.354  1.0329  1.3048 -1.9426
38360SOL    HW217974   5.612   0.551   1.311  0.5717  0.3358 -2.4879
38361SOL     OW17975   7.099   9.278   5.676  0.9842 -0.5435 -0.3758
38361SOL    HW117976   7.142   9.202   5.716 -1.9371 -1.7654  0.7436
38361SOL    HW217977   7.144   9.354   5.713  3.2771 -1.6768 -0.6886
38362SOL     OW17978  10.596   6.343   3.849 -0.0288  0.2023  0.1801
38362SOL    HW117979  10.590   6.401   3.774  0.2723  1.7118  1.2777
38362SOL    HW217980  10.632   6.261   3.814 -0.8015  0.5415 -1.4580
38363SOL     OW17981   8.016   5.131   1.548  0.1825  0.1498 -0.2335
38363SOL    HW117982   7.966   5.164   1.473  1.0118  0.1959 -0.7814
38363SOL    HW217983   8.063   5.207   1.581  0.0763  0.0586  0.1361
38364SOL     OW17984   0.216   1.671   2.275 -0.4529 -0.8569 -0.0550
38364SOL    HW117985   0.169   1.724   2.212  0.8604 -0.7646 -1.0010
38364SOL    HW217986   0.277   1.731   2.317  0.6226 -1.4586 -0.7062
38365SOL     OW17987   1.578   0.293  10.493 -0.0160 -0.3306 -0.1324
38365SOL    HW117988   1.491   0.332  10.489  0.3141  0.6068  1.2870
38365SOL    HW217989   1.633   0.361  10.532  1.1042 -1.3277  0.0691
38366SOL     OW17990   7.710   9.835   1.344 -0.0808  0.4375  0.3690
38366SOL    HW117991   7.646   9.868   1.406  0.5718 -1.7884  2.3892
38366SOL    HW217992   7.723   9.907   1.282 -2.3317  1.9966  1.5638
38367SOL     OW17993   1.719   2.719   4.492 -0.2645 -0.5972 -0.0885
38367SOL    HW117994   1.737   2.635   4.450  0.1935 -0.1695 -0.7738
38367SOL    HW217995   1.739   2.784   4.425  0.2334  0.0992  0.7124
38368SOL     OW17996   9.832   6.689   2.503 -0.0070 -0.0571 -0.3678
38368SOL    HW117997   9.919   6.681   2.543 -0.9657 -0.8226  1.6669
38368SOL    HW217998   9.773   6.644   2.563 -2.1271  2.0566 -0.7105
38369SOL     OW17999   5.434   5.238   0.796  0.4971 -0.3318  0.1146
38369SOL    HW118000   5.481   5.271   0.719  2.5591 -0.7761  1.1067
38369SOL    HW218001   5.374   5.172   0.761  1.9844 -1.1357 -1.0762
38370SOL     OW18002   0.687   6.637   7.631  0.3195 -0.0968 -0.2714
38370SOL    HW118003   0.721   6.674   7.550 -0.9340  0.6300 -0.4941
38370SOL    HW218004   0.697   6.707   7.696 -2.5776  0.9925 -0.8238
38371SOL     OW18005   9.176   7.420   2.882 -0.2271 -0.6584 -0.5600
38371SOL    HW118006   9.210   7.490   2.826  1.1056 -1.2478 -0.5180
38371SOL    HW218007   9.248   7.398   2.940 -1.2873 -0.7148  0.7829
38372SOL     OW18008   3.210   8.448   3.442  0.0531  0.5295 -0.0705
38372SOL    HW118009   3.220   8.366   3.492 -1.2336  0.3315 -0.0895
38372SOL    HW218010   3.200   8.419   3.351 -0.2730  0.7039 -0.0925
38373SOL     OW18011   3.851   3.382   0.423 -0.0744 -0.4322  0.1410
38373SOL    HW118012   3.841   3.469   0.462 -0.1723 -0.5239  0.3219
38373SOL    HW218013   3.932   3.348   0.461  0.8214  0.2101 -1.1354
38374SOL     OW18014   3.650   9.787   8.774  0.1790  0.0654  0.1478
38374SOL    HW118015   3.715   9.793   8.704 -1.9610 -0.6238 -2.0571
38374SOL    HW218016   3.648   9.695   8.798 -1.0128 -0.2029 -0.9026
38375SOL     OW18017   6.844  10.316  10.047  0.3003 -0.0245 -0.1657
38375SOL    HW118018   6.749  10.311  10.064 -0.2761 -1.4939 -3.2228
38375SOL    HW218019   6.867  10.230  10.014  2.9529  0.0730  1.1600
38376SOL     OW18020   8.705   1.583   2.820 -0.4383 -0.2697  0.0686
38376SOL    HW118021   8.614   1.556   2.812 -0.1210 -1.4370  0.1801
38376SOL    HW218022   8.731   1.555   2.908 -0.1147  0.5439  0.2503
38377SOL     OW18023   8.671   7.608   6.099 -0.2559 -0.7681  0.1371
38377SOL    HW118024   8.644   7.592   6.009 -1.9024  2.1587 -0.0094
38377SOL    HW218025   8.590   7.607   6.150 -0.2544  3.0755  0.5446
38378SOL     OW18026   6.144   9.887   1.683  0.0013 -0.0974  0.7142
38378SOL    HW118027   6.233   9.854   1.695  0.4156  0.5957 -0.2817
38378SOL    HW218028   6.102   9.824   1.624  0.4462  0.5477 -0.3178
38379SOL     OW18029   1.121   9.666   7.185 -0.2022 -0.3860 -0.1812
38379SOL    HW118030   1.134   9.747   7.135 -0.3725  0.4999  1.1458
38379SOL    HW218031   1.208   9.644   7.218  0.1083 -1.5509 -1.6498
38380SOL     OW18032   9.560   0.131   3.548 -0.6136  0.1495 -0.0997
38380SOL    HW118033   9.508   0.064   3.502  0.0168  0.5626 -1.4634
38380SOL    HW218034   9.495   0.188   3.588 -1.1761 -0.4330 -0.1589
38381SOL     OW18035   4.631   2.486   9.518 -0.3566 -0.2362 -0.1358
38381SOL    HW118036   4.708   2.490   9.574 -0.8549 -0.7359  0.5968
38381SOL    HW218037   4.657   2.427   9.446  0.0985 -0.0262 -0.1470
38382SOL     OW18038   9.834  10.055   7.736  0.4362  0.1504 -0.2365
38382SOL    HW118039   9.893   9.985   7.708  1.2222  1.0238 -0.8360
38382SOL    HW218040   9.874  10.089   7.816  0.2704  0.1686 -0.1605
38383SOL     OW18041   2.450   8.263   8.361 -0.7625 -0.1542  0.1215
38383SOL    HW118042   2.377   8.310   8.402  0.2667 -1.0920  3.3282
38383SOL    HW218043   2.425   8.171   8.367  0.3195 -0.4360  0.5728
38384SOL     OW18044   7.642   7.316   9.872  0.3802 -0.5289 -0.5087
38384SOL    HW118045   7.699   7.393   9.878  1.1521 -0.9066 -2.3497
38384SOL    HW218046   7.571   7.343   9.813 -0.5433 -0.5538  0.5631
38385SOL     OW18047   4.407   3.913   6.125 -0.2836  0.0357  0.1166
38385SOL    HW118048   4.365   3.846   6.180 -0.5401 -0.7458 -0.9954
38385SOL    HW218049   4.459   3.965   6.187 -0.4890 -0.8643  1.0870
38386SOL     OW18050   7.826   4.414   3.441  0.7921 -0.0914 -0.7459
38386SOL    HW118051   7.898   4.413   3.378 -1.0733  2.0669 -3.1633
38386SOL    HW218052   7.786   4.500   3.429  0.4749  0.5893  3.7315
38387SOL     OW18053   9.278   4.725   4.409  0.2019  0.3323  0.0731
38387SOL    HW118054   9.206   4.682   4.363 -0.2392  1.0671  0.0613
38387SOL    HW218055   9.344   4.741   4.342 -0.2183  0.9262 -0.2032
38388SOL     OW18056   6.432  10.097   0.328  0.0984  0.4398  0.4753
38388SOL    HW118057   6.481  10.077   0.407  1.3060 -2.1469 -0.8140
38388SOL    HW218058   6.351  10.139   0.359  1.4963  1.5261  2.8748
38389SOL     OW18059   3.774   8.537  10.135  0.3978 -0.0100  0.0245
38389SOL    HW118060   3.785   8.465  10.198  1.1747 -0.8145 -0.9998
38389SOL    HW218061   3.852   8.532  10.080 -0.7592  0.0177 -1.6726
38390SOL     OW18062   1.971   2.102   2.705  0.0875  0.0515 -0.2166
38390SOL    HW118063   2.011   2.102   2.792  0.5119  3.2526 -0.3024
38390SOL    HW218064   1.905   2.171   2.709  0.6509  0.8329 -2.6087
38391SOL     OW18065   1.677   8.313   8.407 -0.8368  0.1751  0.1249
38391SOL    HW118066   1.700   8.388   8.352  0.0445  0.7047  1.1861
38391SOL    HW218067   1.597   8.340   8.453  0.3579  1.1434  1.7202
38392SOL     OW18068   3.131   9.680   6.787  0.5591 -0.1114  0.0424
38392SOL    HW118069   3.085   9.639   6.714  1.0078 -0.1016 -0.2501
38392SOL    HW218070   3.085   9.763   6.801  1.5762  0.7546 -1.4400
38393SOL     OW18071   2.823   6.540   8.608  0.1757  0.0282 -0.1970
38393SOL    HW118072   2.804   6.611   8.547  1.1204 -0.8106 -1.5096
38393SOL    HW218073   2.865   6.583   8.683  0.4060  0.9023 -0.8146
38394SOL     OW18074   9.362   0.927   8.270  0.0446  0.0611  0.2208
38394SOL    HW118075   9.367   1.014   8.310  2.4286 -0.5777  1.5230
38394SOL    HW218076   9.446   0.917   8.224  0.2716 -1.8997  0.9520
38395SOL     OW18077   6.202   3.556   8.037 -0.5313 -0.5190  0.2061
38395SOL    HW118078   6.201   3.462   8.057 -1.8779 -0.0395  2.9659
38395SOL    HW218079   6.245   3.596   8.112  0.9378  1.0512 -1.3876
38396SOL     OW18080   1.861   8.845   7.560 -0.1425 -0.2126  0.1227
38396SOL    HW118081   1.913   8.807   7.630 -0.7341  0.4700  0.9574
38396SOL    HW218082   1.795   8.778   7.540  0.3588 -0.6244 -0.1562
38397SOL     OW18083   4.686   4.550   4.124 -0.4792  0.3238 -0.0805
38397SOL    HW118084   4.729   4.513   4.047 -0.7407  0.0508 -0.0953
38397SOL    HW218085   4.632   4.621   4.090 -0.3631  0.3951 -0.1141
38398SOL     OW18086   8.085   3.126   0.617  0.4999  0.0705  0.0266
38398SOL    HW118087   8.152   3.153   0.554 -0.5027 -1.3234 -1.7135
38398SOL    HW218088   8.024   3.200   0.619  1.1073  0.5821  0.2340
38399SOL     OW18089   8.887   5.520   1.006 -0.5061  0.2909  0.0368
38399SOL    HW118090   8.923   5.555   1.087  0.8598 -0.5951 -0.1627
38399SOL    HW218091   8.886   5.425   1.018 -0.6246  0.1687 -0.8480
38400SOL     OW18092  10.705   4.599  10.290 -0.5947  0.2830 -0.7132
38400SOL    HW118093  10.673   4.512  10.268  2.1977 -1.3272  1.0639
38400SOL    HW218094  10.674   4.615  10.379 -0.4043  0.7468 -0.7245
38401SOL     OW18095   4.828   8.230  10.071  0.8401 -0.1773  0.1291
38401SOL    HW118096   4.824   8.170   9.997  0.9182 -0.2546  0.1869
38401SOL    HW218097   4.793   8.179  10.144  1.9902 -0.5648  0.4471
38402SOL     OW18098   2.745   4.402   8.747 -0.1339 -0.2998 -0.5374
38402SOL    HW118099   2.673   4.466   8.750 -1.4363 -1.5833 -2.0569
38402SOL    HW218100   2.755   4.383   8.653  0.0898 -2.4155 -0.1313
38403SOL     OW18101  10.419   8.940   6.236 -0.0326 -0.3422  0.8999
38403SOL    HW118102  10.434   9.016   6.291 -0.7402 -0.6927  1.6093
38403SOL    HW218103  10.426   8.973   6.146 -2.3497  1.0413  1.1467
38404SOL     OW18104  10.476   4.408   0.478 -0.7389  0.3172 -0.2485
38404SOL    HW118105  10.533   4.386   0.552  0.8655  1.8233 -0.9612
38404SOL    HW218106  10.388   4.386   0.508 -0.0969  0.5683  1.9803
38405SOL     OW18107   8.969   8.479   6.604 -0.0863 -1.0695  0.3628
38405SOL    HW118108   8.874   8.472   6.604 -0.3738  1.3205 -1.2141
38405SOL    HW218109   8.999   8.406   6.550 -1.2971 -0.2567 -1.4977
38406SOL     OW18110  10.225   9.928   1.581 -0.2668 -0.1268 -0.3628
38406SOL    HW118111  10.268   9.849   1.550 -1.3633 -0.0167 -2.3343
38406SOL    HW218112  10.252   9.936   1.672  1.2023 -1.8315 -0.5929
38407SOL     OW18113  10.132   8.266   2.077  0.2177 -0.0423 -0.1614
38407SOL    HW118114  10.037   8.253   2.076  0.0570  0.5034  2.2010
38407SOL    HW218115  10.166   8.202   2.014 -1.7044 -0.1556 -1.1457
38408SOL     OW18116   2.293   8.681   5.658  0.2486 -0.6257 -0.2412
38408SOL    HW118117   2.367   8.660   5.716  1.3580  1.1198 -0.9288
38408SOL    HW218118   2.326   8.660   5.570 -1.0867 -2.3656 -0.3981
38409SOL     OW18119  10.183   1.795   8.108  0.2143  0.4018 -0.2342
38409SOL    HW118120  10.231   1.795   8.191  1.2330 -1.0772 -0.7907
38409SOL    HW218121  10.100   1.752   8.128  1.6916 -2.8919 -0.5709
38410SOL     OW18122   6.534   2.721   2.106  0.5713 -0.2552  0.3912
38410SOL    HW118123   6.495   2.772   2.177  0.1785 -2.0598  1.5634
38410SOL    HW218124   6.509   2.630   2.126  1.5801 -0.9687 -1.3458
38411SOL     OW18125  10.273   4.957   3.052  0.2595  0.4135  0.2999
38411SOL    HW118126  10.314   4.899   2.987 -1.3789  0.7869 -1.1392
38411SOL    HW218127  10.180   4.935   3.048  0.1156  0.3409  2.7047
38412SOL     OW18128   4.814   6.758   1.473 -0.3610  0.5435  0.5195
38412SOL    HW118129   4.769   6.803   1.402  0.2017  0.6445  0.2197
38412SOL    HW218130   4.760   6.774   1.550 -0.8581  0.6231  0.1616
38413SOL     OW18131   8.570   3.852   2.286 -0.3321 -0.2386 -0.3855
38413SOL    HW118132   8.477   3.836   2.269 -0.1237  0.5161 -2.6484
38413SOL    HW218133   8.607   3.869   2.199  1.4752  1.6662  0.6670
38414SOL     OW18134  10.158   7.588   4.037 -0.2176  0.0203  0.6479
38414SOL    HW118135  10.070   7.623   4.044  0.2404  1.5450 -0.7353
38414SOL    HW218136  10.187   7.577   4.128 -1.1422  1.2934  1.1184
38415SOL     OW18137   6.113   5.318   5.928 -0.1140 -0.4361  0.7961
38415SOL    HW118138   6.088   5.406   5.954  0.3408  0.0304 -0.2782
38415SOL    HW218139   6.039   5.263   5.954 -0.4886  0.2886  1.2936
38416SOL     OW18140   3.230   4.835   2.245 -0.1957 -0.0579  0.1197
38416SOL    HW118141   3.305   4.895   2.255  0.0978 -0.7178  2.5159
38416SOL    HW218142   3.263   4.765   2.189  0.7057  0.1073  0.4247
38417SOL     OW18143   4.252   0.663   6.761  0.3184  0.1798 -0.2899
38417SOL    HW118144   4.220   0.692   6.675  0.4276 -0.1921 -0.4590
38417SOL    HW218145   4.316   0.595   6.741  2.0431  1.6626  0.0049
38418SOL     OW18146   6.965   4.170   6.348 -0.0348  0.0534 -0.2205
38418SOL    HW118147   6.975   4.263   6.327  2.1588 -0.2460 -0.7857
38418SOL    HW218148   6.911   4.135   6.277 -2.3435  1.1403  0.8898
38419SOL     OW18149   4.430   8.133   1.460 -0.1848 -1.0230  0.4932
38419SOL    HW118150   4.378   8.073   1.405 -0.1486  0.6335 -1.4565
38419SOL    HW218151   4.520   8.119   1.431 -0.2987  0.8024 -0.9244
38420SOL     OW18152  10.402   2.566   1.134 -0.1305  0.0234 -0.6005
38420SOL    HW118153  10.321   2.612   1.112 -0.1617 -0.3127 -1.1941
38420SOL    HW218154  10.471   2.626   1.106 -0.1366  1.0696  1.4434
38421SOL     OW18155  10.310   3.073   3.745 -0.0999  0.0120  0.3077
38421SOL    HW118156  10.389   3.104   3.788 -0.1494  2.0005 -0.9158
38421SOL    HW218157  10.331   2.984   3.715  1.5992  0.4509  0.1564
38422SOL     OW18158   9.180   1.619   2.783 -0.1304  0.7853  0.3486
38422SOL    HW118159   9.138   1.536   2.764 -0.0962  0.7934  0.2401
38422SOL    HW218160   9.237   1.601   2.858 -0.5122  0.8338  0.6513
38423SOL     OW18161   5.214  10.185   4.775 -0.3103  0.3172  0.4131
38423SOL    HW118162   5.234  10.183   4.681  0.1747 -0.4098  0.5322
38423SOL    HW218163   5.126  10.223   4.779 -0.8992 -0.9131 -0.4320
38424SOL     OW18164   7.962   8.766   6.457 -0.1094  0.6282 -0.2889
38424SOL    HW118165   7.899   8.837   6.463  1.7089  2.3685 -0.7445
38424SOL    HW218166   8.045   8.809   6.438  1.9702 -1.1355  3.5294
38425SOL     OW18167   7.948   9.817   5.487  0.4364  0.6384  0.6615
38425SOL    HW118168   7.969   9.777   5.571  0.0257 -0.0404  0.4428
38425SOL    HW218169   7.985   9.758   5.421  0.4811  0.9995  0.3558
38426SOL     OW18170   5.070   2.054   5.662 -0.0947 -0.9983  0.0740
38426SOL    HW118171   5.038   2.007   5.585 -1.0032 -0.1293 -0.0949
38426SOL    HW218172   5.122   1.989   5.710  0.6970 -1.4859 -1.3829
38427SOL     OW18173   2.844   3.681   4.979  0.1774  0.2567 -0.4843
38427SOL    HW118174   2.876   3.725   4.901  0.9173 -2.1037 -1.5944
38427SOL    HW218175   2.760   3.644   4.953 -0.6877  1.3370  0.5966
38428SOL     OW18176   7.007   6.319   7.489 -0.0700 -0.4754 -0.4085
38428SOL    HW118177   6.984   6.228   7.506  0.5060 -0.8615 -1.5740
38428SOL    HW218178   7.102   6.322   7.502 -0.3228  0.4227  1.5089
38429SOL     OW18179  10.267   5.758   9.011  0.5279 -0.1861  0.0722
38429SOL    HW118180  10.290   5.751   9.103 -0.5265 -1.1347  0.2780
38429SOL    HW218181  10.349   5.742   8.964  0.7719 -1.1922  0.8189
38430SOL     OW18182   9.395   5.193   8.817  0.1227 -0.1390  0.1274
38430SOL    HW118183   9.350   5.278   8.811  1.6012  0.9568  2.9134
38430SOL    HW218184   9.482   5.214   8.850  0.5081 -2.7768  1.0224
38431SOL     OW18185   2.712   4.510   8.048  0.2849 -0.1568 -0.7056
38431SOL    HW118186   2.714   4.419   8.018  0.2382 -0.0510 -1.0335
38431SOL    HW218187   2.795   4.547   8.018  1.3949 -0.7340  1.5034
38432SOL     OW18188   7.642   7.154   8.106  0.1921 -0.5386  0.3743
38432SOL    HW118189   7.592   7.182   8.029 -0.2799 -0.8878  0.5544
38432SOL    HW218190   7.733   7.155   8.076 -0.0476 -1.4193 -0.4313
38433SOL     OW18191   7.493   3.662  10.434  0.3727  0.0926  0.3801
38433SOL    HW118192   7.429   3.731  10.450 -0.7287 -0.9579  0.6329
38433SOL    HW218193   7.567   3.707  10.393 -0.3121  1.4133  0.5464
38434SOL     OW18194   0.810   1.970   1.875  0.2717 -0.3871  0.0777
38434SOL    HW118195   0.900   1.940   1.891  0.6294  0.4068 -0.3830
38434SOL    HW218196   0.766   1.960   1.960  1.1904  0.5488  0.6898
38435SOL     OW18197  10.640   5.033   5.510  0.1348  0.5273  0.2235
38435SOL    HW118198  10.613   5.096   5.443  0.4520 -1.7038 -2.1628
38435SOL    HW218199  10.560   5.015   5.560 -0.3443  1.5199 -0.1632
38436SOL     OW18200   8.060   6.393   2.548 -0.2392 -0.1120 -0.3077
38436SOL    HW118201   7.993   6.445   2.593  0.9084  0.2539  1.0511
38436SOL    HW218202   8.042   6.406   2.455 -1.8285  0.2547  0.0233
38437SOL     OW18203   7.643   0.407   3.852 -0.0103 -0.4888  0.0311
38437SOL    HW118204   7.628   0.490   3.807  0.8130 -0.4436 -0.1620
38437SOL    HW218205   7.680   0.432   3.936 -0.8572 -0.6128  0.4577
38438SOL     OW18206   5.770   4.861   8.584  0.4268  0.2887  0.6304
38438SOL    HW118207   5.729   4.938   8.624  0.2474 -0.6825  2.4268
38438SOL    HW218208   5.819   4.820   8.656 -1.0109 -2.3076  0.2467
38439SOL     OW18209   6.289   1.256   5.137  0.3185 -0.1254  0.0883
38439SOL    HW118210   6.209   1.237   5.187 -2.4572  0.3304 -3.7237
38439SOL    HW218211   6.292   1.352   5.132 -0.5343 -0.1498 -1.9539
38440SOL     OW18212   9.659   5.159   0.998  0.1875 -0.8776  0.1062
38440SOL    HW118213   9.731   5.146   1.060  0.8040 -1.6162 -0.7218
38440SOL    HW218214   9.629   5.070   0.977 -0.9773 -0.5769  0.4359
38441SOL     OW18215   2.263   2.663   7.528 -0.6714 -0.4498 -0.5512
38441SOL    HW118216   2.242   2.630   7.615  0.0322  1.1671  0.2783
38441SOL    HW218217   2.357   2.681   7.531 -0.9678  1.4012 -0.9843
38442SOL     OW18218   7.361   1.278   2.174 -0.2591 -0.3643 -0.1217
38442SOL    HW118219   7.430   1.342   2.193  0.5955 -1.2863  0.0190
38442SOL    HW218220   7.295   1.327   2.126  0.8843  0.3736 -1.0126
38443SOL     OW18221   1.140   2.313   1.717  0.1225 -0.1184  0.3926
38443SOL    HW118222   1.098   2.331   1.633 -0.3384 -1.5351  0.2910
38443SOL    HW218223   1.121   2.390   1.771 -0.2339  0.4671 -0.5415
38444SOL     OW18224   8.759   0.798   1.350  0.2069 -0.1113 -0.1704
38444SOL    HW118225   8.691   0.731   1.354 -0.3881  0.5021  2.7210
38444SOL    HW218226   8.840   0.750   1.336 -0.3183 -1.3684  0.8693
38445SOL     OW18227   4.343   5.707   7.735 -0.2168 -0.4187 -0.0411
38445SOL    HW118228   4.335   5.631   7.677  1.3340 -1.7139  1.3306
38445SOL    HW218229   4.401   5.677   7.805  0.3670  2.0224  0.6046
38446SOL     OW18230   1.977   4.527   6.918  0.0708 -0.2030 -0.0999
38446SOL    HW118231   2.055   4.576   6.892 -0.5651  0.0020 -1.7782
38446SOL    HW218232   1.908   4.593   6.924  0.1261 -0.2920  1.9848
38447SOL     OW18233   7.215   4.408   8.031 -0.0951  0.1874  0.4021
38447SOL    HW118234   7.279   4.433   7.964 -2.0872  2.2776 -0.8445
38447SOL    HW218235   7.137   4.458   8.010 -2.0208 -1.8478  2.1967
38448SOL     OW18236   1.373   1.981  10.456  0.1790  0.0019  0.2523
38448SOL    HW118237   1.337   1.949  10.373  0.9413  0.5865 -0.3227
38448SOL    HW218238   1.324   1.934  10.523 -0.1498 -0.8086 -0.5336
38449SOL     OW18239   9.536   6.974   4.088  0.7646  0.1125  0.2381
38449SOL    HW118240   9.573   6.985   4.176  1.0836 -0.2056  0.1482
38449SOL    HW218241   9.507   7.061   4.063  1.1083  0.2948  0.4675
38450SOL     OW18242   6.652   8.561   6.344  0.2463 -0.6016  0.1772
38450SOL    HW118243   6.632   8.639   6.395  2.9756 -0.5219  1.2947
38450SOL    HW218244   6.651   8.591   6.253  1.7638  0.9237  0.6116
38451SOL     OW18245   2.645   7.065   4.286  0.2011  0.1980 -0.1147
38451SOL    HW118246   2.728   7.019   4.293  0.9334  1.3809 -0.5844
38451SOL    HW218247   2.665   7.154   4.315 -1.3920  0.0116  1.7013
38452SOL     OW18248   1.211   3.014   9.083  0.5677 -0.0553 -0.0748
38452SOL    HW118249   1.265   3.037   9.008 -0.7875  2.9480 -0.2915
38452SOL    HW218250   1.121   3.011   9.049 -0.2578  2.7863  1.5134
38453SOL     OW18251   5.443   1.385   0.064 -0.3363 -0.4159  0.4491
38453SOL    HW118252   5.512   1.359   0.004 -2.5590 -0.1664 -2.4668
38453SOL    HW218253   5.420   1.306   0.112  0.5736 -0.9846 -0.0423
38454SOL     OW18254   0.875   2.252   9.218 -0.3065  0.1102 -0.0212
38454SOL    HW118255   0.822   2.190   9.168  0.9994 -0.1180 -1.1621
38454SOL    HW218256   0.949   2.200   9.250  0.0091  0.7536  0.3135
38455SOL     OW18257   6.249  10.606   0.933  0.0626  0.3474 -0.0056
38455SOL    HW118258   6.327  10.558   0.906 -0.2565 -0.9193  1.2446
38455SOL    HW218259   6.271  10.641   1.020 -0.1725  1.4303 -0.3578
38456SOL     OW18260   3.143  10.106   9.186 -0.5903  0.0738  0.4472
38456SOL    HW118261   3.068  10.163   9.199  0.0909  0.6515  2.0628
38456SOL    HW218262   3.117  10.022   9.224 -1.1198 -0.3594 -0.7950
38457SOL     OW18263   6.096   9.883   9.992  0.1204 -0.0247  0.5199
38457SOL    HW118264   6.166   9.856   9.933 -0.9535  0.6776 -1.1489
38457SOL    HW218265   6.137   9.949  10.049  1.5604 -1.7842  1.6379
38458SOL     OW18266   5.329   6.352   5.204  0.6152  0.2301  0.2337
38458SOL    HW118267   5.316   6.438   5.243  1.2865  1.0489 -1.2712
38458SOL    HW218268   5.286   6.292   5.264 -1.1686  1.7519  0.5659
38459SOL     OW18269   2.982   3.172   9.031 -0.5135  0.1432 -0.5331
38459SOL    HW118270   2.895   3.147   9.003 -0.9911  0.6621  0.4240
38459SOL    HW218271   3.039   3.152   8.956 -1.1557 -1.8594 -0.5323
38460SOL     OW18272   8.015  10.145   7.627  0.3161  0.1256 -0.0995
38460SOL    HW118273   8.066  10.142   7.708  2.6686 -0.1693 -1.5223
38460SOL    HW218274   8.069  10.194   7.566 -1.1858 -0.0694 -1.6695
38461SOL     OW18275   1.214   3.691   0.038  0.1951 -0.1040  0.4816
38461SOL    HW118276   1.248   3.630   0.103  0.1232  0.5360  1.1256
38461SOL    HW218277   1.197   3.771   0.086 -3.7023 -0.7908  0.5829
38462SOL     OW18278   2.207   2.143   8.744 -0.2128  0.0523  0.4520
38462SOL    HW118279   2.258   2.152   8.824  0.4972  0.0994  0.0070
38462SOL    HW218280   2.122   2.110   8.773 -0.9425  2.6333  1.5378
38463SOL     OW18281   3.917   4.581   1.096 -0.0409  0.0148 -0.5553
38463SOL    HW118282   3.845   4.609   1.039 -1.2979 -1.4815  0.2081
38463SOL    HW218283   3.938   4.492   1.066 -0.7724 -0.8334  1.2921
38464SOL     OW18284   2.713   1.505   6.352 -0.6414  0.4689 -0.3433
38464SOL    HW118285   2.740   1.422   6.312 -1.1616 -0.0157  0.2842
38464SOL    HW218286   2.642   1.537   6.297 -1.5518 -0.3406  0.3320
38465SOL     OW18287   7.646   5.147   9.440  0.2626  0.1290  0.3757
38465SOL    HW118288   7.625   5.240   9.438  1.8065  0.5123 -0.0138
38465SOL    HW218289   7.641   5.123   9.532 -0.6608  0.4625  0.4164
38466SOL     OW18290   3.085   0.646   7.223 -0.0714  0.7203 -0.7389
38466SOL    HW118291   3.071   0.729   7.176 -1.1820  1.4315  0.7551
38466SOL    HW218292   3.012   0.642   7.285 -0.2763 -1.6102 -1.0611
38467SOL     OW18293   9.653  10.639   9.064  0.1040 -0.2553 -0.1093
38467SOL    HW118294   9.696  10.704   9.009 -0.1288  2.5817  2.7685
38467SOL    HW218295   9.570  10.680   9.089 -0.7469 -2.3034  0.6551
38468SOL     OW18296   4.522   4.160   4.210 -0.2210 -0.2439  0.3675
38468SOL    HW118297   4.504   4.253   4.199 -0.0407 -0.5183 -3.7228
38468SOL    HW218298   4.594   4.157   4.274  1.0489  2.6129 -0.7451
38469SOL     OW18299   9.189   9.030   5.124  0.4117 -0.9160 -0.0472
38469SOL    HW118300   9.268   9.075   5.154 -0.1568  0.6312 -0.7625
38469SOL    HW218301   9.204   9.014   5.031 -0.9085  1.3562 -0.7428
38470SOL     OW18302   3.969   0.905   8.490 -0.4711 -0.3459  0.1296
38470SOL    HW118303   3.900   0.953   8.534  1.7955  0.0879  3.6405
38470SOL    HW218304   3.953   0.813   8.512  0.3962 -0.1742  1.5917
38471SOL     OW18305  10.140   6.679   5.631 -0.2583  0.3112 -0.5628
38471SOL    HW118306  10.219   6.646   5.589  0.7522 -2.2322  2.8138
38471SOL    HW218307  10.068   6.645   5.578  0.9116 -0.8520 -1.4611
38472SOL     OW18308   4.380   1.315   6.581 -0.2674 -0.7886  0.7455
38472SOL    HW118309   4.397   1.402   6.617  1.0650  0.2174 -2.0523
38472SOL    HW218310   4.289   1.319   6.552 -0.4489 -0.6224  1.3174
38473SOL     OW18311   7.542   8.518   1.376 -0.1394  0.1418 -0.3116
38473SOL    HW118312   7.508   8.429   1.375  0.0057  0.0939 -0.7723
38473SOL    HW218313   7.612   8.516   1.441 -0.7319  0.1406  0.3386
38474SOL     OW18314   6.113   5.377   3.758  0.2572  0.0796  0.0090
38474SOL    HW118315   6.018   5.387   3.752  0.3262  0.8961  0.1617
38474SOL    HW218316   6.126   5.284   3.775 -0.5065 -0.0681 -0.1604
38475SOL     OW18317   0.877   9.309   3.707 -0.1356  0.4994 -0.1908
38475SOL    HW118318   0.885   9.341   3.617 -1.7522 -0.4984 -0.7338
38475SOL    HW218319   0.815   9.369   3.749  1.2426  1.4628  0.5534
38476SOL     OW18320   2.109   5.732   9.999  0.4142  0.0366  0.5641
38476SOL    HW118321   2.014   5.731   9.984  0.2919  1.0689  1.1620
38476SOL    HW218322   2.134   5.824   9.989  1.1373 -0.0229  1.6700
38477SOL     OW18323  10.380   2.479   3.660  0.3353 -0.0450  0.4187
38477SOL    HW118324  10.389   2.389   3.690  2.2674  0.4051  1.3424
38477SOL    HW218325  10.354   2.472   3.568  1.6681 -1.5607  0.1258
38478SOL     OW18326   0.065   3.251   9.279 -0.1684  0.1650 -0.1095
38478SOL    HW118327   0.029   3.267   9.192 -1.4317 -1.0959  0.1336
38478SOL    HW218328   0.123   3.176   9.268 -0.2788  0.0459  0.0972
38479SOL     OW18329   1.414   4.243   0.177  0.2529  0.1410 -0.3058
38479SOL    HW118330   1.339   4.300   0.157  0.9976  1.0383 -0.6236
38479SOL    HW218331   1.384   4.155   0.155 -1.0632  0.3352  0.5538
38480SOL     OW18332   5.672  10.218   5.637  1.1590 -0.0264 -0.3716
38480SOL    HW118333   5.661  10.243   5.728 -0.9118 -1.0990 -0.2701
38480SOL    HW218334   5.650  10.297   5.587  2.5247  0.6333  0.0005
38481SOL     OW18335   8.015   5.171   8.348 -0.2942  0.0765 -0.0231
38481SOL    HW118336   7.921   5.182   8.364 -0.6407 -3.3311  0.9658
38481SOL    HW218337   8.057   5.212   8.424 -0.8719  1.8932 -0.6198
38482SOL     OW18338   0.984   4.219  10.311  0.0972  0.0222 -0.3819
38482SOL    HW118339   1.065   4.204  10.262  0.6362 -0.8000  0.7211
38482SOL    HW218340   1.005   4.293  10.369 -0.2878  0.4887 -0.8271
38483SOL     OW18341   8.226   1.193   6.639  0.1974 -0.6386  0.4788
38483SOL    HW118342   8.216   1.189   6.735  0.3893 -1.9734  0.4735
38483SOL    HW218343   8.306   1.144   6.622  0.2920 -0.1961 -0.3488
38484SOL     OW18344   5.864   4.442   3.106  0.0925 -0.0872  0.3655
38484SOL    HW118345   5.929   4.447   3.176 -0.3291 -0.1717  0.7622
38484SOL    HW218346   5.829   4.353   3.111 -0.4396  0.1266  0.4992
38485SOL     OW18347   6.454   3.018   6.790 -0.2008  0.5902 -0.6177
38485SOL    HW118348   6.537   2.970   6.784  0.7393  2.1783 -0.7591
38485SOL    HW218349   6.402   2.967   6.852 -0.3767 -2.1819 -2.7852
38486SOL     OW18350  10.633  10.499   7.924 -0.0972 -0.1429 -0.5424
38486SOL    HW118351  10.643  10.550   7.844 -0.1876 -0.0429 -0.4890
38486SOL    HW218352  10.671  10.554   7.993 -0.8348  0.1524 -0.3709
38487SOL     OW18353   6.892   5.429   1.143  0.1656 -0.2355  0.1962
38487SOL    HW118354   6.976   5.403   1.105  1.0363 -0.7859  2.3214
38487SOL    HW218355   6.890   5.524   1.134  1.7133 -0.0516  1.3372
38488SOL     OW18356   9.472  10.782   3.995 -0.0598  0.4506  0.0447
38488SOL    HW118357   9.480  10.803   4.088  0.0459 -0.4684  0.2482
38488SOL    HW218358   9.560  10.753   3.969 -0.3294 -0.2287 -0.1096
38489SOL     OW18359  10.690  10.255   2.138 -0.1136  0.2052  0.1101
38489SOL    HW118360  10.744  10.246   2.217 -1.4069  0.7995  1.1125
38489SOL    HW218361  10.629  10.181   2.143 -0.3488  0.3787 -0.2070
38490SOL     OW18362   0.522   0.428  10.765 -0.2859  0.0730  0.0062
38490SOL    HW118363   0.558   0.504  10.720 -0.7648  0.6977  0.6434
38490SOL    HW218364   0.435   0.415  10.726 -0.0797 -0.3328 -0.3135
38491SOL     OW18365   7.139   3.776  10.175 -0.0022 -0.5365  0.0653
38491SOL    HW118366   7.192   3.852  10.154  2.3505 -2.2780 -0.6950
38491SOL    HW218367   7.050   3.802  10.153  0.7685  1.8447 -0.5137
38492SOL     OW18368   0.408   2.266   7.568  0.4645  0.4141  0.0118
38492SOL    HW118369   0.335   2.236   7.515  2.2477 -0.1268 -2.3033
38492SOL    HW218370   0.445   2.185   7.605 -1.4568  0.8484  3.2772
38493SOL     OW18371   6.675   5.671   9.912 -0.4650  0.4518  0.4332
38493SOL    HW118372   6.584   5.686   9.888 -0.7817 -1.1849  0.4926
38493SOL    HW218373   6.679   5.691  10.006 -0.4980  1.5293  0.2198
38494SOL     OW18374   6.053   4.485   6.560 -0.5926 -0.0842 -0.4759
38494SOL    HW118375   6.080   4.394   6.567 -2.1516 -0.5997 -0.9862
38494SOL    HW218376   6.069   4.521   6.648  2.6697 -0.0380 -0.9686
38495SOL     OW18377   0.372   8.106   0.071  0.4804 -0.5742  0.3245
38495SOL    HW118378   0.294   8.109   0.016 -0.0738  1.2852  1.1310
38495SOL    HW218379   0.341   8.073   0.155  0.7474 -0.7251  0.3639
38496SOL     OW18380   0.771   5.520   2.323 -0.1855  0.5924 -0.3539
38496SOL    HW118381   0.823   5.532   2.403 -0.7574  1.3376 -0.0827
38496SOL    HW218382   0.744   5.428   2.326  1.9261 -0.1064 -1.0153
38497SOL     OW18383   0.429   1.769   4.549 -0.3680 -0.2283  0.0049
38497SOL    HW118384   0.456   1.687   4.509  0.2654 -0.1894  0.3369
38497SOL    HW218385   0.511   1.812   4.574 -0.7011  0.3678  0.1047
38498SOL     OW18386   5.011   1.440   6.192  0.2664 -0.5063 -0.2076
38498SOL    HW118387   5.001   1.511   6.256  0.7380  0.1889 -0.8813
38498SOL    HW218388   4.938   1.382   6.210 -0.9679  0.8765 -0.5421
38499SOL     OW18389   6.689   3.858   7.525 -0.5270  0.4257 -0.0962
38499SOL    HW118390   6.770   3.901   7.498 -0.2048  0.0662  0.2950
38499SOL    HW218391   6.712   3.766   7.533 -1.6480 -0.1830 -2.7591
38500SOL     OW18392   7.781   9.269   6.354  0.3131  0.5734  0.2050
38500SOL    HW118393   7.723   9.302   6.423 -1.0461  2.8234 -1.8589
38500SOL    HW218394   7.858   9.326   6.359 -0.6078  2.0165 -1.2594
38501SOL     OW18395   0.226   6.155   4.051 -0.4621  0.4130 -0.0066
38501SOL    HW118396   0.185   6.148   4.137 -0.0579  0.8351  0.2278
38501SOL    HW218397   0.154   6.168   3.990 -0.7071  0.6679  0.3380
38502SOL     OW18398   0.608   1.198   4.469 -0.3283  0.4028  0.5095
38502SOL    HW118399   0.580   1.126   4.526  0.4190 -1.0318 -0.8700
38502SOL    HW218400   0.527   1.241   4.443 -0.6972  1.0615  2.5461
38503SOL     OW18401   8.570   8.288   9.763 -0.2124 -0.1764 -0.1169
38503SOL    HW118402   8.609   8.375   9.770 -2.9398  1.0916  0.5875
38503SOL    HW218403   8.616   8.247   9.689  0.4827  2.2114 -1.1148
38504SOL     OW18404   8.533   9.496   6.971 -0.0122 -0.3458  0.6694
38504SOL    HW118405   8.565   9.533   7.053 -0.7817  0.0932  0.7800
38504SOL    HW218406   8.612   9.476   6.921  0.4399  0.6347  0.9664
38505SOL     OW18407   2.885   8.879   4.929 -0.1793 -0.6741 -0.0683
38505SOL    HW118408   2.808   8.928   4.959  2.1808  2.4188  1.5995
38505SOL    HW218409   2.850   8.799   4.891 -4.1258  0.1836  1.3197
38506SOL     OW18410   9.554   3.720   3.036  0.5606 -0.1879 -0.1493
38506SOL    HW118411   9.512   3.804   3.020  1.6922  0.3207 -0.5590
38506SOL    HW218412   9.502   3.679   3.105 -0.5355  0.4456 -0.5744
38507SOL     OW18413   6.522   3.328   7.409 -0.5243 -0.1454 -0.1135
38507SOL    HW118414   6.523   3.406   7.465  2.3180 -0.0530 -0.1552
38507SOL    HW218415   6.584   3.347   7.339 -0.9304 -1.8620 -1.0058
38508SOL     OW18416   6.201   7.202   9.715  0.3169 -0.2885  0.3586
38508SOL    HW118417   6.254   7.150   9.775  0.8058 -1.2229 -0.8442
38508SOL    HW218418   6.252   7.205   9.634 -0.3573  0.8887 -0.0488
38509SOL     OW18419   6.446   9.025   4.002 -0.1492  0.3280  0.4672
38509SOL    HW118420   6.366   9.004   4.049 -0.2144  0.0670  0.2412
38509SOL    HW218421   6.422   9.021   3.910  0.0933  0.3651  0.4014
38510SOL     OW18422   7.729   3.322   8.150 -0.0713  0.1361  0.1523
38510SOL    HW118423   7.692   3.322   8.062 -0.4747 -1.4566  0.3011
38510SOL    HW218424   7.816   3.362   8.140  0.7183 -1.8103 -1.3616
38511SOL     OW18425   6.870   1.538   5.720 -0.1953 -0.4873 -0.2438
38511SOL    HW118426   6.844   1.463   5.773  1.0363 -0.2938  0.6642
38511SOL    HW218427   6.949   1.510   5.674  0.7764  0.5152  0.7667
38512SOL     OW18428   7.125   4.309  10.762 -0.0333 -0.0166  0.3890
38512SOL    HW118429   7.068   4.321  10.687 -0.0274 -0.1025  0.3707
38512SOL    HW218430   7.089   4.367  10.829 -0.6458 -0.6980  0.6600
38513SOL     OW18431   8.371   4.779  10.217 -0.4963 -1.3876  0.6523
38513SOL    HW118432   8.309   4.829  10.165 -1.0047 -2.5948  0.0570
38513SOL    HW218433   8.406   4.842  10.280 -1.0012 -0.2704 -0.1598
38514SOL     OW18434   6.646  10.232   5.496  0.3692 -0.2274 -0.0522
38514SOL    HW118435   6.632  10.170   5.424  1.3347  0.1125 -0.5436
38514SOL    HW218436   6.598  10.193   5.570 -1.3366 -0.1719 -1.0673
38515SOL     OW18437   2.455   2.573   9.080 -0.1300  0.5074  0.1929
38515SOL    HW118438   2.386   2.598   9.019  0.4889  1.6798 -0.0367
38515SOL    HW218439   2.534   2.615   9.047  0.3814  0.4755  1.3276
38516SOL     OW18440   9.420   9.877   9.639 -0.2391  0.4899 -0.1279
38516SOL    HW118441   9.356   9.946   9.623  0.1038  1.4464  2.1820
38516SOL    HW218442   9.369   9.805   9.675 -0.2259  0.7241  0.3736
38517SOL     OW18443   3.358   1.775   7.922  0.8448 -0.6582  0.1513
38517SOL    HW118444   3.274   1.734   7.942  0.8235 -1.5642 -1.6139
38517SOL    HW218445   3.347   1.866   7.948  0.2007 -1.2782  2.2809
38518SOL     OW18446   3.138   9.371   9.544 -0.8260  0.2158 -0.0221
38518SOL    HW118447   3.165   9.372   9.452 -1.7643  0.8384 -0.3016
38518SOL    HW218448   3.063   9.312   9.546 -1.6782  1.2682  0.0648
38519SOL     OW18449   6.579   9.602   1.967 -0.0132 -0.0926 -0.4798
38519SOL    HW118450   6.506   9.545   1.992 -1.9354  1.8524 -1.2576
38519SOL    HW218451   6.592   9.585   1.874  0.1296 -0.0235 -0.4723
38520SOL     OW18452   1.600   0.831  10.179  0.8616 -0.1971  0.0641
38520SOL    HW118453   1.598   0.744  10.218  0.7392  0.1105  0.7459
38520SOL    HW218454   1.517   0.871  10.203  1.5893  0.7080  1.1596
38521SOL     OW18455   8.419   8.493   5.709  0.3314  0.1904 -0.3126
38521SOL    HW118456   8.503   8.458   5.739 -1.6323 -1.3505  4.2050
38521SOL    HW218457   8.427   8.588   5.721  1.6770  0.1863 -0.9373
38522SOL     OW18458   4.616   6.671   1.653 -0.1220 -0.1320  0.6460
38522SOL    HW118459   4.581   6.731   1.718  2.0452 -1.0670  2.8296
38522SOL    HW218460   4.566   6.590   1.665 -1.6373  0.5033 -0.8921
38523SOL     OW18461   0.907   8.472   5.622  0.3357  0.1523 -0.1453
38523SOL    HW118462   0.885   8.379   5.631  2.0697 -0.1762  1.3135
38523SOL    HW218463   0.942   8.481   5.533 -0.0400 -0.5393 -0.3658
38524SOL     OW18464   3.574   3.316   6.842  0.0845 -0.0419 -0.5653
38524SOL    HW118465   3.547   3.225   6.847  1.0259 -0.3051 -0.2325
38524SOL    HW218466   3.660   3.314   6.800  0.7476  0.5632  0.7041
38525SOL     OW18467   4.492   3.910   0.449 -0.5554 -0.6549  0.2210
38525SOL    HW118468   4.483   3.986   0.506 -1.7155 -1.6791  1.4775
38525SOL    HW218469   4.428   3.924   0.380 -1.3099 -0.8246  0.8713
38526SOL     OW18470   3.055   3.412   2.129 -0.4215  0.3989 -0.5184
38526SOL    HW118471   3.016   3.480   2.074  1.2604  1.1184 -0.8627
38526SOL    HW218472   3.127   3.455   2.175 -0.2343 -0.8007  0.3696
38527SOL     OW18473   9.370   5.623   7.816 -0.4793  0.1292  0.1150
38527SOL    HW118474   9.314   5.636   7.739  0.8052 -1.2074 -1.1158
38527SOL    HW218475   9.309   5.598   7.886 -1.5838  0.4235 -0.7145
38528SOL     OW18476  10.710   0.646   3.363 -0.5935 -0.3446 -0.0084
38528SOL    HW118477  10.635   0.651   3.303 -0.2940 -1.6453 -0.5302
38528SOL    HW218478  10.708   0.556   3.395  0.1478 -0.0888  0.7741
38529SOL     OW18479   4.848   0.224   3.201 -0.4538  0.3016 -0.3202
38529SOL    HW118480   4.808   0.180   3.126  0.1121 -0.7279 -0.0389
38529SOL    HW218481   4.921   0.274   3.164 -0.5554  0.2932 -0.5310
38530SOL     OW18482   8.461  10.024   6.911 -0.7426  0.0401  0.1351
38530SOL    HW118483   8.476  10.043   6.819 -1.9448  0.4284  0.0051
38530SOL    HW218484   8.484   9.932   6.921 -1.4930 -0.2498 -0.7554
38531SOL     OW18485   7.984   2.721   8.633  0.0944 -0.2663  0.0829
38531SOL    HW118486   8.071   2.698   8.600 -0.2597  1.8131 -2.7392
38531SOL    HW218487   7.923   2.672   8.578 -0.5246  0.7541 -0.1748
38532SOL     OW18488  10.403   8.482   5.714  0.1619 -0.1252  0.5407
38532SOL    HW118489  10.494   8.484   5.744  0.1601  1.1633  0.5022
38532SOL    HW218490  10.369   8.569   5.735 -0.3066  0.2872 -1.7143
38533SOL     OW18491   8.736   3.984   5.599 -0.4346  0.3625 -0.1278
38533SOL    HW118492   8.811   3.929   5.623 -0.7681  0.7620  2.0264
38533SOL    HW218493   8.660   3.934   5.628 -0.7204  2.1364  2.4297
38534SOL     OW18494   7.483   9.647   9.732 -0.1740  0.1154 -0.2487
38534SOL    HW118495   7.549   9.713   9.755 -0.9558  0.3346  1.5875
38534SOL    HW218496   7.419   9.652   9.803 -0.1345 -2.8355  0.1287
38535SOL     OW18497   9.010   1.959  10.153 -0.3032 -0.6624  0.3400
38535SOL    HW118498   8.946   1.889  10.141 -0.3454 -0.7752  1.1376
38535SOL    HW218499   8.974   2.013  10.223 -0.2408  0.1320 -0.2237
38536SOL     OW18500   4.782   4.734  10.368 -0.0368 -0.2684 -0.5966
38536SOL    HW118501   4.871   4.711  10.393  0.2050  0.1757 -1.0323
38536SOL    HW218502   4.776   4.713  10.275 -0.2358  0.1413 -0.6810
38537SOL     OW18503   9.708   8.059   8.390 -0.5509  0.7509  0.1881
38537SOL    HW118504   9.631   8.032   8.340 -0.1957  0.3871 -0.1641
38537SOL    HW218505   9.782   8.022   8.342 -0.2624 -0.7215  1.6680
38538SOL     OW18506   0.263   7.223   8.928  0.1542  0.0479 -0.1759
38538SOL    HW118507   0.279   7.140   8.973  1.5647  0.8102  0.8281
38538SOL    HW218508   0.318   7.218   8.849  1.9285  0.8007  0.9349
38539SOL     OW18509   4.717   7.675  10.305  0.6076  0.3676 -0.0259
38539SOL    HW118510   4.803   7.693  10.343  0.8029  1.1369 -0.7968
38539SOL    HW218511   4.659   7.740  10.345  1.3385  3.0269 -2.9096
38540SOL     OW18512   7.254   8.478   2.857 -0.8623 -0.5009 -0.4037
38540SOL    HW118513   7.245   8.453   2.949 -2.1135 -0.5066 -0.5128
38540SOL    HW218514   7.287   8.398   2.814  3.2746  0.4527  0.5326
38541SOL     OW18515   1.895  10.515   9.452 -0.3782 -0.3025  0.5090
38541SOL    HW118516   1.901  10.569   9.373  0.0516 -0.9875  0.0682
38541SOL    HW218517   1.960  10.446   9.440  0.1937 -0.0191  1.7833
38542SOL     OW18518   2.283   9.049   1.902  0.5198  0.3811 -0.4440
38542SOL    HW118519   2.333   9.019   1.978 -0.2343  0.3635  0.0480
38542SOL    HW218520   2.341   9.032   1.828  2.4432  2.9356  0.3232
38543SOL     OW18521   4.376  10.040   4.554 -0.0878 -0.2752  0.4030
38543SOL    HW118522   4.346  10.130   4.552  0.2104 -0.1373 -2.9599
38543SOL    HW218523   4.301   9.989   4.523 -0.0888 -1.1641  1.7851
38544SOL     OW18524   0.963   0.540   4.193  0.0666  0.2512 -0.1422
38544SOL    HW118525   1.024   0.468   4.205 -0.3551 -0.1997 -0.6320
38544SOL    HW218526   1.019   0.617   4.180  0.5412 -0.1897 -0.7931
38545SOL     OW18527  10.011   3.235   4.574 -0.2455 -0.1711  0.6224
38545SOL    HW118528  10.013   3.228   4.478  2.3786 -0.5750  0.6207
38545SOL    HW218529   9.998   3.328   4.591 -2.1051 -0.2548 -0.0438
38546SOL     OW18530   0.859   4.224   3.815  0.3578  0.0116  0.4949
38546SOL    HW118531   0.861   4.189   3.904 -0.8043  0.2193  0.6116
38546SOL    HW218532   0.942   4.272   3.807  0.5555 -0.1591  1.3978
38547SOL     OW18533   5.745   0.371   7.318 -0.5812  0.5373 -0.4024
38547SOL    HW118534   5.738   0.295   7.376  0.8076  0.9157  0.2931
38547SOL    HW218535   5.839   0.382   7.302 -0.6269  2.8512  0.5325
38548SOL     OW18536   4.083   0.537   4.067 -0.1524 -0.1216  0.4270
38548SOL    HW118537   4.080   0.531   3.972 -1.8111 -1.2568  0.5057
38548SOL    HW218538   4.103   0.629   4.086 -0.6164  0.2882 -1.0096
38549SOL     OW18539   7.962   6.839   2.204 -0.1747 -0.0538  0.2915
38549SOL    HW118540   7.889   6.891   2.170 -0.2202 -0.6076 -0.4704
38549SOL    HW218541   8.039   6.872   2.157 -0.0196  0.1371  0.6767
38550SOL     OW18542   5.471   0.513   7.675 -0.7222  0.0048  0.1999
38550SOL    HW118543   5.435   0.425   7.679  0.2698 -0.4423 -0.1950
38550SOL    HW218544   5.406   0.564   7.628 -1.6446 -0.3309  1.0804
38551SOL     OW18545  10.293   8.899   9.763  0.1196 -0.1194 -0.0979
38551SOL    HW118546  10.303   8.994   9.759 -2.9592  0.2539 -1.3158
38551SOL    HW218547  10.339   8.866   9.686  1.4173  0.2887  0.4643
38552SOL     OW18548   0.294   9.361   9.894 -0.4909 -0.6528 -0.0689
38552SOL    HW118549   0.383   9.335   9.868  0.2979  1.8209 -0.0932
38552SOL    HW218550   0.281   9.319   9.979  1.4362  0.2955  0.7524
38553SOL     OW18551   9.383   1.765   0.603  0.0212  0.1963  0.1506
38553SOL    HW118552   9.293   1.796   0.592 -0.3408 -0.3431  1.4500
38553SOL    HW218553   9.436   1.845   0.595 -0.6046  0.6045 -0.0750
38554SOL     OW18554   9.799   8.749   4.809 -0.2200  0.2865 -0.2908
38554SOL    HW118555   9.869   8.814   4.818 -0.5886  0.6381  0.0875
38554SOL    HW218556   9.744   8.762   4.887 -1.2328  0.6692 -1.0458
38555SOL     OW18557   9.416   5.997   1.431  0.8070  0.4317  0.1124
38555SOL    HW118558   9.444   6.052   1.504  0.6825  0.8526 -0.1490
38555SOL    HW218559   9.443   5.909   1.455 -0.1240  0.4023  1.1236
38556SOL     OW18560   7.210   5.146   0.333 -0.5606 -0.4936 -0.1252
38556SOL    HW118561   7.269   5.204   0.382  0.0069 -0.6665 -0.6073
38556SOL    HW218562   7.223   5.060   0.372  0.8954 -0.9113 -1.4343
38557SOL     OW18563  10.487   0.982   1.555  0.1722 -0.2198 -0.2475
38557SOL    HW118564  10.514   0.899   1.595  0.6539 -0.2922 -0.7129
38557SOL    HW218565  10.445   1.031   1.627 -2.0163 -1.6778 -0.4411
38558SOL     OW18566   8.749   7.553   2.386 -0.3994 -0.5578  0.3619
38558SOL    HW118567   8.804   7.487   2.428  0.2945 -0.0225  0.3144
38558SOL    HW218568   8.666   7.548   2.433 -0.0329 -0.7942  1.0022
38559SOL     OW18569   4.277   1.665   3.253  0.5616  0.1522  0.0418
38559SOL    HW118570   4.346   1.729   3.271  0.6726 -0.1490  0.7169
38559SOL    HW218571   4.320   1.597   3.200  0.2461  1.0147 -1.3718
38560SOL     OW18572   3.982   2.129   4.648 -0.0637  0.0708 -0.3215
38560SOL    HW118573   4.002   2.192   4.578  0.2086  0.3243 -0.0206
38560SOL    HW218574   3.918   2.174   4.703  0.3691  0.2124  0.0711
38561SOL     OW18575   7.054   8.298   6.300 -0.3583 -0.6442 -0.0897
38561SOL    HW118576   6.969   8.320   6.262 -0.5744 -0.4991  0.4645
38561SOL    HW218577   7.052   8.339   6.386  0.6739  0.2097 -0.4535
38562SOL     OW18578   7.024   8.067   7.551  0.1472 -0.7536 -0.5031
38562SOL    HW118579   7.026   8.139   7.489  0.7038  0.6795  1.1038
38562SOL    HW218580   6.931   8.047   7.562 -0.1421  0.9269  0.3340
38563SOL     OW18581   4.681   8.789   1.900  0.3377 -0.1320  0.5099
38563SOL    HW118582   4.774   8.768   1.910  0.2380 -0.0609  1.8968
38563SOL    HW218583   4.637   8.706   1.920  0.0321  0.5992  3.4087
38564SOL     OW18584   8.152   6.449   9.400  0.3302 -0.5412 -0.2323
38564SOL    HW118585   8.186   6.471   9.313  1.2909 -3.3200 -0.6412
38564SOL    HW218586   8.217   6.391   9.438 -1.2681 -1.4352  1.3174
38565SOL     OW18587   2.975  10.233  10.320 -0.3324 -1.0792 -0.1283
38565SOL    HW118588   2.967  10.180  10.400 -0.0018 -0.2656  0.4591
38565SOL    HW218589   3.055  10.201  10.278  0.8233  0.0529  1.1016
38566SOL     OW18590   4.183   4.093   0.059 -0.3862  0.1072  0.0207
38566SOL    HW118591   4.215   4.164   0.003  2.7746 -0.7917  0.5227
38566SOL    HW218592   4.140   4.033  -0.002  1.5494 -0.0612 -1.2699
38567SOL     OW18593   4.060  10.593   3.866 -0.5344 -0.6537  0.0186
38567SOL    HW118594   4.109  10.568   3.944 -0.5943 -1.5167 -0.2132
38567SOL    HW218595   4.056  10.689   3.870  0.9578 -0.5686  0.1660
38568SOL     OW18596   5.324   3.285   5.816 -0.5812 -0.3064  0.0475
38568SOL    HW118597   5.246   3.335   5.841 -0.6242 -0.6744  0.6729
38568SOL    HW218598   5.353   3.324   5.733 -1.6975 -0.4695 -0.4327
38569SOL     OW18599   2.678   7.220   6.869  0.2642  0.1697 -0.0220
38569SOL    HW118600   2.635   7.224   6.954  0.9422  2.2231  0.2722
38569SOL    HW218601   2.685   7.127   6.850 -0.9584 -0.3016  1.6102
38570SOL     OW18602   8.939  10.545   2.193 -0.5389 -0.5124  0.1770
38570SOL    HW118603   8.843  10.551   2.197 -0.5515 -0.3570 -0.2484
38570SOL    HW218604   8.967  10.631   2.162 -0.4105 -1.1900 -1.7154
38571SOL     OW18605   4.593   5.290   5.689 -0.0743 -0.8386 -0.1609
38571SOL    HW118606   4.546   5.223   5.639  0.0913 -1.4809  0.5109
38571SOL    HW218607   4.617   5.245   5.770  1.9592 -0.6441 -0.6025
38572SOL     OW18608   2.431   3.118   0.169  0.1199  0.6713 -0.2872
38572SOL    HW118609   2.413   3.189   0.230  1.5471  1.7901 -1.1056
38572SOL    HW218610   2.350   3.108   0.119 -1.6449 -1.2805  2.6247
38573SOL     OW18611   6.630   1.478  10.793 -0.1884 -0.6263  0.1523
38573SOL    HW118612   6.646   1.541  10.723 -0.4055 -0.7109  0.0239
38573SOL    HW218613   6.546   1.504  10.830  1.0575  0.9284  2.0355
38574SOL     OW18614   1.601   8.320   2.816 -0.4465  0.3227 -0.2279
38574SOL    HW118615   1.548   8.282   2.746 -0.9202 -0.5635  0.5987
38574SOL    HW218616   1.547   8.389   2.853 -0.1904  0.8015 -0.7204
38575SOL     OW18617  10.038   3.772   8.641 -0.2971  0.0351  0.3687
38575SOL    HW118618  10.111   3.817   8.598 -0.4483  0.8614  0.9509
38575SOL    HW218619  10.028   3.818   8.724 -0.3019 -1.2423  1.1017
38576SOL     OW18620   9.228   7.404  10.221  0.5081  0.1014  0.0672
38576SOL    HW118621   9.143   7.378  10.185  0.2098  1.2486 -0.1103
38576SOL    HW218622   9.207   7.448  10.303  1.0153 -0.4290  0.4905
38577SOL     OW18623   7.276   9.903   4.733  0.2130 -0.2750  0.1703
38577SOL    HW118624   7.282   9.818   4.690  0.5292 -1.1147  1.8111
38577SOL    HW218625   7.269   9.966   4.661 -0.8860 -1.7339 -1.0628
38578SOL     OW18626   6.985   1.922   7.439 -0.5804  0.1393 -0.6766
38578SOL    HW118627   6.920   1.942   7.506 -1.3107  0.3278 -1.4091
38578SOL    HW218628   6.958   1.975   7.364 -0.0529 -0.4036 -1.2602
38579SOL     OW18629   3.553   0.713   7.775 -0.0416 -0.2703 -0.2108
38579SOL    HW118630   3.581   0.709   7.683  1.3225 -0.4378  0.1958
38579SOL    HW218631   3.488   0.783   7.777  1.2342  0.9747 -0.9688
38580SOL     OW18632   0.515   8.860   0.481 -0.3299 -0.4240  0.0772
38580SOL    HW118633   0.544   8.934   0.535  0.3540 -1.2986  0.9523
38580SOL    HW218634   0.421   8.871   0.474 -0.2393  0.5147  0.2169
38581SOL     OW18635   2.657   2.796   6.811  0.4807  0.8218 -0.0491
38581SOL    HW118636   2.681   2.839   6.728  0.3721  0.3817 -0.3132
38581SOL    HW218637   2.565   2.821   6.824  0.4646  0.8028 -0.1212
38582SOL     OW18638   0.475  10.526   5.534  0.4754  0.3731 -0.2053
38582SOL    HW118639   0.385  10.558   5.527  0.1083 -0.2686  1.2528
38582SOL    HW218640   0.507  10.562   5.617  0.6179 -1.6315  0.6540
38583SOL     OW18641   6.233   7.749   9.926 -0.7925 -0.8925  0.0595
38583SOL    HW118642   6.210   7.698  10.004 -0.0464 -0.9721  0.2304
38583SOL    HW218643   6.202   7.695   9.853 -1.8717 -0.6258  0.3044
38584SOL     OW18644   6.836   6.586   8.219  0.3453  0.0003  0.0008
38584SOL    HW118645   6.765   6.538   8.176  1.5146 -1.1952 -0.6767
38584SOL    HW218646   6.823   6.569   8.313 -3.0015  3.6837  0.5167
38585SOL     OW18647   4.292   0.661   9.954 -0.1247 -0.1275 -0.8740
38585SOL    HW118648   4.313   0.600   9.883 -1.7268 -0.9341 -0.6797
38585SOL    HW218649   4.205   0.694   9.933  0.2885  1.3252 -0.4215
38586SOL     OW18650   4.724   9.170   4.033  0.0400  0.6822  0.4159
38586SOL    HW118651   4.817   9.161   4.055 -0.6407 -0.5387  3.2814
38586SOL    HW218652   4.709   9.104   3.965  1.0195 -0.1054  0.9361
38587SOL     OW18653   6.506   3.531   5.384  0.2774  0.2323  0.0871
38587SOL    HW118654   6.422   3.576   5.376 -0.0602 -0.3683  0.2420
38587SOL    HW218655   6.521   3.493   5.297  1.5914  2.3869 -0.7321
38588SOL     OW18656   4.149   3.568   2.357  0.0233  0.0054  0.4043
38588SOL    HW118657   4.100   3.501   2.405  0.8148 -0.2905  0.8124
38588SOL    HW218658   4.239   3.537   2.357 -0.0027 -0.2615 -1.7139
38589SOL     OW18659   7.745   4.663   3.373  0.1982  0.2338 -0.1652
38589SOL    HW118660   7.824   4.698   3.332  0.9322  0.5426  1.4255
38589SOL    HW218661   7.681   4.734   3.366  1.3279  1.5995  2.0285
38590SOL     OW18662   2.989   3.059   0.381 -0.1247  0.2465 -0.1782
38590SOL    HW118663   2.938   3.066   0.461  1.3966  1.7539  0.7180
38590SOL    HW218664   2.950   3.124   0.322  0.3893  0.9841  0.2908
38591SOL     OW18665   6.621   2.828   8.225 -0.3704  0.5554 -0.2713
38591SOL    HW118666   6.612   2.734   8.214  1.1245  0.1350  1.5150
38591SOL    HW218667   6.543   2.866   8.183 -1.3899 -1.4985 -0.3221
38592SOL     OW18668   5.955   5.083   3.247 -0.8573 -0.0345  0.6147
38592SOL    HW118669   6.006   5.013   3.208 -0.7919 -0.6469  1.7772
38592SOL    HW218670   5.882   5.096   3.186 -0.5924 -0.7636  0.1341
38593SOL     OW18671   7.252   1.816   6.162  0.0100 -0.5103 -0.2964
38593SOL    HW118672   7.321   1.749   6.166  1.0525  0.5045 -0.5257
38593SOL    HW218673   7.292   1.894   6.200 -1.2073 -0.0289  0.0437
38594SOL     OW18674   8.051   1.016   5.466  0.0016  0.4998  0.8644
38594SOL    HW118675   8.046   0.961   5.388 -0.4331  0.9878  0.5414
38594SOL    HW218676   8.052   0.954   5.539  1.1256  0.0085  0.4588
38595SOL     OW18677   8.573  10.123   0.707 -0.4839  0.2108  0.1355
38595SOL    HW118678   8.599  10.064   0.637 -1.9413 -1.0539  0.6108
38595SOL    HW218679   8.644  10.116   0.772 -0.3371 -0.5445 -0.0929
38596SOL     OW18680   2.071   9.360   5.631 -0.3001  0.0509 -0.0986
38596SOL    HW118681   2.135   9.393   5.693 -0.8879  1.0976 -0.0294
38596SOL    HW218682   2.122   9.342   5.551  0.6505 -2.2602  0.9183
38597SOL     OW18683   3.022   7.082   7.644 -0.5822 -0.1409  0.7172
38597SOL    HW118684   3.001   7.096   7.737  0.6775  0.2892  0.9669
38597SOL    HW218685   3.117   7.095   7.640 -0.6097 -0.2829 -0.6174
38598SOL     OW18686   9.431   6.923  10.720  0.4653 -0.0550  0.1094
38598SOL    HW118687   9.347   6.901  10.761  1.3170  0.6007  2.3476
38598SOL    HW218688   9.491   6.856  10.752  2.1186  2.7569  3.5994
38599SOL     OW18689   9.156   2.922   2.560  0.2764 -0.1198 -0.2923
38599SOL    HW118690   9.076   2.926   2.507  1.1425 -0.5087 -1.6982
38599SOL    HW218691   9.168   3.011   2.593 -1.6015 -0.4017  1.3331
38600SOL     OW18692  10.016  10.372   7.412  0.2493  0.1719 -0.0097
38600SOL    HW118693   9.933  10.349   7.455 -0.8274  1.5016 -1.2531
38600SOL    HW218694  10.057  10.435   7.471  0.9274 -1.2855  1.1272
38601SOL     OW18695   2.641   8.595   0.059 -0.1128  0.2324  0.1099
38601SOL    HW118696   2.655   8.682   0.023 -1.8136  0.1865 -0.7873
38601SOL    HW218697   2.572   8.557   0.003  0.4277 -1.5980  0.6096
38602SOL     OW18698   6.029   8.513   3.073 -0.4231  0.2347  0.1396
38602SOL    HW118699   5.949   8.546   3.113 -0.0554  1.5924 -0.1941
38602SOL    HW218700   6.070   8.590   3.034  1.1972 -0.3795  0.5486
38603SOL     OW18701   9.380   5.445   2.397 -0.1193  0.0940 -0.3258
38603SOL    HW118702   9.462   5.488   2.420  0.8824 -1.0909 -1.5449
38603SOL    HW218703   9.400   5.351   2.401 -2.0075 -0.3053  1.4148
38604SOL     OW18704   3.029  10.595   6.001  0.3897  0.2117 -0.0870
38604SOL    HW118705   2.946  10.642   6.002 -0.4038 -1.0582 -1.9712
38604SOL    HW218706   3.088  10.651   5.950  0.5893  0.9049  0.8799
38605SOL     OW18707   8.339   5.040  10.517 -0.3202 -0.6127 -0.0043
38605SOL    HW118708   8.434   5.033  10.505 -0.5972 -3.4893 -1.3343
38605SOL    HW218709   8.324   5.000  10.603 -0.4097 -0.9724 -0.1873
38606SOL     OW18710   1.536   8.444   9.891  0.4475 -0.8344 -0.2893
38606SOL    HW118711   1.513   8.489   9.972  4.3223  1.2116 -0.0685
38606SOL    HW218712   1.465   8.381   9.877 -2.6548  1.7452  2.2410
38607SOL     OW18713   0.747   5.233   5.900  0.6250  0.1762  0.3489
38607SOL    HW118714   0.711   5.320   5.916  1.1149  0.2534  1.0686
38607SOL    HW218715   0.782   5.238   5.811 -0.7325  0.2270 -0.1958
38608SOL     OW18716   4.178   9.201   7.802  0.1638 -0.0910 -0.6312
38608SOL    HW118717   4.248   9.215   7.866 -0.0084  0.5552 -0.5736
38608SOL    HW218718   4.223   9.186   7.719  0.4270 -2.0615 -0.1835
38609SOL     OW18719   6.127   7.085   9.408  0.7596 -0.0441  0.1520
38609SOL    HW118720   6.051   7.055   9.459 -0.8230  2.0608 -0.8348
38609SOL    HW218721   6.104   7.064   9.317  0.6332  1.9641 -0.3147
38610SOL     OW18722   8.660   5.759   1.498  0.1311 -0.3126 -0.1859
38610SOL    HW118723   8.748   5.795   1.499 -0.2699  0.9068 -2.4250
38610SOL    HW218724   8.658   5.700   1.422 -0.3628 -2.1510  1.1722
38611SOL     OW18725   2.975   8.332   9.159 -0.3254 -0.5750 -0.3829
38611SOL    HW118726   2.892   8.332   9.208 -0.3474  2.0982 -0.3055
38611SOL    HW218727   2.954   8.372   9.075  0.5076 -1.7372 -1.1824
38612SOL     OW18728   2.256   8.532   0.334  0.0750 -0.1169 -0.3714
38612SOL    HW118729   2.297   8.520   0.419  0.3368  1.5999 -0.2292
38612SOL    HW218730   2.187   8.596   0.348 -0.4318 -0.4273 -1.2942
38613SOL     OW18731   9.564   4.153   7.601 -0.3099 -0.0506  0.3519
38613SOL    HW118732   9.549   4.068   7.643 -0.6651 -0.5068 -0.6748
38613SOL    HW218733   9.656   4.173   7.620  0.2012 -1.3565 -0.6035
38614SOL     OW18734   5.119   7.194   2.783 -0.1294  0.3678  0.1927
38614SOL    HW118735   5.147   7.225   2.869  0.0360  0.1239  0.2263
38614SOL    HW218736   5.024   7.182   2.792 -0.2441  1.1592  0.0862
38615SOL     OW18737   7.189  10.406   0.453 -0.4021  0.2700  0.0982
38615SOL    HW118738   7.163  10.331   0.400 -1.1236  0.4660  0.1658
38615SOL    HW218739   7.284  10.398   0.461 -0.3642 -0.1430 -0.6425
38616SOL     OW18740   4.851   7.354   6.738  0.2636  0.0069 -0.1023
38616SOL    HW118741   4.762   7.342   6.771  0.0903 -0.6530 -0.7932
38616SOL    HW218742   4.843   7.419   6.668  0.2465 -0.4399 -0.5133
38617SOL     OW18743   9.160   7.817   4.668  0.2048 -0.0033  0.3723
38617SOL    HW118744   9.182   7.756   4.738  0.3567 -1.0140 -0.5353
38617SOL    HW218745   9.226   7.802   4.601  0.2836  1.2143  0.1509
38618SOL     OW18746   9.055  10.169   3.327 -0.4297 -0.4256  0.3934
38618SOL    HW118747   8.992  10.128   3.268 -1.1779  1.9376 -0.5375
38618SOL    HW218748   9.020  10.256   3.345  2.2962  0.8117  0.2440
38619SOL     OW18749   8.364   0.070   6.214 -0.1872 -0.3194  0.2899
38619SOL    HW118750   8.401   0.130   6.149 -1.4617 -0.0327 -0.2148
38619SOL    HW218751   8.435   0.010   6.234  0.3276 -0.2554 -1.1870
38620SOL     OW18752   4.562   3.287   6.717 -0.1793  0.0721 -0.7478
38620SOL    HW118753   4.532   3.347   6.649 -1.5459 -0.4766 -0.6558
38620SOL    HW218754   4.545   3.200   6.681  1.1540 -0.2780 -0.5965
38621SOL     OW18755   2.637   6.465   7.072  0.1165  0.5610  0.3044
38621SOL    HW118756   2.609   6.405   7.141  2.5211 -1.0153  0.0163
38621SOL    HW218757   2.638   6.551   7.114 -2.4479  0.3233  1.0056
38622SOL     OW18758   4.766   5.666   9.584 -0.1400  0.4196  0.1894
38622SOL    HW118759   4.695   5.693   9.526 -0.6074  1.0661  1.0479
38622SOL    HW218760   4.826   5.617   9.527 -0.9339  0.4379 -0.6829
38623SOL     OW18761   4.315  10.163   2.302 -0.1530  0.3845  0.1782
38623SOL    HW118762   4.352  10.193   2.385  1.7383 -0.2211 -0.3810
38623SOL    HW218763   4.234  10.118   2.327 -0.1099  1.0307  1.5827
38624SOL     OW18764   6.424   6.849   3.650 -0.5015 -0.2664 -0.0219
38624SOL    HW118765   6.393   6.933   3.682 -1.5106 -1.0891  1.2546
38624SOL    HW218766   6.496   6.871   3.591  0.0140  1.4218  1.1620
38625SOL     OW18767   1.348   0.339   0.701 -0.4783 -0.0575 -0.3125
38625SOL    HW118768   1.362   0.401   0.630  0.8043  1.3220  1.0685
38625SOL    HW218769   1.254   0.342   0.719 -0.8779 -0.6600 -2.0875
38626SOL     OW18770   0.740   6.713   7.398 -0.3956 -0.1229 -0.1554
38626SOL    HW118771   0.706   6.790   7.352  0.7060  0.1702 -0.4908
38626SOL    HW218772   0.830   6.735   7.420 -0.3611 -0.9495  0.6044
38627SOL     OW18773   0.321   8.820   3.261  0.1203 -0.0170  0.0086
38627SOL    HW118774   0.243   8.816   3.315 -0.4542  0.1407 -0.8007
38627SOL    HW218775   0.377   8.885   3.304 -0.1281 -0.2327  0.6611
38628SOL     OW18776   7.076   9.936   8.716  0.0158  0.2067 -0.4323
38628SOL    HW118777   7.030   9.967   8.639  2.1174 -1.3191 -2.4536
38628SOL    HW218778   7.059   9.842   8.719 -0.3801  0.2961  1.2655
38629SOL     OW18779   6.901  10.308   1.469  0.2083 -0.5538 -0.1473
38629SOL    HW118780   6.863  10.394   1.452  0.5131 -0.1044  1.3628
38629SOL    HW218781   6.989  10.314   1.431 -0.0234 -0.4544 -0.6811
38630SOL     OW18782   9.148   2.711   6.054 -0.4974 -0.1786 -0.2404
38630SOL    HW118783   9.236   2.701   6.018 -0.2179 -0.5878  0.5280
38630SOL    HW218784   9.098   2.637   6.020  0.0635 -1.1951  1.0341
38631SOL     OW18785   5.528   4.458   5.955  0.0929 -0.0189  0.1442
38631SOL    HW118786   5.554   4.543   5.918  0.5702  0.3556  1.2888
38631SOL    HW218787   5.447   4.476   6.001 -2.1619 -1.0948 -3.0293
38632SOL     OW18788   1.720   8.733   9.112 -0.0218  0.1705 -0.0670
38632SOL    HW118789   1.801   8.773   9.141  0.3377 -0.4886 -0.1270
38632SOL    HW218790   1.690   8.787   9.039 -1.1798  2.1124  1.7547
38633SOL     OW18791   0.945   7.543   4.464  0.1857  0.1067 -0.0783
38633SOL    HW118792   1.022   7.490   4.483 -0.1276 -0.4006 -0.2134
38633SOL    HW218793   0.952   7.618   4.524  0.6804 -0.0337  0.0416
38634SOL     OW18794   4.252   5.044   4.363  0.1513 -0.1174  0.3068
38634SOL    HW118795   4.254   5.018   4.456 -1.7115 -1.6457 -0.0236
38634SOL    HW218796   4.160   5.059   4.345  0.5985  1.1248 -1.0873
38635SOL     OW18797   0.273   4.395   0.725  0.3056  0.4291  0.1484
38635SOL    HW118798   0.193   4.380   0.774  0.0682 -2.9380 -1.0112
38635SOL    HW218799   0.336   4.332   0.761  1.5730  1.1129 -0.7820
38636SOL     OW18800  10.746   9.947   7.644  0.3314 -0.0024 -0.1121
38636SOL    HW118801  10.837   9.924   7.664  0.1682  1.1750  2.3603
38636SOL    HW218802  10.749  10.041   7.625 -0.2561 -0.1249 -0.8131
38637SOL     OW18803   7.191   3.898   9.715  0.7155  0.1765 -0.5276
38637SOL    HW118804   7.127   3.828   9.729  1.0203  0.1772  1.0355
38637SOL    HW218805   7.168   3.964   9.780  0.6373  1.4219 -1.7577
38638SOL     OW18806   1.461   2.401   4.341  0.1267 -0.4040  0.3574
38638SOL    HW118807   1.371   2.433   4.336 -0.1185 -1.2207 -0.8381
38638SOL    HW218808   1.462   2.341   4.415 -0.4124 -0.6999  0.1229
38639SOL     OW18809   3.547  10.742   4.836  0.5153  0.1026  0.3200
38639SOL    HW118810   3.503  10.658   4.823 -1.7305  1.2077  0.2508
38639SOL    HW218811   3.639  10.720   4.845 -0.1220 -2.4498  1.3334
38640SOL     OW18812   9.220   9.011   8.469 -0.1278 -0.0076 -0.3523
38640SOL    HW118813   9.127   9.023   8.486 -0.3110  2.2927 -2.4642
38640SOL    HW218814   9.258   9.098   8.477  1.8743 -0.8820  0.4096
38641SOL     OW18815   0.449   8.412   8.098  0.1082  0.1392 -0.3352
38641SOL    HW118816   0.366   8.393   8.055 -0.8325  0.7320  1.1219
38641SOL    HW218817   0.466   8.504   8.079  0.9292 -0.2175 -1.3961
38642SOL     OW18818   0.765   3.935   3.066 -0.6072 -0.1388  0.1512
38642SOL    HW118819   0.703   3.990   3.114 -0.2680 -1.1565  1.8394
38642SOL    HW218820   0.709   3.871   3.020 -0.8673 -0.4578  0.8948
38643SOL     OW18821   2.162   9.207   1.080 -0.0456 -0.6777 -0.1665
38643SOL    HW118822   2.147   9.294   1.117  2.1029  0.2108 -1.2272
38643SOL    HW218823   2.075   9.174   1.060 -0.8738  1.9025 -1.1862
38644SOL     OW18824   9.500   4.924   0.962 -0.6477  0.9479 -0.2366
38644SOL    HW118825   9.536   4.838   0.988 -0.8149  1.5225  2.1807
38644SOL    HW218826   9.414   4.904   0.926 -0.2695  0.0268 -0.6626
38645SOL     OW18827   0.764   9.162   0.206 -0.3588  0.1816  0.2266
38645SOL    HW118828   0.821   9.104   0.257 -3.0102 -0.2477  2.9905
38645SOL    HW218829   0.811   9.175   0.123  2.9992 -1.2513  1.7020
38646SOL     OW18830   3.309   7.930  10.507 -0.2672  0.3969  0.1627
38646SOL    HW118831   3.366   7.863  10.544 -0.8720 -1.4511 -2.0282
38646SOL    HW218832   3.342   8.012  10.542  3.6187 -0.5642 -0.8191
38647SOL     OW18833   0.637  10.688   3.858  0.2233 -0.3408 -0.8076
38647SOL    HW118834   0.614  10.761   3.800  1.1501 -0.0959 -0.8928
38647SOL    HW218835   0.733  10.687   3.857  0.2241 -1.3023 -0.4790
38648SOL     OW18836   4.303   5.760   8.283  0.2467 -1.0392 -0.3870
38648SOL    HW118837   4.312   5.825   8.214 -0.0647 -0.1209  0.4069
38648SOL    HW218838   4.237   5.797   8.342  1.2271 -1.3176  0.9295
38649SOL     OW18839   9.174   0.408   5.813  0.0483 -0.3163  0.2547
38649SOL    HW118840   9.207   0.491   5.847  1.1160 -0.9364  0.7796
38649SOL    HW218841   9.244   0.377   5.754  0.2179 -1.4200  1.0120
38650SOL     OW18842   3.886   8.816   9.695 -0.1781 -0.0996  0.4905
38650SOL    HW118843   3.903   8.725   9.718  1.9618  0.2002  0.2780
38650SOL    HW218844   3.918   8.825   9.606 -0.4673  0.8327  0.4672
38651SOL     OW18845   0.265   1.583   2.631  0.7226 -0.1872 -0.0518
38651SOL    HW118846   0.192   1.557   2.575  1.0372 -0.6535 -0.2512
38651SOL    HW218847   0.257   1.528   2.709 -0.1649  0.9948  0.7232
38652SOL     OW18848   3.182   7.036   0.794  0.0140 -0.1588  0.4312
38652SOL    HW118849   3.237   6.958   0.804  1.6788  0.5969 -2.0884
38652SOL    HW218850   3.243   7.107   0.778 -1.5838  0.7072 -2.6233
38653SOL     OW18851   6.730   8.003   2.721  0.0036  0.1589  0.0627
38653SOL    HW118852   6.689   7.952   2.651  0.7055 -2.6827  1.5788
38653SOL    HW218853   6.823   8.000   2.702  0.1544 -0.1820  0.8409
38654SOL     OW18854   1.878   2.588   4.896 -0.6255  0.6174 -0.5339
38654SOL    HW118855   1.824   2.605   4.973 -2.1421 -0.6732 -1.2508
38654SOL    HW218856   1.927   2.508   4.917  1.0250  1.7494  0.0906
38655SOL     OW18857   9.799   7.000   1.238  0.2205 -0.0065 -0.8610
38655SOL    HW118858   9.721   7.051   1.215 -1.8319 -2.0096  1.0651
38655SOL    HW218859   9.842   6.981   1.155 -1.0762  1.5681 -1.9382
38656SOL     OW18860   1.512   9.379   7.810 -0.3494  0.3995  0.4906
38656SOL    HW118861   1.430   9.346   7.848 -0.3476 -1.2288 -0.8003
38656SOL    HW218862   1.581   9.331   7.856 -0.1183  1.3972  1.2181
38657SOL     OW18863   3.497   7.650  10.164  0.1838  0.6587 -0.5863
38657SOL    HW118864   3.477   7.611  10.079  2.0534  0.7681 -1.1135
38657SOL    HW218865   3.412   7.658  10.207 -0.6422 -0.7855 -1.8388
38658SOL     OW18866   4.436   7.159   9.783 -0.2343  0.2950 -0.0077
38658SOL    HW118867   4.342   7.150   9.799 -0.1144 -0.1007  0.5157
38658SOL    HW218868   4.477   7.131   9.865  0.3890 -1.3396 -0.8146
38659SOL     OW18869   9.861   6.116   9.836 -0.4852 -0.3822  0.0640
38659SOL    HW118870   9.904   6.120   9.751 -4.0213 -0.6132 -1.9423
38659SOL    HW218871   9.803   6.193   9.837 -3.7961 -2.6507  0.1362
38660SOL     OW18872   0.372  10.442   7.238 -0.5531  0.5650  0.4910
38660SOL    HW118873   0.336  10.493   7.165  0.7174  1.5963  0.5431
38660SOL    HW218874   0.467  10.442   7.223 -0.4556 -1.2129  0.8907
38661SOL     OW18875   5.016   2.635   0.886 -0.0189  0.0565 -0.0642
38661SOL    HW118876   5.022   2.590   0.802  1.3724  0.4976 -0.2335
38661SOL    HW218877   4.988   2.724   0.863 -0.0078  0.0709 -0.0219
38662SOL     OW18878   5.520   7.187   7.175  0.3261  0.2304 -0.4725
38662SOL    HW118879   5.522   7.168   7.269 -0.7657  1.2098 -0.2217
38662SOL    HW218880   5.431   7.219   7.159  0.5415  0.2370 -1.8182
38663SOL     OW18881   6.373   7.831   3.197 -0.2166  0.0740 -0.1591
38663SOL    HW118882   6.324   7.901   3.238 -1.1409 -0.6190 -0.0526
38663SOL    HW218883   6.432   7.875   3.136  0.7168  1.0769  1.4088
38664SOL     OW18884   8.776   0.943   2.640 -0.1993  0.3681  0.3667
38664SOL    HW118885   8.805   0.906   2.557  1.6402  1.5583  0.4202
38664SOL    HW218886   8.701   0.998   2.617  1.0918  1.7346 -0.7776
38665SOL     OW18887  10.106   2.462   0.319 -0.0419 -0.0445 -0.2232
38665SOL    HW118888  10.133   2.378   0.356 -0.8856 -0.2881 -0.1443
38665SOL    HW218889  10.063   2.439   0.237  0.4195  0.3772 -0.5927
38666SOL     OW18890   9.009   3.677   1.295 -0.4820  0.1736 -0.3645
38666SOL    HW118891   8.924   3.633   1.301 -0.9387  1.1687  0.7148
38666SOL    HW218892   8.991   3.768   1.315  1.0910  0.1211  1.6268
38667SOL     OW18893   0.895  10.710   3.167  0.2718  0.9791  0.4911
38667SOL    HW118894   0.900  10.806   3.168 -1.0528  1.1187 -1.4584
38667SOL    HW218895   0.804  10.691   3.186  0.7084  0.0326  1.7355
38668SOL     OW18896   7.780   1.762   4.192 -0.6126  0.3908  0.0022
38668SOL    HW118897   7.699   1.808   4.172  0.0868  1.0506 -1.4369
38668SOL    HW218898   7.759   1.669   4.184 -1.6982  0.4491  1.6170
38669SOL     OW18899   4.224   7.980   3.336 -0.3300 -0.5783 -0.5174
38669SOL    HW118900   4.276   8.017   3.264  0.1279  1.5973  0.8666
38669SOL    HW218901   4.137   7.966   3.298  0.1686 -0.4721 -1.7557
38670SOL     OW18902   7.410   8.585   9.085 -0.5308  0.0269 -0.6300
38670SOL    HW118903   7.397   8.563   8.993  0.2496  0.2015 -0.7818
38670SOL    HW218904   7.493   8.632   9.088 -0.0277 -0.8882  0.3085
38671SOL     OW18905   4.179   4.318   5.313  0.3506 -0.1098  0.4161
38671SOL    HW118906   4.241   4.390   5.299  0.0609  0.4882  2.0360
38671SOL    HW218907   4.235   4.245   5.340  0.5764 -0.2872 -0.5179
38672SOL     OW18908   0.925   5.164   1.357 -0.3224  0.1519  0.2781
38672SOL    HW118909   1.016   5.135   1.357 -0.6694 -0.9661  0.5325
38672SOL    HW218910   0.929   5.254   1.390  0.7262  0.2551 -0.1008
38673SOL     OW18911   1.379   1.597   5.873  0.1602 -0.3931 -0.0789
38673SOL    HW118912   1.291   1.628   5.850 -0.1717 -0.4783  1.0327
38673SOL    HW218913   1.433   1.622   5.798 -0.6884  0.2213 -0.5071
38674SOL     OW18914   6.845  10.389   5.586 -0.5489 -0.3368  0.1676
38674SOL    HW118915   6.783  10.328   5.547 -0.9182  0.4493 -0.5173
38674SOL    HW218916   6.789  10.456   5.627 -0.1675 -0.8551  1.5981
38675SOL     OW18917   6.805   1.230   9.796 -0.0498  0.0198  0.0929
38675SOL    HW118918   6.823   1.139   9.822 -2.2957 -0.4558  0.1253
38675SOL    HW218919   6.713   1.230   9.771  0.3441  1.9299 -1.5794
38676SOL     OW18920   5.671   1.424   3.971  0.2355 -0.6697 -0.7248
38676SOL    HW118921   5.663   1.519   3.968 -1.1506 -0.6932  0.7949
38676SOL    HW218922   5.766   1.407   3.972  0.6880  0.9614  3.1320
38677SOL     OW18923   7.740   5.586   2.892 -0.2488  0.2764  0.2514
38677SOL    HW118924   7.682   5.651   2.853  1.3272  2.3195  1.1258
38677SOL    HW218925   7.822   5.594   2.842 -1.0095 -3.6110 -1.9941
38678SOL     OW18926   7.818  10.379   7.636  0.0404  0.6008 -0.0549
38678SOL    HW118927   7.864  10.428   7.704  0.4961  0.8067 -0.5033
38678SOL    HW218928   7.870  10.300   7.624 -0.8035 -0.1048  0.8091
38679SOL     OW18929   0.322   6.535   9.733  0.3356 -0.5365  0.2587
38679SOL    HW118930   0.280   6.459   9.692 -0.2222 -0.5534  0.8453
38679SOL    HW218931   0.313   6.605   9.668  1.1609 -1.0484 -0.4304
38680SOL     OW18932   3.209  10.448   8.070 -0.0531 -0.0362 -0.3948
38680SOL    HW118933   3.297  10.487   8.067  0.3285 -0.9022 -0.7954
38680SOL    HW218934   3.212  10.389   8.145 -0.5418  0.4864  0.0423
38681SOL     OW18935   5.958  10.547   8.338 -0.7117 -0.0898 -0.0731
38681SOL    HW118936   6.036  10.509   8.377  1.2701  3.5557 -0.0164
38681SOL    HW218937   5.903  10.572   8.413 -0.6518 -0.2371  0.0195
38682SOL     OW18938   7.877   3.076   4.656  0.0641 -0.4660  0.1771
38682SOL    HW118939   7.833   3.110   4.578 -1.1870  0.2487  1.1425
38682SOL    HW218940   7.940   3.145   4.680  0.2120 -0.5348 -0.0178
38683SOL     OW18941   2.704   8.359   5.456  0.0860 -0.3290 -0.0733
38683SOL    HW118942   2.679   8.269   5.440 -1.5468 -0.1707  1.3189
38683SOL    HW218943   2.622   8.405   5.472  0.9067  1.3311 -0.3928
38684SOL     OW18944   0.257   0.900   4.834  0.2728  0.5024 -0.7092
38684SOL    HW118945   0.313   0.973   4.861  0.8417  0.0975 -0.7755
38684SOL    HW218946   0.311   0.823   4.846 -0.2570  0.1054 -0.8369
38685SOL     OW18947   4.336  10.621   1.735 -0.1314 -0.7535  0.2476
38685SOL    HW118948   4.383  10.675   1.799 -3.8118  1.1016  1.6316
38685SOL    HW218949   4.283  10.561   1.787 -2.9271  0.5295 -0.9348
38686SOL     OW18950   8.275   0.307   5.537  0.0599 -0.3105 -0.4209
38686SOL    HW118951   8.350   0.258   5.503  0.2329  0.4887 -1.2244
38686SOL    HW218952   8.309   0.394   5.557  0.4524 -1.2358  3.8167
38687SOL     OW18953   3.258   7.554   4.995  0.1260  0.1533 -0.0129
38687SOL    HW118954   3.307   7.522   5.071  1.1128  2.3790  0.3681
38687SOL    HW218955   3.180   7.596   5.032 -0.6280 -0.8299 -0.4294
38688SOL     OW18956   1.827   6.122   7.003  0.1695 -0.4449 -0.0960
38688SOL    HW118957   1.866   6.204   6.973  2.5512 -1.4578  0.0035
38688SOL    HW218958   1.868   6.054   6.949  0.9795 -1.8704  2.1742
38689SOL     OW18959   7.098   1.998   9.067 -0.0181  0.4112 -0.3226
38689SOL    HW118960   7.080   1.922   9.123  1.4708 -0.6641 -1.2441
38689SOL    HW218961   7.050   1.980   8.987  1.1403 -0.0628 -0.9220
38690SOL     OW18962   7.871   2.676   8.221  0.4146 -0.0906 -0.3889
38690SOL    HW118963   7.827   2.756   8.192  1.1108  0.3301 -0.3027
38690SOL    HW218964   7.800   2.612   8.231  0.0843 -0.1795 -2.6998
38691SOL     OW18965   4.755   8.446   7.963 -0.1766  0.2316  0.1513
38691SOL    HW118966   4.829   8.503   7.981  0.2814  0.4683 -2.1222
38691SOL    HW218967   4.794   8.367   7.925 -1.0397  0.2839 -0.9011
38692SOL     OW18968   4.896   5.710   7.944 -0.4021 -0.0867  0.2119
38692SOL    HW118969   4.935   5.680   8.026 -1.0030 -0.6060  0.3126
38692SOL    HW218970   4.943   5.791   7.924  1.2757 -1.0973 -0.1027
38693SOL     OW18971   5.896   1.511   1.734  0.3251 -0.8376 -0.2215
38693SOL    HW118972   5.938   1.520   1.648  1.4257  0.5316  0.4230
38693SOL    HW218973   5.822   1.572   1.730  0.6938 -0.3682 -0.0294
38694SOL     OW18974   2.382   0.957   8.321  0.1899 -0.5504  0.3497
38694SOL    HW118975   2.306   0.971   8.376 -0.5071 -2.1722 -0.1441
38694SOL    HW218976   2.404   0.865   8.333  1.0544 -0.5229 -0.7848
38695SOL     OW18977   0.772   3.156   3.956 -0.4986  0.2235 -0.0976
38695SOL    HW118978   0.725   3.227   4.001  1.1479  1.0757  0.3490
38695SOL    HW218979   0.788   3.091   4.024  2.4034  1.7179  0.8163
38696SOL     OW18980   5.026   1.800   3.040 -0.3684 -0.2982  0.2811
38696SOL    HW118981   5.056   1.726   2.987  1.1606  0.5480 -0.0989
38696SOL    HW218982   4.957   1.840   2.987  1.3978  0.7648 -1.3705
38697SOL     OW18983   2.855   1.481   2.109  0.3804 -0.2261 -1.1392
38697SOL    HW118984   2.829   1.470   2.018 -0.0957 -0.6696 -0.9546
38697SOL    HW218985   2.866   1.575   2.120  1.8784 -0.2578 -2.0352
38698SOL     OW18986   7.554   0.357   8.285 -0.1543 -0.2817 -0.5048
38698SOL    HW118987   7.539   0.266   8.257  0.8585 -0.6498  0.0851
38698SOL    HW218988   7.542   0.355   8.380 -1.7711  0.5731 -0.6523
38699SOL     OW18989  10.344   7.733   4.690  0.2011  0.2704 -0.2999
38699SOL    HW118990  10.352   7.661   4.754 -1.5858  1.1581  1.0227
38699SOL    HW218991  10.407   7.798   4.720  0.7255 -0.1047 -0.5807
38700SOL     OW18992   2.001   6.360   0.074 -0.0493 -0.1103 -0.1176
38700SOL    HW118993   2.033   6.278   0.111 -0.1239  0.1309  0.4939
38700SOL    HW218994   2.072   6.392   0.019 -0.3758 -1.0538 -1.1067
38701SOL     OW18995   0.888   6.982   0.753 -0.1429 -0.0702  0.5494
38701SOL    HW118996   0.887   7.078   0.756  0.7505 -0.0024 -0.4156
38701SOL    HW218997   0.939   6.962   0.674 -0.7758 -1.3401  0.4411
38702SOL     OW18998   7.269   4.937   1.286  0.3313  0.2852 -0.4686
38702SOL    HW118999   7.231   4.969   1.368 -0.0246 -0.2661 -0.4102
38702SOL    HW219000   7.292   5.016   1.237  0.8158  0.6187  0.2852
38703SOL     OW19001   8.610   4.114   6.591  0.1334  0.1465  0.4677
38703SOL    HW119002   8.567   4.199   6.577 -1.2181 -0.8536 -2.0593
38703SOL    HW219003   8.554   4.069   6.655 -0.7619  0.1092 -0.3233
38704SOL     OW19004   6.408   0.633   0.443  0.0169  0.0644  0.1894
38704SOL    HW119005   6.365   0.715   0.466 -0.5625 -0.6495  1.8496
38704SOL    HW219006   6.360   0.601   0.366 -0.9024  0.4304  0.5942
38705SOL     OW19007   7.072   3.866   2.696  0.4766  0.0363 -0.4111
38705SOL    HW119008   7.158   3.894   2.664 -0.3514  0.1031 -2.7756
38705SOL    HW219009   7.030   3.948   2.723  0.9048  0.0771  0.1593
38706SOL     OW19010   3.988   2.551   1.573  0.6329  0.1432  0.2129
38706SOL    HW119011   3.981   2.457   1.554  2.5874  0.2432 -1.3330
38706SOL    HW219012   4.078   2.573   1.552 -0.1801  2.7189 -0.9663
38707SOL     OW19013   9.179   7.957   7.086  0.5707 -0.4076  0.1456
38707SOL    HW119014   9.112   7.921   7.144  0.4114  0.5908  0.6083
38707SOL    HW219015   9.165   7.912   7.003 -0.1519 -0.7982  0.4629
38708SOL     OW19016   4.817   2.019   9.982 -0.2184 -0.2440  0.1740
38708SOL    HW119017   4.729   2.027   9.945 -0.3376  0.3743  0.5742
38708SOL    HW219018   4.804   2.028  10.077  0.3794  0.8146  0.1698
38709SOL     OW19019   2.174   2.919   4.839  0.1804 -0.7066 -0.0544
38709SOL    HW119020   2.194   2.866   4.762 -1.8098 -1.1456 -0.3204
38709SOL    HW219021   2.211   2.871   4.913  0.2765 -1.3543 -0.5238
38710SOL     OW19022  10.217   0.508   5.442  0.3263  0.1226  0.5080
38710SOL    HW119023  10.245   0.427   5.485 -0.1597  0.0623  0.7208
38710SOL    HW219024  10.297   0.544   5.404  0.4991 -0.6030  0.1642
38711SOL     OW19025   4.249   0.934   9.029 -0.1581 -0.6500  0.5732
38711SOL    HW119026   4.156   0.935   9.006 -0.0904 -0.3921  0.2998
38711SOL    HW219027   4.250   0.914   9.122 -0.6098  1.5258  1.1082
38712SOL     OW19028   4.621   3.060   2.785 -0.3274 -0.2751  0.1253
38712SOL    HW119029   4.638   2.985   2.727 -0.9492  0.3968 -0.9519
38712SOL    HW219030   4.705   3.107   2.789 -0.5858  0.3451 -1.2370
38713SOL     OW19031   2.488   1.079  10.654 -0.0740  0.4674  0.3722
38713SOL    HW119032   2.423   1.056  10.586 -0.4864 -0.6847  1.1182
38713SOL    HW219033   2.487   1.174  10.657 -2.1649  0.4822  0.7332
38714SOL     OW19034  10.647   1.283   0.060  0.1198  0.3765 -0.6330
38714SOL    HW119035  10.560   1.324   0.053  0.2477  0.4625 -1.8834
38714SOL    HW219036  10.704   1.354   0.089  0.1580  0.8561 -1.8446
38715SOL     OW19037   4.350   3.048   1.115  0.2953  0.8213  0.6703
38715SOL    HW119038   4.299   3.096   1.050 -0.6608 -0.1168  0.6932
38715SOL    HW219039   4.305   2.964   1.124  2.1542 -0.2977  0.2879
38716SOL     OW19040   9.589   4.177   8.582  0.2876 -0.5578 -0.0173
38716SOL    HW119041   9.678   4.148   8.563  0.0319  0.0335 -2.5692
38716SOL    HW219042   9.557   4.212   8.498 -2.2296 -0.4460  0.8994
38717SOL     OW19043   4.862   2.420  10.186  0.2045 -0.2662 -0.1227
38717SOL    HW119044   4.809   2.385  10.114  1.1599 -0.2064 -0.8723
38717SOL    HW219045   4.813   2.497  10.216  0.0319  0.0036 -1.0425
38718SOL     OW19046   3.294   7.878   4.680  0.2811  0.2360  0.2432
38718SOL    HW119047   3.268   7.825   4.604 -2.0433  0.3184  0.9102
38718SOL    HW219048   3.325   7.814   4.745 -0.2283 -0.0772  0.1769
38719SOL     OW19049   6.645   6.477   0.909 -0.0282 -0.4008 -0.7077
38719SOL    HW119050   6.704   6.552   0.901  0.4798 -0.7578 -0.3631
38719SOL    HW219051   6.685   6.409   0.855  0.5543 -1.0525  0.5149
38720SOL     OW19052   6.249   0.509   0.706  0.5612  0.4044  0.0091
38720SOL    HW119053   6.314   0.579   0.717 -0.1732  0.8578  1.7564
38720SOL    HW219054   6.260   0.481   0.615  2.6647  0.9938  0.0216
38721SOL     OW19055   0.855   3.089   6.754 -0.0434  0.0383 -0.7178
38721SOL    HW119056   0.814   3.167   6.791  1.4568  0.0774  1.0031
38721SOL    HW219057   0.841   3.097   6.660 -2.0047  1.1345 -0.3920
38722SOL     OW19058   7.329   0.594  10.261  0.1916 -0.1260 -0.4462
38722SOL    HW119059   7.382   0.642  10.197  0.0673 -0.9030 -1.1471
38722SOL    HW219060   7.279   0.531  10.209 -0.5753 -0.1843  0.3263
38723SOL     OW19061   0.996   5.679   4.603  0.4801  0.1119  0.2880
38723SOL    HW119062   0.921   5.674   4.661  2.3099  0.2719  2.8078
38723SOL    HW219063   1.054   5.608   4.632  2.2487  1.3157 -0.1536
38724SOL     OW19064   2.444   3.031   0.893 -0.1545  0.1411  0.2595
38724SOL    HW119065   2.449   2.938   0.917 -2.0417 -0.1119 -0.1775
38724SOL    HW219066   2.358   3.059   0.926 -0.1551  1.3830 -0.7621
38725SOL     OW19067   5.409  10.163   3.279 -0.3661 -0.1455  0.2670
38725SOL    HW119068   5.442  10.175   3.368 -0.9827  0.2896  0.4415
38725SOL    HW219069   5.458  10.088   3.246 -0.1488 -0.3302  0.9810
38726SOL     OW19070   6.193   9.932   2.662  0.0609 -0.2199  0.3151
38726SOL    HW119071   6.262   9.985   2.703 -1.3596  1.1365  1.0509
38726SOL    HW219072   6.181   9.972   2.576 -0.9570  0.6379  0.8401
38727SOL     OW19073   3.528   4.936   5.005  0.0969 -0.1744  0.0362
38727SOL    HW119074   3.438   4.931   5.037  0.7156 -2.1415  1.6803
38727SOL    HW219075   3.530   4.878   4.929  0.3854 -1.7795  1.2156
38728SOL     OW19076   3.042   1.314   1.164  0.5048 -0.3377 -0.3662
38728SOL    HW119077   3.073   1.227   1.139  1.8066  0.3691 -1.3909
38728SOL    HW219078   2.968   1.331   1.106  0.0485 -0.8716  0.0490
38729SOL     OW19079   0.575   1.553   1.837  0.9519  0.0191 -0.5279
38729SOL    HW119080   0.553   1.493   1.907  1.6389 -0.5746 -0.8096
38729SOL    HW219081   0.534   1.636   1.862  1.0581 -0.2282  0.4938
38730SOL     OW19082   5.322   5.849   9.089 -0.0737  0.0124  0.2545
38730SOL    HW119083   5.262   5.851   9.163  0.1436  0.3054  0.4276
38730SOL    HW219084   5.402   5.809   9.124  0.1156  0.3783  0.2520
38731SOL     OW19085   8.695   4.386   6.461  0.2833 -0.1586  0.1424
38731SOL    HW119086   8.757   4.368   6.531  0.7337  1.4721  0.2079
38731SOL    HW219087   8.731   4.339   6.385  0.5515 -0.7785  0.6432
38732SOL     OW19088   4.157   4.707   5.283  0.3643 -0.1315  0.4642
38732SOL    HW119089   4.153   4.715   5.378  1.0125 -0.9774  0.5794
38732SOL    HW219090   4.221   4.637   5.267  0.0124 -0.2425 -0.5806
38733SOL     OW19091   0.568   9.160   8.255 -0.1578  0.4483 -0.7091
38733SOL    HW119092   0.498   9.107   8.293  0.0157 -0.0459 -1.0708
38733SOL    HW219093   0.648   9.128   8.298 -0.0484  0.3830 -0.9588
38734SOL     OW19094   4.493   8.085   7.503  0.2089  0.0624 -0.1284
38734SOL    HW119095   4.413   8.128   7.533 -0.6077 -0.1583 -1.8794
38734SOL    HW219096   4.527   8.042   7.581  0.1941  2.4774  1.3345
38735SOL     OW19097   4.474   8.737   1.014  0.2592  0.5673  0.5389
38735SOL    HW119098   4.548   8.794   0.994 -0.2169  0.4721 -1.7161
38735SOL    HW219099   4.417   8.742   0.937 -0.7471 -1.4698  1.0712
38736SOL     OW19100   2.665   2.219   5.995 -0.4382 -0.4326 -0.3070
38736SOL    HW119101   2.703   2.144   5.949 -1.7992 -1.0788 -0.4363
38736SOL    HW219102   2.737   2.255   6.046  0.7356 -0.5809 -1.8169
38737SOL     OW19103   4.613   6.926   6.579 -0.1243 -0.0511 -0.1601
38737SOL    HW119104   4.600   6.960   6.490  0.1772  0.1757 -0.1155
38737SOL    HW219105   4.598   6.831   6.570 -2.2944  0.2239 -0.0218
38738SOL     OW19106   3.832   8.750   3.186 -0.4989  0.3594 -0.1172
38738SOL    HW119107   3.908   8.789   3.144 -1.1030 -0.8869 -2.5759
38738SOL    HW219108   3.763   8.816   3.177  0.0043  1.1141  1.2827
38739SOL     OW19109   7.674   3.972   6.209  0.1492 -0.1114 -0.4518
38739SOL    HW119110   7.695   3.885   6.174 -1.3492 -0.2932 -1.0149
38739SOL    HW219111   7.598   3.957   6.266  0.7162  0.6404  0.5267
38740SOL     OW19112   5.746   7.303   6.217 -0.2084  0.4088  0.2814
38740SOL    HW119113   5.770   7.346   6.135 -1.5586  0.6674 -0.0015
38740SOL    HW219114   5.712   7.374   6.273  0.4441  0.1923  0.9758
38741SOL     OW19115   2.663   2.084   1.626  0.3118 -0.1636  0.7999
38741SOL    HW119116   2.718   2.162   1.636  0.6491 -0.0599 -1.3880
38741SOL    HW219117   2.632   2.088   1.536 -0.9376 -1.7647  1.1158
38742SOL     OW19118   6.960  10.119   6.617  0.4154  0.3937 -0.2476
38742SOL    HW119119   6.954  10.054   6.687  2.1767 -0.2622 -0.6489
38742SOL    HW219120   7.005  10.193   6.656  1.5350 -0.0316 -0.6884
38743SOL     OW19121   2.322   6.275   8.169  0.1233  0.4424 -0.3018
38743SOL    HW119122   2.344   6.331   8.095  0.1270 -0.8554 -1.3202
38743SOL    HW219123   2.373   6.195   8.155  0.3256  0.2635  1.2497
38744SOL     OW19124  10.009   5.900  10.224 -0.1612  0.0401 -0.7791
38744SOL    HW119125  10.028   5.859  10.139  1.1550 -1.0087 -0.0080
38744SOL    HW219126  10.012   5.828  10.287 -0.2377  0.9506  0.2917
38745SOL     OW19127   6.275   2.353   3.574 -0.2022  0.5912  0.0697
38745SOL    HW119128   6.329   2.432   3.567  1.1666 -0.3868 -1.2556
38745SOL    HW219129   6.338   2.283   3.593 -1.2692 -0.3058  0.3779
38746SOL     OW19130   5.618   5.529   4.659  0.1723  0.2061 -0.3120
38746SOL    HW119131   5.674   5.590   4.612  0.1245  0.3595 -0.1716
38746SOL    HW219132   5.581   5.473   4.591  1.6876 -0.9069 -0.2736
38747SOL     OW19133   9.365   1.182   3.917 -0.1832 -0.0945  0.5035
38747SOL    HW119134   9.426   1.244   3.956  0.3478 -0.1486 -0.2142
38747SOL    HW219135   9.280   1.227   3.919 -0.0484  0.1328  1.1605
38748SOL     OW19136   4.041   9.331   3.455 -0.0003 -0.3292 -0.1755
38748SOL    HW119137   3.971   9.318   3.392 -0.1239  2.9165 -0.8946
38748SOL    HW219138   4.003   9.305   3.539 -0.2195 -3.5783 -1.1569
38749SOL     OW19139   2.874   9.259   2.077  0.5020 -0.2565  0.0361
38749SOL    HW119140   2.788   9.297   2.063  0.2361 -0.5876  0.7212
38749SOL    HW219141   2.922   9.277   1.996 -0.2720 -0.2373 -0.4271
38750SOL     OW19142   1.756  10.132   1.516  0.1219 -0.2024 -0.0757
38750SOL    HW119143   1.843  10.165   1.536  0.1547 -0.5204  0.3073
38750SOL    HW219144   1.742  10.060   1.578 -0.4949 -0.0190  0.0059
38751SOL     OW19145   7.273   8.704   7.329 -0.2781 -0.6121  0.2359
38751SOL    HW119146   7.265   8.610   7.311  1.2756 -1.3862  2.9380
38751SOL    HW219147   7.352   8.731   7.283 -0.1985 -0.8606  0.2265
38752SOL     OW19148   1.576   0.845   0.475 -0.1829  0.0125  0.3937
38752SOL    HW119149   1.593   0.918   0.534  1.8922  0.1121 -0.2362
38752SOL    HW219150   1.617   0.770   0.517 -1.6275 -0.6488  0.6627
38753SOL     OW19151   3.430   8.278   5.988 -0.2618  0.3143 -0.3814
38753SOL    HW119152   3.524   8.289   5.972  0.0340 -0.3355  0.7695
38753SOL    HW219153   3.387   8.322   5.914  0.9307  1.5285 -0.3963
38754SOL     OW19154   8.740   8.492   5.439 -0.6170  0.8873  0.0171
38754SOL    HW119155   8.801   8.524   5.505  0.6951  0.7234 -1.0717
38754SOL    HW219156   8.796   8.455   5.371 -1.9748 -0.2342 -0.5374
38755SOL     OW19157   1.305   5.051   8.616 -0.0190  0.0814 -0.1427
38755SOL    HW119158   1.375   4.990   8.592 -1.5210 -1.6719 -0.2602
38755SOL    HW219159   1.259   5.069   8.533  0.4283  1.4526 -0.1189
38756SOL     OW19160   2.934   1.909   6.177 -0.3107  0.0032 -0.3840
38756SOL    HW119161   2.894   1.892   6.262  0.4785  1.1714  0.2643
38756SOL    HW219162   2.968   1.824   6.149  0.4970 -0.2027  1.0701
38757SOL     OW19163   8.123   3.272  10.289 -0.6452 -0.3594  0.1840
38757SOL    HW119164   8.178   3.348  10.306 -0.6753  0.3263 -2.4163
38757SOL    HW219165   8.177   3.214  10.236 -2.0398 -0.0633 -1.6701
38758SOL     OW19166   3.592   5.079   5.255 -0.2089  0.5380 -0.6483
38758SOL    HW119167   3.587   5.092   5.350 -0.9666 -0.2344 -0.5735
38758SOL    HW219168   3.512   5.031   5.233  1.8432 -3.0276 -1.0444
38759SOL     OW19169   6.799   0.077   5.128 -0.1142 -0.1495  0.1560
38759SOL    HW119170   6.744   0.050   5.202 -0.7575 -1.4555 -0.7433
38759SOL    HW219171   6.854   0.146   5.163 -0.4759 -0.6519  1.8262
38760SOL     OW19172   3.603   9.490   3.197 -0.2905  0.3458  0.0433
38760SOL    HW119173   3.540   9.520   3.131 -2.2224 -2.4906  0.3914
38760SOL    HW219174   3.548   9.454   3.267  1.7084 -1.1727  0.9232
38761SOL     OW19175   4.302   7.506   0.908 -0.6200  0.0721 -0.4597
38761SOL    HW119176   4.222   7.499   0.856 -0.1493 -1.3468 -1.0535
38761SOL    HW219177   4.275   7.549   0.989 -1.4189  2.2393 -1.7640
38762SOL     OW19178   1.834   9.069   0.669 -0.3865 -0.4291 -0.2896
38762SOL    HW119179   1.769   9.016   0.623 -0.0643  0.4021 -1.7626
38762SOL    HW219180   1.890   9.005   0.713 -1.9388 -1.1728  0.7088
38763SOL     OW19181   9.618   7.398   0.111  0.0670 -0.1134 -0.0997
38763SOL    HW119182   9.604   7.303   0.113 -0.4612 -0.0226  1.6204
38763SOL    HW219183   9.653   7.419   0.198 -0.9107  1.4203 -0.0479
38764SOL     OW19184   0.413   4.645   5.403  0.1933 -0.7055 -0.4932
38764SOL    HW119185   0.410   4.741   5.401 -0.4965 -0.7267 -0.9513
38764SOL    HW219186   0.395   4.619   5.312 -0.7595 -1.2797 -0.1535
38765SOL     OW19187   2.069   6.434   0.649 -0.5085 -0.4800 -0.7573
38765SOL    HW119188   2.133   6.496   0.614 -0.5252  1.3817  2.1178
38765SOL    HW219189   2.114   6.349   0.648  1.3799  0.4706 -0.3999
38766SOL     OW19190   6.238   7.149   0.878  0.0288  0.0344  0.1379
38766SOL    HW119191   6.239   7.207   0.803  2.9515 -1.9778 -1.6082
38766SOL    HW219192   6.313   7.176   0.931 -0.1560 -0.5030  0.6963
38767SOL     OW19193   9.063   2.622   2.518  0.2807 -0.3523  0.7723
38767SOL    HW119194   8.988   2.577   2.479 -0.6010  0.0547  1.9456
38767SOL    HW219195   9.026   2.675   2.588  1.6959 -0.2932  1.5203
38768SOL     OW19196   4.855   6.547  10.743  0.6234  0.0768 -0.4078
38768SOL    HW119197   4.932   6.490  10.749  1.0044  0.3713 -1.9732
38768SOL    HW219198   4.790   6.506  10.800  0.9273 -1.8810 -1.3770
38769SOL     OW19199   1.645   3.110   6.751  0.0100  0.2615 -0.3747
38769SOL    HW119200   1.684   3.023   6.742 -0.5408  0.0825 -1.1125
38769SOL    HW219201   1.557   3.094   6.785 -0.8092  0.3536 -2.3153
38770SOL     OW19202   8.890   3.226   8.328 -0.7316 -0.2422  0.0997
38770SOL    HW119203   8.834   3.205   8.253 -2.3128  0.8456  0.9264
38770SOL    HW219204   8.965   3.167   8.318 -1.2136 -0.6028 -1.9475
38771SOL     OW19205   3.102   7.367  10.046 -0.0370  0.3963 -0.0079
38771SOL    HW119206   3.193   7.362  10.018  0.0852 -0.6854  0.5193
38771SOL    HW219207   3.059   7.294  10.002  0.4671 -2.2862  3.5187
38772SOL     OW19208   3.666   2.979   2.382  0.0837 -0.2297 -0.3029
38772SOL    HW119209   3.735   2.953   2.322  0.3759  0.4225 -0.2573
38772SOL    HW219210   3.712   3.002   2.463 -0.3390 -1.5511  0.3459
38773SOL     OW19211   7.443   5.994   2.514 -1.0052  0.0940  0.1176
38773SOL    HW119212   7.516   5.952   2.560 -0.8958  0.2188  0.0605
38773SOL    HW219213   7.366   5.975   2.567 -0.8203  0.5759  0.5666
38774SOL     OW19214   7.142   2.051   1.547  0.0521 -0.0310  0.2036
38774SOL    HW119215   7.067   2.020   1.496  1.4927 -3.0735 -0.3448
38774SOL    HW219216   7.150   1.988   1.619  2.6877 -0.5729 -0.4406
38775SOL     OW19217   5.846   2.316  10.343  0.4142 -0.0866  0.5906
38775SOL    HW119218   5.794   2.361  10.409  0.4745 -0.2633  0.7589
38775SOL    HW219219   5.863   2.383  10.277  1.3883  0.4260  1.3397
38776SOL     OW19220   0.777   9.974  10.040  0.0710 -0.0857  0.0556
38776SOL    HW119221   0.743  10.007   9.957  1.9953  2.7664  0.2344
38776SOL    HW219222   0.821   9.892  10.017 -1.1720 -0.4001 -1.3438
38777SOL     OW19223   3.319   8.501   7.447  0.4399 -0.3174  0.6671
38777SOL    HW119224   3.279   8.561   7.384  0.5604 -0.7322  0.1869
38777SOL    HW219225   3.250   8.438   7.467  1.1642 -1.7761 -1.1102
38778SOL     OW19226   4.403   2.902   7.619  0.2045 -0.3218  0.3489
38778SOL    HW119227   4.490   2.866   7.605  1.1648  1.6316  0.9059
38778SOL    HW219228   4.370   2.856   7.696  1.0656 -0.5335  0.5966
38779SOL     OW19229   0.274   6.639  10.225 -0.3820 -0.2754  0.2976
38779SOL    HW119230   0.255   6.716  10.172  0.9662 -0.7694 -0.9831
38779SOL    HW219231   0.292   6.570  10.161  1.9671 -0.7357  1.3348
38780SOL     OW19232   9.578   0.369   0.161  0.0983  0.1999  0.1561
38780SOL    HW119233   9.593   0.275   0.153  0.2716  0.3925 -2.7227
38780SOL    HW219234   9.646   0.399   0.221  0.6851 -1.3514  0.3142
38781SOL     OW19235   7.221   9.422   6.137  0.2270 -1.1723  0.0399
38781SOL    HW119236   7.300   9.459   6.177 -0.5031 -0.1761  0.6014
38781SOL    HW219237   7.235   9.328   6.139  1.5082 -0.9979 -0.0903
38782SOL     OW19238   5.291   4.420   5.158 -0.3576  0.3037 -0.2204
38782SOL    HW119239   5.311   4.493   5.099  2.3494 -0.8190 -0.8381
38782SOL    HW219240   5.362   4.421   5.222 -0.9468 -1.0472  0.4935
38783SOL     OW19241   6.072   2.427   9.792  0.5090 -0.4025 -0.2646
38783SOL    HW119242   6.153   2.388   9.758  1.2578  0.7282  0.2077
38783SOL    HW219243   6.011   2.421   9.718  1.1099 -0.9649 -0.7309
38784SOL     OW19244   3.552   7.845   1.392 -0.2860 -0.4383  0.2746
38784SOL    HW119245   3.550   7.776   1.326 -0.5052 -0.9595  0.8204
38784SOL    HW219246   3.464   7.883   1.390 -0.4806 -0.8582  0.6840
38785SOL     OW19247   9.451   9.089   2.117 -0.0588  0.3254 -0.4229
38785SOL    HW119248   9.361   9.064   2.095 -0.5383 -0.6801  2.2272
38785SOL    HW219249   9.451   9.184   2.116 -1.8962  0.4230  1.8246
38786SOL     OW19250   4.865   1.244   6.351  0.5118  0.2532 -0.0445
38786SOL    HW119251   4.904   1.208   6.430  0.5692 -1.4319 -0.8057
38786SOL    HW219252   4.846   1.168   6.296 -2.6046  1.0717 -0.2915
38787SOL     OW19253   0.620   3.152   1.970 -0.2309  0.0328 -0.4031
38787SOL    HW119254   0.663   3.175   2.053 -1.0273  1.8761 -0.4429
38787SOL    HW219255   0.691   3.128   1.911  0.3968 -0.7250  0.6402
38788SOL     OW19256   4.442   1.428   5.070 -0.1263  0.1510 -0.1216
38788SOL    HW119257   4.457   1.493   5.138 -1.0681 -0.1140  0.3531
38788SOL    HW219258   4.529   1.409   5.036  0.7027 -1.3350  2.5128
38789SOL     OW19259   7.249   5.293   2.849  0.7320  0.0913  0.0719
38789SOL    HW119260   7.168   5.342   2.836  0.7256 -0.0588 -0.5035
38789SOL    HW219261   7.318   5.353   2.818  0.6798 -0.4413 -1.1068
38790SOL     OW19262   8.832   6.611   7.887 -0.2063  0.4797 -0.3034
38790SOL    HW119263   8.836   6.681   7.821 -3.6264  1.9208  0.7700
38790SOL    HW219264   8.741   6.612   7.917 -0.0308 -3.4486  0.9405
38791SOL     OW19265   6.067   0.605   6.817 -0.0745 -0.1651  0.2215
38791SOL    HW119266   6.093   0.638   6.731 -0.6621 -0.6442 -0.1464
38791SOL    HW219267   6.041   0.683   6.866 -0.4606  0.0329 -0.2908
38792SOL     OW19268   9.192   5.416   4.432  0.3949  0.4273  0.5110
38792SOL    HW119269   9.120   5.459   4.478 -0.3640  0.8224 -0.9691
38792SOL    HW219270   9.265   5.418   4.494 -0.5139  1.1019  1.6033
38793SOL     OW19271   5.053   0.205   4.411  0.4412  0.2763  0.1844
38793SOL    HW119272   5.025   0.263   4.339 -1.1115 -0.6847 -0.0185
38793SOL    HW219273   5.145   0.186   4.391  0.1352  0.2864 -1.3967
38794SOL     OW19274   2.741   5.008   8.644 -0.4682 -0.0096  0.1179
38794SOL    HW119275   2.666   4.960   8.680 -2.7876  1.8046 -1.9585
38794SOL    HW219276   2.804   4.940   8.621 -2.6860 -1.9118 -0.7000
38795SOL     OW19277   2.513   2.465   4.862  0.6694  0.4619  0.4263
38795SOL    HW119278   2.520   2.370   4.873  1.1243  0.3765 -0.4932
38795SOL    HW219279   2.571   2.501   4.930  1.1026  0.0543  0.2821
38796SOL     OW19280   0.426   7.979   6.941 -0.8363  0.7271  0.0005
38796SOL    HW119281   0.405   7.900   6.890  0.7607  0.9369 -1.0567
38796SOL    HW219282   0.354   8.039   6.923  0.1340  1.1814 -2.9354
38797SOL     OW19283   6.368   4.049   1.083 -0.5965 -0.6603 -0.0316
38797SOL    HW119284   6.426   3.981   1.117 -1.3248 -0.8404  0.9185
38797SOL    HW219285   6.341   4.017   0.997  0.5608 -0.6523 -0.4055
38798SOL     OW19286   8.033   1.795   7.259 -0.7599  0.4836 -0.2667
38798SOL    HW119287   8.108   1.736   7.256 -1.0929  0.0089  0.4163
38798SOL    HW219288   7.958   1.737   7.273 -1.0842  1.0706  0.5080
38799SOL     OW19289   2.329   2.125   0.454  0.1199  0.6015 -0.3826
38799SOL    HW119290   2.234   2.129   0.442 -0.1950 -0.4043  1.3598
38799SOL    HW219291   2.359   2.212   0.431 -1.3157  1.1278 -0.3969
38800SOL     OW19292   2.996   0.160   1.967 -0.2210  0.2401 -0.4331
38800SOL    HW119293   3.009   0.066   1.965 -1.8963 -0.0352  0.4923
38800SOL    HW219294   2.998   0.184   2.060 -4.5228  0.3168 -0.1756
38801SOL     OW19295  10.646   6.247  10.040 -0.4857 -0.4037 -0.4733
38801SOL    HW119296  10.556   6.238  10.071 -0.7017 -0.7059 -1.1587
38801SOL    HW219297  10.660   6.341  10.030 -0.6858 -0.3512 -0.2586
38802SOL     OW19298   1.227   5.205   7.128  0.3384 -0.1071 -0.1467
38802SOL    HW119299   1.178   5.123   7.121 -1.4836  0.9260 -0.1423
38802SOL    HW219300   1.214   5.248   7.043 -2.6780  2.1951  1.2684
38803SOL     OW19301   6.850   0.814   4.982  0.4302 -0.1290  0.1785
38803SOL    HW119302   6.805   0.875   5.041  0.2200  0.9750 -1.0680
38803SOL    HW219303   6.825   0.727   5.014 -1.6480  0.4407  0.2445
38804SOL     OW19304   2.352   4.612   3.731 -0.0646  0.1479  0.1835
38804SOL    HW119305   2.386   4.549   3.668  0.3304  0.0189  0.5269
38804SOL    HW219306   2.262   4.583   3.747 -0.5767  0.8689 -1.2172
38805SOL     OW19307   9.187   2.341   0.596 -0.1026 -0.1497  0.1044
38805SOL    HW119308   9.245   2.315   0.667 -1.0661 -0.6124  0.7480
38805SOL    HW219309   9.099   2.322   0.629 -0.5185 -2.2193 -1.8878
38806SOL     OW19310   8.908   9.911   9.126  0.0432 -0.1718 -0.6205
38806SOL    HW119311   8.942   9.960   9.201  0.5754 -1.0993 -0.2369
38806SOL    HW219312   8.964   9.936   9.053  0.9567 -0.9534 -0.2046
38807SOL     OW19313   0.477   7.407   6.191 -0.3761  0.0564  0.3525
38807SOL    HW119314   0.429   7.402   6.274  1.3187  1.7071  1.5106
38807SOL    HW219315   0.427   7.468   6.137 -0.3824  0.6121  0.9759
38808SOL     OW19316   5.783   7.078   0.580  0.0646 -0.4291 -0.4496
38808SOL    HW119317   5.763   6.990   0.548  1.2337 -0.4667 -1.1391
38808SOL    HW219318   5.876   7.074   0.602 -0.2593  0.1541  1.1882
38809SOL     OW19319   3.919   2.542   2.378  0.5628 -0.3039 -0.1447
38809SOL    HW119320   3.882   2.461   2.414 -1.3662 -0.4638 -2.2611
38809SOL    HW219321   3.990   2.513   2.321 -0.9185 -0.6849 -1.8711
38810SOL     OW19322   0.578   8.589   3.487 -0.0904  0.2770  0.0532
38810SOL    HW119323   0.645   8.644   3.445  0.2154  1.2100  1.6895
38810SOL    HW219324   0.495   8.619   3.449  0.2036  0.8334 -0.1590
38811SOL     OW19325   7.805   4.941   3.029 -0.1267 -0.1927  0.0150
38811SOL    HW119326   7.853   5.011   2.984  0.0745 -0.5212 -0.2887
38811SOL    HW219327   7.734   4.918   2.969 -0.1395 -0.3114  0.0747
38812SOL     OW19328   8.675   2.206   4.541 -0.5789 -0.0982 -0.1300
38812SOL    HW119329   8.597   2.235   4.494 -0.1491  0.8651 -0.2911
38812SOL    HW219330   8.748   2.243   4.490 -0.1113  1.7160  1.7107
38813SOL     OW19331   9.181   1.364   3.205 -0.1537 -0.6072  0.7439
38813SOL    HW119332   9.133   1.281   3.205  0.3091 -0.9110 -0.8482
38813SOL    HW219333   9.113   1.431   3.208 -0.5633 -1.0325  1.1459
38814SOL     OW19334   0.939  10.233   9.974  0.6284  0.1822  0.5595
38814SOL    HW119335   0.971  10.143   9.980  1.3389  0.4053  0.1525
38814SOL    HW219336   0.881  10.233   9.898  1.2061  0.2463  0.1220
38815SOL     OW19337   0.090   5.064   2.252 -0.5983  1.3002  0.0351
38815SOL    HW119338   0.054   4.979   2.224  0.1011  0.5518  1.2953
38815SOL    HW219339   0.019   5.126   2.237 -1.0921  0.5126 -1.0121
38816SOL     OW19340   5.590   0.519   8.864 -0.1223 -0.0712  0.2682
38816SOL    HW119341   5.678   0.511   8.828 -0.6913 -2.0018 -0.8450
38816SOL    HW219342   5.599   0.582   8.935  1.6986  1.4146 -1.1925
38817SOL     OW19343   0.333   7.438   3.653  0.4650 -0.1206  0.1086
38817SOL    HW119344   0.409   7.405   3.606  1.0065  1.2691 -0.0402
38817SOL    HW219345   0.280   7.482   3.586  1.7128  2.7191  0.8516
38818SOL     OW19346   3.127   4.523   7.614  0.0903  0.1058 -0.2965
38818SOL    HW119347   3.140   4.611   7.650 -0.6343  0.0435  0.1519
38818SOL    HW219348   3.064   4.482   7.674  2.0026 -1.4702  0.7412
38819SOL     OW19349  10.388   1.882   2.073  0.4806 -0.3950 -0.6355
38819SOL    HW119350  10.457   1.818   2.057  1.0499  0.1976 -0.6102
38819SOL    HW219351  10.425   1.965   2.042 -0.7438 -0.2877 -1.8850
38820SOL     OW19352   3.629   7.872  10.154 -0.3418 -0.0313  0.0479
38820SOL    HW119353   3.665   7.900  10.238 -2.3956 -0.3923  1.1137
38820SOL    HW219354   3.573   7.798  10.175  0.0845 -0.9715 -1.8501
38821SOL     OW19355   5.907   2.691   2.620  0.6981  0.4664  0.1271
38821SOL    HW119356   5.935   2.600   2.614  1.8250  0.7899  0.0996
38821SOL    HW219357   5.989   2.740   2.631  0.3552  1.6497 -1.9025
38822SOL     OW19358   1.590   4.734   0.689  0.0203 -0.3728 -0.2950
38822SOL    HW119359   1.619   4.825   0.679  0.9363 -0.4465  1.3161
38822SOL    HW219360   1.554   4.730   0.777 -0.7715 -1.3993 -0.6436
38823SOL     OW19361   7.291   8.435   9.814  0.1292  0.6204 -0.0049
38823SOL    HW119362   7.346   8.365   9.779  0.0286 -0.0493  1.1593
38823SOL    HW219363   7.339   8.515   9.793  0.2734  0.2186 -1.2991
38824SOL     OW19364   6.917   0.357   9.722 -0.6441  0.4994  0.5168
38824SOL    HW119365   6.829   0.342   9.755  0.2317 -3.2342  1.6056
38824SOL    HW219366   6.961   0.406   9.792 -1.4392  1.2448  0.5148
38825SOL     OW19367   4.357   9.689   0.392 -0.2093 -0.4127  0.0087
38825SOL    HW119368   4.413   9.733   0.456 -0.3438 -0.0660 -0.1078
38825SOL    HW219369   4.407   9.613   0.364  0.3902  0.1223 -0.4053
38826SOL     OW19370   3.222   2.234   9.881  0.0834 -0.1528 -0.3046
38826SOL    HW119371   3.239   2.247   9.974  0.2209 -0.4837 -0.2817
38826SOL    HW219372   3.310   2.229   9.842  0.0332 -1.0000 -0.3130
38827SOL     OW19373   8.697   8.503   8.690  0.1545  0.0631 -0.3967
38827SOL    HW119374   8.749   8.448   8.632 -0.6491  0.1420 -1.2105
38827SOL    HW219375   8.710   8.592   8.657  2.5688  0.6364  1.7470
38828SOL     OW19376   0.677  10.428  10.718  0.0072  0.1741  0.4457
38828SOL    HW119377   0.716  10.343  10.738 -0.3397 -0.3027 -0.7994
38828SOL    HW219378   0.738  10.469  10.657  0.0010  0.6675  0.7726
38829SOL     OW19379   2.753   4.147   3.664 -0.5149  0.1405  0.5884
38829SOL    HW119380   2.829   4.148   3.605 -0.0567 -1.1816  1.1039
38829SOL    HW219381   2.711   4.062   3.646 -1.6420  0.6779  0.6107
38830SOL     OW19382   6.636   6.678   6.385  0.4802 -0.3002  0.1811
38830SOL    HW119383   6.637   6.747   6.450  2.9300 -2.0245  2.1975
38830SOL    HW219384   6.728   6.666   6.361  0.2437 -3.0844  0.2851
38831SOL     OW19385   8.957   6.657   0.256  0.1121  0.1505  0.1105
38831SOL    HW119386   9.018   6.721   0.293  0.0676  0.3959 -0.2364
38831SOL    HW219387   8.983   6.574   0.295 -1.3872  0.7065  2.5362
38832SOL     OW19388   1.235   3.900   3.491  0.2632 -0.4671 -0.1116
38832SOL    HW119389   1.312   3.867   3.537  0.6495  0.2477 -0.2284
38832SOL    HW219390   1.175   3.826   3.488  0.8304 -0.9479  0.2361
38833SOL     OW19391   5.103   5.303   3.732 -0.1219  0.7094  0.2408
38833SOL    HW119392   5.071   5.275   3.818  0.2931  1.9467  0.8297
38833SOL    HW219393   5.155   5.382   3.751  1.2157  0.1641 -0.9710
38834SOL     OW19394   8.958   4.560   3.538  0.1401  0.1076  0.0161
38834SOL    HW119395   8.928   4.634   3.485  0.3348  0.9165  1.0009
38834SOL    HW219396   9.039   4.591   3.579  0.3502 -0.7388  0.2772
38835SOL     OW19397   4.527   9.859   1.329  0.2246 -0.2974  0.9535
38835SOL    HW119398   4.481   9.783   1.365 -1.6430  0.9599  1.3625
38835SOL    HW219399   4.457   9.917   1.298  1.6376  0.4293 -1.1468
38836SOL     OW19400   9.355   0.070   5.921  0.4450 -0.0063 -0.4999
38836SOL    HW119401   9.434   0.123   5.911 -0.7046  1.4974 -2.0504
38836SOL    HW219402   9.349   0.021   5.839 -1.9098  2.3615 -1.8893
38837SOL     OW19403   5.070   2.688   6.186  0.3001 -0.0237  0.3894
38837SOL    HW119404   5.114   2.615   6.142 -1.3000 -0.4814 -0.5354
38837SOL    HW219405   5.135   2.722   6.248  1.3983 -1.6273  0.1642
38838SOL     OW19406   2.718   6.105   4.834 -0.3179  0.2508  0.0608
38838SOL    HW119407   2.734   6.200   4.828  1.3962  0.1476  1.8023
38838SOL    HW219408   2.726   6.086   4.927 -2.6293 -1.3437  0.0030
38839SOL     OW19409   6.728   8.764   1.521 -0.5775 -0.2551  0.6716
38839SOL    HW119410   6.706   8.763   1.614 -2.1228 -0.8531  0.3339
38839SOL    HW219411   6.798   8.829   1.513 -0.6328  0.0214  2.1977
38840SOL     OW19412   6.144   9.685   5.246  0.0462 -0.1284  0.7609
38840SOL    HW119413   6.199   9.763   5.255 -1.1721  0.5753  2.5135
38840SOL    HW219414   6.063   9.717   5.207 -0.1678 -0.6796  0.7457
38841SOL     OW19415   2.928   0.783   0.361 -0.5011 -0.2879 -0.8305
38841SOL    HW119416   2.944   0.877   0.362  0.3927 -0.4342 -0.8396
38841SOL    HW219417   2.839   0.774   0.395 -0.0426  0.4630  0.6606
38842SOL     OW19418   0.999   6.845   7.429  0.0780 -0.2330  0.0710
38842SOL    HW119419   1.024   6.882   7.514  0.1125  2.2409 -0.9298
38842SOL    HW219420   1.078   6.854   7.375 -0.2343 -0.8564 -0.5007
38843SOL     OW19421   0.709   0.535   3.789  0.2039  0.1071  0.3712
38843SOL    HW119422   0.754   0.513   3.707 -0.5011 -0.5578  0.1575
38843SOL    HW219423   0.755   0.485   3.855  0.9424  0.8439  0.4373
38844SOL     OW19424   1.751   9.141   4.005 -0.9528 -0.3661 -0.0857
38844SOL    HW119425   1.796   9.084   4.067  1.2871  1.2804 -0.1198
38844SOL    HW219426   1.791   9.121   3.921  1.1681  2.3835  0.1501
38845SOL     OW19427   3.873   0.759   3.991  0.2376 -0.1767 -0.3565
38845SOL    HW119428   3.875   0.666   3.967 -1.6925  0.1483 -2.1358
38845SOL    HW219429   3.964   0.788   3.985  0.7883 -1.8110 -0.3919
38846SOL     OW19430   8.161   1.052   2.292  0.0517 -0.0978 -0.0337
38846SOL    HW119431   8.242   1.083   2.252 -0.3840  0.2896 -0.6233
38846SOL    HW219432   8.092   1.106   2.253 -0.2892  1.1014  2.0695
38847SOL     OW19433   1.471   8.581   4.169  0.0465  0.0794 -0.3738
38847SOL    HW119434   1.546   8.634   4.145  0.3979 -0.0307  0.4329
38847SOL    HW219435   1.395   8.637   4.152  0.4323  1.0555  0.9182
38848SOL     OW19436   3.346   8.742   6.237  0.3579  0.2592 -0.1655
38848SOL    HW119437   3.276   8.677   6.233  0.3891  0.2308 -3.6969
38848SOL    HW219438   3.307   8.818   6.280 -0.4394 -1.1753  1.7925
38849SOL     OW19439   8.931   1.017   4.397  0.3069 -0.5239 -0.0768
38849SOL    HW119440   8.933   1.091   4.459 -0.1886 -0.4118 -0.1876
38849SOL    HW219441   9.015   0.973   4.410  0.2594 -0.4382  0.6028
38850SOL     OW19442   7.398   9.776   0.713  0.1444 -0.4206 -0.2435
38850SOL    HW119443   7.334   9.781   0.642 -1.2530 -1.6483  0.8593
38850SOL    HW219444   7.448   9.857   0.706 -1.7090  0.7220 -0.9991
38851SOL     OW19445   9.428   1.934   2.582  0.3304  0.8559 -0.3071
38851SOL    HW119446   9.424   1.839   2.587 -1.3676  0.8491 -1.0329
38851SOL    HW219447   9.357   1.958   2.522  2.5812  2.3860 -2.5956
38852SOL     OW19448   2.868   2.767   3.099 -0.4220 -0.0077  0.5561
38852SOL    HW119449   2.843   2.705   3.031 -0.1339 -0.7365  1.1014
38852SOL    HW219450   2.953   2.802   3.070  0.8281 -1.9911  1.5859
38853SOL     OW19451   4.741   6.834   9.032 -0.1158  0.0986 -0.0222
38853SOL    HW119452   4.691   6.761   9.068  1.5180 -0.5806  0.9951
38853SOL    HW219453   4.733   6.903   9.097  0.2125 -0.0035  0.1323
38854SOL     OW19454   6.807   7.403   9.360  0.3488  0.3131 -0.0432
38854SOL    HW119455   6.775   7.333   9.303  2.3312 -0.5925 -0.1139
38854SOL    HW219456   6.897   7.418   9.332  1.3074  0.0502  2.6434
38855SOL     OW19457   2.629   2.695   7.777  0.0952 -0.0968 -0.3415
38855SOL    HW119458   2.719   2.684   7.808 -0.3301 -0.2543  0.8856
38855SOL    HW219459   2.576   2.654   7.845 -1.0232  1.6862 -0.0863
38856SOL     OW19460   5.127   5.196  10.784 -0.1583 -0.0092 -0.0650
38856SOL    HW119461   5.203   5.253  10.792  0.0747 -0.4403  0.9985
38856SOL    HW219462   5.054   5.255  10.765  0.1998  0.5745  0.3273
38857SOL     OW19463   2.405   4.588  10.172  0.1691  0.5019 -0.2306
38857SOL    HW119464   2.313   4.581  10.195  0.0206 -0.5847 -1.0389
38857SOL    HW219465   2.435   4.667  10.216 -1.1863  0.9702 -0.0915
38858SOL     OW19466   3.513   6.869   9.579  0.4370 -0.5909 -0.0463
38858SOL    HW119467   3.573   6.909   9.641  1.0823 -0.6237 -0.6287
38858SOL    HW219468   3.450   6.821   9.633 -0.3612  1.1840  0.6591
38859SOL     OW19469   5.179   5.726   9.478 -0.0480  0.1439 -0.1493
38859SOL    HW119470   5.158   5.714   9.570 -0.5827 -1.4347 -0.4518
38859SOL    HW219471   5.104   5.690   9.431  0.7542 -0.1819 -1.2129
38860SOL     OW19472   1.383   8.342   0.797 -0.4004 -0.4599  0.2428
38860SOL    HW119473   1.471   8.314   0.772 -0.1548  1.0049 -0.6537
38860SOL    HW219474   1.370   8.304   0.884  2.0858  1.1874  1.4727
38861SOL     OW19475   4.855   4.556   6.181  0.2446  0.4575  0.6069
38861SOL    HW119476   4.832   4.468   6.209  2.5186 -0.4621 -0.1748
38861SOL    HW219477   4.845   4.554   6.085  0.3275  1.0319  0.5808
38862SOL     OW19478   8.841   0.932   9.471  0.8004  0.2121 -0.0408
38862SOL    HW119479   8.821   1.020   9.439 -0.9855 -0.2698 -0.3265
38862SOL    HW219480   8.809   0.931   9.561  0.3187 -0.3093 -0.2132
38863SOL     OW19481   3.846   0.831   5.710  0.6750 -0.2468  0.2513
38863SOL    HW119482   3.843   0.814   5.804 -0.3937  0.8490  0.4574
38863SOL    HW219483   3.762   0.798   5.677 -0.7236  2.8156  0.4022
38864SOL     OW19484   6.359   2.867   3.046  0.0510 -0.5123 -0.7375
38864SOL    HW119485   6.438   2.815   3.059  0.4564 -0.2522 -2.0060
38864SOL    HW219486   6.367   2.901   2.957 -0.9660  0.4217 -0.4983
38865SOL     OW19487   9.681   2.789   1.941 -0.0578  0.7291 -0.1555
38865SOL    HW119488   9.622   2.849   1.985 -3.2394 -2.3437  0.1748
38865SOL    HW219489   9.768   2.814   1.972 -1.7206  0.6108  5.9290
38866SOL     OW19490   4.953   7.504   4.176  0.0927 -0.2276 -0.0770
38866SOL    HW119491   4.981   7.444   4.107  0.3042 -0.4833  0.2245
38866SOL    HW219492   4.967   7.591   4.140 -0.4483 -0.3570 -0.6175
38867SOL     OW19493   8.957   1.109   3.729 -0.3981  0.0272 -0.7683
38867SOL    HW119494   8.864   1.097   3.709 -0.3137 -0.3093 -0.9747
38867SOL    HW219495   9.002   1.092   3.646 -0.1889  0.7098 -0.8036
38868SOL     OW19496   6.624   8.362   1.191 -0.5030 -0.2801 -0.0465
38868SOL    HW119497   6.632   8.285   1.247  0.1692  0.3599  0.7712
38868SOL    HW219498   6.628   8.327   1.102  0.6870 -1.1268  0.3045
38869SOL     OW19499   5.381   1.682   1.719  0.0754  0.0732  0.1716
38869SOL    HW119500   5.301   1.690   1.667 -0.7907 -0.1311  1.4311
38869SOL    HW219501   5.379   1.757   1.779  1.2869  0.5614 -0.3561
38870SOL     OW19502   4.472  10.366   8.457  0.7835 -0.0357 -0.4584
38870SOL    HW119503   4.466  10.281   8.501 -0.9660  0.8925  1.2531
38870SOL    HW219504   4.486  10.429   8.528 -1.4964  1.4610 -1.2238
38871SOL     OW19505  10.413   3.613   1.136 -0.2594 -0.3858  0.4389
38871SOL    HW119506  10.349   3.571   1.080 -0.8405  1.4273 -0.3425
38871SOL    HW219507  10.492   3.559   1.129 -0.0301  0.1962 -2.8431
38872SOL     OW19508   4.580   8.563   6.763 -0.2976  0.1218 -0.2417
38872SOL    HW119509   4.569   8.588   6.855  0.5378  1.1761 -0.4115
38872SOL    HW219510   4.598   8.645   6.717  1.3338 -0.6119 -1.0199
38873SOL     OW19511   0.768   1.368   6.224  0.2235  0.3417 -0.4974
38873SOL    HW119512   0.672   1.370   6.217  0.2662  0.0470 -1.2278
38873SOL    HW219513   0.797   1.440   6.169  0.4279  0.4125 -0.2975
38874SOL     OW19514   7.884   6.617   6.641  0.4415 -0.0065 -0.2485
38874SOL    HW119515   7.840   6.543   6.599  1.0543  0.1163 -1.1326
38874SOL    HW219516   7.968   6.624   6.596  0.0073  1.8348 -0.8776
38875SOL     OW19517   5.570   6.919   9.116 -0.4556 -0.0427 -0.1938
38875SOL    HW119518   5.552   6.980   9.045  1.2256  0.0115 -0.6089
38875SOL    HW219519   5.634   6.963   9.171 -1.8202 -0.0329  1.4779
38876SOL     OW19520  10.663   4.904   9.174  0.3666 -0.1224 -0.0458
38876SOL    HW119521  10.660   4.912   9.078 -1.3570 -0.9817 -0.1087
38876SOL    HW219522  10.606   4.830   9.193  0.4651  0.2110  1.6801
38877SOL     OW19523   6.596   0.886   2.834 -0.2530 -0.0434 -0.2389
38877SOL    HW119524   6.662   0.829   2.874  0.3485  1.2448  0.6543
38877SOL    HW219525   6.585   0.852   2.745  1.6800 -0.2323 -0.4391
38878SOL     OW19526   7.525   1.700   5.640  0.5741  0.1069  0.0045
38878SOL    HW119527   7.561   1.786   5.663 -2.6680  1.5565  0.1810
38878SOL    HW219528   7.466   1.678   5.712 -0.5548 -1.0455 -1.2146
38879SOL     OW19529   8.861   6.924   9.159 -0.3770 -0.4076 -0.2314
38879SOL    HW119530   8.766   6.915   9.153 -0.3390  0.1209 -3.5378
38879SOL    HW219531   8.894   6.834   9.150 -0.5470 -0.4007 -0.9678
38880SOL     OW19532   3.748   5.596   2.413  0.0418  0.7045  0.0175
38880SOL    HW119533   3.730   5.502   2.422  1.6494  0.3093 -0.5049
38880SOL    HW219534   3.808   5.616   2.484 -0.9691  1.5670  0.6627
38881SOL     OW19535   8.806   4.801   1.140  0.4147  0.5447  0.2260
38881SOL    HW119536   8.794   4.811   1.046 -1.6183  1.1067  0.5006
38881SOL    HW219537   8.757   4.722   1.163  0.7650  0.4940  0.8373
38882SOL     OW19538   2.036   5.992   2.617 -0.1406  0.2058  0.7773
38882SOL    HW119539   2.096   5.924   2.586  0.4697  1.5045 -1.0506
38882SOL    HW219540   1.954   5.946   2.633  0.4282 -1.0706  0.1573
38883SOL     OW19541   0.481   1.795   7.003 -0.3116 -0.2962  0.0742
38883SOL    HW119542   0.407   1.840   7.042  0.9737  1.1631  0.9438
38883SOL    HW219543   0.489   1.833   6.915 -0.2982 -0.1012  0.1600
38884SOL     OW19544   2.188  10.455   1.203 -0.2445 -0.0601 -0.1006
38884SOL    HW119545   2.162  10.542   1.232 -1.1857 -0.0472 -0.9031
38884SOL    HW219546   2.120  10.397   1.237  0.6119 -0.5500  0.7985
38885SOL     OW19547   2.812   8.504   0.540  0.1598  0.1640 -0.1063
38885SOL    HW119548   2.810   8.589   0.496  0.8683  0.2417 -0.0107
38885SOL    HW219549   2.792   8.441   0.471 -0.2833  0.3993 -0.1964
38886SOL     OW19550   6.697   2.943   2.288 -0.3779 -0.0654 -0.1834
38886SOL    HW119551   6.759   2.870   2.280 -1.2578 -0.9790  1.0353
38886SOL    HW219552   6.751   3.017   2.317  0.5250 -0.2009 -1.4303
38887SOL     OW19553   4.724   1.935   0.438  0.1162  0.5707 -0.7605
38887SOL    HW119554   4.792   1.995   0.469  0.0357  0.7477 -0.9272
38887SOL    HW219555   4.769   1.877   0.376  0.3349  0.0586 -0.1420
38888SOL     OW19556   9.733   4.518  10.699 -0.2352  0.2428 -0.0089
38888SOL    HW119557   9.775   4.602  10.679  1.3338 -0.0397  1.8265
38888SOL    HW219558   9.646   4.542  10.731 -0.3510  1.0528 -0.8742
38889SOL     OW19559   8.821   0.390   9.875  0.0980 -0.5408  0.0854
38889SOL    HW119560   8.855   0.479   9.875  1.0503 -0.8958  0.0880
38889SOL    HW219561   8.726   0.400   9.876  0.1579  0.5020  2.7680
38890SOL     OW19562   4.309   5.117   1.167 -0.4522  0.3601 -0.1614
38890SOL    HW119563   4.370   5.046   1.187 -0.6592  0.0810 -0.5192
38890SOL    HW219564   4.290   5.156   1.252 -1.1209 -0.6564  0.1830
38891SOL     OW19565   1.856   9.107   7.141  0.2086  0.3601  0.2547
38891SOL    HW119566   1.945   9.140   7.126  0.1315  0.4208 -0.0735
38891SOL    HW219567   1.801   9.160   7.083  0.1294 -0.6209 -0.5862
38892SOL     OW19568   3.793   3.740   9.284  0.5062  0.4285 -0.1026
38892SOL    HW119569   3.826   3.758   9.372  0.4372  0.5263 -0.0978
38892SOL    HW219570   3.699   3.751   9.290  0.4162 -0.3431  0.0038
38893SOL     OW19571  10.504   5.072   3.161  0.1411  0.0962  0.7081
38893SOL    HW119572  10.508   5.109   3.249  1.3785 -0.8804  1.0936
38893SOL    HW219573  10.417   5.033   3.155 -0.6193  1.6958  0.8349
38894SOL     OW19574   0.565   6.269   9.972  0.6255  0.2416 -0.1943
38894SOL    HW119575   0.478   6.249  10.006  0.0695 -0.5634 -1.9533
38894SOL    HW219576   0.624   6.217  10.025 -0.2460 -1.2999 -0.6804
38895SOL     OW19577   1.570   8.241   8.674  0.1973  0.0976 -0.1689
38895SOL    HW119578   1.614   8.323   8.651 -0.4363  0.2496 -0.8931
38895SOL    HW219579   1.570   8.240   8.770  0.8564  0.5866 -0.1541
38896SOL     OW19580   8.437   4.689  10.512  0.8647  0.3418  0.2156
38896SOL    HW119581   8.410   4.602  10.481  0.2613  0.5918  0.0260
38896SOL    HW219582   8.532   4.683  10.521  0.9132 -0.1019 -0.5453
38897SOL     OW19583   9.092   7.155   8.844  0.4594 -0.8713  0.1611
38897SOL    HW119584   9.027   7.151   8.914 -0.4466 -0.1254 -0.6074
38897SOL    HW219585   9.043   7.131   8.765  0.8680  0.6628 -0.5876
38898SOL     OW19586   6.611   6.429   8.146  0.1908  0.1249  0.2236
38898SOL    HW119587   6.621   6.428   8.051  1.6869  0.9416  0.3448
38898SOL    HW219588   6.625   6.339   8.173 -2.4904 -0.6046 -0.4722
38899SOL     OW19589   1.548   4.891   4.709 -0.3452  0.3774  0.3260
38899SOL    HW119590   1.456   4.868   4.704  0.0377 -1.8390  1.8981
38899SOL    HW219591   1.576   4.901   4.618 -2.1311  1.2146 -0.1654
38900SOL     OW19592  10.333   8.849   7.117 -0.0593 -0.5269  0.2682
38900SOL    HW119593  10.348   8.834   7.024  1.0435 -0.0041  0.3446
38900SOL    HW219594  10.284   8.931   7.121  0.8667  0.0461  0.1803
38901SOL     OW19595   9.990   7.908   0.496 -0.0586  0.2128  0.1860
38901SOL    HW119596   9.903   7.883   0.464 -0.5055  2.2793 -0.3497
38901SOL    HW219597   9.975   7.940   0.585  0.2279  0.2030  0.2379
38902SOL     OW19598   9.261   1.759   9.536 -0.2885  0.6330  0.3061
38902SOL    HW119599   9.227   1.768   9.447 -1.4193  1.5422  0.7848
38902SOL    HW219600   9.315   1.837   9.549 -0.9717  1.0443  0.7481
38903SOL     OW19601   7.085   4.889  10.040 -0.0750 -0.1343 -0.0571
38903SOL    HW119602   7.147   4.952  10.078  0.3251  1.0265 -2.4416
38903SOL    HW219603   7.029   4.942   9.984 -2.0499 -1.4570  0.5737
38904SOL     OW19604   0.499   5.777   8.536  0.0174  0.1730  0.3545
38904SOL    HW119605   0.455   5.714   8.478  0.2268 -0.4946  0.9188
38904SOL    HW219606   0.468   5.756   8.624  2.3748 -1.1390  0.9494
38905SOL     OW19607   2.772   9.656   7.611  0.2944  0.0397  0.2521
38905SOL    HW119608   2.690   9.627   7.650 -1.6517  0.9340 -2.7807
38905SOL    HW219609   2.808   9.578   7.568 -0.7326  0.2506 -1.0908
38906SOL     OW19610   6.481   8.549   6.701  0.2557 -0.7326 -0.0456
38906SOL    HW119611   6.459   8.627   6.651  0.2242 -1.4231 -1.1509
38906SOL    HW219612   6.432   8.557   6.782 -1.3823 -0.5786 -1.0006
38907SOL     OW19613   0.648   7.018   4.982 -0.4166  1.0546  0.5158
38907SOL    HW119614   0.636   7.087   5.047  0.9390  1.2136  0.6273
38907SOL    HW219615   0.722   7.047   4.930 -0.3597  0.0711  0.0314
38908SOL     OW19616   4.051   3.990   7.049  0.1758  0.3248  0.4048
38908SOL    HW119617   4.111   3.962   6.980  0.9226 -0.2270  1.2646
38908SOL    HW219618   4.077   4.080   7.068 -0.7311  0.8609 -0.7543
38909SOL     OW19619   7.622   5.814   2.093  0.3033  0.2178 -0.0592
38909SOL    HW119620   7.695   5.866   2.125  0.3081  0.0478  0.2034
38909SOL    HW219621   7.640   5.803   1.999  1.5623 -1.3362  0.3093
38910SOL     OW19622   7.814   7.599   1.321 -0.4797 -0.0363  0.1705
38910SOL    HW119623   7.907   7.604   1.298 -0.7723  0.6062 -1.0048
38910SOL    HW219624   7.804   7.517   1.368  0.1908 -1.5922 -2.2274
38911SOL     OW19625   6.938   2.911   1.803 -0.1643 -0.5633 -0.1428
38911SOL    HW119626   6.901   2.967   1.734 -0.4168 -0.1727  0.3038
38911SOL    HW219627   6.885   2.931   1.880  1.3470  0.4757  0.6836
38912SOL     OW19628   4.842   6.056   0.760 -0.0504 -0.2810 -0.3106
38912SOL    HW119629   4.755   6.061   0.722 -1.0452 -0.4324  1.8506
38912SOL    HW219630   4.896   6.113   0.704 -2.1741  2.1837 -0.0381
38913SOL     OW19631   4.532   2.310   6.140  0.1549 -0.3256 -0.0838
38913SOL    HW119632   4.556   2.329   6.230 -0.4336  1.2911 -0.2426
38913SOL    HW219633   4.612   2.323   6.089  0.2692 -0.3907  0.0804
38914SOL     OW19634   8.368   6.526   3.794 -0.2442  0.3431  0.8425
38914SOL    HW119635   8.315   6.522   3.715 -0.7258  0.4380  1.1581
38914SOL    HW219636   8.306   6.512   3.866  0.1490  0.4865  1.2148
38915SOL     OW19637   5.708   8.983   3.285  0.1868 -0.1652 -0.2243
38915SOL    HW119638   5.800   8.999   3.265  0.5556 -1.8668 -0.0043
38915SOL    HW219639   5.701   9.002   3.379  0.0192  1.1112 -0.4750
38916SOL     OW19640   5.497   2.324  10.430 -0.1478 -0.0472  0.0520
38916SOL    HW119641   5.460   2.335  10.518 -1.8422  0.7895 -0.7219
38916SOL    HW219642   5.515   2.414  10.401  1.3199 -0.3672 -0.1113
38917SOL     OW19643   7.422   8.162   9.835  0.3088  0.4071  0.2179
38917SOL    HW119644   7.450   8.134   9.922  0.0625 -1.7374 -0.3475
38917SOL    HW219645   7.501   8.201   9.796  0.5218  1.0307  1.2183
38918SOL     OW19646   1.830   0.458   7.768  0.2634 -0.3084  0.2674
38918SOL    HW119647   1.894   0.510   7.720  4.1275 -3.9090  0.9205
38918SOL    HW219648   1.838   0.489   7.859  1.5929 -1.0685  0.4380
38919SOL     OW19649   2.238   2.771   5.064  0.2026  0.5237 -0.0389
38919SOL    HW119650   2.164   2.732   5.112  0.0973 -0.3092 -0.8503
38919SOL    HW219651   2.315   2.727   5.100  0.4385  2.0344  1.4541
38920SOL     OW19652   1.655   1.479   2.613 -0.1285 -0.3380 -0.6906
38920SOL    HW119653   1.579   1.522   2.651  0.7182  0.4604  0.1552
38920SOL    HW219654   1.627   1.453   2.525 -1.2333  0.3339 -0.5504
38921SOL     OW19655   7.162   5.400   3.513 -0.0028  0.1422 -0.0814
38921SOL    HW119656   7.132   5.438   3.430 -1.2538  0.6748  0.5881
38921SOL    HW219657   7.257   5.389   3.501 -0.0489  0.8697 -1.3245
38922SOL     OW19658   4.901   9.203   4.460  0.2752  0.2321 -0.4397
38922SOL    HW119659   4.960   9.183   4.533  0.4875  0.9048 -0.4265
38922SOL    HW219660   4.924   9.139   4.393  0.6403  0.1374 -0.2242
38923SOL     OW19661   2.613   0.525   4.123  0.3153 -0.1756  0.1746
38923SOL    HW119662   2.636   0.498   4.034  1.6146  3.5562 -0.7772
38923SOL    HW219663   2.522   0.553   4.117  0.8900  1.6675 -0.4745
38924SOL     OW19664   6.625   7.770   3.605 -0.4010 -0.7121 -0.1569
38924SOL    HW119665   6.677   7.805   3.677 -0.3287 -2.2035  0.5652
38924SOL    HW219666   6.664   7.808   3.526 -0.2827  0.7102  0.5458
38925SOL     OW19667  10.308   5.939   7.949  0.1334  0.6602  0.1744
38925SOL    HW119668  10.300   5.935   8.045 -0.8804 -1.5783  0.0539
38925SOL    HW219669  10.348   5.856   7.925 -0.3945  0.8415 -1.4135
38926SOL     OW19670   9.693   9.855   6.337 -0.1511 -0.5701  0.0177
38926SOL    HW119671   9.656   9.791   6.398 -0.1473  0.2359  0.8977
38926SOL    HW219672   9.661   9.940   6.369  1.5051  0.0503  0.1446
38927SOL     OW19673   8.015  10.030   7.034  0.4875  0.5477  0.7254
38927SOL    HW119674   8.046  10.116   7.007  1.3749 -0.6696 -2.7674
38927SOL    HW219675   8.091   9.988   7.074  0.8838  0.4791 -0.0807
38928SOL     OW19676   9.726   4.140   3.312  0.1341  0.9302  0.6331
38928SOL    HW119677   9.687   4.055   3.291  1.1907  0.5137  0.2552
38928SOL    HW219678   9.663   4.204   3.278  1.0399  0.2942 -2.6211
38929SOL     OW19679   2.673   2.245   4.336  0.6315 -0.0496 -0.1318
38929SOL    HW119680   2.640   2.335   4.339  0.1279 -0.2627  1.7862
38929SOL    HW219681   2.634   2.208   4.257 -1.1665  0.6906  0.3728
38930SOL     OW19682   3.946   3.480   1.550  0.0776  0.4366  0.3550
38930SOL    HW119683   4.030   3.480   1.504 -0.5126  1.5684 -0.8000
38930SOL    HW219684   3.898   3.405   1.515 -0.5808  1.6023 -1.3704
38931SOL     OW19685   2.181   8.971   6.215  0.2012 -0.1297 -0.1722
38931SOL    HW119686   2.221   8.911   6.153  0.8314  0.9788 -0.8772
38931SOL    HW219687   2.119   8.917   6.265  1.2846 -1.4990 -0.2594
38932SOL     OW19688   8.648   8.295   7.616 -0.0442  0.2046 -0.5830
38932SOL    HW119689   8.706   8.349   7.562 -0.2893  1.5031  0.3880
38932SOL    HW219690   8.573   8.352   7.634  0.0036 -0.1864  1.0522
38933SOL     OW19691   0.859   9.715   7.410 -0.2837 -0.3561  0.3899
38933SOL    HW119692   0.825   9.655   7.476  0.5182 -1.8288 -0.4853
38933SOL    HW219693   0.953   9.700   7.410  0.1880  2.0313  1.2006
38934SOL     OW19694   6.441   7.709   7.487 -0.4050 -0.3010  0.0462
38934SOL    HW119695   6.511   7.677   7.544 -0.0285  0.9975  0.3427
38934SOL    HW219696   6.443   7.651   7.411  1.6523  0.3175 -0.4115
38935SOL     OW19697  10.493   7.914   4.895  0.2431 -0.1076 -0.7363
38935SOL    HW119698  10.438   7.899   4.972  0.0684 -2.6095 -1.2486
38935SOL    HW219699  10.515   8.007   4.898 -0.6387  0.0881  1.7272
38936SOL     OW19700   4.732   9.275   2.495 -0.9052  0.4953  0.2948
38936SOL    HW119701   4.813   9.260   2.544  0.8959 -0.9926 -2.8809
38936SOL    HW219702   4.667   9.223   2.542  0.3568  0.2878  1.9191
38937SOL     OW19703   0.868   6.987   6.472 -0.1372 -0.4859  0.4955
38937SOL    HW119704   0.931   6.934   6.423 -0.2640 -0.2416  0.0610
38937SOL    HW219705   0.909   7.073   6.478 -1.4923  0.4593 -2.0826
38938SOL     OW19706   0.938   5.520   4.231 -0.0068  0.2340  0.1795
38938SOL    HW119707   0.962   5.490   4.318 -0.4959  1.6120  0.8152
38938SOL    HW219708   0.963   5.447   4.173  1.0907 -0.3713  1.3494
38939SOL     OW19709   5.705   9.558   2.112 -0.0985 -0.2037 -0.1461
38939SOL    HW119710   5.629   9.610   2.140 -0.4279 -0.8335  0.1475
38939SOL    HW219711   5.695   9.475   2.158  1.3057  0.0550  0.6963
38940SOL     OW19712   6.393   0.418   5.135  0.1486  0.2690 -0.0084
38940SOL    HW119713   6.467   0.358   5.139 -0.2627 -0.3300 -1.0071
38940SOL    HW219714   6.325   0.377   5.188  0.0017  0.0244 -0.3769
38941SOL     OW19715   2.573   1.384   8.369  0.1795  0.4271  0.1219
38941SOL    HW119716   2.486   1.349   8.348 -0.1657  0.5327  1.3044
38941SOL    HW219717   2.594   1.441   8.295 -0.1825 -0.5948 -0.8028
38942SOL     OW19718   9.001   5.604   4.523 -0.8489  0.1864  0.1788
38942SOL    HW119719   8.954   5.577   4.602  0.4633  3.0376  2.1497
38942SOL    HW219720   8.959   5.687   4.498 -0.5733 -0.1652 -1.5292
38943SOL     OW19721   2.971   9.175  10.075 -0.5044 -0.1108 -0.2198
38943SOL    HW119722   3.064   9.153  10.065 -0.1966  1.7001 -2.1704
38943SOL    HW219723   2.927   9.091  10.086  1.1224 -1.1980 -1.5210
38944SOL     OW19724   0.470   6.172   2.567  0.5926  0.0864  0.1157
38944SOL    HW119725   0.442   6.258   2.597  1.6491 -0.2818  2.4349
38944SOL    HW219726   0.398   6.113   2.591  0.5498  0.0899 -0.0030
38945SOL     OW19727   8.064   4.689   3.695 -0.1041 -0.3216  0.0510
38945SOL    HW119728   8.080   4.782   3.710  0.4401 -0.1291 -1.5153
38945SOL    HW219729   8.077   4.677   3.601 -1.6886 -1.6934 -0.0378
38946SOL     OW19730   5.382   8.916   7.235 -0.5699 -0.0909 -0.4586
38946SOL    HW119731   5.443   8.894   7.305 -0.0190  0.7441 -0.6615
38946SOL    HW219732   5.376   8.836   7.183  0.3403 -0.1921 -0.4207
38947SOL     OW19733   1.511  10.119   6.076  0.3986  0.1422  0.1738
38947SOL    HW119734   1.517  10.198   6.129 -0.8071 -0.1933  0.8494
38947SOL    HW219735   1.597  10.078   6.083  0.5267  0.5571  1.1516
38948SOL     OW19736   8.040   0.892   9.016 -0.1762 -0.1250 -0.5136
38948SOL    HW119737   8.101   0.917   8.947  0.6440 -2.2849 -0.6467
38948SOL    HW219738   8.085   0.914   9.098  0.3184 -0.6781 -0.6316
38949SOL     OW19739   9.764   2.466   3.667 -0.2587  0.3623  0.0318
38949SOL    HW119740   9.778   2.390   3.611  0.4334  1.5329 -1.4602
38949SOL    HW219741   9.721   2.530   3.611 -0.5071  1.2115  1.1501
38950SOL     OW19742   4.601  10.209   1.808 -0.1371  0.0247 -0.4058
38950SOL    HW119743   4.563  10.177   1.890  0.2610 -0.1582 -0.2834
38950SOL    HW219744   4.549  10.167   1.740  0.2654 -0.7761 -0.2447
38951SOL     OW19745   1.517   1.614   3.915 -1.1532 -0.7312  0.3295
38951SOL    HW119746   1.556   1.570   3.840 -2.5154  0.2132 -0.9916
38951SOL    HW219747   1.442   1.560   3.939 -2.0106  0.1129 -0.4100
38952SOL     OW19748   0.861   3.176   7.791 -0.2050  0.2571 -0.1967
38952SOL    HW119749   0.818   3.170   7.705  0.1993 -1.2860 -0.3302
38952SOL    HW219750   0.790   3.192   7.853 -0.5953  0.6629 -0.7410
38953SOL     OW19751   0.280   5.544   6.914  0.2696 -0.7672 -0.2935
38953SOL    HW119752   0.324   5.612   6.863  0.5503 -1.7075 -1.3610
38953SOL    HW219753   0.195   5.534   6.871  0.0739 -0.8120  0.1042
38954SOL     OW19754   3.227   4.225   0.477 -0.2624 -0.3697  0.0022
38954SOL    HW119755   3.279   4.150   0.505 -1.1195 -1.5386 -1.3740
38954SOL    HW219756   3.163   4.236   0.547 -0.1778 -0.9923  0.1878
38955SOL     OW19757   7.232   9.261   2.639  0.0305 -0.0876 -0.1970
38955SOL    HW119758   7.215   9.170   2.614 -0.0443  0.0649 -0.7257
38955SOL    HW219759   7.147   9.304   2.634 -0.2168 -0.3110  1.5299
38956SOL     OW19760  10.110   2.722   3.235 -0.2158 -0.6233  0.4885
38956SOL    HW119761  10.162   2.790   3.278 -0.4591 -0.5587  0.6812
38956SOL    HW219762  10.143   2.720   3.146 -2.0814  1.7040 -0.3623
38957SOL     OW19763   8.423   8.805  10.576  0.0832  0.4631  0.1984
38957SOL    HW119764   8.390   8.884  10.619 -0.4984 -0.8017  2.2000
38957SOL    HW219765   8.461   8.753  10.646 -2.2236 -2.3731 -0.4591
38958SOL     OW19766   4.619   9.320   1.576 -0.1544  0.2312  0.0920
38958SOL    HW119767   4.652   9.372   1.502 -2.2937  0.1211 -1.0095
38958SOL    HW219768   4.640   9.230   1.553 -0.0967  0.2595  0.0301
38959SOL     OW19769   7.586   7.172   6.009 -0.5204  0.1652  0.6803
38959SOL    HW119770   7.573   7.174   6.104  0.6590 -0.3867  0.8740
38959SOL    HW219771   7.638   7.093   5.993  0.2406  0.8359 -0.2991
38960SOL     OW19772   1.743   3.139   0.635 -0.3512 -0.2642  0.4487
38960SOL    HW119773   1.811   3.076   0.610 -0.8817  0.1075 -2.1829
38960SOL    HW219774   1.792   3.213   0.672  0.7090 -0.0880 -1.2125
38961SOL     OW19775  10.460   6.331   5.627 -0.1443 -0.0571  0.1469
38961SOL    HW119776  10.546   6.290   5.629  0.6042  1.4690  1.1754
38961SOL    HW219777  10.423   6.314   5.713 -0.7040 -0.3273 -0.1377
38962SOL     OW19778   0.160   2.909   3.050  0.0199 -0.2846 -0.2474
38962SOL    HW119779   0.228   2.908   3.117 -1.3705 -0.8401  1.2249
38962SOL    HW219780   0.102   2.980   3.077 -0.8855 -0.9084 -0.5184
38963SOL     OW19781   0.668  10.046   5.760 -0.1699 -0.3819  0.3223
38963SOL    HW119782   0.749  10.076   5.802 -0.8709  0.3443  1.1856
38963SOL    HW219783   0.637  10.122   5.711 -1.0099 -0.2350  1.0606
38964SOL     OW19784   9.389   9.651  10.356  0.3956 -0.1812 -0.0003
38964SOL    HW119785   9.452   9.608  10.415 -0.6618 -1.8288  0.0046
38964SOL    HW219786   9.353   9.722  10.408  1.5109  0.1534  0.3486
38965SOL     OW19787   8.047   5.077   7.184  0.5207 -0.3279  0.4781
38965SOL    HW119788   8.112   5.071   7.255 -0.6984  1.6886  1.8646
38965SOL    HW219789   8.008   5.164   7.194 -1.4407 -0.9425 -1.1621
38966SOL     OW19790   2.427   9.263   8.059  0.0171 -0.6078 -0.6326
38966SOL    HW119791   2.400   9.267   8.151  0.9534  0.3429 -0.3781
38966SOL    HW219792   2.356   9.216   8.015 -2.2781  2.0936 -0.0777
38967SOL     OW19793  10.581   6.537   6.635  0.0444  0.1378 -0.2389
38967SOL    HW119794  10.502   6.567   6.589 -0.5651  0.9235  1.2544
38967SOL    HW219795  10.652   6.552   6.573 -0.8315  0.5110 -1.1773
38968SOL     OW19796   5.161   3.930  10.323 -0.0136  0.6457  0.3169
38968SOL    HW119797   5.068   3.921  10.341  0.2480  0.2902  1.5870
38968SOL    HW219798   5.202   3.940  10.409  1.2912 -0.9859 -0.0394
38969SOL     OW19799   1.245   5.728   1.950  0.2463 -0.5055  0.3060
38969SOL    HW119800   1.321   5.777   1.980 -0.3032 -0.2390  1.2856
38969SOL    HW219801   1.194   5.791   1.900  0.0230 -0.3319  0.7494
38970SOL     OW19802   0.987   7.210   6.988  0.3333 -0.1794  0.6312
38970SOL    HW119803   1.059   7.148   7.000  2.0656  1.5844 -0.2058
38970SOL    HW219804   0.939   7.177   6.912  0.3023 -1.2790  1.1080
38971SOL     OW19805   0.545   4.180   1.225  0.5348 -0.4162 -0.2941
38971SOL    HW119806   0.574   4.220   1.143 -0.2679  0.6818 -0.0705
38971SOL    HW219807   0.584   4.093   1.225  0.6459 -0.3820 -1.7796
38972SOL     OW19808   1.934   7.388   8.838  0.6801  0.1109  0.2105
38972SOL    HW119809   1.905   7.298   8.851 -1.7477  0.3881 -2.3826
38972SOL    HW219810   1.931   7.427   8.926 -1.7231 -1.4036  0.9022
38973SOL     OW19811   7.400   3.352   4.424  0.3794 -0.7587 -0.8535
38973SOL    HW119812   7.310   3.360   4.455  0.7833  0.1984  0.1537
38973SOL    HW219813   7.453   3.384   4.497  1.4688 -0.0603 -1.9145
38974SOL     OW19814   2.822   4.830   4.581  0.4393  0.3369 -0.2611
38974SOL    HW119815   2.787   4.900   4.637  0.3444 -0.4980  0.7484
38974SOL    HW219816   2.795   4.855   4.493  0.8721  1.8587 -0.0048
38975SOL     OW19817   9.878   5.959   8.693 -0.1933 -0.5547  0.0877
38975SOL    HW119818   9.879   5.919   8.606 -0.8590 -0.3041 -0.0413
38975SOL    HW219819   9.786   5.976   8.711  0.0748  1.0736  0.0790
38976SOL     OW19820   0.904   3.294   2.226 -0.1734 -0.0466 -0.3194
38976SOL    HW119821   0.922   3.281   2.133 -0.0406  2.5945 -0.7256
38976SOL    HW219822   0.859   3.378   2.230  0.8511  0.4523  2.1286
38977SOL     OW19823   1.783   7.005   0.127 -0.0891 -0.6648 -0.3915
38977SOL    HW119824   1.781   6.969   0.216 -1.2814 -0.2528 -0.2315
38977SOL    HW219825   1.809   6.931   0.072  1.1238 -0.8103  0.3305
38978SOL     OW19826   2.727   5.669   4.431  0.0503  0.2597 -0.2917
38978SOL    HW119827   2.693   5.694   4.516  1.7343  0.4865  0.3438
38978SOL    HW219828   2.678   5.723   4.368 -0.7399  0.5615  0.5683
38979SOL     OW19829   5.573   9.912   9.478 -0.8977  0.1442  0.1421
38979SOL    HW119830   5.601   9.927   9.568 -1.0213 -0.5834  0.3101
38979SOL    HW219831   5.654   9.908   9.427 -0.8579  1.3455  0.0796
38980SOL     OW19832   0.526   9.509   0.645 -0.5898  0.0784  0.5159
38980SOL    HW119833   0.584   9.433   0.656  0.6296  0.9401  0.2279
38980SOL    HW219834   0.445   9.472   0.609  0.1335 -1.0410 -0.0238
38981SOL     OW19835   2.945   8.257   4.663 -0.3701  0.0352  0.4739
38981SOL    HW119836   2.986   8.343   4.653 -0.6179  0.3155  1.6887
38981SOL    HW219837   2.878   8.270   4.731  1.0381 -1.5912  2.2669
38982SOL     OW19838   4.625   7.544   0.420 -0.0801  0.8794  0.0219
38982SOL    HW119839   4.542   7.566   0.377 -0.8175 -0.6739  0.5719
38982SOL    HW219840   4.657   7.467   0.373 -0.9775 -0.9552  2.2248
38983SOL     OW19841   1.478   5.912   1.090 -0.3055 -0.4598 -0.1202
38983SOL    HW119842   1.523   5.970   1.028 -1.0337 -1.7684 -1.9857
38983SOL    HW219843   1.393   5.895   1.049 -0.0431 -2.9788  0.2007
38984SOL     OW19844  10.291   1.802   8.890 -0.6091 -0.1166  0.1371
38984SOL    HW119845  10.207   1.757   8.894 -0.0413 -1.1202  1.6330
38984SOL    HW219846  10.291   1.860   8.966  0.8389 -1.6838  1.4227
38985SOL     OW19847   0.927   2.123   9.631  0.3980 -0.3299 -0.1540
38985SOL    HW119848   0.882   2.198   9.591 -0.7421 -0.9162 -0.0264
38985SOL    HW219849   0.955   2.155   9.716 -1.8696 -0.5718  0.7586
38986SOL     OW19850   6.800   4.814   1.691  0.4017  0.2569  0.6244
38986SOL    HW119851   6.727   4.809   1.630 -1.1142 -1.7521  2.4252
38986SOL    HW219852   6.822   4.722   1.709  2.1264  0.8085  1.5894
38987SOL     OW19853   5.273   7.967   5.701 -0.3352  0.1735  0.3759
38987SOL    HW119854   5.266   8.060   5.681  0.1302  0.1424  0.0570
38987SOL    HW219855   5.189   7.945   5.741 -0.0157  0.9771  1.5118
38988SOL     OW19856  10.742   8.202   6.776  0.4954  0.1742 -0.2777
38988SOL    HW119857  10.698   8.122   6.807  0.3511 -0.0668 -1.0715
38988SOL    HW219858  10.743   8.260   6.852  0.8436 -0.6822  0.3968
38989SOL     OW19859   3.866   6.105   3.449  0.3219  0.1616 -0.5543
38989SOL    HW119860   3.873   6.025   3.396 -0.0962  0.6548 -1.3677
38989SOL    HW219861   3.909   6.173   3.397  1.1010  0.3793  0.3493
38990SOL     OW19862   9.334   0.938   7.858 -0.2949 -0.0420 -0.0237
38990SOL    HW119863   9.396   0.883   7.810 -1.3611  0.5666 -2.2044
38990SOL    HW219864   9.315   0.889   7.938  1.2452 -1.2919 -0.3820
38991SOL     OW19865   1.341   4.620   0.644 -0.0523 -0.1577  0.1085
38991SOL    HW119866   1.436   4.628   0.630 -0.2427  0.8121 -0.7658
38991SOL    HW219867   1.310   4.711   0.647 -0.8925 -0.4566  0.8695
38992SOL     OW19868   4.682   3.509   9.641 -0.4900 -1.0255 -0.0300
38992SOL    HW119869   4.683   3.417   9.668 -0.9535 -1.1609 -0.4698
38992SOL    HW219870   4.639   3.509   9.556  0.2546 -0.5011 -0.4198
38993SOL     OW19871   0.492   9.905   2.806  0.2494  0.1079 -0.1769
38993SOL    HW119872   0.432   9.972   2.837  0.9193  1.2646 -1.2748
38993SOL    HW219873   0.455   9.822   2.837 -1.2088  0.8875  0.2245
38994SOL     OW19874   6.755   9.163   9.456  0.4057 -0.3937 -0.3935
38994SOL    HW119875   6.789   9.233   9.401  0.0672 -1.1661 -1.6030
38994SOL    HW219876   6.696   9.114   9.400  0.4528 -1.5204  0.5030
38995SOL     OW19877  10.132   4.395  10.466  0.6455 -0.0025  0.0892
38995SOL    HW119878  10.075   4.376  10.541 -0.5484  0.6019 -0.6491
38995SOL    HW219879  10.080   4.372  10.390  1.4896  0.3160 -0.5949
38996SOL     OW19880   3.825   2.076   5.255  0.0991  0.1760 -0.6940
38996SOL    HW119881   3.877   2.118   5.323 -1.9473 -0.8336  1.6462
38996SOL    HW219882   3.860   1.987   5.249 -0.5014 -0.1193 -0.0109
38997SOL     OW19883   0.309   8.593  10.397  0.0379 -0.3210  0.1245
38997SOL    HW119884   0.380   8.546  10.353  0.8831  0.6197  0.4477
38997SOL    HW219885   0.261   8.525  10.444  0.0994 -1.1142 -0.9134
38998SOL     OW19886   7.571   7.241   7.857  0.3954 -0.1015  0.0076
38998SOL    HW119887   7.501   7.303   7.835 -0.7919 -1.5908 -0.5381
38998SOL    HW219888   7.652   7.288   7.835 -0.5448  0.4115 -2.7792
38999SOL     OW19889   8.608   3.585   6.953  0.4110  0.4044 -0.2655
38999SOL    HW119890   8.634   3.661   6.901 -1.1381  0.2659 -1.3066
38999SOL    HW219891   8.569   3.622   7.032  0.9757  0.6644 -0.1096
39000SOL     OW19892  10.582   9.908   7.074  0.6672  0.0883  1.0399
39000SOL    HW119893  10.618   9.995   7.055 -0.1351  0.4544  1.1584
39000SOL    HW219894  10.602   9.894   7.166 -1.1695  1.1320  1.6355
39001SOL     OW19895   3.171   9.860   1.922  0.4334 -0.0721 -0.3771
39001SOL    HW119896   3.267   9.863   1.926  0.3920  0.2794  0.9398
39001SOL    HW219897   3.145   9.948   1.894  0.4951 -0.0101 -0.2442
39002SOL     OW19898   3.505   1.742   6.467 -0.0839  0.2378 -0.0059
39002SOL    HW119899   3.562   1.667   6.486 -0.9352 -0.0421  1.5860
39002SOL    HW219900   3.468   1.723   6.380  0.6118 -0.5947 -0.1325
39003SOL     OW19901   2.971   0.467   1.465  0.2389  0.9253  0.1579
39003SOL    HW119902   3.059   0.486   1.497  0.7586  2.0228 -1.7944
39003SOL    HW219903   2.975   0.376   1.436  1.0826  1.2988 -0.9505
39004SOL     OW19904   1.326   0.172   9.818  0.2436  0.1490 -0.5661
39004SOL    HW119905   1.362   0.133   9.897 -1.0469 -0.3487 -0.1974
39004SOL    HW219906   1.354   0.114   9.747 -1.6772 -1.5646 -0.0254
39005SOL     OW19907   1.745   3.681   8.521  0.2425  0.6940 -0.2560
39005SOL    HW119908   1.649   3.684   8.531 -0.0141 -1.7405 -1.2820
39005SOL    HW219909   1.774   3.622   8.591  0.7802  0.0672 -0.9912
39006SOL     OW19910   2.667   8.217   1.894  0.2004 -0.2847  0.5390
39006SOL    HW119911   2.757   8.197   1.919 -0.5848 -1.8449  2.3309
39006SOL    HW219912   2.642   8.146   1.834 -0.2064 -0.5359  0.9970
39007SOL     OW19913   8.473   7.219   0.807 -0.2915 -0.3137 -0.2932
39007SOL    HW119914   8.475   7.166   0.887 -1.4051 -0.1453 -0.1391
39007SOL    HW219915   8.530   7.171   0.746  0.6974 -0.3591  0.6287
39008SOL     OW19916   2.126   4.301   8.696 -0.3796  0.3849  0.4346
39008SOL    HW119917   2.069   4.248   8.751 -1.3873  1.5582  0.5774
39008SOL    HW219918   2.070   4.328   8.622  0.5752 -0.0818 -0.4912
39009SOL     OW19919   3.084   8.686   7.406 -0.1030 -0.7770  0.4049
39009SOL    HW119920   3.157   8.722   7.356  1.1108  0.3570  2.8425
39009SOL    HW219921   3.046   8.762   7.450 -2.4954 -1.4255 -0.3904
39010SOL     OW19922   5.706   0.156   6.589 -0.1905 -0.1126 -0.3822
39010SOL    HW119923   5.663   0.102   6.656  0.8362 -0.1220  0.2999
39010SOL    HW219924   5.668   0.127   6.507 -0.8825 -0.6937  0.1270
39011SOL     OW19925   7.837   1.998   7.066 -0.3772 -0.4546  0.3698
39011SOL    HW119926   7.913   1.955   7.105 -0.0170 -1.9857 -1.8871
39011SOL    HW219927   7.761   1.954   7.105 -0.0501 -0.9750  0.4207
39012SOL     OW19928  10.242  10.027   5.646 -0.6026 -0.2547  0.9318
39012SOL    HW119929  10.199  10.030   5.731 -1.5893  1.4890  0.4264
39012SOL    HW219930  10.272  10.116   5.631 -1.2805 -0.2962 -0.9369
39013SOL     OW19931   7.837   7.235   6.611 -0.2056  0.5803 -0.0150
39013SOL    HW119932   7.742   7.235   6.628 -0.1336 -1.5877  0.7331
39013SOL    HW219933   7.848   7.179   6.534  0.6829 -2.6421  2.2460
39014SOL     OW19934   3.714   6.647   8.483  0.4227  0.4381  0.0850
39014SOL    HW119935   3.765   6.726   8.468  1.1032 -0.2361 -1.3816
39014SOL    HW219936   3.629   6.665   8.445  0.3142  0.7317  0.4591
39015SOL     OW19937   0.612   9.382   0.208  0.0992  0.4940  0.2875
39015SOL    HW119938   0.671   9.308   0.223  0.2617  0.2247 -1.4621
39015SOL    HW219939   0.670   9.454   0.184 -0.0549  1.2394  2.0351
39016SOL     OW19940   6.639   6.567   2.279  0.0393 -0.0520 -0.3424
39016SOL    HW119941   6.665   6.526   2.361  0.2231  1.1457  0.2239
39016SOL    HW219942   6.551   6.602   2.296 -0.7256 -1.3887 -1.2686
39017SOL     OW19943   2.327   2.838   0.207  0.1680  0.2237 -0.3291
39017SOL    HW119944   2.386   2.912   0.190  0.2403  0.1028 -0.6051
39017SOL    HW219945   2.323   2.833   0.302  2.1114 -0.9474 -0.2516
39018SOL     OW19946   2.346   9.350   6.756  0.5359 -0.1086 -0.0151
39018SOL    HW119947   2.263   9.396   6.751  0.2279 -0.7118 -0.5629
39018SOL    HW219948   2.403   9.409   6.805  0.0812  0.7471 -0.4980
39019SOL     OW19949   0.647   7.098   5.816 -0.4744 -0.0645  0.4163
39019SOL    HW119950   0.716   7.132   5.873 -0.2065 -2.3627  1.5514
39019SOL    HW219951   0.606   7.177   5.780  0.7979  1.4248  2.0113
39020SOL     OW19952   7.635  10.608   9.504 -0.5572  0.5816  0.1602
39020SOL    HW119953   7.602  10.697   9.512  1.0529  1.3717 -1.3003
39020SOL    HW219954   7.557  10.553   9.509 -1.6089  2.0729  0.8903
39021SOL     OW19955   0.312   5.311   8.002 -0.3418 -0.4864  0.3962
39021SOL    HW119956   0.378   5.380   8.012 -0.7239  0.4286 -2.4692
39021SOL    HW219957   0.360   5.238   7.961 -0.9119 -0.0626 -1.0801
39022SOL     OW19958   2.464   4.256   1.538 -0.3719  0.6084 -0.4584
39022SOL    HW119959   2.546   4.216   1.567  0.0620  1.8371  0.0939
39022SOL    HW219960   2.409   4.257   1.615 -1.6772 -1.9183 -1.2548
39023SOL     OW19961   7.608   5.729   2.360  0.5761 -0.1105 -0.0767
39023SOL    HW119962   7.636   5.737   2.269  0.1017 -1.7989 -0.4116
39023SOL    HW219963   7.595   5.819   2.389  0.4097  0.4527 -1.7754
39024SOL     OW19964   0.215   0.631   4.375  0.3770 -0.1842  0.1193
39024SOL    HW119965   0.309   0.622   4.355  0.4894  0.4172  0.3483
39024SOL    HW219966   0.198   0.724   4.364  0.4969  0.2657  2.9948
39025SOL     OW19967   2.676   4.235   8.962  0.7457 -0.3422  0.3281
39025SOL    HW119968   2.718   4.298   8.903  1.4546  0.3833  1.5698
39025SOL    HW219969   2.609   4.286   9.007  1.4589 -0.4092  1.4919
39026SOL     OW19970   7.030   1.444   4.716 -0.2732 -0.3584  0.5563
39026SOL    HW119971   7.078   1.462   4.636  0.7422  2.2725  1.6611
39026SOL    HW219972   7.047   1.352   4.734 -0.3058 -0.9468 -2.0448
39027SOL     OW19973   7.896   5.833  10.226 -0.3202 -0.7124  0.3125
39027SOL    HW119974   7.823   5.857  10.284  0.5888 -0.9919  1.6374
39027SOL    HW219975   7.939   5.917  10.207 -0.3903 -0.6586  0.3842
39028SOL     OW19976   5.366   2.612   0.763  0.3628 -0.2261  0.3290
39028SOL    HW119977   5.395   2.703   0.765 -0.6015  0.0851  0.3374
39028SOL    HW219978   5.310   2.606   0.686  1.7029 -1.2207 -0.6224
39029SOL     OW19979  10.759   4.699   0.907  0.5862  0.2689 -0.8800
39029SOL    HW119980  10.853   4.688   0.921  0.4172 -0.2301 -0.0674
39029SOL    HW219981  10.735   4.629   0.846  0.5675 -0.2443 -0.2928
39030SOL     OW19982   2.135   1.964   1.700 -0.0289 -0.3419 -0.0944
39030SOL    HW119983   2.156   1.991   1.611  3.2196 -0.9877  0.3267
39030SOL    HW219984   2.099   2.042   1.741  0.6731  0.6742 -1.3308
39031SOL     OW19985   7.868   1.156   3.047 -0.5038 -0.3616 -0.2052
39031SOL    HW119986   7.921   1.236   3.042 -1.2499  0.1934  0.4474
39031SOL    HW219987   7.782   1.183   3.014  0.0364 -1.6953 -2.9734
39032SOL     OW19988   7.712   9.663   1.118 -0.3466  0.0367  0.3742
39032SOL    HW119989   7.790   9.636   1.166  0.2227  0.9471 -0.0035
39032SOL    HW219990   7.653   9.699   1.185  0.2938  0.9621  0.4621
39033SOL     OW19991   4.186   2.374   5.715 -0.5138  0.0970  0.1038
39033SOL    HW119992   4.143   2.327   5.644 -1.0092  0.0138  0.4493
39033SOL    HW219993   4.169   2.466   5.697  0.5082  0.1577 -0.6049
39034SOL     OW19994   4.248   3.767   7.279 -0.2047 -0.1317 -0.5008
39034SOL    HW119995   4.325   3.710   7.282 -0.6964 -0.8980 -1.5371
39034SOL    HW219996   4.244   3.798   7.189 -0.6075  0.6133 -0.2362
39035SOL     OW19997   7.716   9.582   3.583 -0.2940 -0.1639  0.3201
39035SOL    HW119998   7.760   9.648   3.636 -0.1905 -0.0024  0.0369
39035SOL    HW219999   7.649   9.545   3.641 -2.2160  2.0974 -0.3042
39036SOL     OW20000   5.317   4.014   5.332  0.2703 -0.1882 -0.1534
39036SOL    HW120001   5.412   4.024   5.331  0.3756 -0.8689  1.0916
39036SOL    HW220002   5.302   3.920   5.329 -0.2235 -0.2894  2.5495
39037SOL     OW20003   6.044   8.419   1.376 -0.0712  0.5526  0.6228
39037SOL    HW120004   6.119   8.402   1.319 -1.2872  0.1806 -0.9460
39037SOL    HW220005   5.968   8.408   1.319 -1.3130  1.3380  2.0591
39038SOL     OW20006   5.287   8.409  10.574 -0.1586 -0.2530 -0.2658
39038SOL    HW120007   5.296   8.327  10.623 -0.7033 -0.5522 -0.6630
39038SOL    HW220008   5.375   8.424  10.538  0.4342  0.3265  1.3251
39039SOL     OW20009   6.037   5.334   2.395 -0.0984 -0.0176 -0.8541
39039SOL    HW120010   6.062   5.285   2.317  2.0427  1.1406 -0.9788
39039SOL    HW220011   6.097   5.408   2.397  0.3511 -0.3125  2.1907
39040SOL     OW20012   1.372   5.154   6.144 -0.4959  0.1376 -0.3792
39040SOL    HW120013   1.297   5.213   6.152  1.5559  2.9566 -0.3822
39040SOL    HW220014   1.356   5.085   6.209 -2.9132  0.7859 -0.2045
39041SOL     OW20015   3.018   6.541   2.091 -0.0384  0.1619 -0.8222
39041SOL    HW120016   3.071   6.462   2.079 -0.5063 -0.2778 -0.0659
39041SOL    HW220017   2.962   6.544   2.014  0.2525 -0.0216 -1.0478
39042SOL     OW20018   7.396   0.385   1.592 -0.3635  0.1441 -0.2174
39042SOL    HW120019   7.349   0.441   1.530  0.9257  0.6088 -0.8022
39042SOL    HW220020   7.473   0.355   1.544  0.6444  0.4742  1.1135
39043SOL     OW20021  10.573   9.800   9.507 -0.2722  0.2004  0.4829
39043SOL    HW120022  10.662   9.832   9.521 -0.0752 -0.6491  1.2492
39043SOL    HW220023  10.569   9.781   9.413  0.9391 -1.4320  0.7272
39044SOL     OW20024   8.620   2.753   5.023  0.0729  0.1756  0.0888
39044SOL    HW120025   8.600   2.772   4.931  1.3681  1.4766  0.0403
39044SOL    HW220026   8.654   2.664   5.022 -3.3180 -1.2673 -0.1181
39045SOL     OW20027   3.305   5.883   7.690  0.2960  0.0680  0.5989
39045SOL    HW120028   3.371   5.946   7.662  0.9061 -0.4940  0.7589
39045SOL    HW220029   3.259   5.927   7.762 -0.6905  1.1644 -0.6351
39046SOL     OW20030   4.780   5.326   9.576 -0.1833 -0.1869 -0.2023
39046SOL    HW120031   4.695   5.301   9.612 -0.4489  0.8958 -0.0405
39046SOL    HW220032   4.777   5.295   9.485 -0.6721 -0.3187 -0.1434
39047SOL     OW20033   0.836  10.347   2.209  0.2551  0.5216 -0.4205
39047SOL    HW120034   0.874  10.312   2.128  0.8849  1.6770 -0.6541
39047SOL    HW220035   0.767  10.406   2.179 -1.6363 -1.3550 -0.0051
39048SOL     OW20036   1.631   2.585   2.433 -0.2908 -0.5461  0.2043
39048SOL    HW120037   1.650   2.493   2.417  0.0975 -0.2322 -1.3155
39048SOL    HW220038   1.653   2.629   2.351 -0.0120  0.9757  1.0443
39049SOL     OW20039   7.689  10.338   0.476 -0.3305  0.2568 -0.5625
39049SOL    HW120040   7.757  10.272   0.489 -0.6490 -0.4121 -2.0360
39049SOL    HW220041   7.717  10.412   0.529  1.7908  0.1607 -1.4362
39050SOL     OW20042   5.546   6.406   9.069  0.0459 -0.2841 -0.6086
39050SOL    HW120043   5.588   6.347   9.006  0.2015  1.9174 -2.7373
39050SOL    HW220044   5.520   6.482   9.017 -2.2879  0.5338  1.5415
39051SOL     OW20045   2.322   2.591   7.268  0.3863 -0.4415  0.5427
39051SOL    HW120046   2.277   2.598   7.352  1.1215  0.9117  0.8591
39051SOL    HW220047   2.306   2.676   7.226  0.4048 -0.9394 -0.4953
39052SOL     OW20048  10.495   6.870   6.473  0.3377  0.4753  0.1377
39052SOL    HW120049  10.441   6.805   6.517  0.2138  0.2541 -0.3405
39052SOL    HW220050  10.432   6.931   6.433  0.4517  0.9831  0.7178
39053SOL     OW20051   1.051   5.362   2.426  0.0337  0.2588 -0.3083
39053SOL    HW120052   1.053   5.367   2.331 -1.9783  0.6554 -0.3655
39053SOL    HW220053   1.015   5.275   2.445  1.5976 -0.3316  0.1487
39054SOL     OW20054   9.476   9.382   0.452  0.2110 -0.5603 -0.5306
39054SOL    HW120055   9.511   9.460   0.408 -0.4245  1.3657  2.1329
39054SOL    HW220056   9.502   9.393   0.544 -2.5122 -1.9082  0.5078
39055SOL     OW20057   2.640   8.936  10.338  0.1604 -0.1235  0.0788
39055SOL    HW120058   2.709   8.876  10.368  0.5383  0.9682  1.5032
39055SOL    HW220059   2.572   8.879  10.302  0.8304 -1.3654  0.7240
39056SOL     OW20060   0.461   7.652   7.964  0.7433 -0.1523  0.0385
39056SOL    HW120061   0.433   7.560   7.959 -1.8249  0.5761 -0.3388
39056SOL    HW220062   0.473   7.668   8.057  0.3981 -0.6597  0.1764
39057SOL     OW20063   7.936  10.282   2.983  0.1590 -0.0205 -0.7419
39057SOL    HW120064   8.019  10.262   2.941  0.3842 -0.4905 -0.0855
39057SOL    HW220065   7.877  10.211   2.956  0.8561 -1.4427  1.2931
39058SOL     OW20066   9.620   9.639   0.633  0.1231 -1.0508  0.0934
39058SOL    HW120067   9.643   9.705   0.698 -1.9756 -0.7375  0.5841
39058SOL    HW220068   9.605   9.690   0.553 -1.5108 -0.8824  0.4755
39059SOL     OW20069   1.775   4.870   4.493  0.4072 -0.7024 -0.2151
39059SOL    HW120070   1.728   4.919   4.426 -0.9199  0.5505  1.5163
39059SOL    HW220071   1.815   4.938   4.548  0.7367 -1.6533  0.7568
39060SOL     OW20072   7.121   7.285   0.504 -0.2689 -0.0776  0.2818
39060SOL    HW120073   7.153   7.202   0.468 -0.6721 -0.7381  1.3555
39060SOL    HW220074   7.116   7.344   0.429 -0.7108 -1.2584 -0.6532
39061SOL     OW20075   4.417   9.399   1.074 -0.6280  0.0809 -0.0116
39061SOL    HW120076   4.334   9.385   1.029  0.5230 -0.0338 -2.2886
39061SOL    HW220077   4.414   9.490   1.103 -1.0609  0.4822 -1.2471
39062SOL     OW20078  10.227   9.242   4.411  0.1995  0.1202 -0.0582
39062SOL    HW120079  10.240   9.336   4.429 -1.5759  0.1987  1.0660
39062SOL    HW220080  10.134   9.228   4.427  0.2759 -1.6947 -1.0220
39063SOL     OW20081   0.508   7.893   7.225 -0.2380  0.0630 -0.8849
39063SOL    HW120082   0.421   7.877   7.263  0.1081  0.1444 -0.0305
39063SOL    HW220083   0.490   7.937   7.142 -0.9898  1.3871 -0.0681
39064SOL     OW20084   2.903   9.466   1.406  0.2037  0.2608 -0.5858
39064SOL    HW120085   2.835   9.453   1.340  1.4493 -0.1395 -1.8275
39064SOL    HW220086   2.980   9.495   1.357  1.2152 -0.1933  0.6636
39065SOL     OW20087   0.657   5.193   7.387 -0.2401 -0.0076 -0.0908
39065SOL    HW120088   0.640   5.287   7.378  0.8448  0.5018  2.5494
39065SOL    HW220089   0.699   5.169   7.304  1.3133  2.2921 -0.0669
39066SOL     OW20090   6.054   2.680  10.200 -0.6472 -0.1277  0.0212
39066SOL    HW120091   6.097   2.764  10.189  0.4474 -0.7725 -0.7952
39066SOL    HW220092   6.024   2.680  10.291  2.2254 -0.1190  1.0796
39067SOL     OW20093  10.087   3.451  10.723  0.3482  0.1956 -0.5497
39067SOL    HW120094  10.052   3.404  10.799  0.1746 -0.0127 -0.7536
39067SOL    HW220095  10.175   3.416  10.712  0.2422 -0.0387 -0.6631
39068SOL     OW20096   2.068   1.332   1.262 -0.1710  0.3688  0.3441
39068SOL    HW120097   2.119   1.346   1.341  1.3818  0.4468 -0.6224
39068SOL    HW220098   2.097   1.247   1.229  0.2327  0.9352 -0.8388
39069SOL     OW20099   2.817   4.783   1.423 -0.0420  0.1648 -0.1500
39069SOL    HW120100   2.830   4.695   1.456 -0.1400  0.5140  0.8360
39069SOL    HW220101   2.766   4.771   1.342  1.1989 -0.7734 -0.8204
39070SOL     OW20102   6.870   1.676   1.588  0.4445 -0.2389  0.6121
39070SOL    HW120103   6.825   1.688   1.672  0.1143 -1.3163  0.6071
39070SOL    HW220104   6.925   1.599   1.602  0.7596 -0.1309 -0.0147
39071SOL     OW20105   0.138  10.330   5.861 -0.5657  0.0508  0.1798
39071SOL    HW120106   0.065  10.375   5.818 -0.8099 -1.1997 -0.7772
39071SOL    HW220107   0.115  10.331   5.954 -1.1801  0.7670  0.0350
39072SOL     OW20108   8.156   7.690   0.064  0.2098 -0.4062 -0.1564
39072SOL    HW120109   8.068   7.665   0.035 -0.0287  0.1526  0.0646
39072SOL    HW220110   8.166   7.780   0.033  0.0293  0.1444  1.3175
39073SOL     OW20111   8.316   1.974   5.448 -0.4072  0.3007 -0.1082
39073SOL    HW120112   8.284   1.946   5.534 -0.1192  2.6778  0.8616
39073SOL    HW220113   8.301   2.069   5.447  2.4943  0.8749 -1.3607
39074SOL     OW20114   6.317   6.626   2.714 -0.0137  0.1740  0.0235
39074SOL    HW120115   6.240   6.680   2.732 -0.0425 -0.3936  1.9024
39074SOL    HW220116   6.389   6.674   2.754  0.3459 -0.0607 -0.3423
39075SOL     OW20117   1.450   8.052   6.212  0.2734  0.2398 -0.3063
39075SOL    HW120118   1.511   7.981   6.189  0.2971 -0.8402  2.7352
39075SOL    HW220119   1.372   8.033   6.160  1.4084 -0.0996 -1.9755
39076SOL     OW20120   8.668  10.596   9.031  0.2833 -0.5935  0.2847
39076SOL    HW120121   8.635  10.622   9.117 -0.4691 -0.3220 -0.0779
39076SOL    HW220122   8.636  10.507   9.019  1.0614 -0.9317  0.6131
39077SOL     OW20123   7.108   8.326   3.516 -0.0647  0.1405  0.1518
39077SOL    HW120124   7.193   8.335   3.558 -0.4853 -0.4407  1.1688
39077SOL    HW220125   7.105   8.235   3.486 -0.9237 -0.3046  1.5140
39078SOL     OW20126   9.760   1.308   1.954  0.0568 -0.2091 -0.0023
39078SOL    HW120127   9.707   1.280   2.029 -1.9459  2.7533 -0.1513
39078SOL    HW220128   9.707   1.284   1.878  0.8210 -0.7356 -0.3856
39079SOL     OW20129   8.952   1.643   7.096  0.0455  0.2120  0.2866
39079SOL    HW120130   8.897   1.682   7.163  0.1076 -0.3655  0.6840
39079SOL    HW220131   8.893   1.586   7.047 -0.1405  1.1121 -0.5626
39080SOL     OW20132   6.855   1.213   3.837  0.2590 -0.4815 -0.9463
39080SOL    HW120133   6.815   1.199   3.923 -0.6539  0.8681 -1.1256
39080SOL    HW220134   6.924   1.278   3.852  0.5190 -0.7060 -1.1374
39081SOL     OW20135   9.632   0.574   2.451 -0.0198  0.0813 -0.3658
39081SOL    HW120136   9.717   0.571   2.407 -0.3691  2.2119 -1.2993
39081SOL    HW220137   9.644   0.519   2.529  1.8267 -0.6231 -1.0801
39082SOL     OW20138   3.349   1.926   3.123 -0.0773 -0.4497  0.5899
39082SOL    HW120139   3.321   1.844   3.163  0.4984 -1.2049 -0.4935
39082SOL    HW220140   3.444   1.916   3.113 -0.0543  0.1863  0.1077
39083SOL     OW20141   8.062   8.056   9.074  0.0364 -0.4677 -0.2506
39083SOL    HW120142   8.000   8.104   9.020 -0.0965 -2.2899 -1.8480
39083SOL    HW220143   8.111   8.124   9.121 -1.4365  1.1012 -0.8860
39084SOL     OW20144   7.884   4.623   6.392 -0.6457  0.5320 -0.5782
39084SOL    HW120145   7.945   4.661   6.455 -1.0935 -0.1894  0.3318
39084SOL    HW220146   7.926   4.542   6.364 -1.2355 -0.0534  0.1827
39085SOL     OW20147   1.257   9.634   0.091  0.4074  0.1721 -0.0146
39085SOL    HW120148   1.348   9.656   0.113  0.1246 -0.3546  1.8403
39085SOL    HW220149   1.204   9.694   0.143 -0.3289 -0.0133 -0.5307
39086SOL     OW20150   2.816   7.130  10.654  0.0681 -0.0719  0.3193
39086SOL    HW120151   2.812   7.178  10.737  1.1825  1.2781 -0.3643
39086SOL    HW220152   2.728   7.138  10.618  0.1408  1.2568  0.3635
39087SOL     OW20153   0.138   6.140   3.637 -0.2140  0.4519 -0.1533
39087SOL    HW120154   0.116   6.152   3.545 -1.1823 -0.9115 -0.1301
39087SOL    HW220155   0.215   6.196   3.651  0.6713 -0.1813 -2.0769
39088SOL     OW20156   7.169   7.382   8.622 -0.2761 -0.3816 -0.2473
39088SOL    HW120157   7.230   7.454   8.641  2.9348 -3.1314  0.8798
39088SOL    HW220158   7.115   7.415   8.549  2.0113  2.5894 -0.8091
39089SOL     OW20159   6.242   9.539   0.706 -0.0106 -0.3267  0.0282
39089SOL    HW120160   6.309   9.553   0.639 -1.2326  0.4544 -1.1016
39089SOL    HW220161   6.262   9.453   0.742  1.3217 -0.3086 -0.5856
39090SOL     OW20162   5.637   3.359   3.820  0.2974 -0.1813  0.0574
39090SOL    HW120163   5.685   3.308   3.755  0.5902  2.3932 -1.9390
39090SOL    HW220164   5.588   3.423   3.768  0.2744  1.8046  2.3532
39091SOL     OW20165   7.616   3.969   7.919  0.9356 -0.2367 -0.4606
39091SOL    HW120166   7.705   3.974   7.954  0.9604  0.5144 -0.6249
39091SOL    HW220167   7.566   3.925   7.988  1.1269  0.6362  0.2616
39092SOL     OW20168   8.315   9.824   8.976 -0.2824 -0.1449  0.3043
39092SOL    HW120169   8.258   9.747   8.985 -0.5090 -0.0941 -0.5800
39092SOL    HW220170   8.338   9.848   9.066 -0.5639 -0.9834  0.6084
39093SOL     OW20171   3.331  10.705   1.807  0.3775 -0.8859 -0.1943
39093SOL    HW120172   3.268  10.701   1.736  0.8809 -0.4190 -0.6714
39093SOL    HW220173   3.397  10.639   1.784  1.2403  0.1703 -0.8569
39094SOL     OW20174   7.336   1.950   7.268 -0.2818  0.0694  0.0382
39094SOL    HW120175   7.303   2.020   7.323 -1.3188  1.1678 -1.8922
39094SOL    HW220176   7.272   1.880   7.277 -0.5899  0.3469  0.0067
39095SOL     OW20177  10.358   0.759   7.946  0.3416  0.0044  0.3028
39095SOL    HW120178  10.276   0.758   7.896  1.0858  1.6374 -1.0395
39095SOL    HW220179  10.372   0.851   7.967  1.6169 -0.3022  0.8902
39096SOL     OW20180   9.585   4.704   4.662  0.3782  0.8143  0.3594
39096SOL    HW120181   9.625   4.617   4.667  1.5778  1.3904  1.2174
39096SOL    HW220182   9.599   4.742   4.749 -0.2892  1.8055  0.0511
39097SOL     OW20183   2.404   9.024   3.123  0.2502 -0.4623 -0.7525
39097SOL    HW120184   2.308   9.023   3.131  0.1314  2.8728 -0.0459
39097SOL    HW220185   2.421   9.014   3.030 -1.1585  2.7769 -1.5123
39098SOL     OW20186   1.589   6.870   6.400 -0.1364 -0.3850 -0.2656
39098SOL    HW120187   1.676   6.909   6.410  0.7394 -1.9740 -1.1347
39098SOL    HW220188   1.528   6.944   6.406  1.2541  0.7517  0.4864
39099SOL     OW20189   6.439   9.490   0.513  0.4017  0.2697  0.5362
39099SOL    HW120190   6.430   9.535   0.429  1.5161 -0.2908  0.1006
39099SOL    HW220191   6.533   9.487   0.529  0.2811 -0.8053  1.1540
39100SOL     OW20192   4.499   9.309   9.353 -0.1050 -0.2386 -0.1221
39100SOL    HW120193   4.535   9.393   9.381  2.0687 -0.6699 -1.4460
39100SOL    HW220194   4.484   9.262   9.435  0.9657  0.5182  0.5372
39101SOL     OW20195   5.036   3.712   9.965  0.3248  0.1261 -0.5751
39101SOL    HW120196   5.005   3.680   9.880  2.4333  0.5828 -1.6012
39101SOL    HW220197   5.045   3.807   9.953 -0.1986  0.3187  0.4657
39102SOL     OW20198   1.411   6.030   5.260 -0.0071  0.7178 -0.3167
39102SOL    HW120199   1.476   6.073   5.204  0.1391  2.0226  0.8045
39102SOL    HW220200   1.457   5.954   5.295 -0.0438 -0.0282 -1.7922
39103SOL     OW20201   4.653   8.745   0.649  0.1422 -0.3002  0.0278
39103SOL    HW120202   4.595   8.669   0.649 -0.0289 -0.1947 -1.0899
39103SOL    HW220203   4.596   8.820   0.636  0.5203 -0.2158 -1.2938
39104SOL     OW20204   2.339   1.105   8.849 -0.1613  0.0744  0.2560
39104SOL    HW120205   2.300   1.056   8.921 -0.7021 -0.1077 -0.1614
39104SOL    HW220206   2.271   1.110   8.783  0.4914 -0.1773 -0.4497
39105SOL     OW20207  10.191   0.212   2.314 -0.1100  0.1650 -0.4913
39105SOL    HW120208  10.221   0.163   2.390 -1.0038  0.0059 -0.2311
39105SOL    HW220209  10.105   0.175   2.294 -0.2394  0.7650 -1.0721
39106SOL     OW20210   9.020   2.723  10.137 -0.5798 -0.0356 -0.3974
39106SOL    HW120211   8.942   2.778  10.134  0.3730  1.6646  2.3421
39106SOL    HW220212   9.072   2.749  10.060 -2.1107 -0.3474 -1.5798
39107SOL     OW20213   4.545   9.534   8.384  0.3868 -0.7424  0.1536
39107SOL    HW120214   4.480   9.466   8.403  0.7446 -1.0510  0.2945
39107SOL    HW220215   4.584   9.554   8.469 -0.0586  0.0007  0.1930
39108SOL     OW20216   1.958   3.319   0.504 -0.1845 -0.4171  0.4591
39108SOL    HW120217   1.930   3.253   0.441  1.2767 -1.2720  0.6663
39108SOL    HW220218   1.946   3.402   0.458 -1.1379 -0.8710 -0.1519
39109SOL     OW20219   1.218   5.368   5.644  0.2940 -0.1129  0.1997
39109SOL    HW120220   1.240   5.341   5.733  1.2366 -0.3482 -0.1007
39109SOL    HW220221   1.140   5.422   5.655 -0.5950 -1.4761  1.0017
39110SOL     OW20222  10.304   8.840   2.929 -0.2409  0.0982  0.1572
39110SOL    HW120223  10.358   8.899   2.981 -0.4505 -0.7922  1.4541
39110SOL    HW220224  10.229   8.821   2.985 -1.0531 -0.0228 -0.9398
39111SOL     OW20225   6.869   3.594   8.495 -0.0847  0.1699 -0.2572
39111SOL    HW120226   6.898   3.516   8.543  0.9024  0.4534 -0.3707
39111SOL    HW220227   6.883   3.666   8.555 -1.6289  0.2048  0.0922
39112SOL     OW20228   6.561   1.136   7.962 -0.7040 -0.4306  0.2538
39112SOL    HW120229   6.572   1.078   7.887 -1.0639 -1.4566  0.9822
39112SOL    HW220230   6.640   1.124   8.014 -0.6501 -0.0446  0.2673
39113SOL     OW20231   3.683   6.284   1.963 -0.5094  0.2325 -0.2066
39113SOL    HW120232   3.689   6.218   2.032 -0.6245 -0.2965 -0.6945
39113SOL    HW220233   3.680   6.367   2.010 -2.1120 -0.1845  0.4882
39114SOL     OW20234   2.483   6.616   8.640 -0.5122 -0.2173 -0.3790
39114SOL    HW120235   2.496   6.524   8.619  1.3504 -0.4466  1.4659
39114SOL    HW220236   2.422   6.617   8.714  0.3063 -0.0630  0.3063
39115SOL     OW20237   3.246   9.642   6.411  0.2313  0.0936 -0.0053
39115SOL    HW120238   3.278   9.732   6.409 -0.6532  0.4613  0.9932
39115SOL    HW220239   3.319   9.591   6.446  0.6316  0.4721 -0.2855
39116SOL     OW20240   8.222   0.714   3.968  0.4171  0.2517  0.0107
39116SOL    HW120241   8.279   0.776   4.012 -0.0030  0.6266  0.0304
39116SOL    HW220242   8.276   0.635   3.958  0.7769  0.4359  0.4610
39117SOL     OW20243   5.476  10.217   9.009  0.5326  0.0569  0.2463
39117SOL    HW120244   5.545  10.191   9.070  1.1818 -0.4425 -0.6716
39117SOL    HW220245   5.416  10.270   9.061  2.4384  1.8696  0.7170
39118SOL     OW20246   5.685   0.860   3.114  0.1683 -0.3713  0.7489
39118SOL    HW120247   5.608   0.845   3.168 -0.1753 -0.7103  0.1723
39118SOL    HW220248   5.747   0.793   3.142 -0.0715 -0.6543  0.6065
39119SOL     OW20249   4.885   8.032   3.060 -0.2655 -0.4656  0.2724
39119SOL    HW120250   4.822   7.969   3.096  0.3745 -0.2879  1.7764
39119SOL    HW220251   4.834   8.112   3.048 -1.1206 -1.2436 -1.7833
39120SOL     OW20252  10.684   7.105   5.995 -0.4884  0.7582  0.4576
39120SOL    HW120253  10.614   7.170   6.001 -0.8996  0.6122 -1.7712
39120SOL    HW220254  10.647   7.026   6.033 -1.1043  1.0004  0.3763
39121SOL     OW20255   9.848   8.000   8.611  0.0015  0.4163  0.1544
39121SOL    HW120256   9.787   8.033   8.545  1.6402  1.0533 -1.1268
39121SOL    HW220257   9.817   7.912   8.630  0.6531 -0.6626 -3.1468
39122SOL     OW20258   8.830   9.565   1.909  0.1467 -0.3166  0.2268
39122SOL    HW120259   8.925   9.557   1.898 -0.0188 -0.7628 -0.9904
39122SOL    HW220260   8.819   9.591   2.001  1.3395 -2.7504  1.1492
39123SOL     OW20261  10.247  10.209   5.219 -0.6414  0.5434 -0.4469
39123SOL    HW120262  10.325  10.162   5.189  0.6078  0.6665  2.2721
39123SOL    HW220263  10.186  10.140   5.244  0.7328  0.1961  2.4045
39124SOL     OW20264   2.325   1.316   0.722  0.1850  0.5368 -0.1394
39124SOL    HW120265   2.353   1.232   0.756 -0.9325  0.7455  1.4031
39124SOL    HW220266   2.307   1.300   0.629 -0.3664 -1.0214  0.2165
39125SOL     OW20267  10.431  10.650   1.536 -0.2221 -0.3780  0.1027
39125SOL    HW120268  10.386  10.650   1.621 -0.0422 -0.8162  0.1994
39125SOL    HW220269  10.522  10.631   1.557 -0.1940 -0.5865 -0.1956
39126SOL     OW20270   8.794   1.257   1.223  0.7891  0.3068 -0.1523
39126SOL    HW120271   8.735   1.295   1.158 -2.9098  0.7745  3.0949
39126SOL    HW220272   8.807   1.167   1.194 -0.9140  0.4377 -1.4561
39127SOL     OW20273   9.750   6.892   9.036  0.3099 -0.0667  0.0154
39127SOL    HW120274   9.807   6.951   8.987 -1.0980  1.8185  0.5264
39127SOL    HW220275   9.679   6.870   8.975 -0.5014  0.8514  0.5950
39128SOL     OW20276   8.655   0.004   7.946  0.0383 -0.0231 -0.0628
39128SOL    HW120277   8.574   0.017   7.995 -0.6415  1.6568 -1.5459
39128SOL    HW220278   8.657  -0.089   7.927 -1.3254 -0.1619  0.3641
39129SOL     OW20279   1.615   7.228   5.685 -0.0286  0.2690 -0.2428
39129SOL    HW120280   1.668   7.253   5.609 -0.1502 -1.0229 -0.7850
39129SOL    HW220281   1.617   7.132   5.685 -0.8111  0.2296  0.8457
39130SOL     OW20282   3.661   1.534   5.603  0.0057  0.3111 -0.4876
39130SOL    HW120283   3.694   1.451   5.571 -1.6361 -0.5627 -0.0523
39130SOL    HW220284   3.661   1.525   5.699  1.1031  1.3665 -0.3507
39131SOL     OW20285   0.376   5.804   3.956 -0.0204  0.2228 -0.5347
39131SOL    HW120286   0.389   5.724   4.007  0.6324 -0.3196 -1.5076
39131SOL    HW220287   0.301   5.847   3.997 -1.9318 -2.0624 -1.3835
39132SOL     OW20288   5.749   0.296   4.095  0.5733 -0.3086 -0.5779
39132SOL    HW120289   5.763   0.256   4.181  1.7751  2.6504  0.7446
39132SOL    HW220290   5.837   0.305   4.058  0.4963  1.8862 -0.3561
39133SOL     OW20291  10.275   9.343   2.136  0.3966  0.0734  0.1497
39133SOL    HW120292  10.284   9.253   2.104  1.9375  0.1696  0.2410
39133SOL    HW220293  10.307   9.340   2.226  1.3670  0.8756 -0.1517
39134SOL     OW20294   3.546   5.855   1.251  0.0693 -0.2236  0.4332
39134SOL    HW120295   3.624   5.839   1.197 -0.3125 -1.6702  0.2923
39134SOL    HW220296   3.575   5.838   1.341 -0.8427 -4.2342  0.1561
39135SOL     OW20297   8.459   3.624   1.274 -0.2065  0.0534  0.0734
39135SOL    HW120298   8.437   3.602   1.184 -2.5865 -0.3008  0.6814
39135SOL    HW220299   8.375   3.627   1.320  0.8573  1.0788  2.1056
39136SOL     OW20300   8.767   7.361   1.035 -0.2542  0.5655 -0.3164
39136SOL    HW120301   8.830   7.288   1.035 -2.0135 -1.1874  3.3423
39136SOL    HW220302   8.725   7.356   0.949 -0.0444 -2.5588 -0.3373
39137SOL     OW20303   5.624   2.810   5.278  0.2779 -0.3454 -0.0007
39137SOL    HW120304   5.662   2.791   5.364  1.2276  0.9945 -0.1036
39137SOL    HW220305   5.677   2.761   5.216  0.6634  0.0285  0.0308
39138SOL     OW20306   5.666   5.169   5.801 -0.1176  0.1083  0.1354
39138SOL    HW120307   5.671   5.074   5.792  0.8334  0.1764 -0.1871
39138SOL    HW220308   5.743   5.193   5.853  0.3995  0.8170 -0.9125
39139SOL     OW20309   8.937   3.878   2.306  0.2291 -0.7688 -0.2510
39139SOL    HW120310   8.850   3.878   2.345  0.1736 -2.3239 -0.3050
39139SOL    HW220311   8.921   3.887   2.212  0.1412 -0.9060 -0.2488
39140SOL     OW20312   5.665   0.225  10.561 -0.2898  0.2301 -0.4004
39140SOL    HW120313   5.625   0.165  10.624 -0.1120 -1.7986 -2.1432
39140SOL    HW220314   5.678   0.306  10.611 -0.9680 -0.9944  1.9018
39141SOL     OW20315   3.834   3.687  10.361  0.3737  0.1991 -0.2469
39141SOL    HW120316   3.876   3.739  10.293 -0.0964  0.2714 -0.4908
39141SOL    HW220317   3.870   3.599  10.351  0.1301  0.1518 -0.7513
39142SOL     OW20318   0.109   8.815   2.200 -0.3633 -0.0532 -0.0981
39142SOL    HW120319   0.117   8.881   2.132 -0.1950  0.4672  0.4173
39142SOL    HW220320   0.018   8.785   2.195 -0.0111 -1.0113 -1.4399
39143SOL     OW20321   7.614   4.359  10.408  0.7210 -0.4361 -0.1154
39143SOL    HW120322   7.563   4.305  10.468  1.0465  0.0768  0.6396
39143SOL    HW220323   7.572   4.445  10.412  2.2140  0.2882  1.3166
39144SOL     OW20324   2.298   0.602   9.155  1.0493 -0.0582 -0.1597
39144SOL    HW120325   2.264   0.607   9.244  1.7964 -1.4668  0.2317
39144SOL    HW220326   2.322   0.510   9.144 -0.3596 -0.2356 -2.3265
39145SOL     OW20327   8.827   0.494   7.983 -0.3484 -0.0627  0.1550
39145SOL    HW120328   8.804   0.574   7.936 -0.4369 -0.7218 -0.9532
39145SOL    HW220329   8.867   0.438   7.917 -2.8981 -2.0886  0.1605
39146SOL     OW20330   1.285   9.294   9.718 -0.4877 -0.5177 -0.3568
39146SOL    HW120331   1.200   9.333   9.694 -0.3674 -0.2580 -0.3649
39146SOL    HW220332   1.275   9.272   9.811 -0.2451  0.3935 -0.0975
39147SOL     OW20333   6.613   3.689   6.912  0.1594  0.6528 -0.1855
39147SOL    HW120334   6.611   3.722   7.002  1.1660  1.0116 -0.2830
39147SOL    HW220335   6.595   3.596   6.920 -0.0305  0.7383  0.3688
39148SOL     OW20336   3.043   8.579   0.065  0.2036 -0.2135 -0.6367
39148SOL    HW120337   3.051   8.650   0.001  0.3274  0.0138 -0.3686
39148SOL    HW220338   2.978   8.520   0.027 -2.4282  1.6581  0.6120
39149SOL     OW20339   6.428   8.207   0.274 -0.5915 -0.2685 -0.4020
39149SOL    HW120340   6.409   8.301   0.281 -1.4792 -0.5408  1.7549
39149SOL    HW220341   6.380   8.179   0.196 -0.6829  0.9892 -0.8230
39150SOL     OW20342  10.195  10.656   3.454 -0.3008  0.4533 -0.2278
39150SOL    HW120343  10.153  10.581   3.495  3.0567 -0.8788  1.1138
39150SOL    HW220344  10.186  10.727   3.517  0.9121 -0.3139  0.8390
39151SOL     OW20345   2.866   2.149   3.634 -0.3825 -0.5463  0.4778
39151SOL    HW120346   2.865   2.069   3.582  0.1531  0.6555 -1.4736
39151SOL    HW220347   2.958   2.177   3.634 -0.9218  1.5440 -1.3580
39152SOL     OW20348   1.947   5.234   9.519 -0.3768 -0.2812  0.0402
39152SOL    HW120349   1.884   5.164   9.500 -2.0193  0.9084  0.8545
39152SOL    HW220350   1.924   5.305   9.459  1.0288 -0.2686 -0.5176
39153SOL     OW20351   4.683  10.619   6.235 -0.0807 -0.4228 -0.0398
39153SOL    HW120352   4.756  10.681   6.230 -0.2650 -0.2393 -0.5542
39153SOL    HW220353   4.626  10.644   6.162 -0.0804 -1.2920 -0.3514
39154SOL     OW20354   3.396   1.819   5.589  0.0112 -0.1361 -0.2136
39154SOL    HW120355   3.406   1.872   5.668 -0.4331 -1.4951  0.8000
39154SOL    HW220356   3.317   1.767   5.606 -0.5740  0.1368 -1.9248
39155SOL     OW20357   0.748   8.949   5.615  0.2650  0.3557 -0.3286
39155SOL    HW120358   0.662   8.943   5.573 -0.2001 -0.7856  0.7222
39155SOL    HW220359   0.729   8.962   5.707  1.0537 -2.7532  0.4101
39156SOL     OW20360   3.335   8.031   6.735 -0.2416 -0.5722 -0.0827
39156SOL    HW120361   3.353   8.042   6.829 -1.1005 -3.2704  0.4787
39156SOL    HW220362   3.253   8.080   6.721 -0.6610 -0.9727  0.8366
39157SOL     OW20363   7.081   6.573   9.638 -0.6352 -0.3745  0.1151
39157SOL    HW120364   7.021   6.621   9.695 -1.9055 -2.8439  0.9941
39157SOL    HW220365   7.057   6.600   9.550 -1.4493  0.4452  0.5719
39158SOL     OW20366   8.964   2.467   0.839  0.0176 -0.1093 -0.2760
39158SOL    HW120367   8.965   2.524   0.916 -2.2496 -0.7956  0.3455
39158SOL    HW220368   9.048   2.482   0.796  0.0843  2.5977  0.6407
39159SOL     OW20369   4.109   1.669   2.620  0.2736  0.1328  0.3592
39159SOL    HW120370   4.063   1.753   2.612 -0.1035 -0.1012  0.0733
39159SOL    HW220371   4.040   1.605   2.635  0.4983 -0.2346 -0.1525
39160SOL     OW20372   7.076   7.481   1.911  0.5465 -0.3318  0.3553
39160SOL    HW120373   7.138   7.540   1.869 -0.7532  0.6432 -0.2717
39160SOL    HW220374   6.999   7.481   1.853  0.3299 -2.3353  0.5386
39161SOL     OW20375   5.627   7.063   9.541 -0.5316  0.2518  0.5700
39161SOL    HW120376   5.532   7.066   9.537 -0.6354 -1.4169  1.0046
39161SOL    HW220377   5.652   7.001   9.473  0.2632  0.7960  0.3535
39162SOL     OW20378   2.514   5.973   5.383 -0.0013  0.3608  0.0407
39162SOL    HW120379   2.452   5.901   5.373  0.2716  0.0330  0.6283
39162SOL    HW220380   2.579   5.939   5.445  0.5130  0.8615 -0.2253
39163SOL     OW20381   5.283   7.581   0.807  0.1197  0.1618  0.2373
39163SOL    HW120382   5.230   7.660   0.804 -1.4957 -0.8912 -0.7651
39163SOL    HW220383   5.224   7.513   0.841  0.6033 -1.1752 -1.4202
39164SOL     OW20384   9.683   9.398   9.619  0.2101  0.0332 -0.2300
39164SOL    HW120385   9.720   9.432   9.700 -2.1592  0.6728  0.6786
39164SOL    HW220386   9.590   9.422   9.623 -0.5650 -2.2834 -1.8686
39165SOL     OW20387   8.590   9.977   2.659 -0.0841  0.5488 -0.4556
39165SOL    HW120388   8.571   9.901   2.604  0.3458  0.2667 -0.2273
39165SOL    HW220389   8.505  10.011   2.685 -0.2829  0.3807 -0.8835
39166SOL     OW20390   7.449   6.473   5.452 -0.7145 -0.1456  0.3396
39166SOL    HW120391   7.373   6.463   5.510 -0.8536  0.7481  0.3168
39166SOL    HW220392   7.468   6.384   5.422 -1.1340 -0.5109  1.1295
39167SOL     OW20393   5.315   8.737   8.800  0.3449 -0.1385  0.5272
39167SOL    HW120394   5.281   8.660   8.755 -0.1835 -0.1030  0.8532
39167SOL    HW220395   5.321   8.711   8.892  0.5387  0.0851  0.5815
39168SOL     OW20396   2.248   0.539   2.945  0.1337  0.9390  0.0834
39168SOL    HW120397   2.343   0.551   2.939  0.7371 -2.3901  1.1851
39168SOL    HW220398   2.220   0.607   3.006  2.0924  0.9717  1.0376
39169SOL     OW20399   2.213   2.144   0.838  0.1266  0.0612 -0.3185
39169SOL    HW120400   2.218   2.134   0.743  1.0291  1.2217 -0.4146
39169SOL    HW220401   2.291   2.100   0.871 -0.7341 -1.2829 -0.0076
39170SOL     OW20402   8.486   5.165   5.801 -0.4319 -0.0466  0.4935
39170SOL    HW120403   8.424   5.179   5.873 -1.1349 -1.0749  0.1154
39170SOL    HW220404   8.475   5.242   5.745  0.1439  0.7783  1.4791
39171SOL     OW20405   4.630   7.204   7.154  0.1123 -0.0717 -0.2737
39171SOL    HW120406   4.640   7.109   7.158 -0.2924 -0.0830  1.5257
39171SOL    HW220407   4.616   7.230   7.245  0.4692  1.7491 -0.7033
39172SOL     OW20408   3.099   8.684   7.055 -0.5360 -0.2616  0.0394
39172SOL    HW120409   3.179   8.683   7.108 -0.6723 -0.3420  0.2462
39172SOL    HW220410   3.119   8.626   6.981 -0.0260  0.5554 -0.4849
39173SOL     OW20411   1.162   6.338   9.563  0.0678 -0.1261  0.5486
39173SOL    HW120412   1.095   6.329   9.496  0.5271  1.3708 -0.1541
39173SOL    HW220413   1.245   6.337   9.515  0.4340  0.3940  1.1467
39174SOL     OW20414   2.586   4.434   9.321 -0.3329 -0.6377  0.5299
39174SOL    HW120415   2.558   4.424   9.230  0.6953  0.8310  0.0235
39174SOL    HW220416   2.676   4.402   9.322 -0.8143 -2.0540  1.3909
39175SOL     OW20417   3.595   7.387   7.404  0.0499 -0.1648 -0.3075
39175SOL    HW120418   3.578   7.390   7.498 -0.2313  1.4061 -0.3862
39175SOL    HW220419   3.690   7.399   7.396  0.1520 -0.8647 -0.2129
39176SOL     OW20420   7.328   1.379   8.539 -0.6389 -0.0831  0.3223
39176SOL    HW120421   7.249   1.417   8.578 -1.6830 -1.5190 -0.3040
39176SOL    HW220422   7.304   1.289   8.518  1.4886 -0.8977  1.0406
39177SOL     OW20423   3.686   7.316   0.450  0.1336  0.2408 -0.0044
39177SOL    HW120424   3.593   7.303   0.469  0.2942  1.9283  2.5164
39177SOL    HW220425   3.688   7.397   0.399  0.1490 -0.8974 -1.8975
39178SOL     OW20426   7.191   5.022   3.187 -0.4513  0.0061  0.3100
39178SOL    HW120427   7.222   5.003   3.275 -0.3652 -2.2018 -0.1454
39178SOL    HW220428   7.255   4.980   3.129 -1.0653  0.5289 -0.7820
39179SOL     OW20429   2.000   4.768   4.198  0.1178 -0.2021  0.1267
39179SOL    HW120430   1.951   4.756   4.117  2.8583  0.5286 -1.7933
39179SOL    HW220431   1.990   4.861   4.219  1.0700  0.0853 -0.6071
39180SOL     OW20432   4.237   8.373   3.945  0.0649 -0.1534 -0.3674
39180SOL    HW120433   4.311   8.346   3.891 -0.0819  1.6652 -1.5631
39180SOL    HW220434   4.188   8.434   3.890 -1.8256 -0.5979  0.7284
39181SOL     OW20435   0.638   1.747   7.223  0.1301 -0.5180 -0.0597
39181SOL    HW120436   0.609   1.759   7.132  0.9471 -0.0498 -0.2666
39181SOL    HW220437   0.602   1.822   7.270  1.5352  0.4558 -0.4608
39182SOL     OW20438   7.901   4.541   9.876  0.6526  0.0213  0.2030
39182SOL    HW120439   7.965   4.611   9.890  1.2298 -0.4298 -0.1425
39182SOL    HW220440   7.836   4.554   9.945  0.0839  1.6325 -0.5924
39183SOL     OW20441   9.040   2.425   5.675  0.3256  0.1683 -0.4096
39183SOL    HW120442   9.064   2.354   5.735  0.5887  1.1936  0.7437
39183SOL    HW220443   9.123   2.459   5.643  0.2545  0.6569 -0.0934
39184SOL     OW20444   8.055   7.427   9.876 -0.3916  0.1969  0.4986
39184SOL    HW120445   8.087   7.465   9.794  0.9431 -0.0242  0.8983
39184SOL    HW220446   7.961   7.444   9.875 -0.1509  1.6084 -0.3207
39185SOL     OW20447   9.929   2.906   4.332 -0.5975 -0.1126  0.4283
39185SOL    HW120448   9.955   2.996   4.315 -2.9566  0.4716 -0.6077
39185SOL    HW220449   9.970   2.856   4.262  2.3097 -0.2581  2.0874
39186SOL     OW20450  10.082   8.968   3.429 -0.0826 -0.1515  0.0837
39186SOL    HW120451  10.140   9.023   3.482 -0.0091 -1.0894  1.0162
39186SOL    HW220452  10.131   8.887   3.416 -1.3229 -1.1662  1.3169
39187SOL     OW20453   9.966   3.916   9.843  0.6685 -0.5756 -0.8634
39187SOL    HW120454   9.880   3.946   9.874  0.0724 -2.2737 -0.7616
39187SOL    HW220455   9.998   3.988   9.789  0.3269  1.1606  1.1269
39188SOL     OW20456   4.014   2.391   6.226 -0.7437 -0.5518  0.2193
39188SOL    HW120457   4.030   2.361   6.316 -1.4253 -0.0251  0.5234
39188SOL    HW220458   4.033   2.484   6.227  1.3199 -0.8987 -0.7203
39189SOL     OW20459   0.262   1.545   7.323  0.0520  0.2448 -0.1677
39189SOL    HW120460   0.201   1.504   7.385  0.5026 -1.6303 -0.9130
39189SOL    HW220461   0.211   1.555   7.243  0.1024  0.6546 -0.1488
39190SOL     OW20462   1.526   6.839   0.214  0.4577  0.6965 -0.1936
39190SOL    HW120463   1.447   6.792   0.240 -0.5160  3.7416  3.1632
39190SOL    HW220464   1.505   6.878   0.129 -0.0709 -1.7010 -1.2263
39191SOL     OW20465   4.664   7.578   6.548 -0.2689  0.3074 -0.4063
39191SOL    HW120466   4.580   7.624   6.553 -1.2308 -1.4956  1.2526
39191SOL    HW220467   4.728   7.640   6.584 -1.5418  0.3793  1.8958
39192SOL     OW20468   1.449  10.069   7.108 -0.1562  0.4082 -0.7459
39192SOL    HW120469   1.462  10.140   7.170  0.9600 -1.1526  0.9235
39192SOL    HW220470   1.523  10.075   7.048  1.2957 -0.7008  0.8444
39193SOL     OW20471   4.150   4.740   8.885 -0.7138 -0.8850 -0.0992
39193SOL    HW120472   4.056   4.756   8.883 -0.4144  1.1839  0.4171
39193SOL    HW220473   4.186   4.795   8.815  0.2064 -0.8969  0.3495
39194SOL     OW20474   9.766   3.123   0.063  0.1693 -0.8094  0.3707
39194SOL    HW120475   9.766   3.092  -0.027  0.1198 -0.1044  0.1263
39194SOL    HW220476   9.673   3.135   0.084  0.1774 -1.0223  0.5382
39195SOL     OW20477   6.570   1.525   4.961 -0.4984 -0.0252 -0.1114
39195SOL    HW120478   6.631   1.505   4.890  0.0903 -0.6187  0.5388
39195SOL    HW220479   6.505   1.583   4.922 -1.1704 -1.6951 -1.5860
39196SOL     OW20480   2.486   7.761   5.193  0.0252  0.1741  0.2366
39196SOL    HW120481   2.532   7.790   5.114  3.3353 -0.4229  1.7908
39196SOL    HW220482   2.445   7.840   5.228  1.1458  1.0894 -0.4455
39197SOL     OW20483   3.842   5.063   2.300  0.5778 -0.4764  0.2889
39197SOL    HW120484   3.897   4.986   2.317  1.1606 -0.4697 -1.4273
39197SOL    HW220485   3.782   5.036   2.231  0.4696  0.4599  0.0004
39198SOL     OW20486   1.424   0.912   6.116  0.4870  0.5151  0.0072
39198SOL    HW120487   1.484   0.973   6.072 -0.0210 -0.0690 -1.5680
39198SOL    HW220488   1.465   0.895   6.201  0.6157  3.0763  0.5331
39199SOL     OW20489   4.450   3.641   3.438 -0.4457  0.7605  0.0333
39199SOL    HW120490   4.495   3.676   3.361  0.4618 -2.2210 -0.9366
39199SOL    HW220491   4.511   3.577   3.474 -2.9267 -1.8701 -0.0339
39200SOL     OW20492  10.142   5.110   4.270  0.0763  0.4315  0.6778
39200SOL    HW120493  10.232   5.092   4.297  1.0825  2.0196 -1.3751
39200SOL    HW220494  10.124   5.045   4.202 -0.4489 -0.0385  1.2504
39201SOL     OW20495   9.918   9.386   5.619 -0.6794 -0.6610 -0.0575
39201SOL    HW120496   9.883   9.421   5.537  1.0471 -0.8339 -0.9201
39201SOL    HW220497   9.965   9.307   5.592  1.6061  0.3273  0.7366
39202SOL     OW20498   0.078   0.906   1.982 -0.4622 -0.3591 -0.3738
39202SOL    HW120499   0.158   0.910   2.034 -0.5521 -1.5568 -0.1041
39202SOL    HW220500   0.033   0.988   2.000  0.2271 -0.1172  0.2742
39203SOL     OW20501   6.730   8.648   5.224  0.3409  0.0140  0.3190
39203SOL    HW120502   6.799   8.619   5.284  1.8403  1.2942 -0.6943
39203SOL    HW220503   6.682   8.714   5.273  1.4176  0.8880  0.2493
39204SOL     OW20504   1.976   6.195   2.086  0.1492  0.3055 -0.1683
39204SOL    HW120505   2.031   6.273   2.090  0.9978 -0.3029  0.5489
39204SOL    HW220506   2.008   6.140   2.158 -0.5287 -0.6354 -0.5686
39205SOL     OW20507   5.060   4.087   1.653 -0.6041  0.4357  0.3741
39205SOL    HW120508   5.139   4.038   1.632 -0.7870  1.0777 -2.1580
39205SOL    HW220509   5.079   4.127   1.738  2.0940  1.0964 -0.4257
39206SOL     OW20510  10.757   8.869   3.668 -0.2410 -0.2340  0.0738
39206SOL    HW120511  10.667   8.879   3.697 -0.7378  0.2191 -1.5503
39206SOL    HW220512  10.781   8.780   3.697 -1.5499 -0.7602 -0.3790
39207SOL     OW20513  10.482   6.532   3.427  0.2277 -0.3852  0.3779
39207SOL    HW120514  10.517   6.498   3.345  0.7754  0.0669  0.4142
39207SOL    HW220515  10.393   6.560   3.405  0.3496 -0.3179 -0.0492
39208SOL     OW20516   8.001   1.680   1.253  0.2334  0.7585 -0.4468
39208SOL    HW120517   8.049   1.606   1.216  0.7496  1.3794 -1.0440
39208SOL    HW220518   7.939   1.705   1.184  0.2577  1.0635 -0.3598
39209SOL     OW20519   1.892  10.050   5.618 -0.5567 -0.1108 -0.4305
39209SOL    HW120520   1.978  10.073   5.653 -1.2436  2.9420 -0.4627
39209SOL    HW220521   1.879  10.111   5.545 -2.5456 -0.8149 -0.7325
39210SOL     OW20522   3.533   3.083   1.055 -0.3270  0.2887  0.1578
39210SOL    HW120523   3.577   3.123   1.130  0.2863 -0.4044  0.1844
39210SOL    HW220524   3.604   3.062   0.994 -0.8182  0.7946 -0.5946
39211SOL     OW20525   0.530   4.561   0.242  0.3230 -0.0784 -0.2520
39211SOL    HW120526   0.513   4.595   0.330  0.2373  0.8092 -0.6054
39211SOL    HW220527   0.454   4.589   0.191  0.2667 -0.7799 -0.5604
39212SOL     OW20528   4.999   9.432   8.785 -0.1452  0.0271 -0.1612
39212SOL    HW120529   4.947   9.488   8.728 -0.4390 -1.2400 -1.1909
39212SOL    HW220530   4.935   9.372   8.824  0.0765  0.7567  1.3977
39213SOL     OW20531   3.990   0.055   6.973 -0.1465  0.5798  0.0955
39213SOL    HW120532   3.975   0.068   6.879 -0.6704  0.6019  0.1800
39213SOL    HW220533   4.047  -0.022   6.977 -0.9672 -0.0643 -0.2067
39214SOL     OW20534   7.251   9.235   0.062 -0.0502 -0.4694 -0.3989
39214SOL    HW120535   7.260   9.142   0.083 -0.3161 -0.4447 -0.1703
39214SOL    HW220536   7.194   9.270   0.131 -0.1924 -0.1974 -0.6505
39215SOL     OW20537   2.058   9.867   1.567 -0.5641  0.1923 -0.2837
39215SOL    HW120538   2.086   9.957   1.580 -1.8037  0.7254 -1.0914
39215SOL    HW220539   2.022   9.841   1.652 -0.7684  0.6745 -0.2177
39216SOL     OW20540   1.729   4.021   5.442  0.3669  1.1222 -0.1495
39216SOL    HW120541   1.671   4.054   5.512 -0.2907  0.5344 -0.4035
39216SOL    HW220542   1.731   3.926   5.455  0.1335  0.9901 -1.0022
39217SOL     OW20543   3.829   5.704   8.475 -0.8195 -0.2720  0.1950
39217SOL    HW120544   3.854   5.629   8.528  0.0468 -0.3420 -0.2912
39217SOL    HW220545   3.793   5.666   8.395  1.0157 -0.2296 -0.7144
39218SOL     OW20546   5.793   3.003   3.886 -0.0014  0.1157 -0.2826
39218SOL    HW120547   5.789   3.023   3.792  0.8769  0.1725 -0.3208
39218SOL    HW220548   5.766   3.084   3.929 -1.0390 -0.1089 -0.4847
39219SOL     OW20549   8.639   3.782   6.756 -0.1111 -0.3514 -0.0851
39219SOL    HW120550   8.610   3.873   6.753  0.4253 -0.2016 -1.7733
39219SOL    HW220551   8.603   3.743   6.677 -0.2408 -1.6075  0.5615
39220SOL     OW20552   8.360   6.409   0.083  0.4739  0.4176 -0.2560
39220SOL    HW120553   8.321   6.487   0.043  0.0099  1.1582  1.5600
39220SOL    HW220554   8.289   6.370   0.133  1.6510  1.0132  1.9921
39221SOL     OW20555   5.633   0.913   9.667 -0.2615  0.4742 -0.3704
39221SOL    HW120556   5.541   0.890   9.680  0.0304 -0.4162  0.1470
39221SOL    HW220557   5.676   0.830   9.648  0.2781  1.0146 -1.5809
39222SOL     OW20558   6.159   2.692   4.090 -0.0522 -0.1691 -0.6341
39222SOL    HW120559   6.083   2.704   4.148  0.2842 -0.5082 -0.1182
39222SOL    HW220560   6.122   2.656   4.010 -0.5358  0.3954 -0.6703
39223SOL     OW20561   6.339   3.306   6.339  0.7293 -0.7262 -0.3587
39223SOL    HW120562   6.406   3.375   6.342 -0.0188  0.0186  2.5036
39223SOL    HW220563   6.260   3.351   6.308  0.2803 -0.2639  1.3614
39224SOL     OW20564  10.243   0.669   0.107 -0.2332 -0.7531  0.2056
39224SOL    HW120565  10.235   0.639   0.017 -3.0068 -0.6300  0.3345
39224SOL    HW220566  10.190   0.607   0.158 -0.1113  0.1704  1.5121
39225SOL     OW20567   9.711   7.816   7.063 -0.5652  0.3726  0.1060
39225SOL    HW120568   9.793   7.792   7.106  0.7443  2.6012 -0.9881
39225SOL    HW220569   9.731   7.813   6.970 -2.4040 -1.1037 -0.3194
39226SOL     OW20570   1.763   9.352   2.372  0.0657 -0.5196 -0.3093
39226SOL    HW120571   1.727   9.359   2.284  0.1563 -0.5213 -0.3460
39226SOL    HW220572   1.709   9.412   2.425  0.8615  0.4998 -0.6283
39227SOL     OW20573  10.137   0.386   7.217 -0.0944  1.0638  0.3641
39227SOL    HW120574  10.149   0.392   7.312 -0.9814  0.6645  0.5159
39227SOL    HW220575  10.225   0.394   7.181  0.3148  0.7256  1.2497
39228SOL     OW20576   1.013   4.963   8.287  0.7395 -0.0228 -0.3345
39228SOL    HW120577   0.990   5.026   8.219  1.9306 -0.2283 -0.9611
39228SOL    HW220578   0.955   4.889   8.271  0.2672  0.3681 -0.4484
39229SOL     OW20579   5.615   0.830  10.536 -0.0269  0.7157  0.1649
39229SOL    HW120580   5.702   0.851  10.503 -0.1860  0.4262 -0.4517
39229SOL    HW220581   5.555   0.870  10.474 -0.3391  0.9244  0.5921
39230SOL     OW20582   5.741   2.747   0.685  0.0438  0.4972 -0.4478
39230SOL    HW120583   5.808   2.705   0.630 -0.4924 -0.1566 -0.6174
39230SOL    HW220584   5.698   2.674   0.729 -0.5594  0.9136 -0.3476
39231SOL     OW20585   6.393   4.045   1.864 -0.0185  0.2134 -0.2844
39231SOL    HW120586   6.359   4.096   1.791  0.3770 -0.2410 -0.7970
39231SOL    HW220587   6.456   4.103   1.906  2.7436 -0.7955 -2.6822
39232SOL     OW20588  10.206   4.316   9.462 -0.0656  1.0104 -0.2755
39232SOL    HW120589  10.224   4.385   9.398 -1.5412  0.5657 -1.1878
39232SOL    HW220590  10.238   4.236   9.421 -0.8382  0.7510 -0.3688
39233SOL     OW20591  10.226   5.152   0.683  0.0238 -0.0869 -0.1049
39233SOL    HW120592  10.232   5.175   0.776  1.6367  1.4769 -0.5348
39233SOL    HW220593  10.212   5.235   0.639 -0.0930 -0.7256 -1.3155
39234SOL     OW20594   1.864   7.896   5.936 -0.2823  0.0142  0.5095
39234SOL    HW120595   1.875   7.801   5.931  3.5478  0.3065  0.0725
39234SOL    HW220596   1.800   7.909   6.006  1.4700 -2.8952  2.9018
39235SOL     OW20597   7.116   2.677   7.726 -0.5147  0.4056 -0.3638
39235SOL    HW120598   7.077   2.620   7.792  1.7006  0.1967  0.8689
39235SOL    HW220599   7.189   2.719   7.771  0.5866  0.8939 -2.4641
39236SOL     OW20600   6.141   6.845   3.591 -0.2302 -0.3933 -1.0051
39236SOL    HW120601   6.154   6.915   3.526  0.4551 -0.2747 -0.7443
39236SOL    HW220602   6.229   6.814   3.611 -0.3487  0.1742  0.5163
39237SOL     OW20603   9.710   5.250   7.392  0.5206 -0.0055  0.4052
39237SOL    HW120604   9.614   5.239   7.395  0.6441 -1.3362  0.2913
39237SOL    HW220605   9.723   5.344   7.389 -0.7443  0.2890  2.1981
39238SOL     OW20606   5.577   1.969   6.156 -0.0287 -0.2012  0.1411
39238SOL    HW120607   5.666   2.001   6.164 -0.1535  0.1138  0.2871
39238SOL    HW220608   5.585   1.884   6.113  0.3899 -0.4203  0.6402
39239SOL     OW20609   5.131   1.582   0.383  0.2597 -0.0469 -0.2551
39239SOL    HW120610   5.179   1.542   0.456  0.0563 -2.1861 -1.2038
39239SOL    HW220611   5.200   1.607   0.321  0.2824 -1.2610 -0.7391
39240SOL     OW20612   7.873   6.749   3.091  0.0251 -0.7421 -0.7148
39240SOL    HW120613   7.964   6.718   3.093 -0.5078 -2.4280  1.5198
39240SOL    HW220614   7.842   6.737   3.181 -1.6884  2.1965 -0.8119
39241SOL     OW20615   2.029   8.157   0.772 -0.1927  0.3419 -0.2526
39241SOL    HW120616   2.025   8.066   0.741 -1.8059  0.1508  0.4164
39241SOL    HW220617   2.116   8.187   0.746  0.1570 -1.2034 -1.0105
39242SOL     OW20618  10.570   2.954   7.918  0.0003  0.1864 -0.0297
39242SOL    HW120619  10.609   3.041   7.912  1.8568 -0.2750  3.0033
39242SOL    HW220620  10.633   2.896   7.876 -0.4760  0.1000 -0.6423
39243SOL     OW20621   3.881   9.910   1.314  0.0058 -0.0978  0.2501
39243SOL    HW120622   3.950   9.975   1.324  0.4988 -0.5604 -0.0308
39243SOL    HW220623   3.819   9.929   1.384 -0.8719  1.8911 -0.9748
39244SOL     OW20624  10.394   8.633   6.487 -0.1267  0.4876  0.0744
39244SOL    HW120625  10.437   8.619   6.402  0.0310  1.0735  0.0580
39244SOL    HW220626  10.317   8.686   6.468  0.6487  1.7932  0.4664
39245SOL     OW20627   8.762  10.543   0.796  0.0631 -0.2794  0.7726
39245SOL    HW120628   8.762  10.634   0.766  0.0806 -0.7211 -0.6865
39245SOL    HW220629   8.673  10.527   0.827 -0.9324 -0.6258 -1.9572
39246SOL     OW20630   8.000   0.999   2.011  0.0354 -0.0367  0.2188
39246SOL    HW120631   7.964   1.032   1.929 -1.0165 -0.3361  0.5398
39246SOL    HW220632   8.095   1.007   2.001 -0.1211  1.5592 -0.3351
39247SOL     OW20633   5.380   1.222   9.228 -0.1715  0.0538 -0.2176
39247SOL    HW120634   5.368   1.138   9.271  0.1486  0.6177  1.0277
39247SOL    HW220635   5.474   1.225   9.208 -0.2541 -0.0490 -0.6310
39248SOL     OW20636   2.326   2.532   9.596  0.3121 -0.0988  0.1650
39248SOL    HW120637   2.299   2.468   9.662  1.2697 -0.7023 -0.0073
39248SOL    HW220638   2.313   2.487   9.512 -1.6763  0.9532 -0.1496
39249SOL     OW20639   4.813   8.551   0.373 -0.3168 -0.3328 -0.1472
39249SOL    HW120640   4.834   8.614   0.441 -1.4355  0.2818 -0.3501
39249SOL    HW220641   4.844   8.467   0.407  0.1390  0.1394  0.6210
39250SOL     OW20642   7.351   3.321   7.611  0.7627 -0.5865  0.1662
39250SOL    HW120643   7.441   3.346   7.634  1.0490 -0.7977 -0.6599
39250SOL    HW220644   7.326   3.257   7.677  1.6395 -1.3603 -0.2249
39251SOL     OW20645   8.148   7.899   0.611 -0.4563 -0.7539  0.3980
39251SOL    HW120646   8.111   7.968   0.666 -1.6524  0.1737 -1.4523
39251SOL    HW220647   8.222   7.865   0.661 -0.2524  1.4157  1.6801
39252SOL     OW20648   2.719   9.432   1.225  0.4528  0.0275  0.7137
39252SOL    HW120649   2.652   9.488   1.185  1.4642  0.9757  0.2778
39252SOL    HW220650   2.674   9.351   1.245 -0.5918  0.2797 -0.4699
39253SOL     OW20651   0.817   3.850   4.521  0.0022  0.5427  0.2261
39253SOL    HW120652   0.794   3.922   4.580  0.1687  1.1406 -0.4194
39253SOL    HW220653   0.913   3.855   4.514 -0.0181  0.4944 -0.1076
39254SOL     OW20654   7.110   3.925   8.510 -0.3956  0.3115 -0.1001
39254SOL    HW120655   7.124   3.991   8.577  0.7514 -0.7040  0.7089
39254SOL    HW220656   7.038   3.871   8.544  0.8491 -0.8202  0.8727
39255SOL     OW20657   0.783   2.854   1.652  0.0216 -0.1342  0.5877
39255SOL    HW120658   0.799   2.943   1.683  1.3576 -0.4586  0.9372
39255SOL    HW220659   0.804   2.799   1.727 -2.3713 -0.7106  0.9073
39256SOL     OW20660   3.182   5.762  10.607  0.7735 -0.0201 -0.9552
39256SOL    HW120661   3.149   5.851  10.602  1.3340  0.2239 -0.4627
39256SOL    HW220662   3.104   5.708  10.621  0.6670  0.6844  1.6512
39257SOL     OW20663   1.987   3.274   4.165  0.6097 -0.2852  0.3940
39257SOL    HW120664   1.902   3.268   4.207  0.5118  1.6171  0.5853
39257SOL    HW220665   2.039   3.204   4.205 -0.3062 -0.2654  1.6904
39258SOL     OW20666   2.814   9.856   2.741  0.0987 -0.0501 -0.5912
39258SOL    HW120667   2.890   9.813   2.779 -1.7553  0.0758  3.8239
39258SOL    HW220668   2.840   9.948   2.733  0.9646 -0.3184 -1.0020
39259SOL     OW20669   3.866  10.196   2.574  0.3493  0.4648  0.2934
39259SOL    HW120670   3.925  10.159   2.508  1.6441 -0.2690  1.8174
39259SOL    HW220671   3.819  10.121   2.610 -0.4233  0.8757  0.1689
39260SOL     OW20672   5.997   2.293  10.754  0.9986 -0.0736  0.1650
39260SOL    HW120673   5.901   2.295  10.755  0.9991  1.9995 -0.7690
39260SOL    HW220674   6.023   2.332  10.837  1.0729 -1.2080  0.6992
39261SOL     OW20675   7.714   2.040   9.670 -0.1878 -0.5797  0.1621
39261SOL    HW120676   7.644   2.015   9.611  0.2149 -1.0345 -0.1328
39261SOL    HW220677   7.679   2.023   9.758 -1.5396  2.0274  0.1877
39262SOL     OW20678   3.915   9.770   0.904 -0.2679 -0.1826  0.3639
39262SOL    HW120679   3.904   9.836   0.836 -0.5009  0.1220  0.6907
39262SOL    HW220680   3.904   9.687   0.859 -1.1345  0.0335  0.1562
39263SOL     OW20681   9.899   3.094   1.798 -0.0872  0.0720 -0.3132
39263SOL    HW120682   9.849   3.113   1.877 -0.5952 -0.3445 -0.5202
39263SOL    HW220683   9.849   3.135   1.727 -0.0502 -0.2063 -0.5046
39264SOL     OW20684   5.725   3.212   6.236  0.0154 -0.0536 -0.0872
39264SOL    HW120685   5.754   3.137   6.183 -2.6989 -2.1113  1.0912
39264SOL    HW220686   5.666   3.261   6.179  1.4336  1.0208 -0.7033
39265SOL     OW20687   3.816   3.384   4.890 -0.0790  0.5027  0.2519
39265SOL    HW120688   3.773   3.299   4.886  1.7545 -0.4414 -0.7540
39265SOL    HW220689   3.885   3.379   4.824  2.3690  1.4320  2.5413
39266SOL     OW20690   5.532  10.275   5.091 -0.1725 -0.2971  0.4245
39266SOL    HW120691   5.570  10.222   5.020  1.1602  0.5980  0.4300
39266SOL    HW220692   5.472  10.335   5.046  0.3026 -0.0564  0.0972
39267SOL     OW20693   6.179   2.663   2.331 -0.7436 -0.2490  0.4842
39267SOL    HW120694   6.220   2.603   2.269 -0.5892 -0.4786  0.8079
39267SOL    HW220695   6.115   2.711   2.279  0.3142  0.5014 -0.1522
39268SOL     OW20696   7.946   2.340   7.878 -0.1805  0.2921  0.2526
39268SOL    HW120697   7.911   2.259   7.842 -0.3927  0.8545 -0.8378
39268SOL    HW220698   8.022   2.360   7.824 -0.3516  1.0150  0.2640
39269SOL     OW20699   9.208   7.618   5.144 -0.9590 -0.5323 -0.1633
39269SOL    HW120700   9.168   7.624   5.231 -1.6734 -1.1310 -0.4376
39269SOL    HW220701   9.226   7.709   5.120 -0.3809 -0.3919  0.7717
39270SOL     OW20702   9.883   3.155   9.033 -0.2515 -0.6374  0.1152
39270SOL    HW120703   9.884   3.091   9.105 -0.0269  0.2840  0.9532
39270SOL    HW220704   9.954   3.127   8.976  0.5558 -0.5369  1.0384
39271SOL     OW20705  10.731   3.681   5.197 -0.2408  0.0153 -0.2363
39271SOL    HW120706  10.652   3.677   5.144  0.1422  1.3513 -0.9693
39271SOL    HW220707  10.700   3.691   5.287 -0.9110  0.2170 -0.4845
39272SOL     OW20708   8.901   3.526   9.042  0.0058 -0.1990 -0.2908
39272SOL    HW120709   8.882   3.475   8.963 -0.9823  0.1267 -0.2818
39272SOL    HW220710   8.921   3.461   9.109 -1.1374 -0.5937 -0.3104
39273SOL     OW20711   0.431   5.875   3.015 -0.0535 -0.8855  0.3164
39273SOL    HW120712   0.466   5.952   2.968 -1.7248 -1.4925 -2.1312
39273SOL    HW220713   0.373   5.912   3.082 -0.3035  0.0255 -0.3777
39274SOL     OW20714   8.890   6.482   5.186  0.3146 -0.2465  0.0632
39274SOL    HW120715   8.828   6.543   5.226 -0.4851 -0.4003 -0.9122
39274SOL    HW220716   8.969   6.490   5.240 -0.1924  0.7228  0.6965
39275SOL     OW20717   9.218   4.262   7.075 -0.4828  0.2960  0.0015
39275SOL    HW120718   9.251   4.338   7.027  1.2735 -1.2041 -1.3484
39275SOL    HW220719   9.138   4.237   7.028 -0.5264  0.7204 -0.1575
39276SOL     OW20720   6.449   0.367   9.080 -0.3179 -0.2022 -0.1553
39276SOL    HW120721   6.517   0.383   9.145  0.6000 -0.6508 -0.9897
39276SOL    HW220722   6.458   0.439   9.018  1.7916 -2.1137 -2.2248
39277SOL     OW20723   4.481   4.921   1.256 -0.1078  0.4938  0.1338
39277SOL    HW120724   4.564   4.893   1.295 -0.2491 -0.4739 -0.2302
39277SOL    HW220725   4.475   4.870   1.175 -0.5024  1.4180 -0.4307
39278SOL     OW20726   9.353   1.855   2.961 -0.1222  0.2610  0.7006
39278SOL    HW120727   9.448   1.854   2.970 -0.0846  0.9976  0.4259
39278SOL    HW220728   9.326   1.766   2.983  0.6773 -0.1008  0.2684
39279SOL     OW20729   1.294   8.175   2.412  0.1704 -0.1449  0.1314
39279SOL    HW120730   1.266   8.248   2.358  0.9362  0.1183  0.0713
39279SOL    HW220731   1.215   8.122   2.426  0.4151 -1.8241 -3.6637
39280SOL     OW20732   3.208   8.079  10.250 -0.0179  0.4585 -0.7638
39280SOL    HW120733   3.156   8.157  10.270 -0.5476 -0.4169  1.6777
39280SOL    HW220734   3.223   8.038  10.336  3.1010 -0.3557 -1.5900
39281SOL     OW20735   8.255  10.744   3.348 -0.4132 -0.0829  0.0697
39281SOL    HW120736   8.187  10.806   3.322 -1.7140 -1.2572  0.5288
39281SOL    HW220737   8.207  10.665   3.371  1.1163 -0.8927  0.5945
39282SOL     OW20738   1.560   1.027   3.788 -0.7381  0.3423  0.0242
39282SOL    HW120739   1.636   0.969   3.777 -1.4137 -0.8379  1.2987
39282SOL    HW220740   1.571   1.093   3.720  0.3327 -0.9969 -1.1854
39283SOL     OW20741   9.214   6.797   6.144  0.2505  0.2306 -0.3133
39283SOL    HW120742   9.269   6.772   6.218  0.5543  0.4163 -0.4735
39283SOL    HW220743   9.184   6.886   6.164 -0.0765  0.0914 -0.1790
39284SOL     OW20744   8.741   3.833   6.170 -0.1912  0.4405  0.1094
39284SOL    HW120745   8.704   3.757   6.215  0.4984  0.8912  1.4946
39284SOL    HW220746   8.693   3.907   6.206  1.1252  0.9127  0.9611
39285SOL     OW20747   7.447   4.745  10.631 -0.5408 -0.2379 -0.1676
39285SOL    HW120748   7.475   4.686  10.701 -0.5633  0.0108  0.0541
39285SOL    HW220749   7.510   4.817  10.634 -0.4255 -0.3201 -0.5337
39286SOL     OW20750   9.590  10.008   1.689 -0.1408  0.1067 -0.1252
39286SOL    HW120751   9.597   9.936   1.627 -0.9839 -0.7532  0.7360
39286SOL    HW220752   9.581   9.965   1.774 -1.1964  1.2094  0.3536
39287SOL     OW20753   0.515   7.183   2.284 -0.5986 -0.0714  0.2389
39287SOL    HW120754   0.441   7.210   2.228 -0.3278 -1.3176 -0.7674
39287SOL    HW220755   0.500   7.228   2.367 -1.9896  0.4285 -0.2522
39288SOL     OW20756   1.628   3.407   9.364  0.6899 -0.5385 -0.1690
39288SOL    HW120757   1.639   3.325   9.316  0.2566 -0.3741 -0.5555
39288SOL    HW220758   1.584   3.465   9.302 -1.4963 -0.8792  0.9945
39289SOL     OW20759   6.274   5.943   5.335 -0.3597 -0.0924 -0.0805
39289SOL    HW120760   6.257   5.890   5.258 -0.2464  0.6807 -0.6534
39289SOL    HW220761   6.220   6.021   5.323 -2.9713 -1.3736  2.2414
39290SOL     OW20762   0.930   3.944   8.470 -0.2924 -0.3899 -0.5737
39290SOL    HW120763   0.997   3.924   8.535 -2.5896 -1.2154  1.6779
39290SOL    HW220764   0.944   3.880   8.401  0.7936 -0.9913  0.1685
39291SOL     OW20765   0.364   5.336   4.388  0.2318  0.6768 -0.3066
39291SOL    HW120766   0.459   5.323   4.392 -0.0973 -1.8236  1.6932
39291SOL    HW220767   0.331   5.262   4.338 -0.6673  2.0551 -1.8717
39292SOL     OW20768   9.008   1.741   9.074 -0.5179 -0.4145 -0.6767
39292SOL    HW120769   8.920   1.771   9.097  0.3483  0.6443  1.4784
39292SOL    HW220770   9.007   1.735   8.979 -2.9996 -0.7361 -0.6988
39293SOL     OW20771   7.832   3.025   8.317  0.1588 -0.2898 -0.0109
39293SOL    HW120772   7.771   2.951   8.321 -0.9420  0.1806 -3.9455
39293SOL    HW220773   7.776   3.100   8.297  1.7381  0.6559 -1.0629
39294SOL     OW20774   3.254   8.116   6.218  0.3168 -0.0867 -0.1315
39294SOL    HW120775   3.307   8.150   6.290 -0.2110  0.6005 -0.0506
39294SOL    HW220776   3.210   8.194   6.182 -2.1545 -0.8498  1.0544
39295SOL     OW20777   7.424   0.809   6.870 -0.2908 -0.5932  0.4262
39295SOL    HW120778   7.356   0.876   6.869 -0.3457 -0.6386  0.8546
39295SOL    HW220779   7.505   0.855   6.849 -0.2609 -0.3116  1.1199
39296SOL     OW20780   0.722   8.960  10.013  0.7112 -0.4582 -0.4394
39296SOL    HW120781   0.661   9.027  10.043  2.0601 -0.1342  1.8276
39296SOL    HW220782   0.667   8.884   9.994 -0.7252  0.8882 -2.0008
39297SOL     OW20783  10.365   4.657   3.363 -0.3069 -0.2547  0.3444
39297SOL    HW120784  10.420   4.704   3.426  1.6762  0.8210 -2.0593
39297SOL    HW220785  10.421   4.588   3.329 -0.0069  1.3814 -2.7923
39298SOL     OW20786   9.816   1.535  10.761  0.0324 -0.5037  0.0750
39298SOL    HW120787   9.766   1.487  10.695  2.0842 -0.6199 -1.5072
39298SOL    HW220788   9.906   1.505  10.749  0.7615  0.8414  1.7384
39299SOL     OW20789   3.404   8.025   5.614 -0.0507 -0.3517  0.1587
39299SOL    HW120790   3.481   7.971   5.599  0.2067 -0.1393  0.6764
39299SOL    HW220791   3.421   8.105   5.565  0.8747  0.4189  1.6414
39300SOL     OW20792   1.196   2.151   9.401  0.1659 -0.0126  0.0254
39300SOL    HW120793   1.174   2.197   9.482 -0.0799 -0.2410  0.0904
39300SOL    HW220794   1.131   2.081   9.395  0.6197 -0.4340 -0.0030
39301SOL     OW20795   5.808   6.551   1.622 -0.2344  0.0411 -0.1014
39301SOL    HW120796   5.742   6.578   1.558 -0.7090 -0.1993  0.2805
39301SOL    HW220797   5.771   6.578   1.707 -0.0691 -0.5346  0.1548
39302SOL     OW20798   2.716  10.728   5.081 -0.1843 -0.0149  0.6170
39302SOL    HW120799   2.662  10.737   5.001 -0.1722  2.1392  0.7797
39302SOL    HW220800   2.652  10.722   5.152 -0.2197  0.2537  0.6114
39303SOL     OW20801   8.787   3.275   9.774 -0.1998 -0.5792  0.0175
39303SOL    HW120802   8.779   3.367   9.800  0.2313 -0.4736 -0.2103
39303SOL    HW220803   8.726   3.228   9.831 -0.8138 -0.0845 -0.2217
39304SOL     OW20804   5.195   0.735   4.164 -0.5588  0.4294 -0.7124
39304SOL    HW120805   5.123   0.756   4.223 -0.0937  3.8336 -1.1394
39304SOL    HW220806   5.259   0.805   4.178  0.5467  0.1733 -3.6661
39305SOL     OW20807   2.396   5.586   6.995 -0.3417  0.8035  0.1570
39305SOL    HW120808   2.409   5.493   6.978 -1.7271  0.3973  1.1110
39305SOL    HW220809   2.453   5.630   6.932 -0.9249 -0.6560 -1.4947
39306SOL     OW20810   5.096   1.791   2.319 -0.0001 -0.1705  0.0962
39306SOL    HW120811   5.113   1.878   2.282 -1.2329  0.1498  0.2366
39306SOL    HW220812   5.136   1.730   2.257  1.4777  0.5201  0.3536
39307SOL     OW20813   5.491   8.876  10.380  0.0758  0.1453  0.1449
39307SOL    HW120814   5.497   8.940  10.451  0.0994  0.9463 -0.5621
39307SOL    HW220815   5.554   8.907  10.315 -0.2858 -0.3082 -0.4352
39308SOL     OW20816   6.226   3.808   8.259 -0.3347 -1.0896  0.1344
39308SOL    HW120817   6.132   3.823   8.256 -0.1750  0.4794  1.4807
39308SOL    HW220818   6.265   3.895   8.246  0.9159 -1.6068  0.2454
39309SOL     OW20819   0.072   5.635   1.515 -0.1734 -0.1412  0.1168
39309SOL    HW120820   0.006   5.566   1.507  0.1638 -0.4371 -0.2140
39309SOL    HW220821   0.126   5.608   1.589 -2.4242  1.8519  2.6862
39310SOL     OW20822   1.846   9.830   0.507 -0.0399 -0.0550  0.7396
39310SOL    HW120823   1.836   9.925   0.500 -0.5022 -0.0111  1.7905
39310SOL    HW220824   1.814   9.809   0.595  0.5994 -1.1161  0.7347
39311SOL     OW20825   8.235   8.261   1.734 -0.0619 -0.0304  0.7510
39311SOL    HW120826   8.291   8.259   1.656 -1.6307  2.4748 -0.5568
39311SOL    HW220827   8.227   8.354   1.755 -1.1570 -0.5522  2.8404
39312SOL     OW20828   9.515   8.411   0.312  0.1246 -0.2058 -0.1823
39312SOL    HW120829   9.527   8.435   0.404  0.2295  1.5177 -0.6087
39312SOL    HW220830   9.539   8.319   0.308 -2.2447 -1.0279  1.9688
39313SOL     OW20831  10.796   1.297   5.312 -0.2733 -0.2838 -0.4447
39313SOL    HW120832  10.754   1.347   5.382 -0.6083  0.9236 -1.4576
39313SOL    HW220833  10.738   1.309   5.237  0.6105 -0.6801 -1.2050
39314SOL     OW20834   6.351   4.914   5.201 -0.1633 -0.4903 -0.1813
39314SOL    HW120835   6.416   4.952   5.260 -0.9758  2.1654 -0.8567
39314SOL    HW220836   6.392   4.834   5.168  1.3052 -0.7380  2.0239
39315SOL     OW20837   2.505   9.260   4.332 -0.5557 -0.3438  0.0095
39315SOL    HW120838   2.586   9.309   4.345 -0.8465 -0.1360  1.1580
39315SOL    HW220839   2.529   9.187   4.275  0.1452  0.4425 -0.7278
39316SOL     OW20840   2.136   0.305   4.134  0.3931  0.2699  0.2224
39316SOL    HW120841   2.149   0.222   4.180 -1.4515 -0.0999  0.1351
39316SOL    HW220842   2.172   0.371   4.194 -0.1005 -0.3996  1.2991
39317SOL     OW20843   0.732   8.557   6.883 -0.1303 -0.2223 -0.3850
39317SOL    HW120844   0.806   8.539   6.942  0.4928 -1.3239 -1.4577
39317SOL    HW220845   0.665   8.596   6.940  1.1654  0.5544  0.6581
39318SOL     OW20846   7.877  10.677   5.010  0.3614  0.0997 -0.5804
39318SOL    HW120847   7.820  10.729   5.065  0.5022 -0.8758  0.5259
39318SOL    HW220848   7.964  10.687   5.049  0.3489 -1.1458 -0.1771
39319SOL     OW20849   6.031   2.905   8.250  0.3601 -0.1822  0.2581
39319SOL    HW120850   6.002   2.914   8.340  0.4166 -1.5693  0.4254
39319SOL    HW220851   5.951   2.893   8.200  0.4675 -1.8752  0.4514
39320SOL     OW20852   9.061   4.174   5.005  0.0627  0.0715  0.1175
39320SOL    HW120853   9.002   4.237   5.046  1.6024  2.2001 -0.7590
39320SOL    HW220854   9.040   4.178   4.912  1.5319  0.8556 -0.2108
39321SOL     OW20855   8.198   6.529   9.144 -0.3256  0.5447 -0.3634
39321SOL    HW120856   8.244   6.612   9.134  1.0384  0.4056  3.3615
39321SOL    HW220857   8.243   6.469   9.085  1.0062  1.6069 -0.4663
39322SOL     OW20858   9.765   5.982   8.371  0.6773 -0.1420  0.4605
39322SOL    HW120859   9.682   5.989   8.419  0.1802  0.2473 -0.4398
39322SOL    HW220860   9.799   5.896   8.394 -0.9281 -1.1174 -0.6797
39323SOL     OW20861   1.896   6.988   1.636  0.2694 -0.9545 -0.1477
39323SOL    HW120862   1.944   6.910   1.609  1.4981 -0.2356 -0.1234
39323SOL    HW220863   1.828   6.999   1.570  0.1918 -1.9468 -0.2428
39324SOL     OW20864   9.909   0.762   8.673 -0.3285  0.0951  0.2559
39324SOL    HW120865   9.926   0.819   8.598  1.7050 -0.6857  0.0724
39324SOL    HW220866   9.855   0.815   8.731 -0.7567  1.2270 -1.1082
39325SOL     OW20867   8.749   8.242   6.227  0.4171  0.6159  0.0370
39325SOL    HW120868   8.801   8.169   6.261 -0.3947  0.3878  0.8373
39325SOL    HW220869   8.660   8.208   6.222  0.2911  1.0493 -1.1647
39326SOL     OW20870   9.233   2.305   8.726  0.9657  0.1185 -0.0844
39326SOL    HW120871   9.304   2.296   8.790  1.1534  0.9649 -0.1669
39326SOL    HW220872   9.218   2.399   8.720 -0.3018 -0.0551  0.0729
39327SOL     OW20873   8.154   0.784   6.355 -0.1876 -0.9169  0.2493
39327SOL    HW120874   8.100   0.861   6.335  0.7967 -0.6864 -1.7366
39327SOL    HW220875   8.194   0.805   6.440  0.2916  0.9401 -0.3724
39328SOL     OW20876   8.478   2.307   7.194  0.1107 -0.2275  0.3466
39328SOL    HW120877   8.512   2.359   7.268  0.2576 -0.7711  0.6653
39328SOL    HW220878   8.458   2.372   7.127 -1.4982  0.4582  1.4171
39329SOL     OW20879  10.507   7.867   7.928  0.1720 -0.2881  0.3834
39329SOL    HW120880  10.550   7.801   7.873 -0.5700 -1.0369  0.6969
39329SOL    HW220881  10.531   7.951   7.887 -0.6788 -0.8428 -1.3105
39330SOL     OW20882   1.798   5.892   6.390  0.3913  0.0281  0.1439
39330SOL    HW120883   1.703   5.883   6.396  0.5741 -3.3770 -0.1923
39330SOL    HW220884   1.830   5.803   6.378  3.4724  1.2904 -2.3993
39331SOL     OW20885   6.650  10.640   9.998 -0.5444  0.2561  0.0810
39331SOL    HW120886   6.634  10.556   9.954 -0.5449 -0.4681  1.4052
39331SOL    HW220887   6.564  10.680  10.006 -0.7332 -0.2590  0.6678
39332SOL     OW20888   0.018   7.391   7.535  0.2962  0.6003  0.3648
39332SOL    HW120889   0.029   7.400   7.441 -2.4582  1.3568  0.0522
39332SOL    HW220890   0.011   7.297   7.550  1.1820  0.4497 -0.0841
39333SOL     OW20891   4.887   7.390   5.559 -0.3072  0.1573  0.6451
39333SOL    HW120892   4.837   7.438   5.493 -0.1032  0.7057  0.8812
39333SOL    HW220893   4.967   7.364   5.514  0.0413  0.9350  0.7953
39334SOL     OW20894   8.206   1.357   2.183  0.2943 -0.1751 -1.0745
39334SOL    HW120895   8.202   1.429   2.120  0.1409  1.0922  0.3204
39334SOL    HW220896   8.241   1.397   2.262 -0.2545 -1.5396 -0.1093
39335SOL     OW20897   3.610   1.979   3.706 -0.1081  0.5786 -0.1667
39335SOL    HW120898   3.600   1.945   3.617  2.1859 -0.4517 -0.0793
39335SOL    HW220899   3.528   1.954   3.750  0.0185 -1.7603 -1.0968
39336SOL     OW20900   5.878   9.081   2.021 -0.1272  0.1619  0.1176
39336SOL    HW120901   5.862   9.151   2.085 -0.8382  0.5788 -0.5059
39336SOL    HW220902   5.833   9.005   2.057  0.7871 -0.0428  0.8831
39337SOL     OW20903   2.669   9.238   2.348 -0.2387 -0.4018 -0.5283
39337SOL    HW120904   2.634   9.154   2.378 -0.4653 -0.4869 -1.0276
39337SOL    HW220905   2.760   9.238   2.377 -0.2668 -0.7737 -0.4410
39338SOL     OW20906   1.531   4.505  10.006 -0.8343  0.1343  0.0003
39338SOL    HW120907   1.451   4.486   9.956 -0.0313 -0.8606 -0.9474
39338SOL    HW220908   1.582   4.424  10.002  1.6547  1.6333 -2.1294
39339SOL     OW20909   1.585   7.577   4.129 -0.0358  0.3135  0.2553
39339SOL    HW120910   1.509   7.519   4.130 -0.3301  0.6440 -1.1433
39339SOL    HW220911   1.586   7.617   4.217  0.2581 -1.8536  1.2990
39340SOL     OW20912   4.665   2.778   6.091  0.0812 -0.5798 -0.3831
39340SOL    HW120913   4.707   2.692   6.090  0.9843 -0.1611 -1.5168
39340SOL    HW220914   4.638   2.793   6.000 -0.2993  0.2184 -0.1501
39341SOL     OW20915  10.027  10.386   0.634 -0.1446 -0.0287  0.2264
39341SOL    HW120916   9.993  10.310   0.587  1.0444 -0.2782 -0.2602
39341SOL    HW220917  10.014  10.365   0.727 -0.1737 -0.6566  0.0811
39342SOL     OW20918   2.557   9.905   5.517  0.0726  0.2924  0.5555
39342SOL    HW120919   2.623   9.953   5.467 -0.6917  0.9769  0.1911
39342SOL    HW220920   2.606   9.867   5.590  0.8491  0.9207  0.3759
39343SOL     OW20921  10.414   7.740   0.999 -0.0880 -0.2250 -0.0238
39343SOL    HW120922  10.451   7.777   0.919  0.4421 -1.4788 -0.3788
39343SOL    HW220923  10.340   7.687   0.969  0.0606 -0.6332  0.3253
39344SOL     OW20924   1.623   9.105   6.001 -0.2204 -0.1490  0.5276
39344SOL    HW120925   1.670   9.099   5.918 -3.1678 -0.2750 -1.2999
39344SOL    HW220926   1.627   9.017   6.037 -0.3437 -0.5517 -0.3924
39345SOL     OW20927   7.478   4.237  10.594  0.1705  0.3543 -0.5018
39345SOL    HW120928   7.484   4.141  10.595 -0.9059  0.2464 -1.8891
39345SOL    HW220929   7.486   4.262  10.686  1.5544 -0.9740 -0.2073
39346SOL     OW20930   4.691   0.915   0.350 -0.1588 -0.6330  0.5825
39346SOL    HW120931   4.759   0.895   0.285 -0.7881  1.2127 -0.7351
39346SOL    HW220932   4.624   0.849   0.334  0.1527 -0.8321  0.0569
39347SOL     OW20933   2.476   1.544   1.917 -0.2267  0.1974 -0.5344
39347SOL    HW120934   2.427   1.605   1.862 -0.5721  2.7100  2.2824
39347SOL    HW220935   2.565   1.545   1.882 -0.2322  2.4068 -0.5874
39348SOL     OW20936  10.598   2.711   5.609 -0.1577  0.0080  0.1562
39348SOL    HW120937  10.684   2.747   5.629  0.3782 -0.0413 -1.8535
39348SOL    HW220938  10.538   2.786   5.617  0.4335  0.5837 -0.6567
39349SOL     OW20939   2.538   2.726   7.517 -0.1362  0.2595 -0.0368
39349SOL    HW120940   2.584   2.710   7.600 -0.3027  0.3347  0.0693
39349SOL    HW220941   2.608   2.727   7.451 -0.2287 -2.5930 -0.3140
39350SOL     OW20942   9.988   4.382   8.043  0.4362  0.3987 -0.1133
39350SOL    HW120943   9.957   4.432   7.968 -1.9841 -0.7713 -0.0025
39350SOL    HW220944  10.042   4.312   8.006 -1.9542 -1.0955 -1.0504
39351SOL     OW20945   0.911  10.441   2.599  0.7772  0.0797  0.4536
39351SOL    HW120946   0.867  10.368   2.642 -2.5212  2.0452  0.8102
39351SOL    HW220947   0.989  10.457   2.652 -1.2036  0.1182  3.6228
39352SOL     OW20948   0.253   1.636  10.664 -0.6814 -0.3822 -0.1436
39352SOL    HW120949   0.198   1.714  10.667  0.6289  0.5599  0.2561
39352SOL    HW220950   0.325   1.655  10.724  1.9016 -0.1346 -3.1083
39353SOL     OW20951   1.443   2.222   2.094  0.1810  0.0503 -0.4287
39353SOL    HW120952   1.450   2.161   2.021 -1.7570 -1.1671  0.3260
39353SOL    HW220953   1.476   2.305   2.059  1.0255 -0.9339 -2.0883
39354SOL     OW20954   3.120   2.088   1.741  0.1284  0.0656  0.3225
39354SOL    HW120955   3.197   2.079   1.685 -0.9084 -1.5926 -0.9032
39354SOL    HW220956   3.155   2.123   1.824  1.7622  2.1605 -1.1259
39355SOL     OW20957   3.119   9.046   1.437  0.3108  0.5125  0.1438
39355SOL    HW120958   3.073   9.103   1.499 -0.0308  1.1830 -0.6956
39355SOL    HW220959   3.050   8.995   1.394  0.4828  0.4540 -0.0704
39356SOL     OW20960   5.360   9.014   8.819  0.4261  0.2781  0.8805
39356SOL    HW120961   5.291   9.078   8.804  1.1166  1.2221  1.6428
39356SOL    HW220962   5.317   8.929   8.805 -0.2879  0.8991 -0.9470
39357SOL     OW20963   1.692   2.797   9.078  0.6638  0.7132 -0.2351
39357SOL    HW120964   1.653   2.869   9.028  1.5884  0.5816 -1.1865
39357SOL    HW220965   1.773   2.833   9.112  0.6053  0.4400  0.2007
39358SOL     OW20966   9.039   9.096   6.725  0.5898 -0.0058 -0.1147
39358SOL    HW120967   9.013   9.005   6.708  1.4550 -0.3203  0.1883
39358SOL    HW220968   9.050   9.134   6.638 -0.0296 -0.1044 -0.2453
39359SOL     OW20969   1.238   1.235   6.102  0.5098 -1.0998 -0.0353
39359SOL    HW120970   1.192   1.303   6.151  0.1843 -0.9372 -0.5532
39359SOL    HW220971   1.247   1.162   6.164 -1.6226 -1.6427 -0.2759
39360SOL     OW20972   3.763   9.946   1.058 -0.3284 -0.1636  0.2386
39360SOL    HW120973   3.811   9.952   1.140  0.1525 -0.2360 -0.0357
39360SOL    HW220974   3.795   9.866   1.017 -0.2768  0.0788 -0.2009
39361SOL     OW20975   0.931   2.486   7.083 -0.5393 -0.1038  0.1949
39361SOL    HW120976   0.939   2.553   7.015  0.0897 -1.2541 -0.9090
39361SOL    HW220977   0.852   2.511   7.132 -2.1813 -0.3151 -2.1868
39362SOL     OW20978   7.711   5.151   4.876 -0.4964 -0.1889  0.0419
39362SOL    HW120979   7.791   5.188   4.913  0.6426 -2.6452  0.2913
39362SOL    HW220980   7.723   5.157   4.781 -0.0261 -0.4737  0.0795
39363SOL     OW20981   1.639   2.793   1.824  0.3923  0.5923 -0.0615
39363SOL    HW120982   1.556   2.797   1.870  0.2401 -0.9310 -0.1654
39363SOL    HW220983   1.653   2.882   1.791 -0.9260  0.9810  0.3945
39364SOL     OW20984   2.164   1.195   5.664 -0.7729  0.3512 -0.1818
39364SOL    HW120985   2.127   1.111   5.634  0.8954 -0.0391 -1.2629
39364SOL    HW220986   2.191   1.239   5.583 -0.1252  1.2202  0.4921
39365SOL     OW20987   5.958   6.033   1.851  0.2491  0.7909  0.0993
39365SOL    HW120988   5.911   6.005   1.772  2.1666  1.1355 -1.2490
39365SOL    HW220989   5.899   6.012   1.923 -1.2691 -0.2449 -1.3654
39366SOL     OW20990   7.259   6.208   9.890 -0.4603 -0.4298 -0.5714
39366SOL    HW120991   7.269   6.182   9.982  2.6232  0.5491 -0.5247
39366SOL    HW220992   7.164   6.219   9.879 -1.2757 -3.6947  1.5360
39367SOL     OW20993   3.127  10.171   7.321 -0.1034  0.1359  0.2312
39367SOL    HW120994   3.144  10.098   7.382  0.0582 -0.8856 -0.9891
39367SOL    HW220995   3.198  10.233   7.338  1.6304 -1.4453 -0.8300
39368SOL     OW20996   5.265   0.199   5.761  0.1718 -0.2423 -0.2858
39368SOL    HW120997   5.232   0.177   5.674  0.0759 -0.5698 -0.1687
39368SOL    HW220998   5.252   0.119   5.812  0.9522 -0.3036 -0.1794
39369SOL     OW20999   2.492   0.895   2.998 -0.2093  0.3475 -0.7541
39369SOL    HW121000   2.441   0.960   2.951 -0.8710  0.8179  0.5582
39369SOL    HW221001   2.583   0.924   2.989 -0.4334  1.0451 -0.8014
39370SOL     OW21002   8.944   7.615   3.144 -0.2704 -0.5348  0.2013
39370SOL    HW121003   8.943   7.520   3.132 -1.4963 -0.5019 -0.0497
39370SOL    HW221004   9.016   7.630   3.205  0.8050 -1.4894 -0.7616
39371SOL     OW21005   6.807   2.623   8.405 -0.5714  0.2066  0.2597
39371SOL    HW121006   6.730   2.631   8.462 -0.7581  0.1118  0.0268
39371SOL    HW221007   6.870   2.685   8.441 -0.8221  0.4121  0.3541
39372SOL     OW21008   8.105   1.087   4.504  0.3359 -0.5622 -0.5471
39372SOL    HW121009   8.057   1.036   4.569  0.1020 -0.7457 -0.8646
39372SOL    HW221010   8.165   1.141   4.556 -0.4908 -0.0322 -0.1314
39373SOL     OW21011   0.487   3.078   6.678  0.2273 -0.3761 -0.2183
39373SOL    HW121012   0.508   2.999   6.728  1.0740 -0.4165 -0.6260
39373SOL    HW221013   0.490   3.148   6.743  0.6111 -0.5251 -0.0721
39374SOL     OW21014   4.583  10.741   8.377  0.1774 -0.6378 -0.7517
39374SOL    HW121015   4.603  10.772   8.466 -1.4748  1.9739 -1.1579
39374SOL    HW221016   4.487  10.734   8.376  0.1258 -0.1321 -2.4306
39375SOL     OW21017   3.326   9.636   1.609 -0.6088  0.2446 -0.4957
39375SOL    HW121018   3.262   9.701   1.579 -0.5474  0.1019 -0.9405
39375SOL    HW221019   3.319   9.638   1.704 -1.2841  0.2324 -0.5372
39376SOL     OW21020   9.135   2.167   8.092  0.1321  0.1233  0.0677
39376SOL    HW121021   9.144   2.109   8.017  0.2629 -0.6124  0.6398
39376SOL    HW221022   9.042   2.188   8.095  0.2925  1.0280 -0.9289
39377SOL     OW21023   2.757   3.873   4.457 -0.1475 -0.3398 -0.7038
39377SOL    HW121024   2.842   3.832   4.474  0.5610  1.7829  1.3555
39377SOL    HW221025   2.696   3.824   4.513  0.7537  1.4217  2.0256
39378SOL     OW21026   1.168   8.761   0.801  0.2890  0.2295 -0.2797
39378SOL    HW121027   1.217   8.751   0.882  0.2811 -0.7714 -0.3822
39378SOL    HW221028   1.188   8.681   0.752 -1.3817 -0.1689 -0.3546
39379SOL     OW21029   4.184   2.888   7.155 -0.2662 -0.4386 -0.0638
39379SOL    HW121030   4.175   2.901   7.249 -1.1248 -0.9059 -0.0709
39379SOL    HW221031   4.278   2.891   7.139 -0.1480  0.1591  0.7286
39380SOL     OW21032   2.692   4.019   0.843 -0.4708 -0.3109  0.5352
39380SOL    HW121033   2.645   4.102   0.837 -2.0486 -1.2392 -0.9625
39380SOL    HW221034   2.772   4.040   0.890  0.1207  2.4819 -1.4965
39381SOL     OW21035   7.753   7.212   3.199 -0.0238 -0.2912  0.7382
39381SOL    HW121036   7.814   7.173   3.262 -0.9906 -1.4550  0.9751
39381SOL    HW221037   7.727   7.140   3.142 -0.3440  0.4308 -0.0576
39382SOL     OW21038  10.576   3.322   3.689  0.3621 -0.1904 -0.2150
39382SOL    HW121039  10.602   3.392   3.629  1.0129  0.7023  1.0532
39382SOL    HW221040  10.491   3.350   3.723 -0.7441 -1.4440 -1.8114
39383SOL     OW21041   9.815   4.836   4.031  0.3107 -0.0411  0.0338
39383SOL    HW121042   9.781   4.917   4.068 -1.9415 -0.3813 -1.1180
39383SOL    HW221043   9.900   4.860   3.995  0.0658  1.5971  0.4627
39384SOL     OW21044   9.520   1.907   4.248 -0.0418  0.0160  0.3036
39384SOL    HW121045   9.466   1.858   4.310 -0.5157 -0.6407 -0.6081
39384SOL    HW221046   9.521   1.996   4.282 -1.3745 -0.0479  0.5597
39385SOL     OW21047  10.355  10.206   7.237  0.1493  0.4197  0.8628
39385SOL    HW121048  10.423  10.206   7.170 -1.1742 -0.4491 -0.5410
39385SOL    HW221049  10.385  10.270   7.302  2.6105 -0.3940  0.6428
39386SOL     OW21050   6.411   9.610   0.251 -0.2688  0.2014  0.1321
39386SOL    HW121051   6.383   9.554   0.177  0.8837  0.2597 -0.3633
39386SOL    HW221052   6.339   9.672   0.261 -0.3355  0.3753 -1.1480
39387SOL     OW21053   2.695   9.285   8.074  0.1768  0.1626 -0.4665
39387SOL    HW121054   2.706   9.239   7.991  1.2845 -0.2347 -0.1157
39387SOL    HW221055   2.601   9.284   8.089  0.0489 -0.6799 -1.2036
39388SOL     OW21056  10.636   3.872   8.833  0.3878 -0.6759  0.1493
39388SOL    HW121057  10.614   3.893   8.924  0.3300  0.0897 -0.0326
39388SOL    HW221058  10.630   3.777   8.828 -0.5006 -0.6613  0.7186
39389SOL     OW21059   1.191   0.137   6.516  0.5630  0.0540 -0.1335
39389SOL    HW121060   1.171   0.067   6.454  1.1364  0.8161 -1.2104
39389SOL    HW221061   1.242   0.201   6.466 -1.0986  1.9377  0.4184
39390SOL     OW21062   5.065   3.058   8.459 -0.7857  0.9646  0.5126
39390SOL    HW121063   4.996   3.099   8.408 -1.0449  1.4770  1.2659
39390SOL    HW221064   5.082   2.975   8.414 -2.9107  0.1441  1.1307
39391SOL     OW21065   7.794   4.542  10.183 -0.1766  0.1561 -0.1279
39391SOL    HW121066   7.758   4.631  10.185  0.2275  0.3258 -0.3103
39391SOL    HW221067   7.719   4.486  10.160 -1.1801  0.0623  2.8087
39392SOL     OW21068   4.041   2.102  10.022  0.4566 -0.3634 -0.2850
39392SOL    HW121069   4.057   2.150  10.104 -2.7747 -1.8181  1.4054
39392SOL    HW221070   3.976   2.155   9.976  0.9968 -0.4038 -1.1047
39393SOL     OW21071   0.097   8.206   4.437  0.0278 -0.5540 -0.2551
39393SOL    HW121072   0.179   8.162   4.414 -0.3191 -3.2020  2.8548
39393SOL    HW221073   0.113   8.298   4.419  2.8825 -1.2250 -1.7955
39394SOL     OW21074   0.829   2.788   2.786 -0.3535  0.2252 -0.2193
39394SOL    HW121075   0.807   2.695   2.786 -0.7945  0.3178 -0.8525
39394SOL    HW221076   0.767   2.827   2.724  0.6907  0.7262 -0.9835
39395SOL     OW21077   9.571   4.167   2.218 -0.0189  0.8479  0.4223
39395SOL    HW121078   9.543   4.081   2.186 -0.9192  0.6110  1.7510
39395SOL    HW221079   9.559   4.162   2.313 -0.5447  2.6080  0.4796
39396SOL     OW21080   1.539   4.858   3.045  0.4770 -0.1435  0.0747
39396SOL    HW121081   1.451   4.831   3.018 -0.1561 -0.5784  2.3198
39396SOL    HW221082   1.587   4.776   3.055  0.2377 -0.1342  1.5576
39397SOL     OW21083  10.286   4.409  10.733  0.5341 -0.0034 -0.2468
39397SOL    HW121084  10.194   4.438  10.733  0.8883  1.2082 -0.5713
39397SOL    HW221085  10.284   4.321  10.697 -0.5068  0.0228 -0.2769
39398SOL     OW21086   7.948   2.891   4.057  0.2020  0.0517 -0.2990
39398SOL    HW121087   8.007   2.850   3.994 -0.4964  0.8691 -1.5199
39398SOL    HW221088   8.003   2.912   4.133  1.4747  0.7728 -1.3908
39399SOL     OW21089   8.041   8.553   8.955 -0.1660 -0.3933  0.3143
39399SOL    HW121090   7.948   8.531   8.966 -0.7579  1.0904 -1.3070
39399SOL    HW221091   8.044   8.607   8.876  2.1196 -0.5553  0.2207
39400SOL     OW21092   3.327   7.290   8.607  0.4079 -0.2184 -0.2963
39400SOL    HW121093   3.355   7.217   8.552  2.2001 -0.0166  0.2873
39400SOL    HW221094   3.264   7.252   8.668 -0.5561 -0.7311 -1.5592
39401SOL     OW21095   1.971   5.794   5.114 -0.0335  0.1541 -0.8367
39401SOL    HW121096   1.989   5.714   5.163 -0.2630  0.6489  0.0863
39401SOL    HW221097   1.889   5.827   5.150  0.1850  0.9328 -1.0164
39402SOL     OW21098   6.274   5.562   7.406 -0.2642  0.2277 -0.2298
39402SOL    HW121099   6.268   5.614   7.486  0.1587  1.2089 -0.8173
39402SOL    HW221100   6.348   5.503   7.422 -0.5720 -0.0219  0.3303
39403SOL     OW21101   6.003   7.592   2.982 -0.6368 -0.5369 -0.1516
39403SOL    HW121102   6.032   7.597   3.073 -2.9241 -0.3007  0.6279
39403SOL    HW221103   6.010   7.682   2.949  0.2159 -0.6275 -0.2543
39404SOL     OW21104   9.568   9.485   7.378  0.0362  0.2143 -0.0348
39404SOL    HW121105   9.640   9.547   7.370  1.3252 -1.3722 -1.2763
39404SOL    HW221106   9.528   9.506   7.462  1.3669  1.7155  0.2762
39405SOL     OW21107   6.687   3.084   4.216 -0.3888  0.2210  0.1091
39405SOL    HW121108   6.671   3.013   4.278 -1.1221  0.0423 -0.2750
39405SOL    HW221109   6.725   3.041   4.140 -2.9492 -0.1675 -1.0676
39406SOL     OW21110   3.623   7.662   8.628 -0.0098  0.2291  0.3766
39406SOL    HW121111   3.576   7.706   8.557 -0.8953  1.0208  1.4187
39406SOL    HW221112   3.554   7.624   8.683  0.6392 -0.1082  0.9835
39407SOL     OW21113   3.155   1.657   9.631 -0.1956 -0.4415  0.1651
39407SOL    HW121114   3.097   1.596   9.585 -0.5260 -0.8941  1.1367
39407SOL    HW221115   3.239   1.648   9.588 -0.9281  0.5761 -1.5873
39408SOL     OW21116  10.170   9.060   2.777 -0.3236  0.1779 -0.7728
39408SOL    HW121117  10.168   9.095   2.866 -0.1391  0.2273 -0.7870
39408SOL    HW221118  10.173   8.965   2.787 -1.0031  0.1557 -0.7354
39409SOL     OW21119   3.759   2.381   6.878  0.1973 -0.1797 -0.1747
39409SOL    HW121120   3.816   2.398   6.953 -1.6414 -2.7999  2.0017
39409SOL    HW221121   3.782   2.292   6.849  1.7405  1.1736 -3.7234
39410SOL     OW21122   9.356   3.020   5.590 -0.2610  0.2335  0.3819
39410SOL    HW121123   9.318   2.959   5.528  0.2268  0.5185 -0.2035
39410SOL    HW221124   9.441   2.983   5.612 -0.4732  0.0765  0.9730
39411SOL     OW21125   0.330   5.801  10.527  0.4739  0.4802  0.5075
39411SOL    HW121126   0.339   5.788  10.622 -1.0627  0.5186  0.6735
39411SOL    HW221127   0.262   5.868  10.518 -0.9013 -1.0180 -0.6638
39412SOL     OW21128   7.825   2.862   8.809 -0.1205  0.0930  0.2711
39412SOL    HW121129   7.877   2.825   8.738  1.1546  1.2345  0.5660
39412SOL    HW221130   7.786   2.941   8.771 -1.0812 -0.3763  0.2617
39413SOL     OW21131   8.406   0.914   7.660  0.1622 -0.0782  0.0257
39413SOL    HW121132   8.394   1.007   7.678 -0.8820 -0.0101 -0.8656
39413SOL    HW221133   8.480   0.910   7.599 -0.8053  0.3555 -1.2336
39414SOL     OW21134   4.400   9.539   5.852 -0.1248  0.5780  0.0987
39414SOL    HW121135   4.496   9.540   5.850 -0.0865 -0.2455 -2.9904
39414SOL    HW221136   4.375   9.473   5.787 -2.8190  0.9634  0.6211
39415SOL     OW21137   2.540   8.513   2.879  0.0264 -0.3126 -0.0460
39415SOL    HW121138   2.602   8.456   2.925  0.3194 -0.8596 -1.0954
39415SOL    HW221139   2.520   8.581   2.943  2.3230  0.3363  0.0913
39416SOL     OW21140   2.688   5.481   0.384  0.0702 -0.3767 -0.0132
39416SOL    HW121141   2.710   5.569   0.414  0.0562 -0.3963  0.0559
39416SOL    HW221142   2.633   5.495   0.307  0.5607 -0.3310 -0.3625
39417SOL     OW21143   9.517   2.977   2.035 -0.2160 -0.5237  0.5000
39417SOL    HW121144   9.471   2.919   2.096 -1.6403 -1.5456 -1.4701
39417SOL    HW221145   9.453   3.043   2.012  0.5552  0.2967  0.6321
39418SOL     OW21146   1.792   5.119   5.676 -0.1495  0.1378 -0.5000
39418SOL    HW121147   1.831   5.200   5.712  2.1332 -1.3383  0.6145
39418SOL    HW221148   1.867   5.061   5.664 -1.3498 -0.8776 -4.0596
39419SOL     OW21149   9.878   9.146   3.325  0.9614 -0.0325  0.7666
39419SOL    HW121150   9.904   9.205   3.254 -0.2143 -0.9608 -0.4964
39419SOL    HW221151   9.958   9.100   3.349  1.6021  1.0840  0.8083
39420SOL     OW21152   6.613   2.481   4.936  0.2875  0.3866  0.1168
39420SOL    HW121153   6.644   2.505   4.849 -2.8860  4.4613 -0.2300
39420SOL    HW221154   6.541   2.420   4.919  0.5369  0.1179  0.0126
39421SOL     OW21155   8.893   7.494   2.761  0.1176  0.4844  0.0406
39421SOL    HW121156   8.948   7.426   2.800 -0.5850 -0.5581 -0.7208
39421SOL    HW221157   8.953   7.544   2.706  0.1566 -1.3183 -1.6477
39422SOL     OW21158   9.413  10.364   4.914  0.0605 -0.4843  0.1545
39422SOL    HW121159   9.501  10.345   4.882 -0.4185 -0.2343 -1.3714
39422SOL    HW221160   9.355  10.319   4.853 -0.8917 -0.1841  0.8216
39423SOL     OW21161   7.461   8.060   4.590 -0.3808  0.0171  0.4846
39423SOL    HW121162   7.366   8.049   4.578 -0.6559  1.6978  0.7234
39423SOL    HW221163   7.490   8.102   4.509 -0.4131  2.1648  1.5115
39424SOL     OW21164   6.803   2.690  10.134 -0.3293 -0.1798  0.4261
39424SOL    HW121165   6.815   2.667  10.042  0.1619 -0.1356  0.4742
39424SOL    HW221166   6.865   2.633  10.180 -2.0407 -1.7301  0.9312
39425SOL     OW21167   9.018   1.775   5.512  0.2711  0.0826  0.4672
39425SOL    HW121168   9.043   1.867   5.508 -1.6132  0.7315  1.9887
39425SOL    HW221169   9.079   1.731   5.454  0.6611  2.4159 -1.0295
39426SOL     OW21170   1.714   2.929   0.405 -0.3974  0.1632  0.2120
39426SOL    HW121171   1.699   3.023   0.412 -0.7292  0.1215  0.0560
39426SOL    HW221172   1.627   2.891   0.397 -0.3081 -0.2236  1.0088
39427SOL     OW21173   4.853   0.234  10.166  0.2150 -0.0635 -0.6377
39427SOL    HW121174   4.885   0.191  10.245 -2.1440 -1.2929 -0.2743
39427SOL    HW221175   4.907   0.313  10.159  1.7073 -0.8257  1.1433
39428SOL     OW21176   6.448   4.240   0.140  0.1682  0.5991  0.1499
39428SOL    HW121177   6.451   4.305   0.070 -0.3528  0.5961  0.1203
39428SOL    HW221178   6.368   4.261   0.189 -1.0700 -1.1558 -0.9867
39429SOL     OW21179   8.391   0.645   1.747  0.1595  0.1383  0.0720
39429SOL    HW121180   8.336   0.576   1.712 -0.0296  0.1151  0.4110
39429SOL    HW221181   8.476   0.603   1.762 -0.7572 -0.8891  3.1949
39430SOL     OW21182   5.531   1.358   3.396  0.1066  0.2565 -0.7856
39430SOL    HW121183   5.477   1.279   3.399 -0.1581  0.1682 -4.1100
39430SOL    HW221184   5.488   1.419   3.457 -0.9881 -1.3838  0.1564
39431SOL     OW21185   0.622   3.980   2.058 -0.2876 -0.4566  1.4378
39431SOL    HW121186   0.556   3.911   2.065 -0.6671 -0.1990  0.4791
39431SOL    HW221187   0.701   3.941   2.097 -0.7242 -1.1236  1.6744
39432SOL     OW21188   3.679   9.590   5.392 -0.1065 -0.6358  0.6898
39432SOL    HW121189   3.659   9.677   5.426  1.5369 -0.4612  1.2772
39432SOL    HW221190   3.646   9.530   5.459  0.1191 -0.4062  1.0084
39433SOL     OW21191   5.643   2.290   2.460 -0.6326 -0.7655  0.1733
39433SOL    HW121192   5.690   2.339   2.392  1.1551 -1.3188  0.9544
39433SOL    HW221193   5.568   2.345   2.482 -0.9293 -0.3026 -1.8260
39434SOL     OW21194   2.821   8.767   6.926 -0.2866 -0.0891 -0.3276
39434SOL    HW121195   2.744   8.731   6.970 -0.1152 -1.3037 -0.9744
39434SOL    HW221196   2.889   8.768   6.994 -0.3580 -0.7983 -0.2365
39435SOL     OW21197   6.520   4.904  10.488 -0.3023  0.5987  0.3399
39435SOL    HW121198   6.615   4.896  10.495 -0.3649 -0.6528  0.0875
39435SOL    HW221199   6.502   4.995  10.510  1.0755  1.2172 -0.8482
39436SOL     OW21200   7.185   9.289   0.401  0.3299 -0.4633  0.0514
39436SOL    HW121201   7.195   9.380   0.374 -0.8202  0.3902  2.2794
39436SOL    HW221202   7.228   9.284   0.486 -2.4175 -1.0944  1.5316
39437SOL     OW21203   6.573   6.495   7.868 -0.5042  0.5789 -0.2000
39437SOL    HW121204   6.511   6.489   7.796  0.5014  1.0153 -1.1382
39437SOL    HW221205   6.561   6.583   7.903  0.3474  1.0888 -1.1293
39438SOL     OW21206   0.606   2.027   5.988  0.2634  0.2163  0.0351
39438SOL    HW121207   0.540   2.080   6.032  0.1105 -1.6519  2.2362
39438SOL    HW221208   0.561   1.991   5.911  0.0564  2.2811 -0.8813
39439SOL     OW21209   6.737   0.944   4.186  0.5592  0.6477 -0.2721
39439SOL    HW121210   6.673   0.947   4.257  0.0579 -0.6524 -0.6344
39439SOL    HW221211   6.821   0.929   4.230  0.0271 -2.0507  0.0156
39440SOL     OW21212   9.840   6.991   1.956 -0.4951  0.4452  0.4543
39440SOL    HW121213   9.751   7.020   1.971 -0.1418  1.0457  1.4351
39440SOL    HW221214   9.833   6.896   1.944 -1.4717  0.7012 -1.3535
39441SOL     OW21215   3.764   7.987   0.771  0.1700  0.2855  0.3465
39441SOL    HW121216   3.787   7.965   0.862  1.2523 -1.3103 -0.2617
39441SOL    HW221217   3.723   8.073   0.777  1.5300  0.8754  2.1891
39442SOL     OW21218   1.012   1.055   9.612 -0.0857 -0.2960  0.4681
39442SOL    HW121219   0.958   1.102   9.675  0.8600  0.4749  0.7384
39442SOL    HW221220   0.997   1.101   9.529 -1.6021 -1.5289  0.0156
39443SOL     OW21221   6.547   5.064  10.708 -0.1835 -0.2152  0.1174
39443SOL    HW121222   6.499   5.136  10.749 -0.5120  0.0856 -0.7839
39443SOL    HW221223   6.516   4.986  10.754  0.8979  0.2785  1.7740
39444SOL     OW21224   8.052   3.078   4.242 -0.0673  0.3817 -0.5535
39444SOL    HW121225   8.092   3.118   4.165 -0.7577  1.7143 -0.2539
39444SOL    HW221226   8.125   3.060   4.300  0.5498 -1.3306 -1.7864
39445SOL     OW21227   0.430   3.144   0.745 -0.1853  0.1268 -0.7584
39445SOL    HW121228   0.474   3.077   0.797 -0.1996  0.6803 -0.0197
39445SOL    HW221229   0.500   3.180   0.689 -0.1840 -0.5056 -1.1728
39446SOL     OW21230   4.673   3.984   1.047 -0.0280  0.3227  0.4533
39446SOL    HW121231   4.764   4.015   1.045  0.7521 -1.7724 -0.1539
39446SOL    HW221232   4.623   4.051   1.001  1.4174  0.9411 -0.2689
39447SOL     OW21233  10.442   6.331   8.358  0.0945 -0.4504 -0.2662
39447SOL    HW121234  10.443   6.281   8.440 -0.9918  0.1959  0.1652
39447SOL    HW221235  10.521   6.302   8.312 -0.4377 -2.5090 -0.0029
39448SOL     OW21236   1.170   2.478   1.169  0.5626  0.4536 -0.2009
39448SOL    HW121237   1.231   2.411   1.201 -0.1730  0.4676  1.2717
39448SOL    HW221238   1.226   2.542   1.125  1.3279 -0.8622 -1.2313
39449SOL     OW21239   0.453   6.539   5.523 -0.2076  0.2152 -0.2261
39449SOL    HW121240   0.457   6.611   5.460 -0.6627  1.0136  0.6426
39449SOL    HW221241   0.417   6.578   5.602 -0.4556 -0.9687  0.2653
39450SOL     OW21242   1.176   9.844   0.616 -0.2480  0.0957 -0.4581
39450SOL    HW121243   1.214   9.889   0.540 -0.5652  0.0737 -0.6308
39450SOL    HW221244   1.239   9.860   0.686 -0.4444  0.9716 -0.4678
39451SOL     OW21245   2.844  10.476   5.122 -0.4439 -0.7539 -0.5928
39451SOL    HW121246   2.813  10.433   5.201  2.0308  0.3155  1.0885
39451SOL    HW221247   2.791  10.555   5.116  0.0713 -0.2692  0.7167
39452SOL     OW21248   2.806   8.598  10.189  0.8564  0.0676  0.4362
39452SOL    HW121249   2.760   8.514  10.193  0.7005  0.1196 -0.2212
39452SOL    HW221250   2.756   8.655  10.248  1.1764 -0.3922  1.1666
39453SOL     OW21251   1.293   2.781  10.229 -0.2798  0.8979  0.2238
39453SOL    HW121252   1.215   2.726  10.223  0.3156 -0.0524  0.8979
39453SOL    HW221253   1.299   2.823  10.143 -1.2909  0.6749  0.0241
39454SOL     OW21254   1.933   2.954   7.368  0.4406  0.2493 -0.2197
39454SOL    HW121255   1.925   2.968   7.463  0.7108 -0.4170 -0.0931
39454SOL    HW221256   2.008   3.008   7.343  1.2398 -0.6334  0.2007
39455SOL     OW21257  10.492   4.029  10.634 -0.3508 -0.4980  0.4925
39455SOL    HW121258  10.489   3.941  10.598  0.7575 -0.6851  0.8352
39455SOL    HW221259  10.403   4.063  10.622 -0.3725 -1.0400 -1.1900
39456SOL     OW21260   6.021   9.398   5.644 -0.1054 -0.5271  0.9019
39456SOL    HW121261   6.098   9.447   5.615  1.0929 -2.9578 -0.3223
39456SOL    HW221262   6.057   9.316   5.679 -2.0386 -0.8115  2.3493
39457SOL     OW21263   9.918   7.595   0.745  0.0221 -0.1925  0.5025
39457SOL    HW121264   9.837   7.619   0.700 -0.0527  1.3791  1.4221
39457SOL    HW221265   9.987   7.616   0.682 -0.1627  0.6094  0.5610
39458SOL     OW21266   5.435   9.763   5.433  0.1520  0.0038  0.4577
39458SOL    HW121267   5.504   9.698   5.440  1.4080  1.2219 -0.1979
39458SOL    HW221268   5.478   9.847   5.452 -0.5828  1.0663 -2.1101
39459SOL     OW21269   9.801   4.246   7.731  0.1760 -0.4797  0.6519
39459SOL    HW121270   9.767   4.193   7.803  0.2180 -2.1414 -0.4886
39459SOL    HW221271   9.804   4.335   7.765 -0.4114 -1.1255  2.4740
39460SOL     OW21272   1.266   9.173   4.644  0.5759  0.0935 -0.6208
39460SOL    HW121273   1.264   9.237   4.715  0.0172  1.0862 -1.5046
39460SOL    HW221274   1.196   9.200   4.585 -0.1573 -1.7507 -0.6783
39461SOL     OW21275   8.085   3.011   9.889  0.5550  0.0981  0.3858
39461SOL    HW121276   8.101   2.925   9.852  2.6337  0.1013  1.1667
39461SOL    HW221277   8.004   3.040   9.847  0.7645 -1.4683 -1.2341
39462SOL     OW21278   0.939   5.641   5.140  0.0584 -0.3311  0.7765
39462SOL    HW121279   0.891   5.671   5.064 -1.7608 -2.1041  1.1386
39462SOL    HW221280   1.012   5.590   5.104 -0.3638 -0.5447  0.2081
39463SOL     OW21281   1.242   7.607   6.029  0.2420 -0.2842  0.2269
39463SOL    HW121282   1.198   7.645   6.105  0.8129  0.8970 -0.0169
39463SOL    HW221283   1.306   7.673   6.002 -0.0967 -0.5782 -1.4181
39464SOL     OW21284   6.836   8.537   5.690 -0.4303 -0.1344  0.5428
39464SOL    HW121285   6.822   8.445   5.668 -0.4480 -0.2418  1.0000
39464SOL    HW221286   6.771   8.556   5.758  0.3372 -0.0983  1.2762
39465SOL     OW21287   9.689   5.864   6.865  0.6635  0.2446  0.0094
39465SOL    HW121288   9.752   5.792   6.876 -1.1715 -1.1072  3.5103
39465SOL    HW221289   9.729   5.937   6.912 -0.7067 -1.0470  3.5728
39466SOL     OW21290   3.961   6.378   8.784 -0.2061 -0.3993 -0.0016
39466SOL    HW121291   4.047   6.376   8.743 -0.3964  0.2440 -0.4335
39466SOL    HW221292   3.946   6.470   8.805  0.4922 -0.8360  2.8084
39467SOL     OW21293   3.450   3.046   6.445  0.4594  1.3018 -0.0619
39467SOL    HW121294   3.531   3.012   6.485  0.3686  0.0558 -0.8876
39467SOL    HW221295   3.409   2.970   6.405 -1.5057  1.7809  0.9397
39468SOL     OW21296   3.042   3.232   6.532  0.3692 -0.2589 -0.1753
39468SOL    HW121297   3.079   3.309   6.489  1.6256 -0.6434  0.1877
39468SOL    HW221298   3.012   3.176   6.461 -1.1576  0.8188 -0.4391
39469SOL     OW21299   6.578   1.913   0.954  0.3231  0.3733  0.2532
39469SOL    HW121300   6.544   1.853   0.887  1.7940 -1.4733  1.0526
39469SOL    HW221301   6.506   1.923   1.016 -0.2503  0.1512 -0.3650
39470SOL     OW21302  10.171   0.903   2.946 -0.3636 -0.0644  0.2418
39470SOL    HW121303  10.243   0.857   2.989 -1.5403 -1.5753  0.6993
39470SOL    HW221304  10.183   0.995   2.968  1.0299 -0.3835  0.8635
39471SOL     OW21305   0.788   8.919   2.905 -0.3211  0.0944  0.1923
39471SOL    HW121306   0.803   8.845   2.963 -0.8810 -0.1990 -0.0327
39471SOL    HW221307   0.857   8.911   2.839  0.7456  0.8267  1.1936
39472SOL     OW21308   1.788   1.896   4.419 -0.5152  0.0337  0.3721
39472SOL    HW121309   1.794   1.992   4.426 -2.5370  0.2436 -0.0886
39472SOL    HW221310   1.847   1.863   4.487  3.4393  1.4800 -2.0179
39473SOL     OW21311   2.790  10.553   9.541 -0.0373  0.3841 -0.2290
39473SOL    HW121312   2.695  10.542   9.548  0.0646 -1.0484 -0.7983
39473SOL    HW221313   2.827  10.477   9.588  0.7867 -0.1026 -1.5977
39474SOL     OW21314   3.935   7.967   6.035  0.1934  0.2040  0.2854
39474SOL    HW121315   3.907   8.006   6.118 -1.9532  2.3798 -1.2983
39474SOL    HW221316   3.853   7.939   5.993  1.1661 -0.4531 -1.2925
39475SOL     OW21317   9.802   2.745   0.685 -0.4226 -0.1610 -0.3035
39475SOL    HW121318   9.772   2.691   0.757  0.4059  0.1802  0.3148
39475SOL    HW221319   9.881   2.788   0.718 -0.9899  1.3385 -0.8028
39476SOL     OW21320   2.334   2.605   6.779 -0.3902  0.9542 -0.4853
39476SOL    HW121321   2.365   2.636   6.864  0.5841  1.8088 -1.1199
39476SOL    HW221322   2.240   2.596   6.790 -0.0710 -0.7801  1.2193
39477SOL     OW21323   1.134   3.822   7.576 -0.2465  0.5247 -0.5398
39477SOL    HW121324   1.167   3.857   7.658 -0.3555 -0.5655 -0.0164
39477SOL    HW221325   1.073   3.889   7.544 -0.1312  0.9979  0.2077
39478SOL     OW21326   0.317   2.450   6.302  0.0261  0.5631 -0.2622
39478SOL    HW121327   0.281   2.482   6.385  0.5671  1.9181 -0.5117
39478SOL    HW221328   0.241   2.421   6.252 -0.3270 -0.0358  0.6127
39479SOL     OW21329   4.124   5.210   6.417 -0.2258 -0.5791 -0.0779
39479SOL    HW121330   4.099   5.122   6.444 -2.6402  0.3141  0.8971
39479SOL    HW221331   4.190   5.237   6.480 -1.5026 -0.7196  1.3739
39480SOL     OW21332   1.193  10.255   0.326 -0.5885  0.1530 -0.2529
39480SOL    HW121333   1.128  10.314   0.286 -0.5181 -0.6225 -1.5543
39480SOL    HW221334   1.247  10.225   0.253  0.1314 -0.5958  0.5636
39481SOL     OW21335   5.330   7.606  10.209  0.2034 -0.7285  0.2698
39481SOL    HW121336   5.318   7.695  10.176  1.3919  0.4453  2.7571
39481SOL    HW221337   5.241   7.577  10.232 -0.3161 -0.6340 -1.4909
39482SOL     OW21338   2.069   7.733   3.183 -0.1126  0.1775 -0.3641
39482SOL    HW121339   2.152   7.717   3.228 -0.2543  0.1707 -0.1055
39482SOL    HW221340   2.051   7.825   3.199 -0.4518  0.0362  0.0776
39483SOL     OW21341   3.375   1.130   3.915  0.1282  0.3892 -0.5550
39483SOL    HW121342   3.459   1.170   3.936  0.1927  0.0120 -0.0900
39483SOL    HW221343   3.395   1.038   3.899 -0.4365 -0.0922  1.3026
39484SOL     OW21344   8.865   6.119   2.657  0.4503  0.3186 -0.4340
39484SOL    HW121345   8.922   6.043   2.649  0.3858  0.2679 -0.4085
39484SOL    HW221346   8.778   6.083   2.672  0.3825  0.3930 -0.6429
39485SOL     OW21347   7.544   2.509   7.223 -0.3465 -0.3481  0.0535
39485SOL    HW121348   7.502   2.563   7.289 -0.7066 -1.5716  0.8582
39485SOL    HW221349   7.475   2.488   7.161 -0.3998 -0.5364  0.1753
39486SOL     OW21350   6.392   3.625   4.381  0.1065 -0.1066 -0.1257
39486SOL    HW121351   6.354   3.669   4.457 -0.7338 -1.0320  0.0111
39486SOL    HW221352   6.349   3.540   4.379 -0.0362 -0.0246 -1.7574
39487SOL     OW21353   6.293   6.081   0.607 -0.2968 -0.0692 -0.1970
39487SOL    HW121354   6.284   6.093   0.701 -0.5251 -0.3028 -0.1905
39487SOL    HW221355   6.376   6.035   0.596 -0.6873 -0.8159 -0.0551
39488SOL     OW21356  10.311  10.320   6.111 -0.2673  0.2000  0.6048
39488SOL    HW121357  10.323  10.396   6.054 -1.6175  0.7517  1.0044
39488SOL    HW221358  10.372  10.254   6.078  0.8051  1.3991  0.1505
39489SOL     OW21359   9.591   4.983   3.549 -0.7459 -0.1021  0.1080
39489SOL    HW121360   9.673   4.938   3.570 -0.7481  0.8706  2.4914
39489SOL    HW221361   9.617   5.052   3.488  0.4990  0.9694  1.7442
39490SOL     OW21362   0.488   2.252   0.269  0.2110  0.1758 -0.2811
39490SOL    HW121363   0.478   2.183   0.203  2.3199 -0.3665 -0.0903
39490SOL    HW221364   0.582   2.266   0.276 -0.1392  3.5143 -0.6912
39491SOL     OW21365   2.903   9.177   4.355 -0.6266  0.3649  0.0136
39491SOL    HW121366   2.962   9.150   4.284 -0.8894 -0.3458  0.0571
39491SOL    HW221367   2.849   9.100   4.372 -3.1510  1.6205 -1.5687
39492SOL     OW21368   9.751   0.251   2.347 -0.3921 -0.1131 -0.0914
39492SOL    HW121369   9.709   0.270   2.432  1.1773 -0.2656  0.7492
39492SOL    HW221370   9.830   0.203   2.370  1.0441  1.4550 -1.5249
39493SOL     OW21371   0.412   5.459   0.279  0.1954  0.1045 -0.3926
39493SOL    HW121372   0.447   5.450   0.368 -1.9591 -0.6832  0.4529
39493SOL    HW221373   0.392   5.552   0.271  0.1972  0.1444  0.0437
39494SOL     OW21374   6.508   4.657   7.047 -0.5595 -0.0192  0.0728
39494SOL    HW121375   6.484   4.573   7.010  0.0998 -0.1509 -0.0610
39494SOL    HW221376   6.462   4.660   7.131 -0.5815 -0.5101  0.0788
39495SOL     OW21377   0.113   1.938   0.649 -0.0192 -0.3144 -0.0365
39495SOL    HW121378   0.073   1.861   0.610  2.3213 -1.2327 -0.8403
39495SOL    HW221379   0.040   1.991   0.680 -1.9653 -0.5685 -3.7052
39496SOL     OW21380   3.730   5.440   3.844 -0.4167 -0.1280  0.1180
39496SOL    HW121381   3.757   5.490   3.766 -0.1961 -0.6435 -0.1397
39496SOL    HW221382   3.776   5.357   3.836 -1.2225 -0.5886  0.2627
39497SOL     OW21383   8.035   2.995   1.416 -0.5506  0.1331 -0.0020
39497SOL    HW121384   8.098   3.029   1.353 -0.5862  0.9092  0.3638
39497SOL    HW221385   7.954   3.042   1.397 -0.5513  0.3979  0.6275
39498SOL     OW21386   2.554   7.638   6.656 -0.5716 -0.1280 -0.3514
39498SOL    HW121387   2.592   7.551   6.663 -1.3707 -0.4722 -0.1577
39498SOL    HW221388   2.627   7.694   6.631  0.1869 -0.6639  0.5778
39499SOL     OW21389   2.469   9.556   2.463  0.2145 -0.7859 -0.4051
39499SOL    HW121390   2.473   9.584   2.371  0.1086 -0.9184 -0.4500
39499SOL    HW221391   2.405   9.615   2.503  1.4459  0.3409 -0.0343
39500SOL     OW21392   2.904  10.745   7.871  0.6650  0.4519 -0.9985
39500SOL    HW121393   2.855  10.682   7.923  1.3461 -0.5712 -1.5566
39500SOL    HW221394   2.853  10.826   7.876  0.5046  0.2759  0.8815
39501SOL     OW21395   7.184   6.700   4.892  0.3009 -0.0418 -0.4884
39501SOL    HW121396   7.158   6.721   4.803  0.0326  0.1379 -0.3713
39501SOL    HW221397   7.106   6.719   4.945  0.7160  0.6255 -0.1110
39502SOL     OW21398   2.113   7.963   5.930  0.2035 -0.1442 -0.7447
39502SOL    HW121399   2.106   7.972   6.025  2.7197  1.5882 -0.6399
39502SOL    HW221400   2.022   7.956   5.900 -0.6347 -1.9786  1.8200
39503SOL     OW21401   0.095   7.946   8.282 -0.0949 -0.4294 -0.1083
39503SOL    HW121402   0.173   8.000   8.295  1.1111 -2.5076  2.1419
39503SOL    HW221403   0.040   7.966   8.358 -0.2638 -1.2847  0.0024
39504SOL     OW21404   0.442   9.064   4.779 -0.2847 -0.3278  0.4151
39504SOL    HW121405   0.430   9.107   4.864  1.2732  0.7729  0.1096
39504SOL    HW221406   0.355   9.029   4.759 -1.7453  2.7525  0.6632
39505SOL     OW21407   1.970   1.223   0.526 -0.1017 -0.4818  0.8106
39505SOL    HW121408   1.955   1.130   0.507 -3.0574 -0.1994  1.3617
39505SOL    HW221409   2.005   1.224   0.615 -0.2815 -1.0694  0.8950
39506SOL     OW21410   3.535   1.045   0.770 -0.2596 -0.3995 -0.1358
39506SOL    HW121411   3.577   1.123   0.734 -1.0358  1.2068  2.1610
39506SOL    HW221412   3.458   1.079   0.816 -1.2348 -2.6720  0.0220
39507SOL     OW21413   3.755   4.435   7.396  0.6425 -0.0721  0.3259
39507SOL    HW121414   3.824   4.491   7.359 -0.1149 -0.3428 -1.6060
39507SOL    HW221415   3.750   4.361   7.336  0.4939 -1.4263  1.9398
39508SOL     OW21416   9.993   9.840   2.979 -0.1957  0.0665  0.2428
39508SOL    HW121417   9.899   9.828   2.994  0.0511 -0.8630  1.1108
39508SOL    HW221418   9.998   9.870   2.889 -1.3709  0.7235  0.3639
39509SOL     OW21419   1.913   1.856   0.623  0.9692 -0.6388 -0.0577
39509SOL    HW121420   1.997   1.837   0.665  1.1300 -2.0381 -0.9609
39509SOL    HW221421   1.849   1.808   0.675  0.7223  0.3050  0.5374
39510SOL     OW21422   4.343   5.328   7.984  0.4226 -0.0547  0.2294
39510SOL    HW121423   4.367   5.399   8.044  0.3617 -0.4258  0.7060
39510SOL    HW221424   4.291   5.370   7.916  0.5735  0.3930  0.3836
39511SOL     OW21425   3.016   1.262   2.135 -0.3618  0.5343 -0.4257
39511SOL    HW121426   2.943   1.204   2.157 -1.3879  1.1421 -2.0188
39511SOL    HW221427   2.983   1.350   2.152  0.7785  0.7377  0.8865
39512SOL     OW21428   6.110   7.427  10.247  0.1536  0.0502 -0.5392
39512SOL    HW121429   6.128   7.514  10.283  1.0715 -0.1382 -0.5286
39512SOL    HW221430   6.016   7.429  10.227  0.4166  1.5069 -1.8042
39513SOL     OW21431   3.102   8.229   9.820  0.0697 -0.6604  0.6461
39513SOL    HW121432   3.057   8.188   9.746  1.0746  0.3346 -0.5460
39513SOL    HW221433   3.189   8.251   9.787  0.6055 -0.3317  2.1747
39514SOL     OW21434  10.793   5.693   4.339 -0.2229  1.1832  0.2948
39514SOL    HW121435  10.730   5.629   4.308 -0.7762  1.7004  0.3399
39514SOL    HW221436  10.744   5.749   4.400  0.6091  0.7526  1.4032
39515SOL     OW21437   7.975   3.462   6.430 -0.2106 -0.7709 -0.2516
39515SOL    HW121438   7.908   3.394   6.435  0.2879 -1.2203  0.5993
39515SOL    HW221439   8.049   3.426   6.478  0.5541 -0.1725 -0.9527
39516SOL     OW21440   3.831   6.915   8.435 -0.0144 -0.3816  0.1899
39516SOL    HW121441   3.919   6.934   8.403  0.6849  1.3272  2.7711
39516SOL    HW221442   3.827   6.958   8.520 -2.7117 -2.0518  1.0365
39517SOL     OW21443  10.160   7.454   8.296  0.5993 -0.5989 -0.5835
39517SOL    HW121444  10.158   7.510   8.374 -0.0614 -0.0483 -0.9826
39517SOL    HW221445  10.118   7.372   8.325 -1.2031  0.2012 -0.7755
39518SOL     OW21446   1.067   4.998   7.276  0.0309 -0.4228 -0.3798
39518SOL    HW121447   1.005   4.963   7.340  0.4780  1.1155  0.9576
39518SOL    HW221448   1.013   5.044   7.212 -0.2867  0.3331  0.4080
39519SOL     OW21449   7.351   4.342   3.098  0.0546  0.4787 -0.5192
39519SOL    HW121450   7.403   4.421   3.083 -0.5313  0.6127 -2.0334
39519SOL    HW221451   7.291   4.366   3.169  2.5083  0.0550  1.8338
39520SOL     OW21452   3.537   9.185   6.803  0.2473 -0.2954  0.4819
39520SOL    HW121453   3.459   9.237   6.784  0.3117 -0.5054 -0.4265
39520SOL    HW221454   3.578   9.229   6.877  0.1332  0.7703 -0.0621
39521SOL     OW21455   6.381   4.294   7.981  0.2351  0.2330  0.0072
39521SOL    HW121456   6.465   4.298   8.025  0.4061 -0.3840 -0.2503
39521SOL    HW221457   6.336   4.219   8.021 -0.0984  0.4274 -0.0030
39522SOL     OW21458   7.439   5.709   1.461 -0.4812  0.3478  0.1663
39522SOL    HW121459   7.398   5.690   1.377  0.3728 -0.8766 -0.0072
39522SOL    HW221460   7.408   5.639   1.519  0.8539 -0.2656  0.1803
39523SOL     OW21461   6.586   2.033   7.793  0.2706  0.3650  0.1552
39523SOL    HW121462   6.546   1.985   7.720 -1.1972  1.8997 -0.1045
39523SOL    HW221463   6.580   1.974   7.867  0.8005 -0.8080 -0.7082
39524SOL     OW21464   8.820   1.413   8.098  0.1705  0.3430 -0.2267
39524SOL    HW121465   8.854   1.344   8.041 -1.5284 -0.5880 -0.1713
39524SOL    HW221466   8.725   1.401   8.097  0.0251  0.8455  2.1317
39525SOL     OW21467   8.652   5.765   2.837  0.0203  0.5102 -0.2454
39525SOL    HW121468   8.630   5.846   2.790  0.2073  1.9487  2.0033
39525SOL    HW221469   8.581   5.754   2.900 -0.8994 -2.0830 -1.5874
39526SOL     OW21470   1.681   8.061   9.768 -0.2646  0.1725 -0.4738
39526SOL    HW121471   1.742   8.046   9.840 -1.0372 -0.3602  0.0761
39526SOL    HW221472   1.606   8.105   9.808 -1.1332 -1.0039 -0.7546
39527SOL     OW21473   6.581   3.389   5.632  0.2382 -0.3074 -0.2441
39527SOL    HW121474   6.547   3.412   5.545 -0.3247 -0.2843 -0.0240
39527SOL    HW221475   6.617   3.471   5.665  3.2265 -0.9287 -1.6509
39528SOL     OW21476   9.557  10.360   8.666  0.1267 -0.6907  0.2903
39528SOL    HW121477   9.503  10.284   8.686 -2.2492  1.2991  1.9004
39528SOL    HW221478   9.584  10.394   8.751 -0.8057  1.5758 -0.2516
39529SOL     OW21479   6.017  10.779   5.558 -0.4551  0.1938  0.0781
39529SOL    HW121480   6.097  10.746   5.517 -0.1138  1.6159 -0.4564
39529SOL    HW221481   5.947  10.731   5.515  0.0884 -1.3094  0.7790
39530SOL     OW21482   0.932   9.487   3.216  0.3266 -0.1959  0.0790
39530SOL    HW121483   0.846   9.463   3.250  0.4607 -0.6498  0.1080
39530SOL    HW221484   0.918   9.570   3.170 -0.1982 -0.4467 -0.2192
39531SOL     OW21485   0.749   4.535   7.746 -0.4171  0.3129  0.0044
39531SOL    HW121486   0.691   4.459   7.747 -1.4821  1.0965  1.0218
39531SOL    HW221487   0.729   4.579   7.663 -0.5439  0.0319 -0.1152
39532SOL     OW21488   5.543   2.733   9.732 -0.5725 -0.7715  0.7062
39532SOL    HW121489   5.589   2.717   9.649  1.9214 -1.5424  2.1246
39532SOL    HW221490   5.588   2.809   9.769 -1.6119 -0.4777  1.3949
39533SOL     OW21491   7.166   6.781  10.622  0.1720 -0.8129  0.0358
39533SOL    HW121492   7.221   6.730  10.682 -0.7506  0.9962  2.6247
39533SOL    HW221493   7.182   6.872  10.647 -2.9487 -0.1394 -0.0057
39534SOL     OW21494   6.883   2.461   7.361 -0.6631 -0.0511 -0.1715
39534SOL    HW121495   6.958   2.503   7.319 -0.5840 -0.1503 -0.1302
39534SOL    HW221496   6.835   2.532   7.402 -1.2122  0.1685 -1.1595
39535SOL     OW21497  10.610   1.828   8.957 -0.4639  0.7851 -0.2471
39535SOL    HW121498  10.561   1.759   8.912 -2.8314  2.1575  0.0636
39535SOL    HW221499  10.634   1.790   9.041  0.6550 -0.5184 -1.1144
39536SOL     OW21500   1.205  10.247   2.058 -0.0772  0.1884  0.2664
39536SOL    HW121501   1.238  10.225   2.145  0.9241 -0.3815 -0.2517
39536SOL    HW221502   1.279  10.288   2.014 -0.3861 -0.1094 -0.5385
39537SOL     OW21503   8.527   9.517   1.281  0.2857 -0.4199 -0.3372
39537SOL    HW121504   8.460   9.460   1.244 -0.8133  0.5869  0.0517
39537SOL    HW221505   8.499   9.533   1.371  0.3359  1.0654 -0.5601
39538SOL     OW21506   4.041   3.564   7.320  0.1699  0.5468 -0.0307
39538SOL    HW121507   4.077   3.653   7.328 -0.8420  0.9191  0.4972
39538SOL    HW221508   4.028   3.553   7.225  0.5257  0.8724 -0.1205
39539SOL     OW21509   5.912   4.894   2.900  0.2029 -0.4502  0.2214
39539SOL    HW121510   5.906   4.871   2.807 -0.4509  1.3808 -0.2471
39539SOL    HW221511   5.944   4.985   2.899 -0.6626 -0.1050  1.7594
39540SOL     OW21512   7.655   4.410   2.342  0.0613 -0.2264  0.4304
39540SOL    HW121513   7.697   4.327   2.320 -0.4966 -0.2054 -0.7962
39540SOL    HW221514   7.632   4.448   2.257 -1.0751  0.4694  1.0268
39541SOL     OW21515   0.657  10.440   4.816  0.3776 -0.0215 -0.4115
39541SOL    HW121516   0.749  10.465   4.820 -0.1942  2.2424  2.8895
39541SOL    HW221517   0.614  10.514   4.773 -0.3042  1.1917  2.0976
39542SOL     OW21518   6.409   4.661   6.434 -0.1422 -0.5997 -0.4146
39542SOL    HW121519   6.366   4.576   6.423 -1.1307 -0.2979  0.9313
39542SOL    HW221520   6.358   4.705   6.501  0.7149  0.8414 -0.6763
39543SOL     OW21521   5.375   9.250   7.304  0.2435  0.5430 -0.3729
39543SOL    HW121522   5.320   9.301   7.245  0.3878  0.9919 -0.1291
39543SOL    HW221523   5.338   9.162   7.303  0.2601  0.5420 -1.1439
39544SOL     OW21524   6.996   3.255   9.132 -0.4829 -0.0200 -0.1525
39544SOL    HW121525   7.077   3.306   9.128 -0.7388  0.3730 -0.3637
39544SOL    HW221526   7.003   3.205   9.213  0.5980 -1.0506 -0.8416
39545SOL     OW21527   8.966   8.025   4.448  0.2544 -0.7006  0.2272
39545SOL    HW121528   8.920   7.993   4.370  1.2758 -0.1881 -0.6144
39545SOL    HW221529   9.057   7.999   4.435  0.6276  0.2631  0.7703
39546SOL     OW21530   2.715   2.992   6.226 -0.2309 -0.1407  0.2937
39546SOL    HW121531   2.650   2.923   6.233 -0.9764  0.6438  1.3369
39546SOL    HW221532   2.664   3.072   6.212  0.6573 -0.0270 -3.5355
39547SOL     OW21533   9.551   2.702   6.500  0.1614 -0.6031 -0.2521
39547SOL    HW121534   9.591   2.751   6.428  1.9103 -0.2033  0.9244
39547SOL    HW221535   9.508   2.770   6.552 -0.0800 -0.7298 -0.2899
39548SOL     OW21536   4.895   3.989   1.888  0.5877  0.3548 -0.3260
39548SOL    HW121537   4.941   3.934   1.951  1.2569  1.7733  0.4667
39548SOL    HW221538   4.922   3.954   1.802  0.8602 -0.6328  0.1383
39549SOL     OW21539   4.627   8.068   0.557 -0.0594 -0.4420 -0.4357
39549SOL    HW121540   4.581   8.069   0.641 -0.0567 -1.8099 -0.3944
39549SOL    HW221541   4.615   8.156   0.521  0.1391  0.2367  1.0951
39550SOL     OW21542   8.316   6.788   3.949 -0.1668 -0.5643  0.1700
39550SOL    HW121543   8.321   6.789   4.044  0.0239 -0.3426  0.1603
39550SOL    HW221544   8.390   6.735   3.921 -1.6376 -2.7700  0.2080
39551SOL     OW21545   5.247   5.013   6.109 -0.6012  0.4107 -0.2663
39551SOL    HW121546   5.318   4.997   6.171 -1.8096 -2.8682  0.4928
39551SOL    HW221547   5.247   5.108   6.096  1.7630  0.8839  2.2302
39552SOL     OW21548   0.787   6.761   8.113  0.3336  0.4636  0.2552
39552SOL    HW121549   0.873   6.721   8.102  0.5520  1.5865 -3.1444
39552SOL    HW221550   0.805   6.846   8.154  0.8232  0.6163 -0.2738
39553SOL     OW21551   2.159   6.850   1.929  0.3110  0.0063  0.5342
39553SOL    HW121552   2.148   6.914   1.858  0.0766 -0.6999 -0.0766
39553SOL    HW221553   2.190   6.771   1.886  1.2458 -0.1081  1.3729
39554SOL     OW21554   7.535   6.477   1.724 -0.2164  0.9365 -0.4857
39554SOL    HW121555   7.446   6.474   1.689 -0.4054  1.8420 -0.1333
39554SOL    HW221556   7.579   6.545   1.673  0.1108  0.8662 -0.3029
39555SOL     OW21557   5.660   8.198   7.327 -1.0646 -0.0232  0.1659
39555SOL    HW121558   5.693   8.184   7.238  0.1018  0.3113  0.5201
39555SOL    HW221559   5.581   8.252   7.315 -0.8232  0.1684 -0.6578
39556SOL     OW21560   9.611  10.096   7.387  0.4974  0.1046 -0.3007
39556SOL    HW121561   9.696  10.080   7.348  0.1237 -1.2322 -0.6301
39556SOL    HW221562   9.558  10.021   7.360 -0.5366  0.4901  0.5825
39557SOL     OW21563   9.593   6.969   6.786  0.2499  0.3721  0.2114
39557SOL    HW121564   9.633   7.005   6.865 -0.2444 -0.1565  0.7054
39557SOL    HW221565   9.503   6.948   6.811  0.5327 -1.2568 -0.0430
39558SOL     OW21566   1.443   9.127   9.542 -0.6001  0.1686 -0.1840
39558SOL    HW121567   1.385   9.187   9.590  0.9436  1.0917  0.5973
39558SOL    HW221568   1.468   9.176   9.463  0.0052  0.2277  0.0410
39559SOL     OW21569   1.073   2.927   3.868 -0.1539 -0.5947 -0.7354
39559SOL    HW121570   1.126   2.886   3.800  0.8130 -1.7262  0.6402
39559SOL    HW221571   1.035   2.854   3.916 -0.4953  0.1653  0.1898
39560SOL     OW21572   5.101   3.606   1.119  0.0154 -0.1200 -0.2413
39560SOL    HW121573   5.104   3.694   1.155 -0.4064 -0.6480  1.1362
39560SOL    HW221574   5.008   3.583   1.117  0.2029 -1.0526  0.7537
39561SOL     OW21575   6.772   8.736   6.634 -0.3599 -0.3141  0.1668
39561SOL    HW121576   6.769   8.794   6.558  1.3364  1.0112  1.0153
39561SOL    HW221577   6.683   8.736   6.668 -0.9438 -0.2174 -1.2756
39562SOL     OW21578   6.957   7.932   1.065  0.0606 -0.2385 -0.3447
39562SOL    HW121579   6.965   8.017   1.022 -1.4214 -0.4386 -1.0897
39562SOL    HW221580   7.017   7.875   1.016  0.7652  0.2660 -0.0908
39563SOL     OW21581   8.654   2.691   4.593 -0.1736  0.7800 -0.0410
39563SOL    HW121582   8.664   2.771   4.645  0.5022 -0.0935  1.2310
39563SOL    HW221583   8.741   2.677   4.554  0.6078 -0.8473  2.0837
39564SOL     OW21584   6.549   5.820   0.960  0.1361 -0.1995 -0.2364
39564SOL    HW121585   6.575   5.736   0.924  0.4313  0.0803 -0.6959
39564SOL    HW221586   6.631   5.868   0.972 -0.1432  1.0201 -2.5346
39565SOL     OW21587   5.353   9.024   9.251 -0.3905  0.5113 -0.6768
39565SOL    HW121588   5.355   8.986   9.163 -2.2894 -2.3901  0.3942
39565SOL    HW221589   5.445   9.034   9.275  0.2465 -2.0340 -1.7131
39566SOL     OW21590   9.208   7.865  10.688  0.1462 -0.6305 -0.2169
39566SOL    HW121591   9.205   7.951  10.646  1.3086 -0.7110 -0.5029
39566SOL    HW221592   9.197   7.883  10.781 -2.6459 -0.4561 -0.4716
39567SOL     OW21593   5.819  10.523  10.738 -0.0461 -0.0897  0.0696
39567SOL    HW121594   5.871  10.444  10.724 -0.3436 -0.1689 -0.6278
39567SOL    HW221595   5.728  10.493  10.731 -0.1829  0.6695 -2.4519
39568SOL     OW21596   7.213   5.115   6.500  0.3485  0.2924 -0.1183
39568SOL    HW121597   7.252   5.092   6.584  0.3829  0.6782 -0.0240
39568SOL    HW221598   7.191   5.208   6.508 -1.1015 -0.0389  0.0260
39569SOL     OW21599   9.845   0.383   5.906  0.6378  0.2742 -0.0874
39569SOL    HW121600   9.909   0.348   5.969  1.0604  2.0503  0.5286
39569SOL    HW221601   9.775   0.418   5.961  0.2136  0.3503 -0.6806
39570SOL     OW21602   9.054   2.017   2.651 -0.4012 -0.0716  0.4752
39570SOL    HW121603   9.108   2.033   2.574 -0.5996 -2.6188 -0.2996
39570SOL    HW221604   9.112   2.032   2.725  1.4183 -2.5127 -0.3258
39571SOL     OW21605   9.596   1.067   4.886 -0.5356  0.8005  0.3089
39571SOL    HW121606   9.666   1.006   4.907 -1.9953 -1.8212 -1.7041
39571SOL    HW221607   9.525   1.044   4.947 -1.7225 -0.8932 -1.5875
39572SOL     OW21608   5.622   5.471   6.915 -0.0325 -0.5827 -0.1237
39572SOL    HW121609   5.599   5.465   6.822  0.1949  1.0909 -0.3151
39572SOL    HW221610   5.545   5.512   6.956 -0.0620 -1.1493  0.4023
39573SOL     OW21611   5.234   0.266   9.607 -0.0352 -0.4890 -0.2982
39573SOL    HW121612   5.139   0.250   9.603  0.1047 -1.0959 -2.8213
39573SOL    HW221613   5.271   0.179   9.621  0.1895 -0.5648 -1.2614
39574SOL     OW21614   3.942  10.352   7.859 -0.0816  0.1224  0.1277
39574SOL    HW121615   3.858  10.371   7.902  0.0322  2.4601 -0.5423
39574SOL    HW221616   4.006  10.353   7.930 -0.4367 -0.3539  0.4620
39575SOL     OW21617   5.056   7.881   9.083 -0.1893 -0.2426  0.1909
39575SOL    HW121618   5.021   7.888   9.172  1.0151 -0.2841  0.6888
39575SOL    HW221619   5.151   7.885   9.094 -0.0319  2.0242 -1.2791
39576SOL     OW21620   3.594   9.822   7.300 -0.1165 -0.1414 -0.1441
39576SOL    HW121621   3.504   9.852   7.302 -0.0721 -0.0286  0.3688
39576SOL    HW221622   3.624   9.839   7.211 -1.6088 -3.1983 -1.3962
39577SOL     OW21623   5.002   8.232   5.396  0.5022  0.3286  0.0719
39577SOL    HW121624   5.097   8.223   5.389  0.6622  1.3452  0.7793
39577SOL    HW221625   4.988   8.273   5.481 -0.5110  1.1519 -0.4699
39578SOL     OW21626   3.039   9.534   7.827  0.3294 -0.2706 -0.1614
39578SOL    HW121627   3.099   9.561   7.897  1.9353 -2.4877 -0.5768
39578SOL    HW221628   3.021   9.442   7.845 -1.8464 -0.0391 -0.8929
39579SOL     OW21629   6.476   3.501   7.628  0.2593 -0.4937 -0.1658
39579SOL    HW121630   6.409   3.562   7.660 -0.1073 -0.8568 -0.2260
39579SOL    HW221631   6.517   3.466   7.707  2.1898  1.6556 -0.1211
39580SOL     OW21632   4.259   0.357   5.462 -0.0689 -0.6847 -0.4643
39580SOL    HW121633   4.222   0.335   5.376 -0.5261 -0.2408 -0.3847
39580SOL    HW221634   4.276   0.451   5.458 -2.1525 -0.1905  0.6694
39581SOL     OW21635   5.932   4.704   3.371  0.4126  1.1120 -0.2865
39581SOL    HW121636   5.973   4.789   3.383 -0.4060  1.6598 -1.1923
39581SOL    HW221637   5.860   4.721   3.310 -0.7179  0.0585  0.7046
39582SOL     OW21638   0.882   1.756   7.651 -0.6190  0.1312  0.7362
39582SOL    HW121639   0.892   1.741   7.745 -0.1093  0.9753  0.8282
39582SOL    HW221640   0.839   1.677   7.618  0.5095 -0.8217  1.4462
39583SOL     OW21641   1.222   4.242   4.402 -0.3717 -0.1378  0.1667
39583SOL    HW121642   1.272   4.257   4.482 -1.8251  1.3758  0.8680
39583SOL    HW221643   1.172   4.323   4.390 -0.6454 -0.5610 -1.9550
39584SOL     OW21644   3.097   9.292   9.020  0.2240 -0.2007  0.5151
39584SOL    HW121645   3.022   9.270   8.965 -0.1073  1.5270  0.2195
39584SOL    HW221646   3.168   9.308   8.957 -0.3854  2.6856  0.4283
39585SOL     OW21647   2.379  10.789   7.350  0.4951 -0.3370 -0.0551
39585SOL    HW121648   2.329  10.714   7.317 -0.0214 -0.6431  1.3316
39585SOL    HW221649   2.469  10.758   7.355  0.6649 -0.1305 -1.5802
39586SOL     OW21650   3.607   5.517   6.610  0.5155 -0.3568  0.3982
39586SOL    HW121651   3.523   5.558   6.590  0.9724 -0.0105 -0.8859
39586SOL    HW221652   3.672   5.576   6.572  1.3493 -0.6750  1.2875
39587SOL     OW21653   0.049   0.777   4.723  0.1637  0.1284 -0.5850
39587SOL    HW121654   0.118   0.826   4.767 -0.2604  0.3297 -0.1307
39587SOL    HW221655   0.060   0.799   4.631  0.4949  0.4300 -0.4786
39588SOL     OW21656   5.967   8.575   9.872  0.2114  0.1322  0.5393
39588SOL    HW121657   6.041   8.625   9.838  1.1539 -1.1094  0.6888
39588SOL    HW221658   5.995   8.548   9.960 -0.9092  0.6145  1.0703
39589SOL     OW21659   9.145   9.685   6.936 -0.5634 -0.0060 -0.0247
39589SOL    HW121660   9.088   9.657   7.008  0.9644 -0.2658  1.1556
39589SOL    HW221661   9.099   9.759   6.896 -1.8980 -0.4626  0.6197
39590SOL     OW21662   0.573   1.311   7.587 -0.6840  0.7916 -0.1967
39590SOL    HW121663   0.574   1.325   7.492 -0.7454  1.3630 -0.1221
39590SOL    HW221664   0.499   1.252   7.601 -0.9347  1.0364 -0.4663
39591SOL     OW21665   9.386   5.064   6.955 -0.0959 -0.3454 -0.2193
39591SOL    HW121666   9.467   5.109   6.976 -1.1133  1.8087 -0.6875
39591SOL    HW221667   9.352   5.110   6.878 -2.5064 -0.2186  0.8534
39592SOL     OW21668   9.212   0.815   8.065  0.0606 -0.1934 -0.0271
39592SOL    HW121669   9.251   0.842   8.148 -0.9452 -0.3592  0.5120
39592SOL    HW221670   9.222   0.720   8.062  4.1496  0.0676 -2.2021
39593SOL     OW21671   9.449   6.993   6.052 -0.5142  0.1552  0.3462
39593SOL    HW121672   9.372   7.021   6.099  0.1099  2.0311  0.3163
39593SOL    HW221673   9.517   6.983   6.119 -0.7429 -1.4732  0.3743
39594SOL     OW21674   5.904   7.968   1.076  0.0623  0.3589  0.0407
39594SOL    HW121675   5.892   7.949   1.169  1.0145 -0.4893 -0.0033
39594SOL    HW221676   5.872   7.890   1.031 -0.6430  0.8685 -0.3755
39595SOL     OW21677   1.685   6.592   9.231  0.1318  1.2571 -0.7219
39595SOL    HW121678   1.693   6.590   9.136  1.8751 -0.4717 -0.6014
39595SOL    HW221679   1.767   6.554   9.263 -1.8761 -1.8040  1.3672
39596SOL     OW21680   9.815   8.421   7.837 -0.3518  0.1697  0.0969
39596SOL    HW121681   9.815   8.418   7.933  1.5657  2.1376  0.2261
39596SOL    HW221682   9.839   8.332   7.810 -1.8252 -0.6625  1.3752
39597SOL     OW21683   0.661   2.456   5.144  0.1831  0.1551 -0.1687
39597SOL    HW121684   0.650   2.521   5.212 -0.6029 -0.0524 -0.0927
39597SOL    HW221685   0.592   2.475   5.080  0.7309  0.1751 -0.7719
39598SOL     OW21686   5.741   8.786   5.706 -0.4586  0.2328 -0.4602
39598SOL    HW121687   5.745   8.691   5.699 -1.4821  0.2536 -1.9172
39598SOL    HW221688   5.671   8.803   5.769  0.8302  0.0485  1.0792
39599SOL     OW21689   1.236   9.987   7.800  0.0747  0.3331  0.3005
39599SOL    HW121690   1.315  10.012   7.754 -0.7298  1.2080 -0.6451
39599SOL    HW221691   1.179  10.064   7.795 -1.8682 -1.0855 -1.3292
39600SOL     OW21692   9.530   0.423   5.804 -0.0388  0.3069 -0.1983
39600SOL    HW121693   9.499   0.359   5.740 -1.0754  1.4797 -0.9137
39600SOL    HW221694   9.613   0.455   5.767 -0.7830  1.2053 -1.1776
39601SOL     OW21695   5.202   1.519   5.377 -0.2164 -0.5305 -0.0306
39601SOL    HW121696   5.198   1.424   5.383  0.7714 -0.5237  0.9095
39601SOL    HW221697   5.231   1.548   5.463 -0.3911  0.6162 -0.3416
39602SOL     OW21698   2.939   5.679   2.302  0.0687  0.0452  0.4805
39602SOL    HW121699   2.991   5.739   2.248 -0.5675  0.0730 -0.1222
39602SOL    HW221700   2.942   5.717   2.389 -2.0819  2.2109 -0.2791
39603SOL     OW21701   2.093   7.922   5.034  0.2383 -0.2823  0.2995
39603SOL    HW121702   2.011   7.888   5.068  0.3433 -0.6849  0.1469
39603SOL    HW221703   2.080   8.017   5.030 -0.7152 -0.4460 -1.0102
39604SOL     OW21704   1.989   0.081   5.730 -0.1409 -0.1813  0.0064
39604SOL    HW121705   2.068   0.036   5.760 -0.8990 -0.8726  1.0519
39604SOL    HW221706   1.978   0.153   5.791 -1.6320 -1.5278  1.4365
39605SOL     OW21707   3.221   8.976   9.513  0.3453 -0.0597  0.4123
39605SOL    HW121708   3.290   8.963   9.449  0.1729 -0.7287  0.3560
39605SOL    HW221709   3.199   8.888   9.543  0.6821  0.2594  1.6643
39606SOL     OW21710   0.029   3.664   9.347 -0.3818 -0.0381  0.2002
39606SOL    HW121711  -0.030   3.648   9.420  0.7079  1.3130  1.4242
39606SOL    HW221712   0.116   3.664   9.386  0.2244  0.6935 -1.0945
39607SOL     OW21713   7.109  10.763   9.353  0.0602  0.1965  1.0020
39607SOL    HW121714   7.114  10.830   9.284  2.7762 -0.4362  0.4779
39607SOL    HW221715   7.073  10.686   9.308  0.3898  0.2384  0.6599
39608SOL     OW21716   3.064   6.781   1.581  0.0965 -0.2554  0.0375
39608SOL    HW121717   3.108   6.826   1.508  0.4030 -0.1400  0.2922
39608SOL    HW221718   3.086   6.689   1.570 -1.5962 -0.5438 -1.2414
39609SOL     OW21719   1.467  10.193   8.832 -0.2456 -0.0112  0.8079
39609SOL    HW121720   1.451  10.133   8.760 -0.5451  1.8429 -0.7400
39609SOL    HW221721   1.384  10.196   8.880 -0.7750  0.4813 -0.1303
39610SOL     OW21722   2.621   4.022   4.800 -0.3433  0.3018  0.1667
39610SOL    HW121723   2.536   4.043   4.761 -0.2140  0.5242  0.0010
39610SOL    HW221724   2.617   4.059   4.888  0.6453  2.9119 -0.8048
39611SOL     OW21725   8.270   2.488  10.198 -0.6536  0.4085  0.4835
39611SOL    HW121726   8.278   2.508  10.291 -1.1736  1.1625  0.3729
39611SOL    HW221727   8.301   2.397  10.190  0.3954  0.6847  1.2193
39612SOL     OW21728   7.311   8.822   1.738  0.3867 -0.4531 -0.0154
39612SOL    HW121729   7.245   8.818   1.807  3.0285 -1.4075  2.7041
39612SOL    HW221730   7.293   8.745   1.683 -1.9394  0.4707 -0.6600
39613SOL     OW21731   4.921   3.110   6.775 -0.3573 -0.4408  0.0400
39613SOL    HW121732   4.927   3.163   6.696  0.5578 -0.5975 -0.0068
39613SOL    HW221733   4.970   3.030   6.755  0.1449 -0.3576  0.8555
39614SOL     OW21734   0.163   5.777   4.884  0.1932 -0.1971  0.4605
39614SOL    HW121735   0.136   5.760   4.974  1.2459 -1.9347  0.4828
39614SOL    HW221736   0.254   5.804   4.891 -0.2229  1.4188  0.0329
39615SOL     OW21737   5.999   7.583   8.399 -0.1502 -0.2722  0.2961
39615SOL    HW121738   5.948   7.558   8.322  0.3713 -2.0154  0.4652
39615SOL    HW221739   6.084   7.542   8.385 -0.2406 -1.1673  2.0580
39616SOL     OW21740   7.585   7.086   6.561 -0.9672  0.0455 -0.3778
39616SOL    HW121741   7.586   6.990   6.567 -0.1537  0.0208 -0.6979
39616SOL    HW221742   7.548   7.115   6.644 -0.4282 -0.5343  0.0778
39617SOL     OW21743   2.715   1.027   9.845 -0.0753 -0.0394  0.1534
39617SOL    HW121744   2.693   0.976   9.766  1.2721 -1.7589  0.8144
39617SOL    HW221745   2.767   1.100   9.812 -0.4635 -0.1146 -0.6608
39618SOL     OW21746   2.569   4.302  10.679 -0.0159  0.1987 -1.4040
39618SOL    HW121747   2.493   4.343  10.638 -1.2777 -0.5821  0.0463
39618SOL    HW221748   2.538   4.274  10.765  2.7675  2.7570  0.6556
39619SOL     OW21749   9.107   1.800   1.658 -0.4215  0.4536  0.1372
39619SOL    HW121750   9.024   1.783   1.615 -1.4061  1.5557  1.5132
39619SOL    HW221751   9.102   1.891   1.687  1.1847  0.4893  0.4423
39620SOL     OW21752   5.707  10.566   1.396  0.1989  0.2985  0.2381
39620SOL    HW121753   5.694  10.538   1.306  0.2545 -1.3224  0.7070
39620SOL    HW221754   5.801  10.560   1.411  0.2386  0.9578  0.2909
39621SOL     OW21755   4.576   4.682   5.576 -0.5184  0.4019 -0.0056
39621SOL    HW121756   4.625   4.683   5.494 -0.3271 -2.5006 -0.0384
39621SOL    HW221757   4.625   4.740   5.634  0.5437  0.8476 -1.2917
39622SOL     OW21758   0.155   9.624   4.789 -0.0896  0.0203  0.0203
39622SOL    HW121759   0.115   9.693   4.736  0.3169 -0.0046 -0.3181
39622SOL    HW221760   0.249   9.631   4.772  0.1666  0.6597  1.4873
39623SOL     OW21761   0.082   0.328   9.083 -0.1391  0.0812  0.3381
39623SOL    HW121762   0.038   0.336   9.168 -0.2129  3.1430  0.1264
39623SOL    HW221763   0.011   0.315   9.020 -0.6790  2.7747  0.2624
39624SOL     OW21764   2.493   2.171  10.682  0.3302  0.0395 -0.2839
39624SOL    HW121765   2.410   2.197  10.722  0.5915 -1.1960  1.1821
39624SOL    HW221766   2.504   2.230  10.607 -0.9405  1.4471  0.5919
39625SOL     OW21767   8.964   2.425   6.319 -0.2216 -0.1167 -0.6798
39625SOL    HW121768   9.036   2.458   6.372  0.8036 -1.7772 -0.9858
39625SOL    HW221769   8.933   2.502   6.270  0.3966  0.9083  0.4901
39626SOL     OW21770   3.880   2.683   5.757  0.4467  0.3137  0.5450
39626SOL    HW121771   3.818   2.613   5.776  1.4300 -0.5415  0.7154
39626SOL    HW221772   3.826   2.754   5.723 -0.4006 -1.3064 -1.8015
39627SOL     OW21773   0.959   6.826   4.812  0.1508  0.1563  0.2275
39627SOL    HW121774   0.917   6.747   4.848 -0.6512  0.9991  1.2097
39627SOL    HW221775   0.893   6.864   4.754  1.2436 -0.8998 -1.8124
39628SOL     OW21776   5.134   3.146   8.857 -0.7285  0.0356 -0.2359
39628SOL    HW121777   5.180   3.068   8.825 -2.8031 -1.7590  0.9391
39628SOL    HW221778   5.044   3.136   8.827 -1.1529  1.7909  0.3089
39629SOL     OW21779   3.154   2.750  10.271 -0.1410 -0.3680 -0.3074
39629SOL    HW121780   3.172   2.813  10.201  0.1206  0.0135  0.0970
39629SOL    HW221781   3.060   2.734  10.265 -0.3096  0.4674 -0.0851
39630SOL     OW21782   7.466   8.965   5.694 -0.2417 -0.2977 -0.0130
39630SOL    HW121783   7.547   8.987   5.740 -0.7987 -0.0865  0.8940
39630SOL    HW221784   7.494   8.941   5.606  0.5698  2.5854 -0.6595
39631SOL     OW21785   7.639   0.475   4.300  0.2553 -0.4720  0.2041
39631SOL    HW121786   7.676   0.515   4.379  0.3929  0.9710 -0.5612
39631SOL    HW221787   7.544   0.482   4.311  0.2815  0.1843  0.0150
39632SOL     OW21788   8.920   6.060   9.871 -0.1623  0.0402 -0.4272
39632SOL    HW121789   8.977   5.984   9.884  0.0092  0.3378  0.6815
39632SOL    HW221790   8.840   6.038   9.918 -2.2427 -1.6037 -4.2602
39633SOL     OW21791   0.763   9.876   0.490  0.0373  0.0023  0.4984
39633SOL    HW121792   0.817   9.812   0.443  0.6816  0.3857  0.6991
39633SOL    HW221793   0.681   9.879   0.441 -0.3939 -1.7195  1.0551
39634SOL     OW21794   0.186   3.828   4.331 -0.0115 -0.3147  0.2414
39634SOL    HW121795   0.240   3.866   4.400 -0.4420  0.7313  0.0218
39634SOL    HW221796   0.240   3.758   4.294  0.7242 -0.0517  0.7922
39635SOL     OW21797   3.088   8.953   6.192 -0.2773 -0.0037  0.0461
39635SOL    HW121798   3.065   8.863   6.166 -0.2593 -0.4052  1.3833
39635SOL    HW221799   3.136   8.943   6.274  0.6140  1.1680 -0.3140
39636SOL     OW21800   5.620   6.677   7.079  0.1351  0.6071 -0.1577
39636SOL    HW121801   5.530   6.660   7.050 -0.3981  0.5274  1.4357
39636SOL    HW221802   5.621   6.770   7.101  1.0054  1.0645 -1.9543
39637SOL     OW21803   7.609   3.452   7.693  0.2738 -0.1529 -0.0095
39637SOL    HW121804   7.569   3.464   7.779  0.9683 -1.3212  0.5045
39637SOL    HW221805   7.619   3.540   7.659 -0.3399  0.3079  0.9549
39638SOL     OW21806  10.496   7.565   8.589 -0.1615 -0.0522 -0.2316
39638SOL    HW121807  10.522   7.652   8.619 -0.9543 -0.0079  0.3692
39638SOL    HW221808  10.410   7.551   8.629  0.4712 -1.5937  0.6987
39639SOL     OW21809   1.395   8.112   8.497 -0.4366  0.0601 -0.1175
39639SOL    HW121810   1.473   8.144   8.542 -0.6349  0.4914 -0.0734
39639SOL    HW221811   1.352   8.191   8.465 -1.1537 -0.1369  0.3532
39640SOL     OW21812   4.860   9.794   7.604 -0.4883  0.9572 -0.1287
39640SOL    HW121813   4.829   9.871   7.651 -2.0830  0.2335  0.0865
39640SOL    HW221814   4.859   9.820   7.512  0.0397  1.5229  0.0183
39641SOL     OW21815   8.014   2.590   8.933 -0.2322 -0.2005 -0.7274
39641SOL    HW121816   8.066   2.633   9.001 -0.3927 -1.1450  0.0171
39641SOL    HW221817   7.926   2.623   8.946 -0.0677  0.4208 -1.1612
39642SOL     OW21818   4.734   7.494   5.347  0.3870  0.3506  0.3579
39642SOL    HW121819   4.796   7.505   5.275  0.5210 -0.1897  0.3869
39642SOL    HW221820   4.651   7.529   5.314  0.8244  1.5756  0.5084
39643SOL     OW21821   3.595   8.679   9.712 -0.2325  0.1136  0.1727
39643SOL    HW121822   3.596   8.611   9.644 -0.7864  1.1456 -0.9003
39643SOL    HW221823   3.671   8.734   9.692 -0.4113  0.4337  0.3691
39644SOL     OW21824  10.218   6.417   2.561  0.5140  0.0532  0.4956
39644SOL    HW121825  10.280   6.345   2.575  0.2029 -0.1932  0.6040
39644SOL    HW221826  10.225   6.436   2.467 -0.6691 -1.2959  0.0877
39645SOL     OW21827   1.621   6.876   8.382  0.6707 -0.9008  0.1484
39645SOL    HW121828   1.665   6.901   8.463  0.6720 -2.9785  0.8493
39645SOL    HW221829   1.646   6.784   8.369  0.3474 -0.7302 -2.0082
39646SOL     OW21830   1.927   2.940   5.181 -0.5951 -0.4544  0.3438
39646SOL    HW121831   1.847   2.913   5.227 -0.1100  1.2993  2.3839
39646SOL    HW221832   1.985   2.865   5.187 -1.7424 -1.4232 -0.3491
39647SOL     OW21833   0.485   4.369   2.558 -0.1799 -1.0096 -0.7133
39647SOL    HW121834   0.476   4.328   2.644  0.1187  0.0166 -0.1742
39647SOL    HW221835   0.397   4.399   2.537  0.2596  1.7361  0.8197
39648SOL     OW21836   0.300   7.543   3.908  0.1776 -0.0459 -0.1022
39648SOL    HW121837   0.312   7.494   3.827 -0.4649 -0.8657  0.2835
39648SOL    HW221838   0.212   7.582   3.900 -0.1591 -0.6621  0.4565
39649SOL     OW21839   2.956   4.597  10.295 -0.5134  0.2400 -0.1177
39649SOL    HW121840   2.956   4.551  10.211  0.1938  1.7117 -0.9723
39649SOL    HW221841   3.031   4.656  10.290  0.2573 -0.4709  2.0539
39650SOL     OW21842   1.341  10.211   0.108  0.3582 -0.0006  0.1165
39650SOL    HW121843   1.391  10.147   0.058  0.0576 -0.7715  0.7881
39650SOL    HW221844   1.300  10.267   0.042 -2.1111 -2.5251 -0.6612
39651SOL     OW21845   9.540   7.262   7.405  0.4906 -0.3899  0.5754
39651SOL    HW121846   9.454   7.302   7.412  0.5254  0.1249 -1.3795
39651SOL    HW221847   9.580   7.303   7.328  2.3542 -0.8632  1.2200
39652SOL     OW21848   5.038   7.068  10.007 -0.3543 -0.2409  0.4934
39652SOL    HW121849   5.065   7.048   9.917 -2.9720 -0.0794 -0.4081
39652SOL    HW221850   5.033   7.164  10.009  0.2330 -0.2088  1.0281
39653SOL     OW21851   8.608   4.020   1.447  0.1128  0.2715  0.0998
39653SOL    HW121852   8.620   4.107   1.410  1.1648  0.2300  0.3032
39653SOL    HW221853   8.588   3.965   1.371  0.8320  0.4488 -0.2342
39654SOL     OW21854   6.165   4.417   8.114  0.4697 -0.1016  0.2104
39654SOL    HW121855   6.242   4.407   8.058 -0.4096  1.0833 -1.2720
39654SOL    HW221856   6.201   4.440   8.200  1.7771  0.0976 -0.3647
39655SOL     OW21857   0.404   1.255   6.015 -0.4212 -0.2666  0.3705
39655SOL    HW121858   0.444   1.325   6.067  0.5353 -1.0960  0.7716
39655SOL    HW221859   0.467   1.236   5.947 -1.2605  0.1480 -0.5542
39656SOL     OW21860   7.751   5.105   7.789  0.0789 -0.2880 -0.1548
39656SOL    HW121861   7.803   5.097   7.868  0.6019 -2.4764 -0.6462
39656SOL    HW221862   7.661   5.114   7.820  0.3474 -0.4779  0.6838
39657SOL     OW21863  10.545   3.911   5.859 -0.6463 -0.0165  0.2704
39657SOL    HW121864  10.531   3.817   5.869 -2.4103 -0.0432 -1.7208
39657SOL    HW221865  10.638   3.919   5.835 -0.7631 -1.3848 -0.7601
39658SOL     OW21866  10.652   6.794   1.748  0.0961  0.3085  0.2118
39658SOL    HW121867  10.615   6.712   1.782 -0.4349  0.2772 -0.4198
39658SOL    HW221868  10.609   6.863   1.799  1.1396  0.1758  1.3003
39659SOL     OW21869   9.269   2.027   7.188 -0.0684  0.3876 -0.5175
39659SOL    HW121870   9.253   2.075   7.106  0.3805 -0.4287 -1.0936
39659SOL    HW221871   9.239   1.938   7.170 -1.9920  0.6775  0.9275
39660SOL     OW21872   6.027   4.556  10.214  0.4882  0.0869 -0.2400
39660SOL    HW121873   5.952   4.596  10.258 -0.4884 -0.7708 -1.0600
39660SOL    HW221874   6.076   4.513  10.284 -0.3646 -0.2121  0.1882
39661SOL     OW21875   9.375   1.642   5.517 -0.0228  0.2875 -0.1474
39661SOL    HW121876   9.332   1.726   5.533  1.1863  1.2648 -1.6821
39661SOL    HW221877   9.335   1.610   5.436  0.3905  0.0208 -0.2511
39662SOL     OW21878   6.999   3.528   3.391 -0.2758 -0.1834 -0.2725
39662SOL    HW121879   6.912   3.556   3.419  0.3059  2.6384 -0.9151
39662SOL    HW221880   7.011   3.570   3.306  2.6361  1.7210  0.9106
39663SOL     OW21881   2.364   7.779   9.878 -0.2208  0.2568 -0.2022
39663SOL    HW121882   2.415   7.797   9.957 -2.0975  2.9743  0.5282
39663SOL    HW221883   2.358   7.864   9.834 -1.0282 -0.7714 -2.1829
39664SOL     OW21884   9.214   8.890   4.397  0.5051 -0.7812  0.1946
39664SOL    HW121885   9.184   8.974   4.431  1.8943 -0.2449  0.1712
39664SOL    HW221886   9.151   8.867   4.329 -0.2668 -0.1029  0.6617
39665SOL     OW21887   2.910   7.287   4.154 -0.4455 -0.2609  0.2634
39665SOL    HW121888   2.935   7.380   4.154  1.8612 -0.8173 -0.0567
39665SOL    HW221889   2.901   7.265   4.247 -0.8475  0.2331  0.3463
39666SOL     OW21890   6.048   8.869   9.392 -0.3456 -0.3636  0.7572
39666SOL    HW121891   6.036   8.964   9.387 -0.0103 -0.3831 -0.6970
39666SOL    HW221892   6.046   8.840   9.301 -0.8804 -1.8121  1.2195
39667SOL     OW21893   4.881   9.342   4.770 -0.5608 -0.4709  0.1558
39667SOL    HW121894   4.951   9.319   4.831 -1.2374 -0.9687  0.7663
39667SOL    HW221895   4.831   9.261   4.759 -2.6084  0.4691  1.8208
39668SOL     OW21896   3.841   1.876   2.709  0.0491 -0.3809 -0.2094
39668SOL    HW121897   3.825   1.843   2.798 -1.1843 -0.8060 -0.5665
39668SOL    HW221898   3.778   1.948   2.699  0.0057 -0.5023 -0.8253
39669SOL     OW21899   8.631   6.561   7.579  0.5159  0.4581 -0.1382
39669SOL    HW121900   8.543   6.524   7.585 -0.0558  1.6081 -0.9948
39669SOL    HW221901   8.682   6.495   7.531 -0.1198  0.1755 -0.4384
39670SOL     OW21902   4.959   1.103   9.069 -0.7153  0.0447  0.4373
39670SOL    HW121903   4.912   1.145   9.141 -0.7336  0.3824  0.2288
39670SOL    HW221904   5.016   1.172   9.034  1.8870 -0.9864  2.3205
39671SOL     OW21905   0.475   9.405   0.973  0.8950 -0.4276 -0.6447
39671SOL    HW121906   0.548   9.419   0.913  1.1661  1.8156  0.1101
39671SOL    HW221907   0.414   9.476   0.954  1.9144  1.6754  2.9353
39672SOL     OW21908   1.670   2.799  10.620  0.4341 -0.0860 -0.3926
39672SOL    HW121909   1.701   2.792  10.529  0.7283 -0.4114 -0.2719
39672SOL    HW221910   1.732   2.859  10.662  0.4710 -0.1629 -0.3356
39673SOL     OW21911   4.489   3.854   7.649 -0.2422  0.3244 -0.0188
39673SOL    HW121912   4.446   3.899   7.576  1.1902  1.0797 -0.4307
39673SOL    HW221913   4.514   3.769   7.613 -0.2114  0.3996 -0.1742
39674SOL     OW21914   9.402   3.520   7.286 -0.1501  0.3438 -0.6395
39674SOL    HW121915   9.451   3.506   7.205  2.1044 -1.4447  0.9152
39674SOL    HW221916   9.404   3.436   7.330 -0.8440  1.4110  1.5562
39675SOL     OW21917   6.403   2.532   5.535  0.7534  0.8926 -0.6135
39675SOL    HW121918   6.469   2.472   5.570  1.4124  1.8038 -0.2619
39675SOL    HW221919   6.320   2.486   5.548  1.1508  0.4404  0.5037
39676SOL     OW21920   2.122   4.256  10.739 -0.2669 -0.3488 -0.4467
39676SOL    HW121921   2.034   4.219  10.725 -0.4046  0.7631 -3.4780
39676SOL    HW221922   2.124   4.280  10.831 -2.7771 -1.3179 -0.0550
39677SOL     OW21923   0.247   1.254   3.103  0.0389 -0.2516 -0.1077
39677SOL    HW121924   0.257   1.182   3.166 -0.7512  0.1726  0.5341
39677SOL    HW221925   0.152   1.265   3.096  0.0760 -0.8939 -2.0973
39678SOL     OW21926   3.333   9.363   7.889  0.0099  0.3662  0.0181
39678SOL    HW121927   3.257   9.305   7.880  0.2172  0.0196  0.4807
39678SOL    HW221928   3.296   9.448   7.914 -0.2946  0.4441 -0.6547
39679SOL     OW21929   2.708   0.789   7.686 -0.0955  0.5008  0.6272
39679SOL    HW121930   2.685   0.697   7.694  0.9795  0.2702  1.1718
39679SOL    HW221931   2.706   0.806   7.592  1.4105 -0.5371  0.3760
39680SOL     OW21932   9.734   8.131   1.429  0.1848  0.3314  0.0295
39680SOL    HW121933   9.825   8.162   1.420  0.3257 -0.5844 -2.2217
39680SOL    HW221934   9.740   8.054   1.486  0.1899  2.5587  3.3463
39681SOL     OW21935  10.092   6.353   2.086 -0.0341  0.2234 -0.3031
39681SOL    HW121936  10.083   6.382   1.996  1.7791 -1.0759 -0.9618
39681SOL    HW221937  10.100   6.434   2.137 -1.3380  0.9715 -1.2354
39682SOL     OW21938   3.903  10.621   5.101  0.3001 -0.0204  0.5616
39682SOL    HW121939   3.878  10.575   5.181  3.3418 -1.8824  0.6290
39682SOL    HW221940   3.979  10.674   5.127  0.6314  0.2208 -0.8324
39683SOL     OW21941   1.993   3.652   5.790 -0.3779 -0.1737  0.7786
39683SOL    HW121942   2.040   3.587   5.737 -0.0378 -0.0151  0.8852
39683SOL    HW221943   1.978   3.725   5.731  1.5716  0.7530  1.3583
39684SOL     OW21944  10.659   1.267   6.193  0.1259 -0.0069 -0.0835
39684SOL    HW121945  10.679   1.201   6.258 -2.1421  0.8057  1.5528
39684SOL    HW221946  10.567   1.255   6.172  0.7100 -0.1526 -3.1407
39685SOL     OW21947   1.306   6.381   6.324 -0.7495 -0.3292  0.3630
39685SOL    HW121948   1.256   6.388   6.405  0.2062  2.4165  0.8144
39685SOL    HW221949   1.319   6.471   6.296  0.8828 -1.1140 -1.6559
39686SOL     OW21950   6.910   6.577   1.791 -0.4269  0.2727 -0.0746
39686SOL    HW121951   6.934   6.633   1.865  0.0765  0.1182 -0.1138
39686SOL    HW221952   6.889   6.638   1.720  0.7128  0.4282 -0.3049
39687SOL     OW21953   6.915   4.930   4.077  0.2784  0.1009  0.7789
39687SOL    HW121954   6.870   4.975   4.149  0.9488  2.2888 -0.0631
39687SOL    HW221955   7.008   4.951   4.091  0.5553 -0.5444 -0.0034
39688SOL     OW21956   5.632   0.987   5.094 -0.2401  0.1787  0.3584
39688SOL    HW121957   5.609   1.030   5.176 -1.3324 -0.0496  0.1881
39688SOL    HW221958   5.622   0.893   5.112  1.0607  0.0238  0.4065
39689SOL     OW21959   3.286   5.699   0.462  0.0663  0.1034  0.0346
39689SOL    HW121960   3.366   5.647   0.462  0.7529  1.1411 -0.3391
39689SOL    HW221961   3.230   5.656   0.527  0.5577 -1.1762 -0.3613
39690SOL     OW21962   0.970   2.020  10.202  0.5716 -0.2346  0.0289
39690SOL    HW121963   0.983   2.115  10.197  1.8508 -0.4609 -1.4889
39690SOL    HW221964   0.890   2.005  10.152  0.0088  0.0766  0.7998
39691SOL     OW21965   4.236   7.177   7.227 -0.1618 -0.4334  0.1608
39691SOL    HW121966   4.302   7.225   7.276 -0.8405  0.8888 -0.1500
39691SOL    HW221967   4.271   7.171   7.138 -0.5419  0.4833 -0.0633
39692SOL     OW21968   8.808   4.342   3.459 -0.3643  0.1170 -0.6128
39692SOL    HW121969   8.768   4.421   3.422 -0.1891  0.3653 -0.2855
39692SOL    HW221970   8.895   4.370   3.486 -0.0720 -0.3486 -1.0673
39693SOL     OW21971   5.537   5.433   5.034  0.7256  0.2816 -0.0977
39693SOL    HW121972   5.560   5.358   5.088 -1.0077  0.6599  1.2391
39693SOL    HW221973   5.442   5.437   5.035  0.7269  1.8615 -1.0479
39694SOL     OW21974   6.221   6.392   5.511  0.1561 -0.0532  0.6558
39694SOL    HW121975   6.292   6.357   5.457  0.0995  1.6147 -0.5728
39694SOL    HW221976   6.194   6.318   5.566  0.1852 -1.8486 -1.6092
39695SOL     OW21977   5.374   1.205  10.479 -0.7315  0.5334 -0.7311
39695SOL    HW121978   5.362   1.185  10.386 -0.2376 -0.6451 -0.5599
39695SOL    HW221979   5.317   1.143  10.524 -1.6282  1.6639 -0.2579
39696SOL     OW21980   3.485   0.110   4.231 -0.3616  0.1533  0.2187
39696SOL    HW121981   3.570   0.069   4.214 -0.4868  0.6387 -1.7805
39696SOL    HW221982   3.507   0.193   4.273  0.1379  0.1743 -0.0685
39697SOL     OW21983   1.228   8.598   8.822 -0.3434 -0.1374  0.3176
39697SOL    HW121984   1.134   8.617   8.817 -0.0489  1.6106  0.7171
39697SOL    HW221985   1.233   8.503   8.825 -2.0101 -0.3577 -1.5207
39698SOL     OW21986   4.055   8.401   4.786 -0.2100  0.2023  0.0008
39698SOL    HW121987   3.975   8.410   4.838  0.1639  1.6228  0.3738
39698SOL    HW221988   4.047   8.315   4.745 -0.5520 -0.9892  2.3692
39699SOL     OW21989   7.276   7.786   6.818 -0.0755  0.2434 -0.0808
39699SOL    HW121990   7.369   7.806   6.825 -0.1805  0.3065  1.4658
39699SOL    HW221991   7.255   7.740   6.899 -1.7087  1.6098  0.3181
39700SOL     OW21992   8.141   0.132   1.745 -0.0025 -0.2466 -0.0124
39700SOL    HW121993   8.163   0.152   1.654 -0.6175  1.2043  0.1298
39700SOL    HW221994   8.135   0.217   1.788 -0.9045 -0.8445  1.1109
39701SOL     OW21995   6.776  10.451   8.420  0.1181 -0.2237  0.3419
39701SOL    HW121996   6.730  10.535   8.417  0.5042  0.0034  0.7268
39701SOL    HW221997   6.865  10.471   8.391  0.1124 -0.5728  0.0746
39702SOL     OW21998   9.823   2.100   3.293  1.0106 -1.0430  0.3460
39702SOL    HW121999   9.857   2.013   3.269  2.0160 -1.6376  3.4527
39702SOL    HW222000   9.728   2.089   3.294  1.0872 -1.8660 -0.1672
39703SOL     OW22001   1.661   7.288   0.322  0.4134 -0.3461  0.2701
39703SOL    HW122002   1.748   7.279   0.284  0.1975  2.3279 -1.0737
39703SOL    HW222003   1.670   7.360   0.384 -0.5110 -1.1293  1.3572
39704SOL     OW22004   3.030   4.594   6.642 -0.0175 -0.3330 -0.5710
39704SOL    HW122005   2.954   4.597   6.700 -0.3311 -0.8126 -0.9492
39704SOL    HW222006   2.996   4.560   6.560  0.6097 -0.5581 -0.7430
39705SOL     OW22007   8.164  10.198   2.856 -0.3810 -0.0448 -0.4864
39705SOL    HW122008   8.217  10.222   2.932 -3.1267  0.5736  1.3892
39705SOL    HW222009   8.177  10.103   2.847  0.7445  0.0286  0.0979
39706SOL     OW22010   5.120   8.458   5.211  0.4501  0.3821  0.2049
39706SOL    HW122011   5.143   8.366   5.202  0.8264  0.6771 -3.7554
39706SOL    HW222012   5.027   8.458   5.235 -0.3673 -1.1716 -2.5486
39707SOL     OW22013   9.436   8.616   3.426  0.7552 -0.0943 -0.3436
39707SOL    HW122014   9.458   8.584   3.339 -1.5000  1.4507 -1.5829
39707SOL    HW222015   9.391   8.699   3.411  0.0112  0.0865  2.2782
39708SOL     OW22016   0.998   0.463   7.157  0.0169  0.0797 -0.0083
39708SOL    HW122017   0.915   0.500   7.125 -0.3577 -0.4263  0.3635
39708SOL    HW222018   1.046   0.439   7.078 -0.2968  0.1493 -0.2240
39709SOL     OW22019   8.407   8.609   1.048  0.1626  0.0600 -0.6487
39709SOL    HW122020   8.457   8.528   1.055  0.0732  0.0652  0.0844
39709SOL    HW222021   8.425   8.656   1.129 -1.3737 -0.1398 -0.1641
39710SOL     OW22022   9.626   1.313   1.700  0.6764  0.3652 -0.1149
39710SOL    HW122023   9.656   1.369   1.630  0.4316  0.7068  0.0520
39710SOL    HW222024   9.566   1.367   1.751  2.2233  0.7231  1.4302
39711SOL     OW22025   9.714  10.672   1.958  0.3950 -0.0141 -0.3377
39711SOL    HW122026   9.680  10.702   2.043  3.1157  1.7980  0.2181
39711SOL    HW222027   9.712  10.576   1.965  1.1480  0.0748  2.0826
39712SOL     OW22028   3.971   2.706   8.859  0.6358 -0.1428 -0.3333
39712SOL    HW122029   3.939   2.618   8.880  0.3084 -0.3294 -1.5570
39712SOL    HW222030   3.938   2.724   8.771  0.5561  1.2830 -0.0347
39713SOL     OW22031   3.928   3.341   4.163  0.0542  0.4540  0.1693
39713SOL    HW122032   3.890   3.313   4.246 -0.6839 -0.0151 -0.3075
39713SOL    HW222033   3.985   3.269   4.137  0.2380  0.5730  0.2462
39714SOL     OW22034   4.324  10.373   5.120 -0.1510  0.4062 -0.3545
39714SOL    HW122035   4.415  10.373   5.149 -0.2739 -0.4435  0.0913
39714SOL    HW222036   4.276  10.420   5.188  0.0505  1.5672 -0.9873
39715SOL     OW22037   9.911   9.577   4.311  0.2574 -0.6612 -0.0085
39715SOL    HW122038   9.877   9.587   4.222  0.1436 -0.7197  0.0284
39715SOL    HW222039   9.989   9.632   4.313 -0.6833  0.6963  0.3812
39716SOL     OW22040  10.009   2.314  10.573  0.6562 -0.4115  0.0809
39716SOL    HW122041  10.027   2.378  10.504 -0.1840 -0.0804  0.1552
39716SOL    HW222042  10.072   2.244  10.558  1.1361  0.1210 -0.4193
39717SOL     OW22043   7.486   0.950   4.588 -0.2749 -0.3526 -0.0944
39717SOL    HW122044   7.549   0.949   4.661  1.1429  0.5945 -1.2482
39717SOL    HW222045   7.407   0.910   4.625  0.2425  0.4621  2.1027
39718SOL     OW22046   8.406   3.371   1.917  0.3836 -0.2102  0.2740
39718SOL    HW122047   8.423   3.395   1.826  3.6747 -3.4111 -0.1646
39718SOL    HW222048   8.343   3.299   1.911  0.4557 -0.2964  0.5523
39719SOL     OW22049   0.475   5.717   4.837  0.5143 -0.3026 -0.1228
39719SOL    HW122050   0.552   5.666   4.861  1.4238  0.8180 -0.5979
39719SOL    HW222051   0.423   5.657   4.783  1.7173 -0.6382 -0.9476
39720SOL     OW22052   7.939   9.380   8.985 -0.3717 -0.5326 -0.7692
39720SOL    HW122053   7.870   9.315   8.997 -2.1068  1.5988  2.2384
39720SOL    HW222054   7.896   9.454   8.942  0.3443  0.3007 -0.1138
39721SOL     OW22055   3.988   3.200   7.818  0.1146  0.1582 -0.1200
39721SOL    HW122056   3.957   3.182   7.906 -2.1226 -0.4032 -0.9539
39721SOL    HW222057   4.062   3.141   7.806 -0.3383 -0.6658  0.9650
39722SOL     OW22058   3.885   7.320   5.264  0.3794  0.1700  0.5873
39722SOL    HW122059   3.903   7.365   5.346 -1.3815  0.1119  1.0504
39722SOL    HW222060   3.862   7.231   5.290  0.7154 -0.1104 -0.0507
39723SOL     OW22061   6.553   0.074   0.845  0.4802  0.1028 -0.5789
39723SOL    HW122062   6.623   0.015   0.874 -1.1075 -1.2993  0.6027
39723SOL    HW222063   6.599   0.144   0.799  2.4800 -2.1337 -2.2916
39724SOL     OW22064   3.603   2.006   9.849 -0.4073  0.7506 -0.2228
39724SOL    HW122065   3.639   2.022   9.761 -0.0609  0.6531 -0.0995
39724SOL    HW222066   3.679   1.997   9.905 -0.6407  1.9160  0.2985
39725SOL     OW22067   0.099   1.703   0.514 -0.2195 -0.2961 -0.3675
39725SOL    HW122068   0.057   1.629   0.559 -0.1844  0.0113  0.1794
39725SOL    HW222069   0.192   1.689   0.528 -0.2352  0.1655  0.2551
39726SOL     OW22070   7.740   5.235   1.091 -0.3430  0.1769 -0.0563
39726SOL    HW122071   7.765   5.320   1.054 -1.7084  0.4630 -0.3794
39726SOL    HW222072   7.747   5.174   1.017  1.4368 -0.1932  0.3664
39727SOL     OW22073   9.128   4.762   1.530 -0.2127  0.3460  0.0763
39727SOL    HW122074   9.086   4.690   1.577 -0.0676  0.5842  0.5736
39727SOL    HW222075   9.081   4.840   1.559  2.0772  0.9385  2.5127
39728SOL     OW22076   7.746  10.611   4.791  0.4251  0.0004 -0.3574
39728SOL    HW122077   7.717  10.692   4.748 -0.3747  0.1702  0.4657
39728SOL    HW222078   7.809  10.641   4.856 -1.1385  0.1995  1.1390
39729SOL     OW22079   1.071   4.409  10.443  0.2947  0.3551 -0.7558
39729SOL    HW122080   1.150   4.447  10.407  1.7310 -0.6572  1.1010
39729SOL    HW222081   1.060   4.452  10.528 -1.5900  0.9914 -1.2743
39730SOL     OW22082   1.494   6.158   5.691 -0.0680  0.2808  0.1049
39730SOL    HW122083   1.536   6.243   5.695  0.4050  0.1291 -1.1722
39730SOL    HW222084   1.401   6.177   5.675  0.1925  0.5741 -1.2142
39731SOL     OW22085   8.627   0.631   4.393  0.5654 -0.1369 -0.3156
39731SOL    HW122086   8.711   0.645   4.350  1.0495  0.8699  0.9034
39731SOL    HW222087   8.644   0.647   4.486 -1.6667  3.7229 -0.3541
39732SOL     OW22088   7.607   8.726   2.476  0.7751  0.2936  0.2769
39732SOL    HW122089   7.588   8.740   2.569 -1.2543 -0.1754 -0.0281
39732SOL    HW222090   7.578   8.807   2.433  1.2724  0.3225 -0.0139
39733SOL     OW22091  10.560   7.307   2.903  0.1646  0.0521 -0.0997
39733SOL    HW122092  10.645   7.276   2.870 -0.6279 -0.3184 -1.9002
39733SOL    HW222093  10.553   7.397   2.870 -0.7328 -0.3911 -1.1565
39734SOL     OW22094   2.527   8.966   6.348 -0.2239  0.5275  0.1197
39734SOL    HW122095   2.538   9.029   6.419 -0.0615  1.0715 -0.3772
39734SOL    HW222096   2.487   9.017   6.277 -0.0420  0.0857 -0.3033
39735SOL     OW22097   7.216   5.608   9.394 -0.2175  0.5532 -0.4726
39735SOL    HW122098   7.259   5.692   9.378  3.6281 -1.1152 -0.0890
39735SOL    HW222099   7.232   5.590   9.487 -1.5426 -0.3169 -0.3938
39736SOL     OW22100   7.403   8.302   0.612  0.1482  0.0888 -0.2801
39736SOL    HW122101   7.378   8.392   0.590 -0.3799  0.5850  2.0914
39736SOL    HW222102   7.424   8.262   0.528  0.6290  2.4901 -1.3820
39737SOL     OW22103   1.883   5.198   8.468  0.6704 -0.7208  0.1668
39737SOL    HW122104   1.887   5.282   8.514  0.3332 -0.9471  0.6151
39737SOL    HW222105   1.865   5.222   8.377  2.8050 -0.1864 -0.1644
39738SOL     OW22106   9.609  10.041  10.686 -0.1584  0.3381  0.4865
39738SOL    HW122107   9.564  10.125  10.691 -1.0385 -0.1214  0.4977
39738SOL    HW222108   9.627  10.018  10.777  0.3742  0.6604  0.4666
39739SOL     OW22109   1.915   3.868   9.706 -0.1385  0.9260 -0.1628
39739SOL    HW122110   1.999   3.826   9.686 -0.1366  1.4120 -1.2198
39739SOL    HW222111   1.863   3.799   9.748  0.8384  0.6718  0.6616
39740SOL     OW22112   5.305  10.186   7.202  0.0378 -0.5045 -0.2514
39740SOL    HW122113   5.318  10.100   7.242 -1.4568  0.1293  1.8088
39740SOL    HW222114   5.233  10.173   7.140  1.1286 -1.1222 -1.4112
39741SOL     OW22115   6.773   6.657  10.647  0.4974  0.1585 -0.2114
39741SOL    HW122116   6.678   6.664  10.656  0.2845 -1.8137 -0.6527
39741SOL    HW222117   6.807   6.694  10.728 -0.6397  0.7012  0.0434
39742SOL     OW22118   4.774   6.116   8.181  0.4374 -0.1315 -0.3876
39742SOL    HW122119   4.789   6.182   8.248 -2.8646 -1.0283  1.4390
39742SOL    HW222120   4.784   6.032   8.226 -0.5599 -0.7749 -1.2997
39743SOL     OW22121   2.552   4.857   7.710  0.3903  0.5901  0.0331
39743SOL    HW122122   2.616   4.787   7.696 -1.4259 -1.4083  1.0295
39743SOL    HW222123   2.510   4.835   7.794 -2.6296  0.8539 -1.2643
39744SOL     OW22124   2.446   0.947   5.063 -0.3601 -0.2575 -0.1381
39744SOL    HW122125   2.463   0.869   5.115  2.4171 -0.1700 -0.7830
39744SOL    HW222126   2.398   0.915   4.986 -0.0553 -1.1718  0.0480
39745SOL     OW22127   7.933   9.118   9.489  0.0602  0.0420  0.0961
39745SOL    HW122128   8.024   9.134   9.465  0.4918 -0.1936  1.4881
39745SOL    HW222129   7.917   9.027   9.464  0.2983 -0.0048  0.1110
39746SOL     OW22130   9.365  10.795   8.157  0.0524 -0.4782  0.1343
39746SOL    HW122131   9.400  10.871   8.202 -2.8353  0.0213  1.7756
39746SOL    HW222132   9.413  10.791   8.074 -1.3344  4.6965 -1.2430
39747SOL     OW22133   2.210   4.449   4.652  0.2222 -0.1777  0.0174
39747SOL    HW122134   2.141   4.480   4.711 -0.4278 -1.1542 -0.2128
39747SOL    HW222135   2.219   4.519   4.586  0.7944  0.8193  1.1078
39748SOL     OW22136   1.914  10.591   0.392  0.1388 -0.1294  0.2329
39748SOL    HW122137   1.980  10.622   0.454  0.6130 -1.9262  0.7061
39748SOL    HW222138   1.956  10.517   0.348 -0.7023  0.2413 -1.2489
39749SOL     OW22139   7.381   4.827   6.094 -0.2400 -0.4544  0.1340
39749SOL    HW122140   7.475   4.830   6.082 -0.2955 -0.9460 -0.4641
39749SOL    HW222141   7.362   4.897   6.158  0.8416 -2.0548  2.3318
39750SOL     OW22142   7.740   2.426   2.971  0.3223 -0.5530 -0.0563
39750SOL    HW122143   7.765   2.507   2.926  0.6992 -1.2293 -1.1305
39750SOL    HW222144   7.658   2.400   2.929 -2.1649  1.4185  3.1556
39751SOL     OW22145   5.911   5.915   6.771 -0.2792 -0.2380  0.3912
39751SOL    HW122146   5.862   5.922   6.853 -1.6459 -0.0565 -0.4104
39751SOL    HW222147   5.886   5.830   6.735 -0.2030 -0.0403 -0.1458
39752SOL     OW22148   2.765   0.999   2.718  0.2686  0.1674  0.2862
39752SOL    HW122149   2.756   0.915   2.762 -0.5314  0.1244  0.0533
39752SOL    HW222150   2.858   1.020   2.725  0.1013  0.3723  2.3789
39753SOL     OW22151   7.562   1.447   8.406  0.4037 -0.1486 -0.4435
39753SOL    HW122152   7.528   1.467   8.319  0.3111 -0.3113 -0.4444
39753SOL    HW222153   7.495   1.391   8.446 -0.4045  1.3267  0.3782
39754SOL     OW22154   9.825   0.310   3.102  0.2249 -0.0371  0.5871
39754SOL    HW122155   9.749   0.282   3.153 -0.9824  0.9670 -0.5974
39754SOL    HW222156   9.862   0.383   3.153  0.0033 -0.0981  0.8377
39755SOL     OW22157   7.956   3.332   4.333 -0.9301 -0.2098 -0.6319
39755SOL    HW122158   8.036   3.375   4.363 -1.9527  0.3964  1.3966
39755SOL    HW222159   7.983   3.241   4.316  0.0409 -0.2533  0.9193
39756SOL     OW22160   1.865   3.863   4.315  0.8883  0.1639  0.3801
39756SOL    HW122161   1.872   3.773   4.284 -0.7650  0.0641  0.2119
39756SOL    HW222162   1.943   3.906   4.281  2.4810 -1.5228  1.6820
39757SOL     OW22163   5.020   0.784   5.262  0.7894 -0.3412 -0.6158
39757SOL    HW122164   5.098   0.823   5.302  1.3432  0.8650 -2.6981
39757SOL    HW222165   5.049   0.760   5.173 -0.0403 -3.9066 -0.0881
39758SOL     OW22166   5.047   9.211   8.405  0.5118 -0.0639 -0.4522
39758SOL    HW122167   5.064   9.212   8.311  0.6994 -0.3451 -0.4259
39758SOL    HW222168   4.964   9.256   8.416  0.1363 -0.6580 -0.8279
39759SOL     OW22169   0.231   8.065   2.784  0.3522 -0.2751  0.4387
39759SOL    HW122170   0.280   8.056   2.866  1.2991  2.5681  0.3093
39759SOL    HW222171   0.169   8.137   2.801  0.6786  0.4891 -1.3459
39760SOL     OW22172   7.907   0.402   2.936 -0.3475 -0.0795 -0.0520
39760SOL    HW122173   7.851   0.469   2.896 -0.0682  0.0749 -0.1874
39760SOL    HW222174   7.891   0.411   3.030  2.4100  2.7085  0.2861
39761SOL     OW22175   9.597   0.553   7.877  0.1008 -0.0645  0.1603
39761SOL    HW122176   9.577   0.549   7.971  1.4374  1.1512  0.5402
39761SOL    HW222177   9.611   0.646   7.860 -0.7931 -0.1938 -1.4162
39762SOL     OW22178   9.478   2.287   2.569  0.2166  0.2976 -0.6699
39762SOL    HW122179   9.386   2.290   2.545 -0.3345 -1.6314  0.9206
39762SOL    HW222180   9.525   2.299   2.486 -1.2943  4.3877 -1.1707
39763SOL     OW22181   3.161  10.346  10.608  0.4847  0.1967  0.2850
39763SOL    HW122182   3.211  10.352  10.527 -1.4168 -2.1031 -1.2015
39763SOL    HW222183   3.123  10.258  10.606 -1.0323  0.6911  2.8483
39764SOL     OW22184   7.630   7.575   7.797  0.0084  0.4812  0.4494
39764SOL    HW122185   7.583   7.598   7.877 -2.1578  3.3596 -1.4211
39764SOL    HW222186   7.665   7.659   7.765  1.0819 -0.6197 -1.4589
39765SOL     OW22187   1.605   5.687   4.820  0.1000 -0.2752  0.3557
39765SOL    HW122188   1.694   5.709   4.849 -0.8563  1.2700  2.3470
39765SOL    HW222189   1.596   5.734   4.737  0.4457  1.3873  1.2060
39766SOL     OW22190   7.307   3.952   6.733 -0.5659 -0.2568  0.1266
39766SOL    HW122191   7.313   4.045   6.711  0.0189 -0.2602  0.2583
39766SOL    HW222192   7.300   3.908   6.648  0.3563 -0.1734 -0.0074
39767SOL     OW22193  10.780   0.607   0.896  0.3253  0.0622  0.0444
39767SOL    HW122194  10.791   0.664   0.820 -1.3057 -0.6742 -0.7992
39767SOL    HW222195  10.735   0.530   0.861 -0.4914 -0.2799  1.7795
39768SOL     OW22196   9.498   1.697   2.720 -0.1328  0.7221  0.2624
39768SOL    HW122197   9.585   1.707   2.757  0.2650  0.1158 -0.4825
39768SOL    HW222198   9.439   1.726   2.790  0.6595  1.2615  0.7243
39769SOL     OW22199   6.185   5.601   8.430 -0.5569 -0.2444  0.4306
39769SOL    HW122200   6.202   5.674   8.489 -0.9604 -1.1336  1.6880
39769SOL    HW222201   6.090   5.593   8.428 -0.7093  1.1493 -2.1249
39770SOL     OW22202   6.014   3.501   6.849  0.3098 -0.1776  0.6304
39770SOL    HW122203   5.972   3.511   6.763  0.7591 -1.3593  0.2582
39770SOL    HW222204   6.101   3.537   6.836  0.0754  0.4920  0.8627
39771SOL     OW22205   2.051   0.225   2.144  0.6193  0.1176  0.2406
39771SOL    HW122206   2.130   0.244   2.195  1.3350  1.3561 -1.2428
39771SOL    HW222207   2.072   0.144   2.097 -0.7147 -2.0714  3.1179
39772SOL     OW22208   1.303   1.289   0.227  0.1551 -0.2570 -0.1536
39772SOL    HW122209   1.260   1.205   0.242  3.6026 -2.1308  0.2939
39772SOL    HW222210   1.310   1.296   0.132 -1.7964  0.5040 -0.2685
39773SOL     OW22211   8.608   5.854   8.486 -0.2772  0.5347  0.5202
39773SOL    HW122212   8.630   5.947   8.494 -0.8530  0.7766 -0.5094
39773SOL    HW222213   8.648   5.828   8.403  0.1386 -0.2219  0.9505
39774SOL     OW22214   5.259   4.391   7.883  0.2279 -0.5136 -0.4240
39774SOL    HW122215   5.350   4.367   7.900  0.5929 -0.9014 -2.7180
39774SOL    HW222216   5.254   4.404   7.789 -1.4326  2.3718 -0.0495
39775SOL     OW22217   5.992   6.104   8.936  0.3156 -0.1252 -0.1473
39775SOL    HW122218   5.904   6.078   8.962  0.9332 -0.1864  2.1193
39775SOL    HW222219   6.029   6.027   8.893 -0.9487  0.1624 -1.8883
39776SOL     OW22220   4.160   5.324   1.327  0.0605  0.1158  0.9091
39776SOL    HW122221   4.080   5.279   1.355 -1.1272  1.1636 -0.6419
39776SOL    HW222222   4.150   5.333   1.233  1.5449  1.1869  0.8338
39777SOL     OW22223   4.884   5.364   0.296  0.0411 -0.5098  0.3635
39777SOL    HW122224   4.861   5.439   0.351  0.2687 -0.8815  0.9743
39777SOL    HW222225   4.978   5.353   0.309  0.1584 -0.4147 -0.3493
39778SOL     OW22226   0.165   7.427  10.318  0.2596  0.0266  0.0934
39778SOL    HW122227   0.088   7.375  10.296  0.5753  0.1268 -1.3114
39778SOL    HW222228   0.223   7.366  10.364  0.1788 -0.5817 -0.5997
39779SOL     OW22229   0.161   3.562   4.535  0.0332 -0.1331  0.4521
39779SOL    HW122230   0.254   3.549   4.514 -0.0071  0.8527 -0.4265
39779SOL    HW222231   0.157   3.651   4.571 -0.6363  0.0111  0.0404
39780SOL     OW22232   6.048   2.655  10.467  0.4140 -0.5270  0.5365
39780SOL    HW122233   6.103   2.722  10.509  0.5922 -1.3570  1.6854
39780SOL    HW222234   6.099   2.574  10.475 -0.4109 -1.0638  0.4344
39781SOL     OW22235   1.724   3.689   1.509  0.6393  0.4345 -0.1272
39781SOL    HW122236   1.780   3.632   1.562 -2.5401 -2.3759  0.5938
39781SOL    HW222237   1.728   3.651   1.421  1.9022  1.9295 -0.7595
39782SOL     OW22238  10.077   7.473   7.460  0.2925  0.3934 -0.5517
39782SOL    HW122239  10.010   7.404   7.451 -0.5735  0.9549  1.0905
39782SOL    HW222240  10.154   7.437   7.417  0.2677 -2.1803  1.2923
39783SOL     OW22241   3.890   1.988   5.618  0.2783 -0.7149  0.0991
39783SOL    HW122242   3.951   2.043   5.569  1.3476 -2.0901 -0.1906
39783SOL    HW222243   3.824   1.962   5.553 -0.3024  0.2987  0.2691
39784SOL     OW22244   5.897   9.695   7.268 -0.1038 -0.2176  0.3960
39784SOL    HW122245   5.940   9.633   7.211 -0.6849 -2.0908  1.8930
39784SOL    HW222246   5.941   9.685   7.353  1.5747  3.3535  0.1329
39785SOL     OW22247   2.527   0.355   8.070  0.6428  0.7807  0.3027
39785SOL    HW122248   2.487   0.404   7.998 -3.2106 -1.3296  0.7752
39785SOL    HW222249   2.535   0.420   8.141 -1.4093  1.5247 -0.0672
39786SOL     OW22250   1.275   5.933   4.710 -0.4649 -0.2096 -0.7262
39786SOL    HW122251   1.299   6.025   4.719  0.2165 -0.4427 -0.0433
39786SOL    HW222252   1.319   5.904   4.630 -1.7808  0.3853 -1.6993
39787SOL     OW22253   4.156   1.221   7.885 -0.0616 -0.0261  0.3774
39787SOL    HW122254   4.089   1.182   7.829 -0.3762 -0.4755  1.0548
39787SOL    HW222255   4.221   1.256   7.823 -0.3085 -0.6735 -0.2716
39788SOL     OW22256   3.445   8.308   8.070  0.0029  0.4272  0.0961
39788SOL    HW122257   3.408   8.228   8.033  1.0648  0.5952 -1.4303
39788SOL    HW222258   3.370   8.351   8.112 -1.2985  0.1226 -1.7535
39789SOL     OW22259   3.330   2.197   6.446  0.4550 -0.2592 -0.0848
39789SOL    HW122260   3.238   2.179   6.426  0.7194 -2.3072  0.2993
39789SOL    HW222261   3.347   2.149   6.527  1.6587  0.7875  0.3090
39790SOL     OW22262   9.745   0.792   5.524  0.1633  0.1095 -0.0249
39790SOL    HW122263   9.653   0.788   5.551  0.3716  1.6685  1.0610
39790SOL    HW222264   9.770   0.700   5.510 -1.5871 -0.3257 -0.5204
39791SOL     OW22265   4.987   8.246   6.295 -0.7768 -0.6826  0.1213
39791SOL    HW122266   4.980   8.298   6.375 -0.6638 -0.2957 -0.1177
39791SOL    HW222267   5.034   8.167   6.322 -1.6652 -1.0467  0.6636
39792SOL     OW22268   4.495   4.887   6.525  0.6657  0.6662  0.0431
39792SOL    HW122269   4.545   4.945   6.468 -0.0248  1.9733  0.7267
39792SOL    HW222270   4.496   4.802   6.481  1.5990  1.2202 -1.0348
39793SOL     OW22271   8.743   9.401   5.381 -0.2986 -0.4228 -0.3261
39793SOL    HW122272   8.810   9.467   5.365  1.6514 -2.3441 -0.4838
39793SOL    HW222273   8.708   9.382   5.294 -0.8054  0.2854 -0.2910
39794SOL     OW22274   6.057   3.173   1.097  0.1741  0.4706 -0.7706
39794SOL    HW122275   6.086   3.101   1.152 -0.6412  0.3861 -0.4337
39794SOL    HW222276   6.123   3.241   1.110  0.6560 -0.0092 -0.6694
39795SOL     OW22277   9.083   3.031   8.314  0.0079  0.0003 -0.4241
39795SOL    HW122278   9.044   2.990   8.391  0.7316  0.6205  0.2962
39795SOL    HW222279   9.174   3.002   8.314  0.5665  1.6137  0.1617
39796SOL     OW22280   8.260   4.369   8.600 -0.0869  1.0667  0.4534
39796SOL    HW122281   8.184   4.427   8.607 -0.1949  0.8248  1.4540
39796SOL    HW222282   8.267   4.351   8.506 -1.6054  0.6554  0.3850
39797SOL     OW22283   0.925   1.854   4.095 -0.5193  0.3496 -0.1260
39797SOL    HW122284   0.952   1.936   4.054  0.7094  0.5924  1.1141
39797SOL    HW222285   0.900   1.877   4.184  1.2996 -0.7830  0.7466
39798SOL     OW22286   3.793   5.637   1.610 -0.3195 -0.1833 -0.5684
39798SOL    HW122287   3.783   5.628   1.515  1.7490  1.0112 -0.9722
39798SOL    HW222288   3.704   5.629   1.645 -1.2490  0.2260 -2.6886
39799SOL     OW22289   5.727   8.920   1.268  0.3424 -0.0279 -0.2304
39799SOL    HW122290   5.679   8.852   1.315 -0.1981  0.8908  0.5603
39799SOL    HW222291   5.815   8.883   1.256 -0.2378 -1.2851 -0.7559
39800SOL     OW22292   5.385  10.756   1.105 -0.0452  0.2128  0.2316
39800SOL    HW122293   5.307  10.738   1.157  0.0857  0.9319  0.7016
39800SOL    HW222294   5.365  10.838   1.059  0.0910 -0.0771 -0.3536
39801SOL     OW22295   6.221   4.043   0.440  0.1576  0.7800  0.2300
39801SOL    HW122296   6.147   3.999   0.399  1.8549 -0.8869 -1.2577
39801SOL    HW222297   6.222   4.130   0.400 -0.7122  0.6496 -0.0938
39802SOL     OW22298   6.679   4.705   3.220 -0.2536 -0.0222  0.7610
39802SOL    HW122299   6.769   4.735   3.236 -0.0330 -0.5744  0.5874
39802SOL    HW222300   6.685   4.609   3.226 -0.5797 -0.1332 -0.5211
39803SOL     OW22301   4.114   8.658   8.327  0.1077 -0.2161 -0.3663
39803SOL    HW122302   4.035   8.672   8.379  2.3431 -0.7360  3.5676
39803SOL    HW222303   4.143   8.747   8.302 -0.6652  0.1025 -0.1369
39804SOL     OW22304   3.484   1.677   1.917 -0.8146  0.2929 -0.0113
39804SOL    HW122305   3.512   1.602   1.970 -0.0487  0.4920 -0.1164
39804SOL    HW222306   3.469   1.641   1.830  0.0091  0.3278 -0.1794
39805SOL     OW22307   6.459   6.955   2.586  0.2307 -0.2355 -0.1707
39805SOL    HW122308   6.434   6.894   2.517 -0.5898 -0.5084  0.3577
39805SOL    HW222309   6.554   6.946   2.593  0.2402 -0.6938 -0.8009
39806SOL     OW22310   3.039   4.931   0.852  0.1350 -0.1845 -0.3833
39806SOL    HW122311   3.109   4.899   0.909  0.7450  1.6990  0.0002
39806SOL    HW222312   3.036   4.868   0.780 -0.1318 -2.1959  1.2898
39807SOL     OW22313   0.345   1.601   8.346 -0.3230 -0.5992 -0.1462
39807SOL    HW122314   0.414   1.659   8.314 -0.4724 -0.5736 -0.4285
39807SOL    HW222315   0.370   1.581   8.436  1.0622 -2.1112 -0.8032
39808SOL     OW22316  10.498   1.830   4.374  0.9907 -0.6317  0.3407
39808SOL    HW122317  10.583   1.873   4.385  0.6437  0.8076 -1.9124
39808SOL    HW222318  10.518   1.737   4.376  2.7551 -0.3183 -0.6569
39809SOL     OW22319   7.369   7.870   4.326 -0.3171  0.4246  0.0070
39809SOL    HW122320   7.456   7.835   4.348 -0.3714 -0.8707 -1.6455
39809SOL    HW222321   7.335   7.903   4.410  1.4578  0.3202  0.8309
39810SOL     OW22322   2.077   4.145   0.246 -0.4394  0.1193  0.0529
39810SOL    HW122323   2.131   4.104   0.313  0.4135  1.9556  0.5524
39810SOL    HW222324   2.137   4.159   0.172 -1.1046 -0.9093 -0.7017
39811SOL     OW22325   2.773   8.784   7.311 -0.3466  0.2067  0.0110
39811SOL    HW122326   2.865   8.760   7.306 -0.1321  1.0975 -0.4582
39811SOL    HW222327   2.731   8.734   7.240 -0.1696  0.0518  0.0160
39812SOL     OW22328   2.409   0.092   5.272  0.1673 -0.2887 -0.5445
39812SOL    HW122329   2.405   0.179   5.311 -0.0558 -0.6585  0.2768
39812SOL    HW222330   2.318   0.069   5.254  0.2443 -0.2542 -1.0032
39813SOL     OW22331   7.381   4.854   8.035  0.2545 -0.1242 -0.0808
39813SOL    HW122332   7.368   4.940   7.996 -1.5042 -0.2818  0.0821
39813SOL    HW222333   7.303   4.804   8.011  0.0741 -0.8890  1.8817
39814SOL     OW22334   8.246   2.703   8.541 -0.2903 -0.4391 -0.0533
39814SOL    HW122335   8.287   2.747   8.615  1.1506 -0.7672 -0.6174
39814SOL    HW222336   8.200   2.773   8.495  0.3589  0.1274  0.1322
39815SOL     OW22337   5.053   9.254   0.834 -0.4610 -0.2638 -0.3217
39815SOL    HW122338   5.025   9.320   0.897  0.1848 -1.2501  1.0473
39815SOL    HW222339   5.054   9.173   0.884  1.2364 -0.8805 -1.2985
39816SOL     OW22340   8.262   0.984   1.980  0.3495  0.3951 -0.4876
39816SOL    HW122341   8.353   1.013   1.988  0.1280  1.3256 -1.1892
39816SOL    HW222342   8.267   0.888   1.985  1.2652  0.4752  0.3566
39817SOL     OW22343   9.259   8.649   6.115 -0.2999 -0.2875  0.2916
39817SOL    HW122344   9.347   8.619   6.094 -0.1389  0.1121  0.3770
39817SOL    HW222345   9.246   8.726   6.059 -0.2740  0.1423  0.8561
39818SOL     OW22346  10.698   1.731   3.113  0.2133 -0.2126  0.1058
39818SOL    HW122347  10.744   1.666   3.059  1.1832  1.1185 -0.7192
39818SOL    HW222348  10.668   1.797   3.051 -1.4589 -0.2350  0.8395
39819SOL     OW22349   8.113   9.959   7.982 -0.0110 -0.2950  0.4656
39819SOL    HW122350   8.063  10.036   7.956 -0.3097 -0.7827 -0.4910
39819SOL    HW222351   8.175   9.947   7.910 -1.3095 -2.0988 -0.4333
39820SOL     OW22352   1.115   0.405   6.903  0.0342  0.6526  0.6227
39820SOL    HW122353   1.197   0.449   6.882 -0.7068  1.1204 -1.5079
39820SOL    HW222354   1.083   0.371   6.819 -1.6573 -0.0335  1.4865
39821SOL     OW22355   9.510   4.544   1.265  0.0164 -0.1190  0.4998
39821SOL    HW122356   9.555   4.602   1.204  0.7821 -0.9893  0.2122
39821SOL    HW222357   9.467   4.603   1.327 -0.5525  0.7826 -0.7087
39822SOL     OW22358   7.462   0.138   7.121  0.3354  0.3190 -0.6202
39822SOL    HW122359   7.387   0.162   7.066  0.3287  3.1926  0.4252
39822SOL    HW222360   7.425   0.130   7.209  0.5662 -2.9138 -0.6906
39823SOL     OW22361   1.442  10.140   8.528  0.0617 -0.2905 -0.7115
39823SOL    HW122362   1.367  10.086   8.553  0.5393 -0.6547 -0.0233
39823SOL    HW222363   1.414  10.186   8.450 -1.2278  0.3077  0.0791
39824SOL     OW22364   5.053   4.197   0.699  0.6181  0.0180  0.3503
39824SOL    HW122365   5.088   4.252   0.769 -0.0087  0.3576  0.4077
39824SOL    HW222366   5.129   4.149   0.665  1.8418  3.1662 -1.7942
39825SOL     OW22367   0.830   8.156  10.221 -0.4281  0.1572  0.0880
39825SOL    HW122368   0.890   8.136  10.149 -0.1813 -0.8579  0.5504
39825SOL    HW222369   0.859   8.242  10.253  0.7866 -0.3090  0.2982
39826SOL     OW22370  10.151   0.438   4.319  0.0220 -0.1296 -0.7946
39826SOL    HW122371  10.229   0.389   4.297 -0.1170 -0.5937 -0.2647
39826SOL    HW222372  10.183   0.515   4.367  0.1130 -0.6607  0.0118
39827SOL     OW22373   6.183   0.574   3.263 -0.1821 -0.1154  0.0493
39827SOL    HW122374   6.266   0.615   3.287  1.9388 -3.3658 -1.0947
39827SOL    HW222375   6.144   0.548   3.347 -0.2897  1.7343  0.6117
39828SOL     OW22376  10.338   0.001   7.788  0.2893 -0.0815  0.1341
39828SOL    HW122377  10.349  -0.065   7.719  1.7227  1.1448 -0.8852
39828SOL    HW222378  10.256   0.044   7.766  0.7827  0.3730 -0.9137
39829SOL     OW22379   7.990   5.611   9.605 -0.6391 -0.3323  0.4473
39829SOL    HW122380   7.967   5.693   9.649  1.1414  0.7172 -0.4551
39829SOL    HW222381   8.086   5.612   9.602 -0.4896 -3.1345  1.6077
39830SOL     OW22382   8.428   3.382  10.016 -0.0758  0.0750 -0.4188
39830SOL    HW122383   8.354   3.323  10.001 -1.9806  2.2821 -0.5002
39830SOL    HW222384   8.499   3.347   9.963 -1.2815 -1.7825 -0.8851
39831SOL     OW22385   9.438   9.587   2.225 -0.4764 -0.2195  0.4470
39831SOL    HW122386   9.513   9.625   2.177 -1.6674  1.4670 -0.1953
39831SOL    HW222387   9.477   9.547   2.303  1.1022  0.6251  0.1366
39832SOL     OW22388   3.132   2.858   1.214 -0.3931 -0.2851  0.0123
39832SOL    HW122389   3.108   2.944   1.181  0.4065  0.1235  0.4552
39832SOL    HW222390   3.208   2.833   1.161  0.3512 -0.0122  0.9162
39833SOL     OW22391  10.351   5.776   9.581 -0.7169 -0.2607 -0.5661
39833SOL    HW122392  10.434   5.814   9.551 -0.5128 -0.8859 -0.8209
39833SOL    HW222393  10.374   5.688   9.611 -1.2562 -0.3672 -0.4482
39834SOL     OW22394   1.885   7.610  10.566 -0.0925 -0.1373  0.4585
39834SOL    HW122395   1.793   7.600  10.590 -0.5101  0.2945 -0.8914
39834SOL    HW222396   1.894   7.563  10.484  0.9394 -0.2957  0.6514
39835SOL     OW22397  10.387  10.077   5.978  0.0508 -0.1009  0.3637
39835SOL    HW122398  10.466  10.025   5.962 -0.6317 -1.3247  0.7863
39835SOL    HW222399  10.357  10.048   6.064 -0.9142  0.2748  0.1674
39836SOL     OW22400   5.769   4.600  10.761  0.2145 -0.1561  0.1529
39836SOL    HW122401   5.748   4.509  10.738 -1.7431  0.2685  0.0870
39836SOL    HW222402   5.825   4.593  10.838 -0.1793 -1.4177  0.3488
39837SOL     OW22403   8.538  10.578   7.034  0.2221 -0.2871 -0.2661
39837SOL    HW122404   8.568  10.506   7.089  1.2785  0.4001  0.0842
39837SOL    HW222405   8.470  10.621   7.087 -1.1605 -1.5964 -0.8925
39838SOL     OW22406   1.440   6.150  10.130  0.2958 -0.3426  0.2199
39838SOL    HW122407   1.353   6.189  10.128  0.9205  1.1604  0.7657
39838SOL    HW222408   1.488   6.194  10.060  0.5278 -1.3881 -0.2872
39839SOL     OW22409   3.110  10.323   2.978 -0.6038 -0.4824 -0.7032
39839SOL    HW122410   3.019  10.335   3.006 -0.7602  1.0055 -1.7482
39839SOL    HW222411   3.146  10.261   3.041 -2.0743 -0.3539  0.3159
39840SOL     OW22412   6.238   3.167   1.916 -0.2223  0.4019 -0.1914
39840SOL    HW122413   6.222   3.191   1.825 -3.0549 -0.6461 -0.0762
39840SOL    HW222414   6.308   3.102   1.913 -0.4495  0.2057 -1.6438
39841SOL     OW22415   8.525   2.431   5.444  0.1762 -0.3206  0.0591
39841SOL    HW122416   8.570   2.407   5.526 -0.3445 -2.2656 -0.1785
39841SOL    HW222417   8.572   2.383   5.376  0.8462  1.5759 -0.8975
39842SOL     OW22418   7.124   7.422   0.729 -0.1918 -0.2001  0.3270
39842SOL    HW122419   7.134   7.372   0.648 -1.5816 -0.1473  0.0956
39842SOL    HW222420   7.128   7.514   0.700  0.1972 -0.1753  0.4514
39843SOL     OW22421   4.756   2.956   5.062 -0.4601 -0.3453  0.0602
39843SOL    HW122422   4.709   2.909   5.130  1.5914 -0.6994  1.3265
39843SOL    HW222423   4.812   2.889   5.022 -0.7356  0.1262 -1.1499
39844SOL     OW22424   6.287   4.147   6.305  0.1409 -0.1457 -0.1503
39844SOL    HW122425   6.241   4.164   6.223  0.1249  0.7890  0.0331
39844SOL    HW222426   6.246   4.069   6.341  2.6664 -3.0316 -2.8687
39845SOL     OW22427   0.278   9.171   6.886 -0.0509 -0.3353  0.0436
39845SOL    HW122428   0.228   9.125   6.818  0.5935 -0.7818 -0.1376
39845SOL    HW222429   0.361   9.194   6.844  0.5044 -0.9388  0.7785
39846SOL     OW22430   9.823   7.125   2.349  0.4695 -0.2650 -0.2400
39846SOL    HW122431   9.873   7.112   2.430  0.2636  1.5172  0.2190
39846SOL    HW222432   9.770   7.046   2.341 -0.6634  0.1335  2.2235
39847SOL     OW22433   5.538   7.169   7.445  0.5109 -0.1548  0.9241
39847SOL    HW122434   5.611   7.230   7.446  0.1765  0.2498  1.4830
39847SOL    HW222435   5.469   7.214   7.494 -0.0623 -0.5871  0.5318
39848SOL     OW22436   4.075  10.676   2.206  0.4744  0.0010  0.1124
39848SOL    HW122437   4.041  10.599   2.252  2.2483 -0.5661  0.5357
39848SOL    HW222438   4.144  10.710   2.263  0.3517  1.3709 -0.5103
39849SOL     OW22439  10.328   1.823   6.737  0.1302 -0.2630 -0.6864
39849SOL    HW122440  10.291   1.800   6.652  0.6361  0.1682 -1.0299
39849SOL    HW222441  10.390   1.752   6.755 -1.2395 -1.2935  0.1589
39850SOL     OW22442   6.295   1.571   5.074 -0.1686  0.6666 -0.1946
39850SOL    HW122443   6.296   1.571   4.978 -1.2249 -0.3358 -0.2340
39850SOL    HW222444   6.387   1.578   5.099  0.1811  0.3313 -1.2911
39851SOL     OW22445   0.195   1.006   2.237  0.0917 -0.4929  0.1970
39851SOL    HW122446   0.138   1.065   2.286 -1.6688 -2.1969  0.3112
39851SOL    HW222447   0.265   0.984   2.298  0.1689  0.6030  0.5157
39852SOL     OW22448  10.204   4.254   7.751 -0.1666 -0.3754  0.1284
39852SOL    HW122449  10.276   4.317   7.753 -0.4111 -0.0771 -0.2614
39852SOL    HW222450  10.191   4.229   7.842 -0.4529  0.5819  0.3545
39853SOL     OW22451   2.811   9.768  10.322 -0.1054 -0.2206 -0.0085
39853SOL    HW122452   2.787   9.738  10.234 -0.9443 -0.3559  0.2528
39853SOL    HW222453   2.893   9.814  10.310 -0.6387  0.5214 -1.0151
39854SOL     OW22454   2.788  10.633   2.220 -0.3619 -0.0560 -0.2707
39854SOL    HW122455   2.705  10.601   2.254  0.7187 -1.2472  1.4289
39854SOL    HW222456   2.811  10.706   2.278  0.5593 -0.8246  0.3641
39855SOL     OW22457   4.072   8.332   2.431  0.5796 -0.4320 -0.3038
39855SOL    HW122458   3.988   8.359   2.394  1.8444  1.7327 -1.8533
39855SOL    HW222459   4.062   8.344   2.525 -0.9108 -0.4701 -0.4324
39856SOL     OW22460   3.639   0.297   2.067  0.2393 -0.4647 -0.1425
39856SOL    HW122461   3.645   0.392   2.056  0.4514 -0.6622 -2.1606
39856SOL    HW222462   3.550   0.281   2.096  0.5468  0.4182  1.3815
39857SOL     OW22463  10.211   1.517   3.496  0.1918  0.4923  0.3460
39857SOL    HW122464  10.300   1.485   3.483  1.3269  3.1801  0.8285
39857SOL    HW222465  10.171   1.454   3.556  1.1917 -1.6288 -1.1279
39858SOL     OW22466  10.174   3.166   8.197 -0.2037 -0.1408 -0.1609
39858SOL    HW122467  10.180   3.071   8.182 -1.0373 -0.2071 -0.1462
39858SOL    HW222468  10.264   3.194   8.210  0.0145 -1.0121  0.2941
39859SOL     OW22469  10.324   8.179   6.597  0.4303 -0.2489 -0.2827
39859SOL    HW122470  10.312   8.140   6.510  1.0446 -1.7000  0.2578
39859SOL    HW222471  10.407   8.226   6.591 -0.1288  0.6963 -0.8290
39860SOL     OW22472   5.226   1.012   5.269  1.0958 -0.4054  0.1061
39860SOL    HW122473   5.134   1.036   5.260  0.5801 -1.6334  1.7331
39860SOL    HW222474   5.260   1.017   5.179 -0.5417  0.0230 -0.5365
39861SOL     OW22475   3.119   6.503   9.878 -0.3786  0.2090 -0.0609
39861SOL    HW122476   3.030   6.482   9.905 -0.0856  1.4738  2.0562
39861SOL    HW222477   3.132   6.594   9.904  1.2986  0.2812 -0.9954
39862SOL     OW22478   5.798   7.992   4.040 -0.0114  0.5511 -0.3432
39862SOL    HW122479   5.878   7.988   4.092 -0.8497  1.2991  1.0543
39862SOL    HW222480   5.763   7.903   4.044  2.2744 -0.7001 -3.6195
39863SOL     OW22481   1.380   3.740   7.457 -0.0477 -0.4253  0.1866
39863SOL    HW122482   1.294   3.743   7.497 -0.7018 -0.1895 -1.1704
39863SOL    HW222483   1.416   3.828   7.471 -0.4469 -0.2117 -0.1166
39864SOL     OW22484   3.349   3.351   2.846  0.7120 -0.3911 -0.0027
39864SOL    HW122485   3.298   3.411   2.792  2.1956 -0.8932 -2.0868
39864SOL    HW222486   3.388   3.406   2.913  1.5951  0.9178 -1.5238
39865SOL     OW22487   0.459   8.238   9.543  0.9586  0.5274 -0.3868
39865SOL    HW122488   0.395   8.268   9.477  2.1360  1.0919 -1.3117
39865SOL    HW222489   0.464   8.310   9.606  1.0808  0.7219 -0.6147
39866SOL     OW22490   1.035   9.460   1.462  0.1467 -0.3512  0.6291
39866SOL    HW122491   0.944   9.430   1.458 -0.3776  0.9722  1.7514
39866SOL    HW222492   1.044   9.519   1.387 -0.7729  1.5838  1.9506
39867SOL     OW22493  10.710   7.388   9.850 -0.0463  0.6429 -0.0017
39867SOL    HW122494  10.737   7.296   9.851  0.5655  0.8185  0.0650
39867SOL    HW222495  10.791   7.436   9.832  0.1105  1.3370  2.2529
39868SOL     OW22496   4.491   7.509   4.883  0.1304 -0.9465 -0.6605
39868SOL    HW122497   4.406   7.529   4.843  0.4721  1.2634 -0.4348
39868SOL    HW222498   4.517   7.591   4.925  0.2489 -2.7791  3.3309
39869SOL     OW22499   6.575   2.162   0.792  0.1992 -0.0627 -0.7287
39869SOL    HW122500   6.646   2.126   0.740  2.0895 -0.1341  1.7053
39869SOL    HW222501   6.574   2.108   0.871 -0.1223  2.1359  0.8732
39870SOL     OW22502   4.711   2.679   2.983 -0.0624  0.2348  0.2644
39870SOL    HW122503   4.733   2.671   3.076 -0.2728  1.5905  0.4598
39870SOL    HW222504   4.785   2.726   2.945  0.1421 -0.5464 -0.3131
39871SOL     OW22505   2.946   9.243   8.290  0.4840  0.3154  0.4816
39871SOL    HW122506   2.973   9.307   8.356  2.0605  0.8245 -0.5950
39871SOL    HW222507   2.881   9.289   8.237 -1.2559 -0.2977  1.9758
39872SOL     OW22508  10.342   4.642   1.638  0.0258 -0.0254 -0.3997
39872SOL    HW122509  10.408   4.686   1.692  1.7424 -0.5897 -1.9170
39872SOL    HW222510  10.259   4.663   1.679  1.1984  0.0871  2.0651
39873SOL     OW22511  10.527   1.747   0.537 -0.1110 -0.1207  0.2396
39873SOL    HW122512  10.442   1.751   0.580  0.6769  1.2691  1.8035
39873SOL    HW222513  10.590   1.737   0.609  1.1981  1.2571 -0.6419
39874SOL     OW22514  10.340   7.594   7.706 -0.0956  0.2483 -0.3013
39874SOL    HW122515  10.416   7.610   7.762 -0.3496  1.6372 -0.3142
39874SOL    HW222516  10.367   7.521   7.650  1.8013  1.5982 -1.2906
39875SOL     OW22517   8.527  10.040   6.635 -0.0565 -0.3204  0.1640
39875SOL    HW122518   8.613  10.001   6.616 -0.8852 -1.1922 -2.1940
39875SOL    HW222519   8.469  10.005   6.567 -1.9151  1.5058  0.6967
39876SOL     OW22520   6.206   1.311   5.567 -0.0858  0.6109 -0.2157
39876SOL    HW122521   6.166   1.265   5.493  0.5990  0.6006 -0.5936
39876SOL    HW222522   6.212   1.402   5.538  1.0836  0.4400 -0.5928
39877SOL     OW22523   4.750   9.290  10.120  0.4141  0.1973  1.2049
39877SOL    HW122524   4.664   9.307  10.158 -0.5971 -0.8011 -0.4890
39877SOL    HW222525   4.737   9.211  10.068  2.4848 -0.2051  1.2302
39878SOL     OW22526   8.177   6.537   8.020 -0.0552 -0.6061  0.0714
39878SOL    HW122527   8.135   6.474   7.962  0.7895 -2.4769  1.4281
39878SOL    HW222528   8.268   6.541   7.991 -0.1156  0.0760 -0.0532
39879SOL     OW22529   1.107   3.785   4.113  0.3445 -0.0690 -0.1446
39879SOL    HW122530   1.191   3.744   4.136  0.8531  0.4756 -0.9948
39879SOL    HW222531   1.131   3.869   4.076 -0.4506 -0.7062 -2.2423
39880SOL     OW22532   7.295   3.047   5.319 -0.2458  0.2355 -0.5237
39880SOL    HW122533   7.326   3.129   5.358  0.1090  0.7859 -1.9002
39880SOL    HW222534   7.326   2.979   5.378  0.4258  1.0201  0.0501
39881SOL     OW22535   4.742   7.202   8.535 -0.1226  0.3482 -0.1926
39881SOL    HW122536   4.790   7.220   8.454  0.3659 -0.9452 -0.2101
39881SOL    HW222537   4.729   7.289   8.574  1.6263  0.8006 -0.5352
39882SOL     OW22538  10.697   6.836   6.956  0.4968 -0.0279  0.0835
39882SOL    HW122539  10.668   6.823   7.046  0.1592  0.0924 -0.0089
39882SOL    HW222540  10.640   6.779   6.904 -0.5115  1.2434 -0.2461
39883SOL     OW22541   1.043   7.586   4.987  0.2170 -0.0864  0.1004
39883SOL    HW122542   1.095   7.612   5.063  0.3820  0.0601 -0.0581
39883SOL    HW222543   1.108   7.571   4.918  0.0022  1.0939 -0.3889
39884SOL     OW22544   1.378   3.120   0.730 -0.0225 -0.6465 -0.4476
39884SOL    HW122545   1.361   3.047   0.789 -0.4178  0.5402  0.9532
39884SOL    HW222546   1.397   3.194   0.787 -3.3560  1.3241 -1.6041
39885SOL     OW22547   0.933   0.984   4.877  0.0969  0.5878 -0.7398
39885SOL    HW122548   1.004   1.007   4.937  0.3633 -0.5101 -0.6085
39885SOL    HW222549   0.978   0.952   4.798 -0.1890 -1.8514  0.0177
39886SOL     OW22550  10.128   0.856   0.618 -0.4054  0.1682 -0.4184
39886SOL    HW122551  10.192   0.847   0.689  0.1459  1.9370 -0.6492
39886SOL    HW222552  10.177   0.837   0.538 -0.3802  0.6713 -0.5254
39887SOL     OW22553   9.907   6.234   4.542 -0.0469 -0.3627 -0.8197
39887SOL    HW122554   9.927   6.275   4.626 -0.5858  0.7912 -1.2262
39887SOL    HW222555   9.986   6.186   4.519 -0.1125 -1.2403  0.6332
39888SOL     OW22556   2.758  10.580  10.542  0.3304 -0.1818 -0.3366
39888SOL    HW122557   2.809  10.512  10.586  0.1210  1.0231  1.8859
39888SOL    HW222558   2.817  10.655  10.537 -0.4137  0.4427  0.0439
39889SOL     OW22559   9.609  10.780   9.966  0.2286  0.0041  0.6524
39889SOL    HW122560   9.640  10.756   9.878 -2.4844 -0.0596 -0.3794
39889SOL    HW222561   9.619  10.700  10.017 -0.6301 -0.7971 -0.3721
39890SOL     OW22562   6.387   6.178   7.334 -0.1437 -0.4506 -0.2525
39890SOL    HW122563   6.419   6.109   7.275 -0.4015  0.8326 -1.9838
39890SOL    HW222564   6.463   6.233   7.350 -0.2789 -0.3112 -0.0886
39891SOL     OW22565   4.444   8.146   6.107 -0.2834 -0.5662  0.2491
39891SOL    HW122566   4.503   8.156   6.182  1.0446 -2.8853 -0.3953
39891SOL    HW222567   4.492   8.184   6.033 -1.6288  1.8022  0.5064
39892SOL     OW22568   5.321   7.818   8.811 -0.3815 -0.0999 -0.0166
39892SOL    HW122569   5.353   7.766   8.884 -0.6311  0.4421  0.4870
39892SOL    HW222570   5.236   7.851   8.840  0.2320  1.4795  0.1322
39893SOL     OW22571   4.124   4.936   1.664  0.1539 -0.3907 -0.0731
39893SOL    HW122572   4.179   4.936   1.586  1.6366  0.3025  0.9147
39893SOL    HW222573   4.085   4.848   1.667  0.4345 -0.5640 -1.3296
39894SOL     OW22574   6.613   3.883   3.049  0.6757 -0.0152  0.3953
39894SOL    HW122575   6.520   3.897   3.035  0.4190 -0.7255  1.3190
39894SOL    HW222576   6.653   3.968   3.030  0.2200 -0.3942 -2.9669
39895SOL     OW22577   3.217   0.537   5.545 -0.2238 -0.2249  0.7506
39895SOL    HW122578   3.155   0.464   5.543 -0.6772  0.1469  1.0781
39895SOL    HW222579   3.302   0.496   5.525 -0.8322 -0.4199 -1.6765
39896SOL     OW22580  10.241   1.395   6.742 -0.3954 -0.2982  0.0825
39896SOL    HW122581  10.175   1.450   6.785 -0.1350  0.1217 -0.0471
39896SOL    HW222582  10.323   1.417   6.786 -0.4051 -1.1365  0.5354
39897SOL     OW22583   9.035   5.814   5.462 -0.8974  0.1225  0.3840
39897SOL    HW122584   9.007   5.904   5.480  1.2649  1.2042 -1.0682
39897SOL    HW222585   9.012   5.801   5.370  1.3797  0.3497 -0.2785
39898SOL     OW22586   5.981   4.240   1.897 -0.0108  0.4832  0.1214
39898SOL    HW122587   6.032   4.159   1.901 -1.1556 -0.2143  1.3883
39898SOL    HW222588   5.933   4.234   1.814  0.1754  0.0272  0.0439
39899SOL     OW22589   0.019   2.840   7.027  0.4501  0.0846  0.2133
39899SOL    HW122590   0.026   2.935   7.036 -2.1276  0.1817  2.0711
39899SOL    HW222591   0.074   2.820   6.951  0.1610  3.1893 -0.9728
39900SOL     OW22592   3.739   8.230   0.317 -0.4905 -0.0030  0.2744
39900SOL    HW122593   3.732   8.266   0.228 -1.5973  1.0572  0.7712
39900SOL    HW222594   3.654   8.190   0.334 -0.1444 -0.5718  0.7128
39901SOL     OW22595   6.613   2.349   7.557  0.4744  0.3727  0.1822
39901SOL    HW122596   6.677   2.415   7.583  1.4702 -0.4690 -0.0711
39901SOL    HW222597   6.567   2.327   7.638 -1.2107  2.7150 -0.0362
39902SOL     OW22598   3.861   4.788   9.564  0.1424  0.1394 -0.0535
39902SOL    HW122599   3.838   4.813   9.475 -0.9512 -1.8799 -0.3854
39902SOL    HW222600   3.792   4.825   9.619 -0.9014 -1.2367 -0.4169
39903SOL     OW22601   3.211   0.769   3.746  0.5659 -0.3325 -0.0488
39903SOL    HW122602   3.194   0.744   3.656 -0.5755 -2.9217  0.7814
39903SOL    HW222603   3.137   0.825   3.770 -0.3258 -1.4224 -0.1375
39904SOL     OW22604   0.681   1.792   5.761 -0.1903 -0.2587 -0.3629
39904SOL    HW122605   0.700   1.766   5.671 -0.6276 -0.5138 -0.3824
39904SOL    HW222606   0.605   1.850   5.755  0.1085  0.1588 -0.2082
39905SOL     OW22607   6.987   4.006  10.624 -0.4856  0.0600  0.1220
39905SOL    HW122608   6.943   4.005  10.708 -0.3218  1.5820  0.2562
39905SOL    HW222609   7.008   4.099  10.609  2.3833 -0.5065 -0.0579
39906SOL     OW22610   4.627   7.153   6.059 -0.1925 -0.5596  0.3873
39906SOL    HW122611   4.601   7.233   6.013 -3.0488 -0.9089  1.2428
39906SOL    HW222612   4.717   7.138   6.030 -0.0096  2.2029 -0.8263
39907SOL     OW22613   8.395   4.600   3.284  0.9721  0.6955  0.2392
39907SOL    HW122614   8.306   4.616   3.315  1.7585  1.9254  2.0338
39907SOL    HW222615   8.390   4.515   3.239 -0.9106  0.2872  1.1146
39908SOL     OW22616   6.208   9.792   0.269  0.3813 -0.4341 -0.0095
39908SOL    HW122617   6.122   9.758   0.247 -0.1565  0.3846  0.7644
39908SOL    HW222618   6.193   9.884   0.289  1.2923 -0.4778  0.9522
39909SOL     OW22619  10.519   4.820   0.926  0.8455  0.7684  0.0508
39909SOL    HW122620  10.556   4.899   0.887  0.0537  0.4655 -1.3796
39909SOL    HW222621  10.594   4.763   0.940  1.1275  0.7795 -1.3245
39910SOL     OW22622  10.355  10.582   4.650  0.0177  0.6702 -0.5170
39910SOL    HW122623  10.323  10.654   4.705  0.9357  0.7294 -0.0427
39910SOL    HW222624  10.432  10.549   4.696 -0.1421 -0.3460 -0.9532
39911SOL     OW22625   8.711   0.785   2.856 -0.4537  0.1077 -0.1554
39911SOL    HW122626   8.734   0.843   2.783  0.8948 -0.2109  0.0015
39911SOL    HW222627   8.661   0.714   2.815 -1.0844  0.7494 -0.5235
39912SOL     OW22628  10.741   4.686   4.106  0.2831  0.1152 -0.4400
39912SOL    HW122629  10.793   4.765   4.096  0.6261 -0.1465 -0.7636
39912SOL    HW222630  10.803   4.614   4.094  0.2637 -0.2188  1.2333
39913SOL     OW22631   4.211  10.415   0.551  0.6111  0.0895 -0.0203
39913SOL    HW122632   4.257  10.351   0.496  0.4339  0.2163 -0.3217
39913SOL    HW222633   4.197  10.490   0.493  1.0008  0.4868  0.3940
39914SOL     OW22634   9.126   9.865   7.283  0.5995 -0.1741  0.0823
39914SOL    HW122635   9.155   9.924   7.353  1.1866 -0.0803 -0.2335
39914SOL    HW222636   9.136   9.916   7.203  0.1044 -0.3460 -0.0932
39915SOL     OW22637   7.936   3.410   2.549  0.0588  0.2330 -0.3344
39915SOL    HW122638   7.889   3.488   2.520 -0.5359  0.2017  0.5284
39915SOL    HW222639   7.933   3.351   2.474 -2.7926 -0.4708  0.2536
39916SOL     OW22640   5.823   4.018   7.696 -0.6617 -0.3128  0.0334
39916SOL    HW122641   5.904   3.968   7.712 -0.1355  0.2906 -0.6976
39916SOL    HW222642   5.755   3.967   7.741 -0.2487 -2.0421 -1.1827
39917SOL     OW22643   9.156   9.483   3.244 -0.2170 -0.1282 -0.1906
39917SOL    HW122644   9.124   9.513   3.158  0.2474  0.5020 -0.1498
39917SOL    HW222645   9.126   9.550   3.305 -1.3693 -1.0535  0.2972
39918SOL     OW22646   2.901   1.087   0.354 -0.1577 -0.5700  0.3949
39918SOL    HW122647   2.848   1.080   0.434 -0.0311 -0.8210  0.4562
39918SOL    HW222648   2.858   1.156   0.303  0.6714  0.7365  1.3842
39919SOL     OW22649   8.345   2.892   9.756 -0.0242  0.2066  0.2430
39919SOL    HW122650   8.372   2.801   9.741 -0.0606  0.3347 -0.6448
39919SOL    HW222651   8.321   2.895   9.849 -0.3972 -0.7914  0.1914
39920SOL     OW22652   6.164  10.141  10.687 -0.1738 -0.0780 -0.2469
39920SOL    HW122653   6.216  10.214  10.720 -0.2268 -0.3341  0.4169
39920SOL    HW222654   6.214  10.063  10.713 -0.4948 -0.2981 -0.2905
39921SOL     OW22655   9.582   0.606   0.440  1.2461 -0.0359 -0.7226
39921SOL    HW122656   9.573   0.662   0.364  1.2905  2.0827  0.7371
39921SOL    HW222657   9.524   0.532   0.423  2.0001 -0.1291 -3.1943
39922SOL     OW22658   3.771   5.054   4.527  0.0553 -0.0646  0.2566
39922SOL    HW122659   3.692   5.052   4.580 -0.0009 -0.7717  0.1592
39922SOL    HW222660   3.759   5.128   4.468  0.2339  0.9037  1.3954
39923SOL     OW22661  10.551   8.633   9.230 -0.1684  0.6029 -0.1094
39923SOL    HW122662  10.514   8.558   9.276 -0.6173  0.1776 -1.1504
39923SOL    HW222663  10.565   8.603   9.140 -0.4902  1.8014 -0.5892
39924SOL     OW22664   8.061   0.721   3.651 -0.2966  0.1059 -0.0627
39924SOL    HW122665   8.146   0.761   3.667  0.1352 -0.5016 -0.7466
39924SOL    HW222666   8.072   0.629   3.675 -1.2943  0.3686  1.5524
39925SOL     OW22667   9.129  10.113   1.445  0.5702 -0.1588 -0.4409
39925SOL    HW122668   9.196  10.047   1.426  0.0290 -0.6881 -0.5739
39925SOL    HW222669   9.170  10.196   1.424  1.0866 -0.5008 -0.8154
39926SOL     OW22670   6.421   7.094  10.300 -0.5750 -0.6267  0.1249
39926SOL    HW122671   6.345   7.056  10.256 -1.7765 -0.4572  1.9221
39926SOL    HW222672   6.386   7.172  10.344  1.1353  0.7252 -0.8080
39927SOL     OW22673   7.448   6.146   0.693  0.2665  0.3979 -0.2072
39927SOL    HW122674   7.370   6.177   0.646  1.2161  1.1161 -1.3772
39927SOL    HW222675   7.460   6.056   0.664  0.4921  0.6435 -0.9078
39928SOL     OW22676   7.306   8.061   8.150  0.3057 -0.2038  0.4088
39928SOL    HW122677   7.231   8.120   8.158  1.5644  1.4331  0.9703
39928SOL    HW222678   7.293   8.015   8.068 -0.3982  1.4324 -0.4494
39929SOL     OW22679   0.902   5.559   2.564  0.8044  0.2454 -0.1698
39929SOL    HW122680   0.984   5.521   2.532  1.7445  1.1787  0.9923
39929SOL    HW222681   0.899   5.533   2.656 -1.0201 -1.0683 -0.5566
39930SOL     OW22682  10.477   6.691   4.583  0.4588  0.8606  0.5060
39930SOL    HW122683  10.537   6.765   4.581  1.8191 -0.2313 -0.8364
39930SOL    HW222684  10.514   6.632   4.649  2.1778 -0.7862 -1.7771
39931SOL     OW22685   6.919   6.368  10.206  0.0062 -0.0998  0.3653
39931SOL    HW122686   6.977   6.347  10.279 -0.2171 -1.9615  0.0409
39931SOL    HW222687   6.847   6.418  10.245  0.3012 -0.3697  1.2716
39932SOL     OW22688   9.590   6.376   1.025  0.0003  0.3598 -0.4479
39932SOL    HW122689   9.680   6.382   1.056 -0.2726 -0.3929  0.5468
39932SOL    HW222690   9.546   6.321   1.090 -1.1336  0.5712 -1.0137
39933SOL     OW22691   7.185   4.290   0.522  0.3554  0.4694 -0.3150
39933SOL    HW122692   7.124   4.219   0.502 -0.9062  1.1489  0.9597
39933SOL    HW222693   7.139   4.370   0.497  1.1658  0.9413 -0.3517
39934SOL     OW22694   1.087   6.870   1.475  0.3513 -0.3883 -0.1400
39934SOL    HW122695   0.998   6.902   1.490  0.4262 -0.3151  0.1726
39934SOL    HW222696   1.118   6.917   1.398  0.4303  0.2431  0.2674
39935SOL     OW22697   3.443   0.775  10.614 -0.4569 -0.1404  0.6080
39935SOL    HW122698   3.480   0.695  10.653 -0.1099  1.1981  3.2203
39935SOL    HW222699   3.365   0.793  10.666 -1.4789  0.3629 -1.0335
39936SOL     OW22700  10.237   6.436  10.661  0.1692  0.1158 -0.4840
39936SOL    HW122701  10.178   6.511  10.664 -0.4277 -0.1192 -3.2079
39936SOL    HW222702  10.215   6.392  10.578  3.6544 -0.3878 -1.2962
39937SOL     OW22703   3.013  10.111   2.791  0.1845 -0.3787  0.1014
39937SOL    HW122704   3.086  10.170   2.806 -0.2821  0.3922 -0.5760
39937SOL    HW222705   3.011  10.054   2.868  1.2485 -0.1639  0.3021
39938SOL     OW22706   7.816  10.009   7.499 -0.0266  0.2438  0.0770
39938SOL    HW122707   7.878  10.067   7.544 -1.1170  1.8941 -0.4308
39938SOL    HW222708   7.796  10.055   7.417  1.2438 -2.2450 -1.7730
39939SOL     OW22709   9.634   8.941   6.689  0.1831 -0.3113  0.3487
39939SOL    HW122710   9.602   9.031   6.690 -1.6924 -0.9385  0.0218
39939SOL    HW222711   9.563   8.890   6.650  0.6726 -2.1429  1.6965
39940SOL     OW22712   5.089   6.033  10.188 -0.3266  0.2155  0.3423
39940SOL    HW122713   5.099   5.982  10.268 -1.0340  0.6163  0.6985
39940SOL    HW222714   5.041   5.976  10.129 -2.3261  0.9074  1.2142
39941SOL     OW22715   6.761   0.175  10.375 -0.6031 -0.0489  0.2409
39941SOL    HW122716   6.698   0.133  10.317 -0.9032  1.3703 -0.5346
39941SOL    HW222717   6.709   0.235  10.428 -0.0552  0.2959  0.4010
39942SOL     OW22718   1.542   4.146   2.918  0.1812  0.4062  0.1994
39942SOL    HW122719   1.607   4.162   2.986 -1.7341 -1.3820  2.6683
39942SOL    HW222720   1.586   4.088   2.856  1.2970  0.1835  1.1697
39943SOL     OW22721   3.145   0.929   2.197  0.1775  0.0190 -0.2229
39943SOL    HW122722   3.193   1.001   2.237 -1.1792  0.3902  0.8015
39943SOL    HW222723   3.053   0.950   2.212 -0.3307 -0.6701 -2.1270
39944SOL     OW22724  10.759   1.407   2.687 -0.1209 -0.0707  0.4710
39944SOL    HW122725  10.756   1.415   2.592 -0.9794  1.1387  0.5669
39944SOL    HW222726  10.773   1.497   2.718  1.0569 -0.5714  1.4703
39945SOL     OW22727   4.532   2.154   2.094 -0.2813 -0.1469 -0.3899
39945SOL    HW122728   4.543   2.097   2.018  1.5834  0.3243 -0.5070
39945SOL    HW222729   4.539   2.095   2.169 -0.5684 -0.3813 -0.5446
39946SOL     OW22730   4.968   1.517   3.171 -0.2607  0.0389 -0.6284
39946SOL    HW122731   5.018   1.435   3.175  0.8706  0.7139 -0.3604
39946SOL    HW222732   4.882   1.491   3.140  0.2119 -1.2029 -0.9743
39947SOL     OW22733   1.349   7.071   9.161 -0.2762 -0.0732  0.0867
39947SOL    HW122734   1.377   7.014   9.233 -1.0713 -1.5605 -0.7320
39947SOL    HW222735   1.272   7.028   9.125  0.0433  0.6955 -1.5983
39948SOL     OW22736   2.523   5.847   4.305 -0.0684 -0.6666  0.1645
39948SOL    HW122737   2.468   5.768   4.298 -1.2717  0.1369  0.1739
39948SOL    HW222738   2.460   5.919   4.302  0.6801  0.2538  3.2666
39949SOL     OW22739  10.120   5.377   2.723 -0.0317 -0.4299  0.3438
39949SOL    HW122740  10.174   5.447   2.685 -0.8572  0.0506  0.0363
39949SOL    HW222741  10.181   5.304   2.734  1.1426  0.6954  1.7943
39950SOL     OW22742  10.761   1.746   1.818  0.0331 -0.4225 -0.5635
39950SOL    HW122743  10.784   1.745   1.725  0.0448  0.9256 -0.5890
39950SOL    HW222744  10.672   1.783   1.820 -0.1305 -0.8278 -0.0668
39951SOL     OW22745   3.052  10.643   4.120  0.4562  0.1198 -0.0580
39951SOL    HW122746   3.138  10.602   4.119  0.0361 -0.8020 -1.2319
39951SOL    HW222747   3.069  10.735   4.139  1.5365 -0.3440  1.4009
39952SOL     OW22748   3.167   4.736   8.707 -0.0627  0.7668 -0.4512
39952SOL    HW122749   3.216   4.666   8.748 -0.8385  0.2131 -0.4443
39952SOL    HW222750   3.188   4.730   8.614  0.2129  0.8083 -0.3923
39953SOL     OW22751  10.488  10.314   3.650  0.7064  0.2406 -0.3844
39953SOL    HW122752  10.418  10.290   3.588  0.1886 -1.0137  0.6355
39953SOL    HW222753  10.569  10.295   3.603  0.3529 -3.2730  0.1408
39954SOL     OW22754   1.252   5.221   3.500 -0.2288  0.1488 -0.2394
39954SOL    HW122755   1.344   5.201   3.517 -0.0601  0.1317 -1.1489
39954SOL    HW222756   1.246   5.316   3.512  0.4194  0.5092 -2.3533
39955SOL     OW22757   0.189  10.006   4.276  0.5136  0.2388 -0.6394
39955SOL    HW122758   0.128   9.956   4.220  0.5000  0.9866 -1.3140
39955SOL    HW222759   0.231  10.068   4.216  0.0746  1.4639  0.2743
39956SOL     OW22760   1.907   2.288   6.337 -0.4326  0.3029  0.1192
39956SOL    HW122761   1.832   2.332   6.376 -0.8603 -0.4013  0.1120
39956SOL    HW222762   1.963   2.267   6.412  0.1013  1.4475  0.0535
39957SOL     OW22763   1.878   9.276   5.943  0.1739  0.1573  0.0957
39957SOL    HW122764   1.892   9.313   5.856  2.0984 -0.6045  0.0279
39957SOL    HW222765   1.852   9.186   5.928 -1.1638  0.4932  0.3068
39958SOL     OW22766   6.367   5.376   7.850  0.1481 -0.3190 -0.5100
39958SOL    HW122767   6.378   5.367   7.755 -1.3336 -0.3482 -0.7041
39958SOL    HW222768   6.407   5.297   7.886 -0.7749 -1.1535 -1.2510
39959SOL     OW22769   7.513   7.177   3.469 -0.2181 -0.1011 -0.0622
39959SOL    HW122770   7.417   7.172   3.468 -0.1614 -1.7450 -0.4856
39959SOL    HW222771   7.534   7.236   3.397 -0.8972 -0.7999 -0.8722
39960SOL     OW22772   6.209   7.029   9.949 -0.6281 -0.0738  0.0811
39960SOL    HW122773   6.197   6.966  10.020 -1.0903  0.7025  0.7034
39960SOL    HW222774   6.120   7.045   9.916 -0.4745 -0.0108 -0.3136
39961SOL     OW22775   2.123   9.470   6.745  0.6149 -0.3472 -0.1343
39961SOL    HW122776   2.109   9.565   6.739  0.4375 -0.4147 -0.8671
39961SOL    HW222777   2.057   9.432   6.687  0.7081 -0.9188  0.1288
39962SOL     OW22778   6.676   0.835   5.829  0.0735  0.5183  0.2135
39962SOL    HW122779   6.703   0.839   5.738 -0.1818  0.3090  0.1288
39962SOL    HW222780   6.757   0.823   5.878  0.0719 -0.7927 -0.0832
39963SOL     OW22781   1.493   2.480   9.413 -0.1971 -0.2184 -0.9142
39963SOL    HW122782   1.400   2.477   9.387 -0.4893 -0.8840  0.1796
39963SOL    HW222783   1.492   2.484   9.508  0.9122 -0.3145 -0.8841
39964SOL     OW22784   9.004   8.467   3.444  0.1209 -0.0331  0.1821
39964SOL    HW122785   9.078   8.447   3.386 -0.2203 -0.4998 -0.0914
39964SOL    HW222786   8.938   8.505   3.387  0.4499  1.1897  0.5596
39965SOL     OW22787   4.095   4.674   2.060  0.1300  0.3395  0.3312
39965SOL    HW122788   4.004   4.692   2.080 -0.7266 -2.2399 -0.8430
39965SOL    HW222789   4.121   4.743   1.999 -0.5634  1.8591  1.6856
39966SOL     OW22790   0.325   5.047   2.929  0.2891 -0.2527  0.1426
39966SOL    HW122791   0.399   4.989   2.948  1.3449  0.3264 -1.9165
39966SOL    HW222792   0.273   4.999   2.864 -1.6532 -0.9739  2.0824
39967SOL     OW22793   2.457   8.206   1.541 -0.4599 -0.2257 -0.4338
39967SOL    HW122794   2.523   8.154   1.494 -0.8345  0.0761 -1.3073
39967SOL    HW222795   2.407   8.141   1.591 -1.6731 -0.8961 -2.4150
39968SOL     OW22796   6.779   0.352   2.411  0.3702 -0.0249 -0.1784
39968SOL    HW122797   6.756   0.259   2.413  2.0315 -0.4616 -0.3495
39968SOL    HW222798   6.721   0.389   2.344 -0.8305 -0.7713  0.4118
39969SOL     OW22799   6.594   4.570   8.699  0.7589 -0.2727 -0.0095
39969SOL    HW122800   6.651   4.524   8.761  1.1917 -0.1307 -0.2957
39969SOL    HW222801   6.541   4.501   8.659  1.0068 -0.4532 -0.0262
39970SOL     OW22802   8.277   0.380   9.223  0.1437  0.4789  0.4402
39970SOL    HW122803   8.261   0.292   9.188 -1.0392  0.8335  0.0141
39970SOL    HW222804   8.371   0.392   9.217  0.1932 -0.3017 -0.6533
39971SOL     OW22805   9.164   0.588   9.095 -0.1199  0.2679 -0.0250
39971SOL    HW122806   9.168   0.683   9.084 -1.3153  0.3726  0.3074
39971SOL    HW222807   9.115   0.575   9.176 -0.7362 -0.6467 -0.5261
39972SOL     OW22808   3.242   2.332   0.960 -0.2086  0.2625 -0.1992
39972SOL    HW122809   3.214   2.260   0.905 -0.8674  0.8705 -0.6747
39972SOL    HW222810   3.175   2.338   1.028  0.2823 -0.0948  0.3298
39973SOL     OW22811   7.047   6.196   4.369  0.6113 -0.1348 -0.4657
39973SOL    HW122812   7.014   6.143   4.296  0.3130  0.1693 -0.5557
39973SOL    HW222813   7.139   6.210   4.350  0.5473 -0.1111 -0.7555
39974SOL     OW22814   4.961   0.099   2.798  0.3750  0.2222  0.1092
39974SOL    HW122815   4.933   0.132   2.884 -0.5469 -0.0121 -0.0931
39974SOL    HW222816   5.053   0.126   2.791  0.6099 -0.1747  1.3743
39975SOL     OW22817   6.302   8.692   7.398  0.3720 -0.4648  0.1740
39975SOL    HW122818   6.348   8.609   7.390 -0.0092 -0.6203 -0.4792
39975SOL    HW222819   6.209   8.668   7.396  0.2352 -0.2176  2.0167
39976SOL     OW22820   7.447   3.439   0.250  0.1591  0.1132  0.1491
39976SOL    HW122821   7.369   3.446   0.193 -0.0433  0.4139  0.4565
39976SOL    HW222822   7.520   3.433   0.189 -0.1528 -0.7996 -0.1491
39977SOL     OW22823   9.431   7.157   1.506  0.1335  0.1289  0.1885
39977SOL    HW122824   9.336   7.171   1.510  0.1407 -0.1099  1.4305
39977SOL    HW222825   9.464   7.192   1.588  1.1001  0.0054 -0.1382
39978SOL     OW22826  10.648   4.620   9.767  0.3220 -0.0237 -0.8441
39978SOL    HW122827  10.553   4.612   9.758  0.3041 -0.3093 -0.4756
39978SOL    HW222828  10.661   4.703   9.812  0.3872  1.1430 -2.9208
39979SOL     OW22829   0.544   2.331   5.577  0.0880 -0.5451 -0.5050
39979SOL    HW122830   0.603   2.333   5.502  0.9046 -0.5478  0.1156
39979SOL    HW222831   0.487   2.256   5.562  1.0717 -1.3110 -0.5208
39980SOL     OW22832   5.545   8.891   5.945  0.2441  0.4643  0.2542
39980SOL    HW122833   5.471   8.891   6.006 -0.5450  1.6290 -0.6585
39980SOL    HW222834   5.584   8.978   5.955  0.5806  0.3863 -0.3531
39981SOL     OW22835   1.376   2.801   1.925  0.3751 -0.5199 -0.0675
39981SOL    HW122836   1.341   2.789   2.013 -0.0675 -0.6849 -0.2643
39981SOL    HW222837   1.321   2.746   1.869  0.5569 -0.3005 -0.4687
39982SOL     OW22838   4.303   1.125   4.688 -0.2283  0.3521 -0.1425
39982SOL    HW122839   4.282   1.132   4.595  0.5308 -0.6178 -0.3964
39982SOL    HW222840   4.381   1.180   4.699 -1.2239  1.7440  0.2573
39983SOL     OW22841   0.030   8.385   4.909 -0.0785 -0.2257  0.4873
39983SOL    HW122842   0.066   8.297   4.898  1.5020  0.4412 -0.1597
39983SOL    HW222843  -0.046   8.388   4.851  0.8974 -0.6514 -0.8695
39984SOL     OW22844  10.076   5.552   1.528  0.6381 -0.4371  0.2683
39984SOL    HW122845  10.159   5.527   1.489  0.3741 -0.5912 -0.2027
39984SOL    HW222846  10.011   5.495   1.485  0.1118  0.5874 -0.3353
39985SOL     OW22847   8.811   2.547   7.028 -0.6854  0.1059 -0.3956
39985SOL    HW122848   8.750   2.619   7.042 -2.4771 -1.4698  0.3410
39985SOL    HW222849   8.779   2.504   6.949  0.8523  0.5359 -1.2972
39986SOL     OW22850   6.332   0.187   9.710  0.2006 -0.1497 -0.0747
39986SOL    HW122851   6.285   0.133   9.646 -0.8842  0.6540  0.0062
39986SOL    HW222852   6.415   0.142   9.724  0.5434 -0.2702 -2.1680
39987SOL     OW22853   0.181   1.829   9.859 -0.2421  0.3125 -0.3595
39987SOL    HW122854   0.104   1.831   9.915 -0.3923  0.3459 -0.5662
39987SOL    HW222855   0.148   1.847   9.771  0.1795  1.8807 -0.2412
39988SOL     OW22856   3.448  10.292  10.617 -0.0866  0.0301  0.6624
39988SOL    HW122857   3.433  10.254  10.530  0.1970  2.8000 -0.7149
39988SOL    HW222858   3.380  10.253  10.672 -1.4386 -0.4767 -1.2656
39989SOL     OW22859   2.513   8.491   9.438  0.9036  0.1535  0.5453
39989SOL    HW122860   2.489   8.467   9.348  2.6369 -1.3359  0.4248
39989SOL    HW222861   2.438   8.462   9.491 -0.2188  1.2058 -0.3963
39990SOL     OW22862   4.193   8.027   4.889  0.8894  0.5798 -0.2942
39990SOL    HW122863   4.174   8.004   4.798 -0.4308  0.2773  0.0337
39990SOL    HW222864   4.233   8.114   4.885 -0.5913  1.2669 -1.0886
39991SOL     OW22865   6.050   6.304   6.199  0.4235 -0.7084 -0.0171
39991SOL    HW122866   6.136   6.336   6.169 -1.0250  2.5257 -1.2081
39991SOL    HW222867   6.040   6.339   6.287 -1.4580  3.2359 -1.5753
39992SOL     OW22868   7.272   3.767   0.693 -0.5717 -0.4895 -0.2100
39992SOL    HW122869   7.346   3.758   0.753 -0.2899  0.8543 -0.3266
39992SOL    HW222870   7.307   3.814   0.617 -0.8116 -2.5485 -1.6776
39993SOL     OW22871   9.166   3.900   2.439  0.2100 -0.6894 -0.0952
39993SOL    HW122872   9.206   3.818   2.410 -0.7652 -1.8694  1.6976
39993SOL    HW222873   9.092   3.913   2.381 -0.1368 -1.5518  0.1472
39994SOL     OW22874  10.667   7.360   0.300  0.3349  0.2043 -0.2514
39994SOL    HW122875  10.738   7.425   0.303  1.3983 -0.9261  2.4457
39994SOL    HW222876  10.701   7.291   0.244  1.9139 -0.7716  1.7670
39995SOL     OW22877   8.635   9.346   9.582  0.0636  0.8624 -0.3860
39995SOL    HW122878   8.639   9.379   9.493 -0.8418 -0.1218 -0.8158
39995SOL    HW222879   8.725   9.349   9.614  0.6019  0.1307 -1.7479
39996SOL     OW22880   6.350   1.251   3.310  0.6079  0.2363 -0.1858
39996SOL    HW122881   6.435   1.261   3.354 -0.0133  2.5905  0.6320
39996SOL    HW222882   6.364   1.288   3.223  0.4451  0.5409 -0.0827
39997SOL     OW22883   3.973   1.126   7.723  0.1806 -0.1253 -0.1731
39997SOL    HW122884   3.880   1.112   7.704 -0.3133  0.7097  1.4743
39997SOL    HW222885   4.017   1.052   7.681 -1.2747 -0.8776 -0.4521
39998SOL     OW22886   8.791   6.704   9.975 -0.2755  0.3198 -0.4608
39998SOL    HW122887   8.761   6.794   9.966 -0.3041  0.3765  0.1566
39998SOL    HW222888   8.847   6.704  10.053  0.1433 -0.0889 -0.7553
39999SOL     OW22889   8.060   9.334   6.154  0.5006  0.1853  0.0319
39999SOL    HW122890   8.139   9.309   6.202  0.1971 -1.5630 -0.3019
39999SOL    HW222891   8.055   9.429   6.164  1.6549  0.1298  1.5596
40000SOL     OW22892   3.848   2.475   3.766 -0.2076 -0.3634 -0.7188
40000SOL    HW122893   3.867   2.382   3.768 -0.8235 -0.5051 -1.2887
40000SOL    HW222894   3.777   2.486   3.829  1.1639  0.0498  0.8473
40001SOL     OW22895   5.998   3.539   9.863 -0.4028  0.2183 -0.0426
40001SOL    HW122896   6.059   3.611   9.846  0.9315 -1.3318 -2.4048
40001SOL    HW222897   5.913   3.571   9.831  0.0449  0.9410 -0.5345
40002SOL     OW22898   1.978   8.565   2.474  0.4715 -0.7697  0.3578
40002SOL    HW122899   1.967   8.659   2.491  1.8525 -0.8557  2.0921
40002SOL    HW222900   1.893   8.527   2.495 -0.9056  0.2788 -2.7205
40003SOL     OW22901   0.095   5.395   7.799 -0.0761 -0.2217 -0.1236
40003SOL    HW122902   0.170   5.367   7.852  0.1115 -0.8599 -0.7064
40003SOL    HW222903   0.054   5.465   7.850  0.7372 -0.0754  0.3478
40004SOL     OW22904   0.297   9.326  10.710 -0.0379 -0.7516 -0.1254
40004SOL    HW122905   0.340   9.380  10.777 -1.2855 -1.0798  0.9768
40004SOL    HW222906   0.309   9.375  10.629 -0.0169  0.5505  0.6368
40005SOL     OW22907   8.121   2.776   0.075 -0.1375  0.2150  0.6970
40005SOL    HW122908   8.209   2.806   0.050 -0.9349  1.4199 -0.9042
40005SOL    HW222909   8.130   2.682   0.086  1.1918  0.1884 -0.3239
40006SOL     OW22910   7.701   7.781  10.085  0.4609  0.1393 -0.0272
40006SOL    HW122911   7.747   7.789  10.168  1.0209  0.0203 -0.3220
40006SOL    HW222912   7.752   7.717  10.035  0.4300  0.5971 -0.6573
40007SOL     OW22913   0.726   5.021   5.352  0.0659  0.0461 -0.1196
40007SOL    HW122914   0.643   4.998   5.310 -0.5727  0.4867  0.8590
40007SOL    HW222915   0.738   5.114   5.333 -0.8840  0.5803  1.6911
40008SOL     OW22916   6.505   7.396   4.343 -0.2290 -0.3346  0.6365
40008SOL    HW122917   6.473   7.451   4.415  2.0727  0.6876  0.9701
40008SOL    HW222918   6.498   7.306   4.377 -1.9366 -0.1080  0.9598
40009SOL     OW22919   2.111   6.178   5.491  0.5403  0.5641 -0.3666
40009SOL    HW122920   2.094   6.218   5.405  0.9260  1.8525  0.1336
40009SOL    HW222921   2.067   6.094   5.487  0.2320  0.7603 -1.7013
40010SOL     OW22922   8.810   8.275   1.480 -0.2643  0.0401  0.0237
40010SOL    HW122923   8.904   8.287   1.494  0.7159  1.0259 -5.1301
40010SOL    HW222924   8.771   8.360   1.504  0.8209  0.9263 -1.1935
40011SOL     OW22925   2.753   5.063   4.744 -0.3212 -0.0743  0.0625
40011SOL    HW122926   2.743   5.078   4.838 -2.9641 -0.1111 -0.1559
40011SOL    HW222927   2.780   5.149   4.710 -1.7384  0.5978  0.5716
40012SOL     OW22928   7.527   5.031   3.156  0.4213 -0.5236 -0.0250
40012SOL    HW122929   7.514   4.936   3.156 -1.3318 -0.3260 -0.3807
40012SOL    HW222930   7.530   5.054   3.063  0.9085 -0.2388  0.0606
40013SOL     OW22931   8.589   1.324   7.923 -0.3213  0.5999 -0.5301
40013SOL    HW122932   8.665   1.309   7.866 -0.5800  0.0564 -0.7424
40013SOL    HW222933   8.521   1.266   7.887 -0.5624  0.4347  0.1823
40014SOL     OW22934   9.545   3.564   8.648 -0.2881  0.3166  0.8609
40014SOL    HW122935   9.480   3.598   8.586 -0.4175  0.0219  0.8342
40014SOL    HW222936   9.566   3.639   8.704  0.7179  0.9245 -0.2724
40015SOL     OW22937   1.553  10.495   0.186 -0.0512 -0.0587 -0.2531
40015SOL    HW122938   1.538  10.588   0.171 -1.6654 -0.5686 -2.4444
40015SOL    HW222939   1.504  10.475   0.266 -1.2216  0.6407 -0.7745
40016SOL     OW22940   7.180   1.769   3.861  0.1508 -0.4265 -1.0720
40016SOL    HW122941   7.255   1.712   3.843 -1.2547 -1.9002 -2.7076
40016SOL    HW222942   7.134   1.775   3.777 -0.9794  1.3484 -0.3875
40017SOL     OW22943   6.204   3.764   7.382  0.2831  0.4876  0.1888
40017SOL    HW122944   6.142   3.704   7.424 -0.7498  2.1838  1.2232
40017SOL    HW222945   6.227   3.721   7.300 -2.0492 -0.3861 -0.1040
40018SOL     OW22946   7.928   8.394   6.865  0.5186  0.0153  0.1249
40018SOL    HW122947   7.967   8.482   6.861 -2.0643  1.3272  1.0185
40018SOL    HW222948   7.976   8.343   6.800  1.2627  2.4780 -1.3877
40019SOL     OW22949   7.237   6.052   6.294  0.1956 -0.5387 -0.2089
40019SOL    HW122950   7.209   6.008   6.213 -0.3341  0.2840 -0.4855
40019SOL    HW222951   7.192   6.136   6.292  1.3555  0.1242  0.1975
40020SOL     OW22952  10.328   2.197   3.456  0.0379  0.4691 -0.3761
40020SOL    HW122953  10.351   2.174   3.546 -2.5981 -0.3487  0.1950
40020SOL    HW222954  10.304   2.289   3.461 -0.0553  0.4386 -0.2454
40021SOL     OW22955   0.928   7.688   2.678 -0.0246 -0.4818 -0.2674
40021SOL    HW122956   0.970   7.605   2.700 -0.0621 -1.1727 -2.5488
40021SOL    HW222957   0.996   7.739   2.634 -0.5374 -0.1185 -0.6585
40022SOL     OW22958   5.208   9.432   2.078  0.0886  0.0881 -0.2724
40022SOL    HW122959   5.266   9.425   2.153 -0.3585 -1.6379 -0.0427
40022SOL    HW222960   5.120   9.433   2.116 -0.1522 -1.0960 -0.7589
40023SOL     OW22961   7.348   8.084   8.912  0.0310  0.4701 -0.6420
40023SOL    HW122962   7.409   8.117   8.846 -0.4362  0.7760 -0.9278
40023SOL    HW222963   7.262   8.114   8.882 -0.4803 -1.3196 -1.1186
40024SOL     OW22964   3.444   3.010   7.415  0.1509 -0.6682  0.0394
40024SOL    HW122965   3.533   2.977   7.425  0.0149 -0.2079  4.8129
40024SOL    HW222966   3.455   3.104   7.397  0.7114 -0.4343  1.4827
40025SOL     OW22967   1.402   3.531   9.511  0.1338  0.7066  0.3789
40025SOL    HW122968   1.482   3.500   9.469  2.4036  4.2587  1.6313
40025SOL    HW222969   1.349   3.452   9.523  1.7000 -1.3238 -3.8836
40026SOL     OW22970   1.740   6.003  10.761  0.1007 -0.3176  0.2308
40026SOL    HW122971   1.812   5.969  10.708 -1.1078 -0.2697 -1.5142
40026SOL    HW222972   1.781   6.066  10.820  1.4835 -0.2722 -0.7457
40027SOL     OW22973   6.905   9.058   2.723  0.0568  0.0483 -0.1927
40027SOL    HW122974   6.840   9.056   2.794 -0.4451 -1.2516 -0.6611
40027SOL    HW222975   6.854   9.083   2.646  0.3183  0.0337 -0.3689
40028SOL     OW22976   0.187   5.981   0.465 -0.1292  0.0365 -0.1804
40028SOL    HW122977   0.129   6.001   0.392  1.3676  1.0444 -1.1551
40028SOL    HW222978   0.134   5.998   0.543 -2.0725 -2.0372 -0.9632
40029SOL     OW22979   4.776   1.406   8.444  0.1724  0.1773 -0.0123
40029SOL    HW122980   4.759   1.319   8.409  1.2387 -0.1283  0.2086
40029SOL    HW222981   4.809   1.391   8.533  1.5240  0.7178 -0.3933
40030SOL     OW22982   4.568   4.237   9.673 -0.0496 -0.2580 -0.1074
40030SOL    HW122983   4.550   4.151   9.712  2.8016 -0.0038  2.1036
40030SOL    HW222984   4.482   4.273   9.655 -1.3930 -2.8205  0.6114
40031SOL     OW22985   9.921   6.379   0.200 -0.6595 -0.1766 -0.1831
40031SOL    HW122986  10.011   6.354   0.181 -1.5120 -2.3650 -1.7308
40031SOL    HW222987   9.891   6.425   0.122 -1.1258 -0.1159  0.0220
40032SOL     OW22988   6.101   1.388   2.750 -0.0142 -0.1767 -0.0781
40032SOL    HW122989   6.133   1.299   2.764  0.9800  0.2337  0.4075
40032SOL    HW222990   6.102   1.427   2.838  1.4472  0.8977 -0.5327
40033SOL     OW22991   3.653  10.713   1.877 -0.4146 -0.6536  0.3084
40033SOL    HW122992   3.703  10.721   1.958 -0.0047 -2.4727  0.2807
40033SOL    HW222993   3.603  10.632   1.888 -1.2921 -0.2812 -0.7704
40034SOL     OW22994   1.170   1.816   2.971  0.1158  0.5149 -0.6328
40034SOL    HW122995   1.167   1.778   3.059  1.0658  0.4964 -0.5958
40034SOL    HW222996   1.201   1.744   2.915  2.1912  1.2515 -0.5200
40035SOL     OW22997   9.820   2.127   5.514  0.0794  0.3640  0.1448
40035SOL    HW122998   9.750   2.151   5.575 -0.5975 -0.7291 -0.1549
40035SOL    HW222999   9.849   2.041   5.544  2.1976  1.3290  1.0107
40036SOL     OW23000   0.563   5.747   0.020 -0.2163 -0.9081 -1.1724
40036SOL    HW123001   0.533   5.668  -0.024 -0.1188 -0.6979 -1.6221
40036SOL    HW223002   0.498   5.814  -0.003 -0.9531 -1.1297  0.1710
40037SOL     OW23003   1.871   6.758   1.829 -0.8233 -0.1659  0.0561
40037SOL    HW123004   1.919   6.840   1.841 -0.6066 -0.3118  0.1995
40037SOL    HW223005   1.789   6.784   1.787 -0.9444  0.1769  0.5020
40038SOL     OW23006   5.624   1.578   1.734  0.2408 -0.1186 -0.8005
40038SOL    HW123007   5.614   1.500   1.680  1.8938  1.4179 -3.5733
40038SOL    HW223008   5.538   1.621   1.732  0.0166 -0.5898 -1.3796
40039SOL     OW23009   8.469   5.767   9.953  0.0433  0.0063  0.1325
40039SOL    HW123010   8.469   5.862   9.937  1.4120  0.0282  0.1560
40039SOL    HW223011   8.519   5.756  10.034 -1.4527 -0.6326  1.0216
40040SOL     OW23012   4.552   9.778   8.553  0.1275 -0.3215  0.3070
40040SOL    HW123013   4.617   9.712   8.576  0.5654  0.0172  0.0474
40040SOL    HW223014   4.585   9.859   8.590  0.2121 -0.0111 -0.4339
40041SOL     OW23015   7.870   0.229   5.551 -0.1960 -0.5502  0.5517
40041SOL    HW123016   7.885   0.225   5.456  1.9997  0.8483  0.7580
40041SOL    HW223017   7.954   0.207   5.590 -0.5316  0.7309  2.1290
40042SOL     OW23018   5.220   4.050  10.083 -0.3672  0.1255  0.4883
40042SOL    HW123019   5.210   4.002  10.165  0.9456  1.1060  1.2717
40042SOL    HW223020   5.149   4.114  10.083  0.0236  0.5727  1.2122
40043SOL     OW23021   8.261   6.059   0.148  0.3678  0.2093  0.3542
40043SOL    HW123022   8.342   6.070   0.098 -0.5495  0.8902 -1.0411
40043SOL    HW223023   8.244   6.145   0.186 -0.4055  0.4507 -0.5029
40044SOL     OW23024   1.590   5.038   0.675  0.4479  0.3107  0.7368
40044SOL    HW123025   1.629   5.095   0.742  0.4028  1.1803  0.0492
40044SOL    HW223026   1.663   5.018   0.616  0.3087  0.2290  0.5939
40045SOL     OW23027   2.779   9.772   7.146  0.4578  0.0230 -0.3107
40045SOL    HW123028   2.735   9.688   7.133  0.2329  0.2401 -0.9891
40045SOL    HW223029   2.869   9.748   7.170  0.3343 -0.4116 -0.2716
40046SOL     OW23030   6.560   6.752   1.050  0.0660  0.5454 -0.3073
40046SOL    HW123031   6.566   6.676   0.992  1.4466 -0.5531  1.1651
40046SOL    HW223032   6.470   6.782   1.041  0.7453  1.9594 -4.7840
40047SOL     OW23033   1.902   8.817   2.575 -0.2277  0.2079  0.9822
40047SOL    HW123034   1.847   8.844   2.648 -2.1423 -0.7299 -0.0182
40047SOL    HW223035   1.854   8.845   2.497  0.7528 -0.5992  0.0493
40048SOL     OW23036   6.639   5.329   1.199 -0.6626 -0.3468 -0.4549
40048SOL    HW123037   6.727   5.360   1.178 -0.6723  0.4949  0.6655
40048SOL    HW223038   6.651   5.238   1.225 -0.0304 -0.0750  0.2405
40049SOL     OW23039   9.472   2.854   6.926 -0.4127 -0.5678 -0.3111
40049SOL    HW123040   9.390   2.891   6.959  0.8806  0.9469  1.4309
40049SOL    HW223041   9.540   2.898   6.977  1.5208 -1.5027 -1.9490
40050SOL     OW23042   2.945   2.493   8.675  0.4407  0.0874  0.0438
40050SOL    HW123043   2.888   2.418   8.691  0.5933  0.1281  0.8164
40050SOL    HW223044   2.888   2.569   8.686  0.5595  0.1178  0.4559
40051SOL     OW23045   5.354   5.263   2.702 -0.1770  0.1370 -0.4590
40051SOL    HW123046   5.422   5.229   2.644  0.1439  0.6885 -0.4116
40051SOL    HW223047   5.373   5.356   2.709 -0.4817  0.1573  0.1708
40052SOL     OW23048   0.371   6.253   8.011  0.3193  0.3906  0.4324
40052SOL    HW123049   0.280   6.226   8.000 -0.4700  1.6914  2.9466
40052SOL    HW223050   0.370   6.347   7.991  1.0094  0.5056  0.9009
40053SOL     OW23051   8.074   9.611   6.162 -0.4912  0.5323 -0.2441
40053SOL    HW123052   8.152   9.652   6.125 -1.4394  2.1656 -0.5574
40053SOL    HW223053   8.039   9.676   6.223 -2.1372  0.2768 -0.8521
40054SOL     OW23054   6.989   8.760   9.267 -0.3254 -0.0565 -0.0434
40054SOL    HW123055   7.018   8.845   9.302  1.2557 -0.8969  0.8115
40054SOL    HW223056   6.894   8.767   9.262 -0.1771  2.1160 -0.9521
40055SOL     OW23057   1.028   5.092   3.583  0.2456  0.3753  0.5007
40055SOL    HW123058   1.110   5.136   3.562 -0.6133  1.2595 -1.2124
40055SOL    HW223059   1.037   5.005   3.546  0.2509  0.6261 -0.0998
40056SOL     OW23060   1.746  10.587   7.767  0.2126 -0.1290  0.3645
40056SOL    HW123061   1.798  10.656   7.727  1.3995 -0.0988  1.8493
40056SOL    HW223062   1.791  10.506   7.743  0.0844 -0.2180  0.4246
40057SOL     OW23063   7.033   8.428   7.660 -0.5159  0.3132 -0.4086
40057SOL    HW123064   6.952   8.400   7.617 -0.6645 -1.1834  0.7641
40057SOL    HW223065   7.063   8.351   7.708 -0.0206  1.6893  1.6327
40058SOL     OW23066  10.761   2.272   4.476 -0.1911 -0.2992  0.2576
40058SOL    HW123067  10.701   2.220   4.530  2.2360  0.7377  4.4058
40058SOL    HW223068  10.848   2.237   4.495  0.8810  0.0819 -3.2870
40059SOL     OW23069   4.509   2.100   0.202  0.2589  0.3090 -0.4759
40059SOL    HW123070   4.502   2.136   0.290 -1.6292  0.6664 -0.7326
40059SOL    HW223071   4.447   2.151   0.150  1.7890  0.5265 -2.1775
40060SOL     OW23072  10.280   8.432   2.567  0.1309 -0.1290  0.1087
40060SOL    HW123073  10.365   8.476   2.568 -0.2139  0.5410  1.5034
40060SOL    HW223074  10.300   8.340   2.552  0.9138  0.3496 -2.1396
40061SOL     OW23075   1.872   7.520   9.348  0.2989  0.2486 -0.3461
40061SOL    HW123076   1.784   7.541   9.380  0.5558  1.1676 -0.2338
40061SOL    HW223077   1.921   7.494   9.426 -0.2078 -1.5462 -0.5685
40062SOL     OW23078   3.536   7.401   7.681  0.2507 -0.0093 -0.2746
40062SOL    HW123079   3.526   7.350   7.762  0.5604  0.4742  0.0765
40062SOL    HW223080   3.446   7.425   7.657  0.1602 -0.0853 -0.0245
40063SOL     OW23081   7.863   2.666   2.461  0.1201  0.2142 -0.3241
40063SOL    HW123082   7.806   2.731   2.502  1.4849  0.3179  1.5246
40063SOL    HW223083   7.853   2.587   2.515  0.5194 -0.2713 -0.9439
40064SOL     OW23084   2.138   0.063   5.170  0.3465 -0.0212  0.0420
40064SOL    HW123085   2.087   0.004   5.226  0.5669  1.0698  1.4440
40064SOL    HW223086   2.204   0.006   5.130  0.5242 -0.7598  1.3158
40065SOL     OW23087   5.616   4.447   1.764 -0.6841  0.7900 -0.2112
40065SOL    HW123088   5.696   4.493   1.790 -1.5367  1.4354  1.4165
40065SOL    HW223089   5.647   4.361   1.734  0.6288  1.0099  0.4233
40066SOL     OW23090  10.264   4.210   2.567  0.4261  0.2199 -0.2802
40066SOL    HW123091  10.185   4.263   2.575 -0.9756 -1.8333  0.1055
40066SOL    HW223092  10.322   4.262   2.511 -1.0706  1.8922 -0.3719
40067SOL     OW23093   1.055   3.978  10.123  0.0758 -0.5541 -0.2182
40067SOL    HW123094   1.095   3.956  10.207  0.7837 -2.1518 -0.9357
40067SOL    HW223095   0.961   3.976  10.140  0.2246 -0.2017  0.6834
40068SOL     OW23096   3.467   6.292   0.129 -0.2167  0.0349  0.6638
40068SOL    HW123097   3.515   6.243   0.195 -1.7568 -2.7605 -0.1470
40068SOL    HW223098   3.523   6.288   0.051  0.3774  1.0142  1.0203
40069SOL     OW23099   3.177   3.629  10.122 -0.4201  0.0649 -0.4125
40069SOL    HW123100   3.231   3.555  10.150  0.7876  1.5161  1.3470
40069SOL    HW223101   3.111   3.638  10.191  0.1693  1.3062  0.0125
40070SOL     OW23102  10.160   1.667   0.912  0.2086 -0.6546 -0.5284
40070SOL    HW123103  10.224   1.689   0.980 -0.7333 -1.3563  0.6339
40070SOL    HW223104  10.122   1.584   0.941 -2.2985  0.4626 -0.3340
40071SOL     OW23105  10.475   1.308   1.423  0.4074  0.4118  0.1933
40071SOL    HW123106  10.387   1.278   1.401  1.0843 -1.3193 -0.2921
40071SOL    HW223107  10.515   1.234   1.467  1.8893  0.8942 -0.2923
40072SOL     OW23108  10.549   1.613   7.028  0.0261 -0.2924  0.0841
40072SOL    HW123109  10.516   1.694   7.067  2.3570  0.7266  0.0894
40072SOL    HW223110  10.511   1.543   7.081 -0.0896  0.9068  1.6432
40073SOL     OW23111   9.278   5.634   2.242  0.2980  0.4714 -0.2969
40073SOL    HW123112   9.315   5.569   2.302 -0.6338 -0.9309 -1.1764
40073SOL    HW223113   9.352   5.665   2.191  0.6513 -0.4695 -0.3696
40074SOL     OW23114   8.404   3.499   8.815  0.2435  0.1902  0.1398
40074SOL    HW123115   8.420   3.408   8.840 -2.0002 -0.3539 -0.1912
40074SOL    HW223116   8.333   3.527   8.873  1.8822  2.2706  1.2794
40075SOL     OW23117   1.925   6.971   4.900 -0.2237  0.2468 -0.5100
40075SOL    HW123118   1.933   6.918   4.821  0.0877 -0.2005 -0.1825
40075SOL    HW223119   1.850   7.028   4.883 -0.2268  0.0759 -1.0811
40076SOL     OW23120   7.926   2.089   8.990 -0.4548  0.0937 -0.1876
40076SOL    HW123121   7.940   2.178   9.023 -1.8164 -0.1174  1.0499
40076SOL    HW223122   7.932   2.098   8.895 -0.1923  1.4372 -0.0679
40077SOL     OW23123   6.012   0.803   8.754  0.6636 -0.0094  0.0530
40077SOL    HW123124   5.928   0.761   8.771  0.1017  0.1510 -2.0669
40077SOL    HW223125   6.024   0.863   8.828 -0.5771 -0.7630  0.9044
40078SOL     OW23126   2.697   1.150   8.457 -0.0593  0.3295  0.5303
40078SOL    HW123127   2.662   1.234   8.429 -1.9470 -0.5267  0.1321
40078SOL    HW223128   2.656   1.135   8.543  0.9866  0.2325  1.0207
40079SOL     OW23129   8.012   7.940   2.974 -0.3765  0.2254 -0.1418
40079SOL    HW123130   8.032   7.925   2.882  1.3985 -0.4028  0.2897
40079SOL    HW223131   7.919   7.962   2.976 -0.4501  0.2390 -2.0650
40080SOL     OW23132   9.272   4.207   1.846 -0.4779  0.1420 -0.1712
40080SOL    HW123133   9.318   4.125   1.865 -0.6948  0.6420  2.8570
40080SOL    HW223134   9.259   4.204   1.751  2.4343 -1.7512 -0.6479
40081SOL     OW23135   8.916   8.972   2.241 -0.5515 -0.1075 -0.5956
40081SOL    HW123136   8.973   8.915   2.188  1.4836 -0.2387  1.5804
40081SOL    HW223137   8.939   9.061   2.213 -0.3570 -0.2000 -0.7318
40082SOL     OW23138   2.536   6.663  10.352  0.4021 -0.3908 -0.3142
40082SOL    HW123139   2.553   6.629  10.440  1.3455  0.8726  0.0131
40082SOL    HW223140   2.532   6.758  10.363 -2.9197 -0.3329 -1.0693
40083SOL     OW23141   0.398   3.467  10.110 -0.0147  0.4559 -0.1882
40083SOL    HW123142   0.477   3.515  10.134 -0.3330  0.1398  1.6179
40083SOL    HW223143   0.337   3.535  10.080  0.7406  0.7572 -1.0736
40084SOL     OW23144   5.316   3.261   3.947  0.1456  0.4384 -0.5181
40084SOL    HW123145   5.379   3.222   3.886  0.7943 -0.0010  0.4117
40084SOL    HW223146   5.347   3.350   3.960  0.6842  0.1731  0.0639
40085SOL     OW23147   2.470   8.234   6.680  0.0842  0.1242  0.2311
40085SOL    HW123148   2.430   8.281   6.606  2.1061 -1.5058 -2.0663
40085SOL    HW223149   2.451   8.142   6.663 -0.7121 -0.2010  2.6470
40086SOL     OW23150   4.763  10.264   5.390  0.0544  0.6011  0.0876
40086SOL    HW123151   4.775  10.296   5.301  0.7632  0.3767  0.0937
40086SOL    HW223152   4.742  10.172   5.380 -2.1085  1.0355  0.0660
40087SOL     OW23153   7.376   0.141   7.383  0.1534 -0.2914  0.0615
40087SOL    HW123154   7.431   0.195   7.440  2.0316  0.3039 -2.1749
40087SOL    HW223155   7.288   0.176   7.394  0.4734 -0.0129  2.2984
40088SOL     OW23156   1.761   3.515   2.398  0.0880  0.1932 -0.4301
40088SOL    HW123157   1.828   3.527   2.331  0.4400  2.9480  0.2766
40088SOL    HW223158   1.691   3.576   2.374 -1.1675 -0.9736  0.0943
40089SOL     OW23159  10.468   9.898   2.920 -0.0744  0.3014 -0.3575
40089SOL    HW123160  10.409   9.958   2.964  0.3510  0.5849 -0.1626
40089SOL    HW223161  10.546   9.896   2.976  0.0229 -0.2161 -0.5049
40090SOL     OW23162   1.882   0.287   5.851  0.3901 -0.3610 -0.0946
40090SOL    HW123163   1.825   0.326   5.917  2.1164  2.3098 -0.0290
40090SOL    HW223164   1.844   0.313   5.767 -0.0568 -1.0308 -0.1001
40091SOL     OW23165   4.035   8.361   8.541  0.0251 -0.2650  0.5366
40091SOL    HW123166   4.020   8.274   8.579  1.1800  0.0949  1.8672
40091SOL    HW223167   3.979   8.419   8.592 -1.2451 -0.2744 -0.7736
40092SOL     OW23168   8.419   6.431   1.654 -0.1851 -0.5600 -0.5253
40092SOL    HW123169   8.505   6.468   1.674  0.3072 -1.6381 -0.5908
40092SOL    HW223170   8.359   6.505   1.662  0.7225  0.1723 -0.3121
40093SOL     OW23171   6.915   1.743  10.760  0.2223 -0.0177  0.6265
40093SOL    HW123172   6.893   1.779  10.674  0.7968  0.5200  0.6970
40093SOL    HW223173   6.988   1.797  10.790 -0.2376  0.0597  1.6310
40094SOL     OW23174   0.013   1.119   9.410 -0.6436 -0.1468  0.2687
40094SOL    HW123175   0.090   1.093   9.462 -0.3778  0.5101  0.2128
40094SOL    HW223176   0.047   1.130   9.321 -1.1014 -1.2862 -0.0700
40095SOL     OW23177   5.221   5.669   1.825 -0.2112  1.0981  0.3666
40095SOL    HW123178   5.267   5.641   1.745 -0.4571 -1.8564  1.1400
40095SOL    HW223179   5.141   5.711   1.792  0.3666  1.2253 -0.9544
40096SOL     OW23180   1.851   6.943   5.807 -0.0086 -0.0948  0.1210
40096SOL    HW123181   1.783   6.987   5.858  1.4146  0.5573  1.5242
40096SOL    HW223182   1.889   7.012   5.754 -0.7853 -0.5750 -1.1079
40097SOL     OW23183   3.358   4.804   0.694 -0.8422 -1.2382  0.3539
40097SOL    HW123184   3.423   4.800   0.764  3.1488 -1.3219 -2.9957
40097SOL    HW223185   3.331   4.896   0.691  0.3093 -0.8670  0.8885
40098SOL     OW23186   2.115   2.198   5.246  0.0934  0.1829  0.1502
40098SOL    HW123187   2.136   2.131   5.181  1.1474  0.5437  0.0963
40098SOL    HW223188   2.173   2.179   5.320 -0.6242  0.1782  0.7204
40099SOL     OW23189   6.965  10.253   4.354  0.1252 -0.4562  0.1351
40099SOL    HW123190   6.943  10.182   4.293 -0.8503 -0.4356  0.4418
40099SOL    HW223191   6.887  10.308   4.356  1.0028  0.8311 -0.3585
40100SOL     OW23192   1.945   7.281   1.414 -0.3532  0.2999  0.0673
40100SOL    HW123193   2.023   7.309   1.365 -0.1610  0.1655  0.2941
40100SOL    HW223194   1.962   7.308   1.504 -0.5934  0.3156  0.1084
40101SOL     OW23195   6.647   1.250   1.096  0.3090 -0.0284  0.1421
40101SOL    HW123196   6.730   1.209   1.074 -0.9756 -2.5251 -0.3205
40101SOL    HW223197   6.612   1.197   1.168 -2.3393 -1.0916 -1.7876
40102SOL     OW23198   6.894   4.883   2.000 -0.0824  0.3583 -0.0617
40102SOL    HW123199   6.816   4.859   1.949 -0.6168  1.6158  0.1130
40102SOL    HW223200   6.919   4.802   2.044 -2.2609  0.2550  1.1273
40103SOL     OW23201   4.263  10.676   7.638 -0.4778 -1.0152  0.2940
40103SOL    HW123202   4.347  10.675   7.593 -0.2366 -2.9594  0.6768
40103SOL    HW223203   4.275  10.738   7.710  0.4535 -0.8850  0.0397
40104SOL     OW23204   2.231   2.011   7.500 -0.1656 -0.4347  0.4741
40104SOL    HW123205   2.228   2.044   7.590  0.3696 -2.8710  1.4681
40104SOL    HW223206   2.192   2.080   7.448  2.5959  2.5968  2.0529
40105SOL     OW23207   9.457   7.236   6.979 -0.2634 -0.2214  0.0011
40105SOL    HW123208   9.537   7.190   6.954 -1.7859 -2.8813 -0.3946
40105SOL    HW223209   9.437   7.203   7.067 -0.1276  1.6602  0.7934
40106SOL     OW23210   7.013   0.024   1.625  0.2319  0.2117 -0.1406
40106SOL    HW123211   7.053   0.040   1.711  1.1681 -0.3849 -0.4501
40106SOL    HW223212   6.972   0.107   1.602  0.6241  0.6096  0.5499
40107SOL     OW23213   1.430   8.201   8.121  0.0375  0.2821  0.8308
40107SOL    HW123214   1.465   8.147   8.193 -0.5048  0.8593  1.5373
40107SOL    HW223215   1.342   8.224   8.149 -1.0508 -1.3124 -1.0228
40108SOL     OW23216   6.165   0.858   9.486 -0.1261 -0.1791  1.0640
40108SOL    HW123217   6.224   0.791   9.519 -0.0021 -0.2562  0.6811
40108SOL    HW223218   6.151   0.836   9.394  0.1578  0.4874  0.8547
40109SOL     OW23219   9.892   2.121   1.541 -0.4147 -0.4954  0.2550
40109SOL    HW123220   9.954   2.060   1.500 -0.6768 -0.5583 -0.0502
40109SOL    HW223221   9.835   2.149   1.469  1.2145  2.0385 -0.1797
40110SOL     OW23222   9.612   9.383   6.488 -0.2433 -0.3348 -0.2404
40110SOL    HW123223   9.688   9.345   6.531 -1.4093 -0.8461  1.5082
40110SOL    HW223224   9.542   9.320   6.502 -1.3074  0.7121 -0.6308
40111SOL     OW23225   2.436   5.003   2.682 -0.1547 -0.5828 -0.5937
40111SOL    HW123226   2.415   5.096   2.671 -1.3021 -0.9979 -2.5365
40111SOL    HW223227   2.531   5.000   2.678  0.1287  0.7413  2.3577
40112SOL     OW23228   4.359   2.234   9.719 -0.0365  0.1282 -0.7229
40112SOL    HW123229   4.437   2.264   9.765 -0.9828  0.6671  0.6109
40112SOL    HW223230   4.351   2.293   9.644  0.3533  0.6382 -0.3709
40113SOL     OW23231   6.546   5.214   2.072 -0.5113  0.5890 -0.4043
40113SOL    HW123232   6.520   5.129   2.107 -0.5268  0.2673 -1.1794
40113SOL    HW223233   6.464   5.256   2.046 -0.4849  0.7432 -0.2414
40114SOL     OW23234   3.907   9.642   9.713 -0.4006 -0.2432 -0.0738
40114SOL    HW123235   3.974   9.700   9.677 -0.6347  0.9711  1.3475
40114SOL    HW223236   3.945   9.554   9.707  1.0024  0.3394 -0.0156
40115SOL     OW23237   1.020   0.088   2.714  0.5916  0.6065 -0.1492
40115SOL    HW123238   0.953   0.117   2.775 -0.1727  1.1331 -1.2114
40115SOL    HW223239   1.062   0.013   2.758  0.1590  1.0481  1.0521
40116SOL     OW23240   7.210   0.670   4.407 -0.0542  0.5475 -0.1569
40116SOL    HW123241   7.139   0.698   4.465 -0.4379  0.5948 -0.6411
40116SOL    HW223242   7.286   0.662   4.465 -0.2571  1.2783  0.2316
40117SOL     OW23243   5.882   0.664   4.409 -0.1680  0.2299  0.4061
40117SOL    HW123244   5.910   0.756   4.408 -0.1932  0.2711  1.8658
40117SOL    HW223245   5.945   0.620   4.467 -0.5266 -0.5583  0.2141
40118SOL     OW23246   3.745   6.066   0.948 -0.4178 -0.0521 -0.0226
40118SOL    HW123247   3.679   6.067   1.018  1.1671 -0.1357  1.5398
40118SOL    HW223248   3.794   6.147   0.961  1.3670 -1.1662  0.4380
40119SOL     OW23249   2.978   4.027   8.414 -0.6708  0.0811 -0.0843
40119SOL    HW123250   2.950   3.979   8.492 -0.5870  0.8515  0.4321
40119SOL    HW223251   3.013   3.960   8.356  0.3254 -0.3825  1.0089
40120SOL     OW23252   0.283   5.274   9.736  0.1881  0.6647  0.0672
40120SOL    HW123253   0.206   5.218   9.722  0.2959 -0.1480  2.2804
40120SOL    HW223254   0.346   5.217   9.781  0.6376  2.2867  1.6298
40121SOL     OW23255   7.798   8.261   7.289 -0.5072  0.0178 -0.3468
40121SOL    HW123256   7.725   8.241   7.229  1.0764 -0.7978 -2.0972
40121SOL    HW223257   7.761   8.324   7.350 -3.0896 -1.3782 -0.3014
40122SOL     OW23258   6.921   9.354   0.729  0.1003 -0.1388 -0.2663
40122SOL    HW123259   6.884   9.309   0.653  1.1530  1.4566 -1.8032
40122SOL    HW223260   6.992   9.407   0.693  1.7331 -0.5873  2.1048
40123SOL     OW23261   8.214   7.671   2.526 -0.1573 -0.9266 -0.5319
40123SOL    HW123262   8.173   7.755   2.505 -0.5142 -1.1321 -0.6606
40123SOL    HW223263   8.243   7.636   2.442 -0.5935 -1.2306 -0.5647
40124SOL     OW23264   8.311   3.287   0.466 -0.0155  0.1114 -0.1071
40124SOL    HW123265   8.298   3.281   0.372  1.0748  1.2704 -0.3657
40124SOL    HW223266   8.374   3.218   0.486  0.8657  0.7756 -0.4971
40125SOL     OW23267   7.486   1.552   8.174  0.2642  0.8180 -0.3838
40125SOL    HW123268   7.436   1.588   8.101 -2.0112  2.9412  1.9869
40125SOL    HW223269   7.516   1.629   8.222  1.1960 -0.4825  1.2027
40126SOL     OW23270   9.263   0.433   7.314 -0.2698  0.1426 -0.5646
40126SOL    HW123271   9.214   0.355   7.286 -0.8808  0.2287  0.2391
40126SOL    HW223272   9.354   0.413   7.292 -0.5815 -0.2674 -1.5385
40127SOL     OW23273   5.664   5.164   5.122  0.5808 -0.2722  0.4124
40127SOL    HW123274   5.675   5.141   5.030  1.6659  1.1986  0.1345
40127SOL    HW223275   5.596   5.104   5.154  0.1371 -0.7703 -1.3503
40128SOL     OW23276   7.664   6.737   0.843  0.0123 -0.3448  0.2079
40128SOL    HW123277   7.631   6.821   0.810 -0.4763  0.6135  2.8760
40128SOL    HW223278   7.758   6.750   0.851 -0.1873  0.4123  1.6776
40129SOL     OW23279   5.248   5.313   4.200 -0.0028 -0.0929 -0.4714
40129SOL    HW123280   5.192   5.385   4.228  0.0338 -0.5604  0.8526
40129SOL    HW223281   5.337   5.344   4.214  0.0290 -1.2985  2.6962
40130SOL     OW23282   2.455   6.001   9.485 -0.0120 -0.0493  0.0194
40130SOL    HW123283   2.536   5.950   9.480 -0.9372 -1.7034  0.9118
40130SOL    HW223284   2.427   6.009   9.394  0.1819 -1.1316 -0.1500
40131SOL     OW23285   5.409   7.432   9.168 -0.0956  0.0090 -0.0759
40131SOL    HW123286   5.491   7.383   9.172  0.6911  1.2859  0.0268
40131SOL    HW223287   5.377   7.434   9.258  0.1664  0.1653  0.0137
40132SOL     OW23288   2.248   9.493   1.276 -0.1758 -0.1685  0.3727
40132SOL    HW123289   2.218   9.573   1.318  2.5852  0.6503  0.9764
40132SOL    HW223290   2.318   9.522   1.217  0.7836 -2.1196  0.4839
40133SOL     OW23291   5.595   0.381   8.137 -0.0023  0.6021  0.4124
40133SOL    HW123292   5.632   0.398   8.050 -1.3354  0.5928 -0.1796
40133SOL    HW223293   5.540   0.457   8.155  0.6954  0.8660  1.5089
40134SOL     OW23294  10.482   1.450   3.488  0.1810  0.6638  0.5199
40134SOL    HW123295  10.515   1.522   3.435  1.0406  0.4554  0.7417
40134SOL    HW223296  10.446   1.388   3.424 -0.7182  1.3580  0.3438
40135SOL     OW23297  10.527   1.221   4.489 -0.0669  0.0511  0.5997
40135SOL    HW123298  10.575   1.232   4.572 -0.5076 -0.0646  0.8699
40135SOL    HW223299  10.513   1.126   4.483  0.8042 -0.0420 -0.0830
40136SOL     OW23300   6.910   0.879   6.871 -0.0993  0.3222  0.4371
40136SOL    HW123301   6.822   0.909   6.896 -0.3192 -0.5940  0.8049
40136SOL    HW223302   6.910   0.885   6.775 -0.5666  0.3291  0.4327
40137SOL     OW23303   6.673   9.167   4.083 -0.1690 -0.4424 -0.4776
40137SOL    HW123304   6.606   9.102   4.060 -3.5358  2.3978  0.4062
40137SOL    HW223305   6.681   9.159   4.178 -0.9296  0.6478 -0.3090
40138SOL     OW23306   1.310   4.887   0.639  0.1247 -0.0503  0.4355
40138SOL    HW123307   1.383   4.932   0.597  0.7673 -1.6986 -0.3021
40138SOL    HW223308   1.296   4.934   0.721  0.5963  1.5938 -0.3963
40139SOL     OW23309   3.028   1.920   2.289  0.0152 -0.4610 -0.2110
40139SOL    HW123310   2.993   2.004   2.319  0.5095  0.2048 -1.3843
40139SOL    HW223311   3.122   1.925   2.308 -0.1416 -1.2824  0.8458
40140SOL     OW23312   4.019   6.918   0.846 -0.2910 -0.0538 -0.1325
40140SOL    HW123313   4.082   6.943   0.913 -1.4932 -0.3064  1.1474
40140SOL    HW223314   4.036   6.977   0.773  1.6638 -0.3933  0.0124
40141SOL     OW23315   1.160   2.690   7.261  0.0495 -0.2584  0.3319
40141SOL    HW123316   1.181   2.766   7.207 -0.4476 -0.4288 -0.1092
40141SOL    HW223317   1.242   2.669   7.306  0.3776  0.0990 -0.0900
40142SOL     OW23318  10.574   1.108   7.003  0.2308  0.0398 -0.1597
40142SOL    HW123319  10.484   1.082   6.987  0.8817 -2.2810 -0.4253
40142SOL    HW223320  10.597   1.162   6.928 -0.9000  0.6472 -0.0941
40143SOL     OW23321   5.615   3.389   6.840  0.6722  0.3123 -0.0755
40143SOL    HW123322   5.633   3.414   6.931  0.5847 -0.1208  0.0674
40143SOL    HW223323   5.551   3.318   6.848 -1.1228  1.7977 -0.5532
40144SOL     OW23324   4.134   4.815   8.337 -0.0627 -0.6556  0.1392
40144SOL    HW123325   4.081   4.771   8.403 -0.0334 -2.0135 -0.7225
40144SOL    HW223326   4.150   4.749   8.270  1.5336  0.1270 -0.3092
40145SOL     OW23327  10.130   9.199   3.024 -0.6441 -0.8454  0.2927
40145SOL    HW123328  10.161   9.236   3.106 -0.3729 -0.4862  0.0310
40145SOL    HW223329  10.042   9.168   3.043  0.2896 -3.0279  1.3938
40146SOL     OW23330   1.565   5.562   4.510 -0.0158  0.8302  0.7251
40146SOL    HW123331   1.493   5.540   4.570 -0.5866  1.3600  0.2550
40146SOL    HW223332   1.550   5.654   4.487  1.9579  1.5807  2.1461
40147SOL     OW23333   1.426   2.437   3.303  0.0208 -0.1460 -0.2130
40147SOL    HW123334   1.412   2.471   3.391 -1.6211 -3.5858  1.0248
40147SOL    HW223335   1.357   2.476   3.250 -2.0859 -1.6701  1.2456
40148SOL     OW23336   8.862   4.833   0.446 -0.7011  0.5204 -0.1411
40148SOL    HW123337   8.917   4.870   0.377  1.2213  1.1081  1.6233
40148SOL    HW223338   8.781   4.808   0.401  0.3703  1.0974 -2.5407
40149SOL     OW23339   1.764   8.285   7.132  0.1349 -0.5399 -0.7912
40149SOL    HW123340   1.714   8.217   7.087 -0.1048 -0.6461 -0.3747
40149SOL    HW223341   1.822   8.236   7.190  1.3066 -0.4463 -1.8505
40150SOL     OW23342   4.088   1.216   2.932  0.5160 -0.1891  0.2627
40150SOL    HW123343   4.158   1.151   2.932  0.4376 -0.3209  2.1773
40150SOL    HW223344   4.119   1.284   2.873  1.9698 -0.5409  0.5813
40151SOL     OW23345   9.189   8.231   6.657  0.6497 -0.1289  0.2025
40151SOL    HW123346   9.194   8.245   6.562  0.2118  0.2975  0.2367
40151SOL    HW223347   9.204   8.137   6.668  2.6192  0.1041 -0.1264
40152SOL     OW23348   9.873   6.358   0.993  0.4915 -0.0967 -0.2242
40152SOL    HW123349   9.881   6.449   1.023  2.0761  0.4058 -1.9563
40152SOL    HW223350   9.835   6.365   0.906 -1.9284 -1.3446  0.6590
40153SOL     OW23351   7.136   0.842  10.586  0.2030  0.2530  0.5986
40153SOL    HW123352   7.151   0.844  10.681 -0.7708 -3.0180  0.9450
40153SOL    HW223353   7.041   0.830  10.578  0.4272 -0.7689 -0.7357
40154SOL     OW23354   8.819   8.685  10.328  0.6283  0.0047  0.4225
40154SOL    HW123355   8.742   8.636  10.358  0.6413 -0.8566 -0.8529
40154SOL    HW223356   8.891   8.623  10.334  1.2719  0.8339  1.6848
40155SOL     OW23357   6.024   8.811   7.212 -0.2048 -0.3733 -0.1831
40155SOL    HW123358   6.028   8.766   7.296  0.4381 -0.9526 -0.5070
40155SOL    HW223359   6.115   8.829   7.190 -0.4698  1.8896  0.3339
40156SOL     OW23360   1.206   3.971   1.636  0.0149 -0.4480  0.6649
40156SOL    HW123361   1.188   3.996   1.545  0.4351 -0.6316  0.5273
40156SOL    HW223362   1.130   4.003   1.685  0.4368  0.9248  0.4714
40157SOL     OW23363   1.694  10.566   6.815  0.2595  0.2038 -0.5623
40157SOL    HW123364   1.621  10.625   6.834  0.9759  1.3876 -1.3025
40157SOL    HW223365   1.771  10.623   6.817  1.1756 -1.0040  0.1771
40158SOL     OW23366   8.862   6.762   7.658 -0.3609 -0.3575 -0.2782
40158SOL    HW123367   8.832   6.848   7.629 -3.7824 -0.7486  1.5849
40158SOL    HW223368   8.841   6.703   7.585 -1.3719 -0.1337 -0.1785
40159SOL     OW23369   2.729   5.422   1.884 -0.1744 -0.0832  0.0828
40159SOL    HW123370   2.654   5.481   1.880  0.2131  0.3914 -0.5198
40159SOL    HW223371   2.776   5.439   1.802  0.2412 -0.8332  0.1623
40160SOL     OW23372   6.177   0.341  10.097 -0.4693  0.1191 -0.2681
40160SOL    HW123373   6.095   0.363  10.142 -1.8507 -1.4813 -1.8603
40160SOL    HW223374   6.179   0.399  10.021  0.0366  0.3625 -0.0701
40161SOL     OW23375   8.183   6.257   1.468  0.1392  0.3455 -0.0477
40161SOL    HW123376   8.208   6.263   1.560 -0.7393  1.7121  0.1261
40161SOL    HW223377   8.259   6.292   1.420  0.4126  0.0611  0.1731
40162SOL     OW23378   7.940   3.894   1.497  0.0112 -0.1445 -0.1980
40162SOL    HW123379   7.941   3.897   1.402 -0.3594  0.3267 -0.1916
40162SOL    HW223380   8.026   3.928   1.523 -0.3157  0.8352 -0.3486
40163SOL     OW23381   7.940   9.907   8.685  0.7130  0.2671 -0.3126
40163SOL    HW123382   7.917   9.932   8.775 -1.0223 -1.1725 -0.2912
40163SOL    HW223383   8.027   9.868   8.693 -0.6933 -2.9649  1.4666
40164SOL     OW23384   8.704   0.784  10.075  0.5387 -0.4662  0.1535
40164SOL    HW123385   8.782   0.729  10.066  0.7826 -0.0587 -0.2431
40164SOL    HW223386   8.692   0.823   9.989 -1.4333 -2.2775 -0.4792
40165SOL     OW23387   1.461   8.579   1.477 -0.0761 -0.3727 -0.4685
40165SOL    HW123388   1.423   8.501   1.518  2.7519 -1.0739  1.0682
40165SOL    HW223389   1.400   8.649   1.501 -1.9488 -1.8243 -0.7035
40166SOL     OW23390   6.094   3.312   0.141 -0.0345 -0.0398  0.5621
40166SOL    HW123391   6.046   3.369   0.201  0.2508  1.2926 -0.3984
40166SOL    HW223392   6.180   3.301   0.182 -0.0456  0.3578  0.6992
40167SOL     OW23393   3.649  10.297   4.797  0.3112 -0.2903 -0.0984
40167SOL    HW123394   3.738  10.331   4.785 -0.3538  1.1624 -1.1227
40167SOL    HW223395   3.596  10.374   4.814 -0.6076 -1.2458  1.7000
40168SOL     OW23396   4.164   7.262   4.879 -0.5201 -0.0817  0.3340
40168SOL    HW123397   4.082   7.275   4.831  0.4678  0.4799 -1.3221
40168SOL    HW223398   4.142   7.280   4.970 -2.4984 -1.1731  0.1265
40169SOL     OW23399   5.232   3.035   9.382  0.1613 -0.1060  0.5858
40169SOL    HW123400   5.292   3.057   9.453 -0.5592  0.6781  0.9632
40169SOL    HW223401   5.189   3.118   9.360 -1.0964 -0.7348  0.6112
40170SOL     OW23402  10.795   6.148   0.627  0.1037  0.1959 -0.2249
40170SOL    HW123403  10.706   6.153   0.593 -0.2687 -1.0705  0.4962
40170SOL    HW223404  10.785   6.157   0.722  0.5490 -1.5003  0.0215
40171SOL     OW23405   3.532   5.860   6.989 -0.3272 -0.1511  0.6297
40171SOL    HW123406   3.565   5.773   7.010  0.2547  0.2724  1.5334
40171SOL    HW223407   3.593   5.920   7.032  0.0322  0.7454 -1.0748
40172SOL     OW23408  10.098   2.883  10.368 -0.2704  0.7019 -0.4167
40172SOL    HW123409  10.095   2.951  10.435  2.2269  0.0603  0.4342
40172SOL    HW223410  10.084   2.801  10.417  3.8720 -0.0166 -0.1116
40173SOL     OW23411   5.003   9.860   2.346  0.7314  0.3438  0.4949
40173SOL    HW123412   5.033   9.788   2.290 -1.4695 -1.4742  1.4643
40173SOL    HW223413   4.943   9.910   2.291  1.8356  1.1574 -0.0086
40174SOL     OW23414   1.714   7.850   7.549  0.0960  0.1107 -0.6402
40174SOL    HW123415   1.630   7.860   7.596 -0.1121  0.2624 -1.0434
40174SOL    HW223416   1.690   7.815   7.464  0.5783 -1.2185 -0.2456
40175SOL     OW23417  10.297   7.553   4.994 -0.0999 -0.0129 -0.0959
40175SOL    HW123418  10.239   7.477   4.988 -0.5123  0.3842 -1.9657
40175SOL    HW223419  10.277   7.592   5.079  0.0456 -1.9116  0.8470
40176SOL     OW23420   7.587   0.419   5.886  0.0584  0.3317 -0.5908
40176SOL    HW123421   7.568   0.374   5.968  0.7306  0.9726 -0.0733
40176SOL    HW223422   7.607   0.509   5.912  0.4111  0.5073 -1.4449
40177SOL     OW23423   1.978   1.860   7.758  0.1645 -0.0046  0.2303
40177SOL    HW123424   1.993   1.952   7.777  0.0176 -0.2017  1.3969
40177SOL    HW223425   1.967   1.856   7.663 -1.3733  1.4133  0.2964
40178SOL     OW23426   9.080   8.321   1.494  0.5702  0.2447  0.3731
40178SOL    HW123427   9.104   8.333   1.585 -0.1171  1.1931  0.4483
40178SOL    HW223428   9.058   8.409   1.463  0.8382 -0.0512 -0.7207
40179SOL     OW23429  10.345   2.901   9.408 -0.6593  0.1136 -0.0805
40179SOL    HW123430  10.311   2.891   9.319 -1.6510  1.2272  0.1463
40179SOL    HW223431  10.268   2.895   9.464 -0.0616 -0.4194  0.7075
40180SOL     OW23432   6.439   0.425   2.442  0.5657  0.7727  0.3638
40180SOL    HW123433   6.500   0.438   2.370  1.2280  1.8751  1.0923
40180SOL    HW223434   6.463   0.341   2.480  0.2301  0.1995 -0.6660
40181SOL     OW23435   9.393   7.060   8.755  0.2252  0.2467 -0.2426
40181SOL    HW123436   9.348   7.145   8.759  1.0245  0.6412  1.3107
40181SOL    HW223437   9.323   6.995   8.767 -0.3785  0.6680 -1.3355
40182SOL     OW23438   6.185   2.116   0.568  0.0372 -0.0255 -0.3333
40182SOL    HW123439   6.115   2.104   0.632  0.9633  0.2365  0.7577
40182SOL    HW223440   6.257   2.155   0.618  1.1561 -0.7879 -1.3073
40183SOL     OW23441   8.333   2.908   5.540 -0.1396  0.1635 -0.3859
40183SOL    HW123442   8.293   2.995   5.543  0.9359  0.7470 -1.6659
40183SOL    HW223443   8.279   2.860   5.477  0.1797  0.4193 -0.8625
40184SOL     OW23444   9.443   1.203   3.097  0.7170  0.0684 -0.5213
40184SOL    HW123445   9.518   1.146   3.114  0.1832 -0.0494  1.8003
40184SOL    HW223446   9.439   1.261   3.173 -0.8104  0.9115 -1.1922
40185SOL     OW23447   1.319   1.149   5.210  0.0297 -0.1093  0.4591
40185SOL    HW123448   1.392   1.178   5.156 -0.2549  0.6613  0.4710
40185SOL    HW223449   1.354   1.076   5.262 -0.1008 -1.9133 -1.8286
40186SOL     OW23450   3.824   2.301   0.128  0.6383  0.4895 -0.0482
40186SOL    HW123451   3.883   2.263   0.063  0.4443  0.4962 -0.2326
40186SOL    HW223452   3.798   2.227   0.182  0.2105  0.3408 -0.4474
40187SOL     OW23453   8.576   6.600   4.996 -0.0452  0.7550  0.3230
40187SOL    HW123454   8.496   6.624   4.949  0.7220  0.0130 -1.4402
40187SOL    HW223455   8.544   6.558   5.076 -1.4806 -0.3640 -0.7697
40188SOL     OW23456   4.650   9.051   3.783  0.4365 -0.4162 -0.1155
40188SOL    HW123457   4.596   8.984   3.742 -0.6295  0.5164 -0.2672
40188SOL    HW223458   4.732   9.050   3.733 -0.8068  0.6693 -2.3248
40189SOL     OW23459   6.226   5.674   4.524 -0.6651  0.1215  0.5558
40189SOL    HW123460   6.160   5.676   4.455 -0.0545  0.0855 -0.0439
40189SOL    HW223461   6.257   5.764   4.530 -0.1529 -0.0275  0.2189
40190SOL     OW23462   1.858   6.546   1.984 -0.0466 -0.1196 -0.3579
40190SOL    HW123463   1.865   6.637   1.957  2.5283  0.2538  1.2270
40190SOL    HW223464   1.773   6.541   2.028  0.4091  1.9599  0.8998
40191SOL     OW23465   6.562   1.530   2.114 -0.2144  0.2956  0.4914
40191SOL    HW123466   6.488   1.591   2.110  0.6546  1.3503 -0.2504
40191SOL    HW223467   6.627   1.575   2.168  0.2116 -0.2456  0.4415
40192SOL     OW23468   0.825   9.335   4.678  0.3473 -0.2894  0.5041
40192SOL    HW123469   0.895   9.341   4.614  0.4622  2.1895  0.7514
40192SOL    HW223470   0.854   9.268   4.740  2.0795  0.0371  0.0995
40193SOL     OW23471   4.242   7.287  10.407 -0.2643 -0.3077 -0.7075
40193SOL    HW123472   4.268   7.379  10.417  1.2579 -0.6850 -0.9720
40193SOL    HW223473   4.323   7.241  10.388 -0.6003 -2.0455  1.5451
40194SOL     OW23474   3.616   6.041  10.404 -0.4053 -0.5727  0.0716
40194SOL    HW123475   3.533   5.995  10.395  1.4205 -4.0147 -1.1487
40194SOL    HW223476   3.614   6.108  10.336 -2.0143 -0.7935 -0.1397
40195SOL     OW23477  10.378   6.725  10.331  0.1794 -0.4536 -0.1310
40195SOL    HW123478  10.283   6.729  10.341  0.2732 -0.5040  0.8150
40195SOL    HW223479  10.405   6.647  10.380  0.5806 -1.2298 -1.5025
40196SOL     OW23480   5.638   1.388   6.362  0.2421  1.3084 -0.8615
40196SOL    HW123481   5.556   1.344   6.340 -0.1540  1.8479 -0.4652
40196SOL    HW223482   5.647   1.375   6.457  0.7699  0.9948 -0.9490
40197SOL     OW23483   7.267   4.399   1.161  0.4811 -0.4283 -0.0616
40197SOL    HW123484   7.183   4.364   1.189  0.0807  0.5536 -0.0123
40197SOL    HW223485   7.248   4.488   1.130  1.6638  0.2636  1.0696
40198SOL     OW23486   6.741   9.956   3.149  0.3688  0.1284  0.1724
40198SOL    HW123487   6.791   9.889   3.195  0.0705 -0.2243 -0.0151
40198SOL    HW223488   6.651   9.944   3.179  0.6256  1.8376  1.8042
40199SOL     OW23489   3.330   1.470   0.157  0.2908  0.0926  0.0755
40199SOL    HW123490   3.392   1.495   0.226  0.5245 -3.5746  1.4150
40199SOL    HW223491   3.252   1.443   0.205  0.2082 -1.8845 -1.0619
40200SOL     OW23492   7.004   3.593   3.828 -0.5453 -0.2519 -0.3132
40200SOL    HW123493   7.068   3.533   3.867  1.8398  3.2508  1.7387
40200SOL    HW223494   6.931   3.593   3.890 -0.4807 -0.8502 -0.2289
40201SOL     OW23495   4.707   5.977   5.225  0.2404  0.3526 -0.2735
40201SOL    HW123496   4.770   6.000   5.292  1.2564  1.1866 -1.4700
40201SOL    HW223497   4.749   5.908   5.174 -1.3580 -1.8059  1.1334
40202SOL     OW23498   2.347   9.244   1.441 -0.0029  0.5108  0.7110
40202SOL    HW123499   2.290   9.184   1.489 -0.1207  2.0929  2.6458
40202SOL    HW223500   2.288   9.306   1.400  0.2287  0.8505  0.8895
40203SOL     OW23501   7.734   0.781   5.153 -0.4362  0.1421  0.1558
40203SOL    HW123502   7.679   0.763   5.228  0.0672  0.3953  0.5913
40203SOL    HW223503   7.699   0.863   5.116 -0.2865  0.3599  0.4946
40204SOL     OW23504   3.076   5.372   3.357 -0.3428  0.0811 -0.3497
40204SOL    HW123505   3.076   5.462   3.391 -0.8506 -0.1032  0.1511
40204SOL    HW223506   3.153   5.332   3.396 -3.0401 -1.4430  4.2544
40205SOL     OW23507   9.387   8.354   1.486  0.5211  0.1080 -0.0312
40205SOL    HW123508   9.450   8.351   1.415 -0.2269  0.4500 -0.7217
40205SOL    HW223509   9.432   8.400   1.557  0.5472  1.6912 -1.0255
40206SOL     OW23510   1.226   0.612   4.512 -0.2631  0.0392  0.4357
40206SOL    HW123511   1.285   0.607   4.437 -0.8078 -1.1779  0.0605
40206SOL    HW223512   1.254   0.690   4.560  0.4287  0.5366 -0.7465
40207SOL     OW23513   4.952   4.657   9.547 -0.1660 -0.0518  0.6046
40207SOL    HW123514   4.888   4.642   9.617 -0.2927 -2.3959  0.0623
40207SOL    HW223515   4.899   4.687   9.473 -0.3949 -0.1602  0.7212
40208SOL     OW23516   6.645   4.388   6.417  0.3882  0.1611  0.0593
40208SOL    HW123517   6.685   4.467   6.380  2.6944 -0.3564  1.2491
40208SOL    HW223518   6.657   4.397   6.511 -1.1386 -0.7177  0.3719
40209SOL     OW23519   6.932   2.863   7.923 -0.3084 -0.0173  0.0860
40209SOL    HW123520   6.928   2.768   7.930  2.8186 -0.3098 -0.5165
40209SOL    HW223521   6.926   2.895   8.013 -2.1854 -0.6761  0.2271
40210SOL     OW23522   0.865   5.109   8.087 -0.2099  0.2276 -0.4086
40210SOL    HW123523   0.883   5.174   8.019 -2.2680  2.0154  0.6291
40210SOL    HW223524   0.791   5.059   8.054  1.6086 -2.0122 -1.3832
40211SOL     OW23525   2.001   7.773   8.656 -0.3609  0.4364 -0.0440
40211SOL    HW123526   1.957   7.766   8.741  2.1992 -1.3212  1.2986
40211SOL    HW223527   2.046   7.689   8.646  2.2439  1.8610 -1.4445
40212SOL     OW23528   7.009   5.605   9.682  0.3581 -0.0855  0.0978
40212SOL    HW123529   7.068   5.680   9.680 -0.1076  0.2819 -0.2643
40212SOL    HW223530   7.063   5.531   9.710  0.4720  0.6861  2.0157
40213SOL     OW23531   6.067   3.764   7.085 -0.1531 -0.3586 -0.2371
40213SOL    HW123532   6.009   3.699   7.124  0.3112 -0.5295  0.1741
40213SOL    HW223533   6.156   3.732   7.102  0.2161  1.6880  2.3926
40214SOL     OW23534   1.300   2.262   6.758  0.0857  0.6300  0.2733
40214SOL    HW123535   1.267   2.339   6.712 -0.4340 -1.2321 -2.7066
40214SOL    HW223536   1.395   2.266   6.747  0.0044  0.4797 -0.5273
40215SOL     OW23537   1.338   7.093   5.694  0.2609  0.7847  0.3169
40215SOL    HW123538   1.365   7.124   5.607 -0.6609 -0.1691 -0.3373
40215SOL    HW223539   1.287   7.165   5.731  0.6012  1.1701  0.0430
40216SOL     OW23540  10.564   3.696   6.553 -0.2787 -0.0108  0.2561
40216SOL    HW123541  10.598   3.786   6.556  1.3345 -0.5979  1.6459
40216SOL    HW223542  10.560   3.670   6.645 -3.1226 -0.5590  0.0498
40217SOL     OW23543   8.074   3.071   5.469  0.4078 -0.2313  0.1996
40217SOL    HW123544   8.087   3.075   5.375  0.1585 -0.4092  0.1555
40217SOL    HW223545   8.011   3.000   5.482  0.0521  0.1187  0.4540
40218SOL     OW23546   1.613   3.386   6.179 -0.1119 -0.0079 -0.1517
40218SOL    HW123547   1.662   3.311   6.212 -2.0986 -0.7088  1.3335
40218SOL    HW223548   1.591   3.363   6.088 -1.5619 -1.7285  0.5870
40219SOL     OW23549   4.921   0.395   5.091 -0.5044  0.5706  0.6763
40219SOL    HW123550   4.950   0.419   5.002  0.8518  0.5277  1.0885
40219SOL    HW223551   4.840   0.346   5.077  0.3749 -0.5789 -0.6430
40220SOL     OW23552   2.337   5.943   1.640 -0.0560  0.1348  0.0344
40220SOL    HW123553   2.382   5.925   1.558  0.5168 -0.4818  0.4766
40220SOL    HW223554   2.290   6.025   1.624  0.7969  0.5105 -0.6019
40221SOL     OW23555   7.791   8.021   3.356 -0.0009 -0.5499 -0.3798
40221SOL    HW123556   7.800   7.926   3.347 -1.1197 -0.5269 -1.9897
40221SOL    HW223557   7.866   8.047   3.411  0.6165 -2.2762 -0.3614
40222SOL     OW23558   1.113  10.402   9.244  0.5361  0.7201  0.3593
40222SOL    HW123559   1.029  10.398   9.290  0.7826  1.0175  0.8511
40222SOL    HW223560   1.101  10.469   9.177  0.2009  0.3482  0.0418
40223SOL     OW23561   1.360   5.599   1.492 -0.0176 -0.0728 -0.8374
40223SOL    HW123562   1.337   5.662   1.424 -0.4548  0.8348  0.1266
40223SOL    HW223563   1.449   5.570   1.469  0.2301  0.9721 -1.2267
40224SOL     OW23564   2.886   5.230  10.728  0.0955 -0.0121 -0.1009
40224SOL    HW123565   2.927   5.247  10.643 -0.6424  0.3331 -0.3967
40224SOL    HW223566   2.934   5.155  10.763 -0.1109 -0.6685 -1.1827
40225SOL     OW23567   8.255   1.126   2.564 -0.1109 -0.1811 -0.3120
40225SOL    HW123568   8.196   1.087   2.499  0.1080  0.7717 -1.1029
40225SOL    HW223569   8.221   1.095   2.649 -0.9602 -0.6893 -0.8255
40226SOL     OW23570   8.137   3.613   5.533 -0.6078  0.0424  1.4053
40226SOL    HW123571   8.139   3.534   5.480 -0.6161  1.0458 -0.1531
40226SOL    HW223572   8.072   3.594   5.601 -1.3107 -0.9391  0.5012
40227SOL     OW23573   4.675   3.084   1.224 -0.1042 -0.0152 -0.2501
40227SOL    HW123574   4.605   3.036   1.268 -1.6122  2.1998 -0.0862
40227SOL    HW223575   4.707   3.023   1.158 -0.9158 -1.7620  0.9040
40228SOL     OW23576   6.033   9.158   0.247  0.1998  0.1266 -0.4725
40228SOL    HW123577   6.092   9.209   0.191 -0.4951  0.2310 -1.1298
40228SOL    HW223578   5.973   9.116   0.185  1.0023 -1.8316  0.0138
40229SOL     OW23579   7.048   7.441   2.542  0.4977 -0.2633  0.1232
40229SOL    HW123580   6.966   7.416   2.500 -1.4605 -1.2095  4.0682
40229SOL    HW223581   7.113   7.381   2.505 -0.9036 -0.6410 -1.8516
40230SOL     OW23582   2.116   4.313   1.120  0.2543 -0.3346 -0.2394
40230SOL    HW123583   2.113   4.400   1.082  0.5402 -0.2425 -0.0531
40230SOL    HW223584   2.041   4.311   1.180  1.4995  0.5680  1.4141
40231SOL     OW23585   6.334   6.097   8.764  0.7145 -0.2763 -0.2204
40231SOL    HW123586   6.310   6.148   8.841 -0.2002 -0.9993 -0.0088
40231SOL    HW223587   6.426   6.072   8.779  0.6681 -0.0681  0.4339
40232SOL     OW23588   3.638   1.397   0.047  0.5593 -0.3288  0.1447
40232SOL    HW123589   3.664   1.478   0.091  1.6416 -0.1371 -0.8073
40232SOL    HW223590   3.575   1.425  -0.019 -0.7451 -0.5653  1.2401
40233SOL     OW23591   1.682   1.780   8.112 -0.1634 -0.1357  0.1401
40233SOL    HW123592   1.604   1.834   8.099  1.5925  2.5276 -0.0377
40233SOL    HW223593   1.686   1.767   8.207 -0.9123 -0.4776  0.1322
40234SOL     OW23594   0.578   4.271   3.904  0.1400 -0.1099 -0.0075
40234SOL    HW123595   0.497   4.317   3.926 -3.2589 -4.6187 -1.3979
40234SOL    HW223596   0.604   4.307   3.820 -2.3203 -0.5027 -1.0217
40235SOL     OW23597   9.458   7.429   4.023 -0.1179  0.0549  0.2031
40235SOL    HW123598   9.527   7.363   4.026  0.3181  0.3734 -1.4597
40235SOL    HW223599   9.443   7.452   4.114  1.4440 -0.5642  0.6587
40236SOL     OW23600   8.714   4.290   2.348  0.0651  0.0812 -0.2672
40236SOL    HW123601   8.796   4.259   2.311  0.8741  3.2100 -1.4229
40236SOL    HW223602   8.662   4.318   2.273 -1.1850  0.1361  0.5706
40237SOL     OW23603   3.512   7.848   6.452 -0.4852  0.3209 -0.2070
40237SOL    HW123604   3.427   7.806   6.457 -1.7246  2.5756 -0.7752
40237SOL    HW223605   3.541   7.834   6.362 -0.9820  0.8092 -0.4494
40238SOL     OW23606   1.319   3.678   0.626  0.4572  0.2048 -0.1423
40238SOL    HW123607   1.255   3.716   0.566  0.8825 -0.7963 -1.2769
40238SOL    HW223608   1.269   3.613   0.676  0.6103 -0.8496 -1.2916
40239SOL     OW23609   9.602   2.193   8.704 -0.3625  0.5661 -0.1683
40239SOL    HW123610   9.632   2.245   8.630  4.7969  0.6294  1.5816
40239SOL    HW223611   9.618   2.247   8.781 -2.4360 -0.7269  1.2954
40240SOL     OW23612   4.070   5.844   8.411 -0.1437 -0.1950 -0.2211
40240SOL    HW123613   4.040   5.934   8.411 -0.8117 -0.4177 -0.2772
40240SOL    HW223614   3.991   5.791   8.425  0.5177 -0.6648  2.3574
40241SOL     OW23615  10.386   6.683   4.991 -0.3741 -0.1673  0.5918
40241SOL    HW123616  10.385   6.767   4.946 -2.5291 -1.3844 -1.9660
40241SOL    HW223617  10.361   6.703   5.081  0.5088  2.0303  0.4075
40242SOL     OW23618   6.859   2.004   7.663  0.4509 -0.3110 -0.4179
40242SOL    HW123619   6.915   1.950   7.719 -0.4953 -2.8821 -1.7859
40242SOL    HW223620   6.770   1.987   7.694  0.1554  1.0834 -0.4264
40243SOL     OW23621   5.285   6.104   4.928 -0.8755  0.2128 -0.0026
40243SOL    HW123622   5.291   6.074   5.018 -1.4357 -0.6256 -0.2374
40243SOL    HW223623   5.256   6.195   4.934 -1.9079 -0.1513  0.6323
40244SOL     OW23624   9.528  10.250   0.034 -0.6960 -0.6108  0.2249
40244SOL    HW123625   9.620  10.263   0.060 -0.3805  1.3997 -1.6405
40244SOL    HW223626   9.478  10.265   0.115  0.5650 -1.3016  1.1697
40245SOL     OW23627   0.801   8.032   3.151  0.0088  0.1918  0.3596
40245SOL    HW123628   0.794   8.125   3.175 -1.5729 -0.4721  2.8814
40245SOL    HW223629   0.711   8.002   3.142  0.5172 -0.7488 -2.2379
40246SOL     OW23630  10.050   1.945   8.695 -0.1862  0.1617 -0.6342
40246SOL    HW123631  10.009   1.950   8.782  0.1556  2.9801 -0.5521
40246SOL    HW223632  10.032   2.030   8.655  1.5407 -0.2754 -2.4771
40247SOL     OW23633   3.612   2.344   2.731  0.1305 -0.4293 -0.8651
40247SOL    HW123634   3.578   2.347   2.820 -0.6796 -2.0216 -1.0821
40247SOL    HW223635   3.534   2.334   2.676  0.5759  1.0277 -1.8119
40248SOL     OW23636   8.661  10.515   8.244  0.3498 -0.2507  0.1284
40248SOL    HW123637   8.664  10.568   8.323  0.0113 -0.9956  0.6581
40248SOL    HW223638   8.572  10.528   8.210  0.6870  0.5413 -0.4740
40249SOL     OW23639   9.703   5.412   3.984 -0.0322  0.1025  0.3909
40249SOL    HW123640   9.658   5.476   3.929 -1.0186 -1.3729 -0.5845
40249SOL    HW223641   9.657   5.330   3.968  0.6911 -0.7123  2.2124
40250SOL     OW23642   3.237   4.818   1.017 -0.3188 -0.1056  0.6660
40250SOL    HW123643   3.264   4.732   0.986  0.4401  0.4917 -0.4070
40250SOL    HW223644   3.315   4.873   1.006 -1.0234  0.9037  0.5434
40251SOL     OW23645   9.673   0.738   3.343  0.0213 -0.3767  0.1707
40251SOL    HW123646   9.674   0.666   3.407  0.5660 -1.0260 -0.5362
40251SOL    HW223647   9.593   0.724   3.293 -0.2198 -0.0825  0.4718
40252SOL     OW23648  10.029   7.993   9.866  0.4785 -0.1726  0.1369
40252SOL    HW123649  10.103   8.029   9.915 -0.0837  0.9682  0.1935
40252SOL    HW223650   9.954   8.042   9.899 -0.5210 -2.1541  0.9800
40253SOL     OW23651   5.090   9.100   4.672  0.1819 -0.0948  0.1051
40253SOL    HW123652   5.180   9.127   4.656  0.2596 -0.5071 -0.1631
40253SOL    HW223653   5.061   9.155   4.745  1.4254 -1.5854  1.8135
40254SOL     OW23654   9.073   5.066   0.552  0.0329  0.0969  0.1265
40254SOL    HW123655   9.130   5.052   0.476 -2.7591  1.2638 -2.3703
40254SOL    HW223656   9.065   4.979   0.592  1.2002 -0.6646 -1.1882
40255SOL     OW23657   0.241   8.864   0.473  0.0592  0.4102 -0.3460
40255SOL    HW123658   0.204   8.944   0.436  0.3672  0.5763 -0.3038
40255SOL    HW223659   0.185   8.842   0.547  0.7548  1.3607  0.5013
40256SOL     OW23660   9.984   9.279   7.242  0.5699 -0.2363 -0.2367
40256SOL    HW123661   9.916   9.292   7.308 -0.9695  0.7586 -1.9253
40256SOL    HW223662  10.026   9.366   7.234  0.1198 -0.0972 -1.1981
40257SOL     OW23663   9.959   8.231   6.190  0.3284 -0.4658  0.3844
40257SOL    HW123664  10.025   8.297   6.209 -1.3113  1.3379  0.1304
40257SOL    HW223665   9.896   8.238   6.261 -0.5477 -0.8633 -0.3333
40258SOL     OW23666   5.564   5.256  10.493  0.0751 -0.0001  0.1419
40258SOL    HW123667   5.494   5.291  10.547  0.8915 -1.4672  2.3057
40258SOL    HW223668   5.564   5.162  10.512  0.9289 -0.4661 -1.8718
40259SOL     OW23669   1.558   1.892   1.293  0.6865 -0.0842  0.7400
40259SOL    HW123670   1.637   1.906   1.345  0.6631  2.6477  0.1949
40259SOL    HW223671   1.490   1.872   1.357  1.1138  1.0826  1.6075
40260SOL     OW23672   5.243   2.235   5.548 -0.1565 -0.3815 -0.2541
40260SOL    HW123673   5.174   2.197   5.603 -1.8120  0.1715 -1.8331
40260SOL    HW223674   5.239   2.329   5.566  0.7237 -0.4260  0.2058
40261SOL     OW23675   2.262   1.772   2.529 -0.4335  0.0126 -0.7016
40261SOL    HW123676   2.222   1.746   2.612  0.7897  0.1569 -0.0422
40261SOL    HW223677   2.301   1.692   2.494 -1.5721 -0.2111 -1.5327
40262SOL     OW23678   1.221   8.313   9.369  0.3730  0.5786  0.3608
40262SOL    HW123679   1.252   8.391   9.324 -0.0341  1.4844  1.6155
40262SOL    HW223680   1.126   8.321   9.368  0.0839 -1.5119 -2.2687
40263SOL     OW23681  10.355   7.851   5.152 -0.0749 -1.0117 -0.2998
40263SOL    HW123682  10.395   7.783   5.207 -0.4008 -0.1151  1.1085
40263SOL    HW223683  10.261   7.842   5.169 -0.1880 -0.7870 -0.8026
40264SOL     OW23684   5.949   0.021   7.279  0.6107 -0.2323 -0.2348
40264SOL    HW123685   6.016   0.054   7.219  1.7559 -2.0105 -0.0105
40264SOL    HW223686   5.954   0.079   7.355  1.3060  0.1727 -0.5783
40265SOL     OW23687   5.122   9.498   8.161 -0.3979 -0.6016  0.0396
40265SOL    HW123688   5.138   9.404   8.157  1.5440 -0.3471  0.5890
40265SOL    HW223689   5.079   9.511   8.245  1.1311 -0.8300  0.9029
40266SOL     OW23690  10.256   6.724   1.834  0.5778 -0.1200 -0.2449
40266SOL    HW123691  10.288   6.801   1.787 -0.7608  0.4789 -0.2353
40266SOL    HW223692  10.312   6.718   1.912 -0.2288  1.7643  0.5368
40267SOL     OW23693   7.878   3.259   1.043  0.5021 -0.2387  0.0787
40267SOL    HW123694   7.815   3.264   1.115  0.1019 -1.7643 -0.1322
40267SOL    HW223695   7.883   3.348   1.009  1.3983  0.7681  2.5569
40268SOL     OW23696   2.877  10.720   7.192 -0.3359  0.2359 -0.0078
40268SOL    HW123697   2.967  10.751   7.194 -0.3437  0.2777 -0.3392
40268SOL    HW223698   2.883  10.627   7.171 -0.3308  0.0824  0.6630
40269SOL     OW23699   1.290   3.006   8.359 -0.1059  0.5311 -0.4400
40269SOL    HW123700   1.327   3.086   8.323  0.7710  0.2635 -0.1510
40269SOL    HW223701   1.348   2.937   8.330  0.6669  0.3051  1.4760
40270SOL     OW23702   8.610   7.624  10.463 -0.5634 -0.3226  0.0953
40270SOL    HW123703   8.557   7.686  10.412 -0.0175  1.1634  1.2379
40270SOL    HW223704   8.689   7.611  10.410  0.5049  2.0822  0.9275
40271SOL     OW23705   7.910   4.557   7.141  0.4219 -0.0240  0.5905
40271SOL    HW123706   7.926   4.464   7.123  1.1041  0.6632 -3.0841
40271SOL    HW223707   7.818   4.560   7.167 -0.5708 -1.4790 -2.3340
40272SOL     OW23708  10.303   1.073   7.916 -0.7951 -0.1304 -0.1257
40272SOL    HW123709  10.213   1.044   7.931 -0.6548 -0.7939 -0.5052
40272SOL    HW223710  10.297   1.131   7.840 -0.8877 -0.2709 -0.2263
40273SOL     OW23711   9.010   2.461   7.184 -0.1901 -0.1453  0.6386
40273SOL    HW123712   9.063   2.436   7.108 -0.6097 -1.7282  0.8425
40273SOL    HW223713   8.925   2.486   7.147  0.1699  0.8550  0.4515
40274SOL     OW23714   1.782   4.800   6.927  0.1837  0.2011 -0.1213
40274SOL    HW123715   1.830   4.836   6.853 -0.5189  2.3322  0.3773
40274SOL    HW223716   1.821   4.842   7.004  1.1588 -2.2510  0.8189
40275SOL     OW23717   9.619   5.170   7.020 -0.0755  0.1518  0.3607
40275SOL    HW123718   9.681   5.105   6.986 -1.3297 -0.1547 -1.4858
40275SOL    HW223719   9.674   5.233   7.067  1.3558 -1.3371  0.7840
40276SOL     OW23720   7.649   4.762   9.828  0.5460  0.3675 -0.1895
40276SOL    HW123721   7.692   4.727   9.750 -1.1867  0.5309 -1.2777
40276SOL    HW223722   7.557   4.772   9.802 -0.4018 -0.8987  2.2965
40277SOL     OW23723   9.748   7.373   5.662 -0.1282  0.4786 -0.1527
40277SOL    HW123724   9.837   7.406   5.647  0.6737 -0.8802  1.3204
40277SOL    HW223725   9.694   7.452   5.667  1.1949  1.4071  0.1871
40278SOL     OW23726  10.018   3.203   7.667  0.3712 -0.2788  0.5579
40278SOL    HW123727  10.001   3.204   7.573  0.5934  1.3382  0.5167
40278SOL    HW223728  10.048   3.114   7.685 -1.3106 -1.1319 -0.5906
40279SOL     OW23729   0.239   4.287   5.482  0.3118  0.0714  0.6958
40279SOL    HW123730   0.314   4.345   5.498  0.0385  0.7565 -0.4208
40279SOL    HW223731   0.268   4.228   5.413 -0.3730  0.7702 -0.2193
40280SOL     OW23732   7.884   2.156   1.805 -0.3244 -0.2767  0.3116
40280SOL    HW123733   7.907   2.219   1.736  0.4044 -0.1003  0.7165
40280SOL    HW223734   7.789   2.166   1.814 -0.5942 -0.9398 -1.2857
40281SOL     OW23735   0.743   6.893   6.091  0.0848 -0.6682  0.4904
40281SOL    HW123736   0.834   6.914   6.114  0.7487 -2.0641 -0.7167
40281SOL    HW223737   0.744   6.882   5.996 -1.0774 -1.9263  0.5896
40282SOL     OW23738   5.710   3.393   4.983 -0.0484 -0.2137  0.0973
40282SOL    HW123739   5.760   3.317   4.952 -0.1967  0.3033 -1.5288
40282SOL    HW223740   5.642   3.355   5.039 -0.2410 -1.3216 -0.8380
40283SOL     OW23741  10.085   7.770   8.641 -0.1443 -0.6376  0.1537
40283SOL    HW123742  10.029   7.830   8.690 -0.0919  0.0783 -0.6407
40283SOL    HW223743  10.166   7.819   8.626 -1.0299  0.1267 -2.7177
40284SOL     OW23744   8.296   0.826   9.879  0.1274 -0.1178 -1.2012
40284SOL    HW123745   8.204   0.851   9.881  0.7149  2.4238  1.5902
40284SOL    HW223746   8.331   0.871   9.803 -0.2568  2.2058 -0.0951
40285SOL     OW23747   1.775   0.426   9.455  0.2762  0.2831 -0.2309
40285SOL    HW123748   1.701   0.485   9.443  0.5207  0.2958 -1.8993
40285SOL    HW223749   1.799   0.400   9.366  0.7235 -1.6520  0.4226
40286SOL     OW23750   1.293   0.542   5.066  0.5619 -0.3153  0.0890
40286SOL    HW123751   1.297   0.452   5.097 -0.0894 -0.1686  0.6258
40286SOL    HW223752   1.202   0.567   5.080  0.4002 -0.0259 -1.3273
40287SOL     OW23753   2.202   3.903   8.036  0.0643 -0.0550  0.5293
40287SOL    HW123754   2.157   3.963   8.097  0.5831  1.7045 -0.7347
40287SOL    HW223755   2.131   3.865   7.984 -0.1395  2.4432 -1.2217
40288SOL     OW23756   6.046   8.791   1.595 -0.0001  0.0453  0.4105
40288SOL    HW123757   6.128   8.772   1.642  0.4326 -0.0457 -0.3629
40288SOL    HW223758   6.047   8.732   1.520 -0.2492  0.7886 -0.1947
40289SOL     OW23759   8.715   9.704   5.818 -0.3622 -0.0843  0.4826
40289SOL    HW123760   8.769   9.689   5.897  0.9366 -0.0023 -0.3566
40289SOL    HW223761   8.747   9.788   5.783  0.3424 -0.9662 -1.0934
40290SOL     OW23762   8.566   3.528   0.780  0.0805  0.0061 -0.3716
40290SOL    HW123763   8.544   3.468   0.851  0.7096  0.2851  0.0676
40290SOL    HW223764   8.481   3.552   0.742 -0.1341 -1.9437 -1.2292
40291SOL     OW23765   7.868   6.317   0.549  0.4465 -0.2883 -0.6691
40291SOL    HW123766   7.837   6.377   0.616  0.6839  0.7264 -1.4448
40291SOL    HW223767   7.962   6.309   0.565  0.3474 -0.7737 -0.3219
40292SOL     OW23768   7.140   1.477   4.455 -0.1608 -0.4421  0.3076
40292SOL    HW123769   7.223   1.434   4.439  0.8486  0.8913  1.7151
40292SOL    HW223770   7.140   1.553   4.396 -0.1272 -0.1329  0.7028
40293SOL     OW23771  10.043   2.652   9.633 -0.1173 -0.1160 -0.1604
40293SOL    HW123772  10.032   2.745   9.650 -0.2870  0.0778 -1.2773
40293SOL    HW223773  10.137   2.640   9.625 -0.1669  0.2748 -1.6092
40294SOL     OW23774  10.354   6.267   2.344  0.3190  0.4685 -0.7364
40294SOL    HW123775  10.391   6.217   2.270 -0.0939 -0.6424 -0.2205
40294SOL    HW223776  10.428   6.316   2.379  1.0360 -0.6771 -0.5623
40295SOL     OW23777   7.825   2.751  10.615  0.1332 -0.7066  0.8047
40295SOL    HW123778   7.902   2.710  10.654  1.4078  0.6813 -0.1143
40295SOL    HW223779   7.830   2.728  10.522 -1.7154 -2.2572  1.0211
40296SOL     OW23780   1.740   8.092   5.338 -0.1133  0.4210 -0.0362
40296SOL    HW123781   1.790   8.061   5.413  1.6037  1.9355 -0.4704
40296SOL    HW223782   1.720   8.184   5.359 -0.2846  0.6369 -1.0913
40297SOL     OW23783   6.664   7.195   2.595  0.6469 -0.1057 -0.1584
40297SOL    HW123784   6.736   7.133   2.589 -0.3389 -1.1937 -1.2564
40297SOL    HW223785   6.604   7.170   2.524 -1.0470  0.4573  0.9908
40298SOL     OW23786   6.413   1.260   4.758 -0.2299 -0.3557  0.2027
40298SOL    HW123787   6.437   1.219   4.841  2.3693 -0.4174 -0.4853
40298SOL    HW223788   6.478   1.228   4.695 -2.6470 -1.0718 -2.1463
40299SOL     OW23789   8.340   7.721   6.516  0.6306  0.5813 -0.2344
40299SOL    HW123790   8.397   7.707   6.440  1.5196  1.5831  0.2152
40299SOL    HW223791   8.400   7.721   6.591 -0.3231 -1.2978  0.6114
40300SOL     OW23792   9.125   3.317   2.898 -0.2784  0.1586 -0.3588
40300SOL    HW123793   9.065   3.279   2.963 -0.5397  1.2667  0.0592
40300SOL    HW223794   9.209   3.274   2.917 -0.3752  0.3720  0.6493
40301SOL     OW23795   6.393   3.566   1.693 -0.2965 -0.1168  0.0728
40301SOL    HW123796   6.395   3.613   1.610 -0.4979 -0.9209 -0.3948
40301SOL    HW223797   6.431   3.628   1.756  1.1441  0.0121 -0.8625
40302SOL     OW23798   6.667   5.631   6.598 -0.2082  0.2391 -0.1031
40302SOL    HW123799   6.586   5.587   6.623 -0.0074 -0.2071 -0.2278
40302SOL    HW223800   6.641   5.691   6.528 -0.6517  1.0110  0.7203
40303SOL     OW23801  10.714   5.788   3.668  0.2424  0.2137 -0.8964
40303SOL    HW123802  10.700   5.710   3.723 -1.9485  1.4880  0.5016
40303SOL    HW223803  10.647   5.781   3.600  0.6196  0.4422 -1.2904
40304SOL     OW23804   7.074   4.860   9.312 -0.0446  0.6302 -0.1651
40304SOL    HW123805   7.092   4.895   9.225 -3.4905  1.1984 -0.7934
40304SOL    HW223806   7.053   4.768   9.297  0.4963  0.4288  0.2721
40305SOL     OW23807   4.500   8.570   1.270 -1.4788 -0.3722  0.3136
40305SOL    HW123808   4.506   8.567   1.175  0.2300 -1.0471  0.4082
40305SOL    HW223809   4.406   8.578   1.288 -1.8050  0.1485 -1.4158
40306SOL     OW23810   6.278   8.059   3.303 -0.6245  0.2002 -0.3418
40306SOL    HW123811   6.332   8.084   3.378  1.6477 -3.4429 -0.5109
40306SOL    HW223812   6.318   8.105   3.229 -1.9719  2.6522  0.3533
40307SOL     OW23813   4.899   1.349   8.194  0.2785  0.1319  0.0627
40307SOL    HW123814   4.804   1.358   8.203  0.6423  3.2640  3.9462
40307SOL    HW223815   4.927   1.306   8.275  2.3042  1.9060  0.4030
40308SOL     OW23816   3.440   5.993   4.614 -0.5892  0.3535  0.1371
40308SOL    HW123817   3.359   6.034   4.643 -0.6742  0.5226 -0.3382
40308SOL    HW223818   3.412   5.923   4.555 -0.4375 -0.2930  0.8139
40309SOL     OW23819   2.191   6.980   5.853  0.2883 -0.0920  0.5202
40309SOL    HW123820   2.192   7.052   5.917 -1.9977  0.2129  0.3111
40309SOL    HW223821   2.188   6.901   5.907  0.3595  0.0730  0.7716
40310SOL     OW23822   9.087  10.105   5.361  0.2333  0.0038  0.3681
40310SOL    HW123823   9.030  10.032   5.334  0.1729  0.3643 -0.5075
40310SOL    HW223824   9.150  10.113   5.289  1.1456 -0.1233  1.1448
40311SOL     OW23825   9.921   9.787   4.653 -1.0377 -0.1323  0.1702
40311SOL    HW123826   9.953   9.837   4.579  0.4301  0.5704  1.2228
40311SOL    HW223827   9.995   9.784   4.714 -1.4327 -2.6224  0.6507
40312SOL     OW23828   2.792   6.418   9.904  0.2970 -1.0457 -0.1960
40312SOL    HW123829   2.783   6.455   9.991 -0.2836 -1.1620 -0.2064
40312SOL    HW223830   2.850   6.342   9.915  0.0067 -1.2203  0.1337
40313SOL     OW23831   3.221   6.861   1.368 -0.0183  0.3646  0.5893
40313SOL    HW123832   3.297   6.805   1.380  0.0077  0.6639  1.9467
40313SOL    HW223833   3.256   6.950   1.367 -0.3797  0.5425  1.8294
40314SOL     OW23834   1.130   8.261   3.654 -0.3073  0.0363  0.0357
40314SOL    HW123835   1.044   8.257   3.695 -1.3296  0.5695 -1.9136
40314SOL    HW223836   1.129   8.343   3.604  1.5578  0.3363  0.4232
40315SOL     OW23837   8.362   9.419   5.941 -0.4214  0.3634 -0.2483
40315SOL    HW123838   8.276   9.450   5.913  0.3374  3.9808  0.9465
40315SOL    HW223839   8.415   9.421   5.861 -1.2843 -1.5917 -0.9244
40316SOL     OW23840   3.452   8.582   3.220  0.1424  0.2618 -0.7198
40316SOL    HW123841   3.417   8.671   3.219  0.5919  0.4415 -1.7326
40316SOL    HW223842   3.497   8.573   3.135  0.4105 -0.8018 -0.4774
40317SOL     OW23843   5.076   1.860   8.581 -0.3107  0.0224 -0.2174
40317SOL    HW123844   4.984   1.835   8.576 -0.5781 -0.0362  2.8719
40317SOL    HW223845   5.124   1.780   8.560 -1.0712 -1.0403  1.7924
40318SOL     OW23846  10.720  10.357   5.082  0.4885 -0.2792  0.1563
40318SOL    HW123847  10.711  10.412   5.159  0.4335 -0.4393  0.2643
40318SOL    HW223848  10.735  10.269   5.117  2.0322 -0.1045 -0.0053
40319SOL     OW23849   7.969   8.088   3.713  0.3520 -0.2096  0.3585
40319SOL    HW123850   7.955   8.163   3.655  1.7513 -0.0361  0.2217
40319SOL    HW223851   7.884   8.043   3.715 -0.3549  1.0602  0.0137
40320SOL     OW23852   6.392   3.907   0.298  0.2718 -0.0059  0.0349
40320SOL    HW123853   6.417   3.817   0.318 -1.5132 -0.6378 -0.3680
40320SOL    HW223854   6.322   3.927   0.360 -0.2408  0.6230 -0.7184
40321SOL     OW23855  10.074   7.199   1.795  0.2549  0.0855 -0.1478
40321SOL    HW123856  10.145   7.143   1.764  1.0267  1.5500 -1.1615
40321SOL    HW223857  10.009   7.139   1.831  0.3175 -1.6077 -2.6449
40322SOL     OW23858   3.317   2.572  10.018  0.1447  0.5608 -0.2119
40322SOL    HW123859   3.398   2.554   9.970  0.3569 -0.0126  0.3521
40322SOL    HW223860   3.295   2.663   9.995  1.4083  1.0127  0.3082
40323SOL     OW23861   0.680   4.924   0.869  0.0701 -0.5392 -0.0551
40323SOL    HW123862   0.772   4.949   0.880  0.0962 -0.7423  0.2065
40323SOL    HW223863   0.656   4.958   0.783  0.3564 -0.3821 -0.0744
40324SOL     OW23864   1.565  10.297   1.410 -0.0537  0.7769 -0.4852
40324SOL    HW123865   1.604  10.307   1.323 -0.2035 -0.1480 -0.6687
40324SOL    HW223866   1.615  10.227   1.451 -0.7003  0.4427 -0.2504
40325SOL     OW23867   9.538   5.582   4.764  0.0353  0.0954  0.5625
40325SOL    HW123868   9.627   5.617   4.763  0.8578 -1.3465 -3.8196
40325SOL    HW223869   9.495   5.624   4.689 -1.3957 -2.5178 -0.2055
40326SOL     OW23870   2.191   7.114  10.424  0.1008 -0.0088  0.1391
40326SOL    HW123871   2.251   7.181  10.390 -0.4244 -0.1104 -1.0305
40326SOL    HW223872   2.167   7.145  10.511  1.7939  0.0642  0.6212
40327SOL     OW23873   0.276   3.788   5.916  0.4440  0.5696  0.2690
40327SOL    HW123874   0.208   3.723   5.899 -0.4332  1.3614  0.6779
40327SOL    HW223875   0.312   3.808   5.830 -0.4306  0.7683 -0.0625
40328SOL     OW23876   1.193   8.861   0.064 -0.1657  0.1508 -0.6742
40328SOL    HW123877   1.144   8.935   0.099  0.7021  0.0045  0.9398
40328SOL    HW223878   1.237   8.823   0.140  1.6664 -0.3125 -1.8934
40329SOL     OW23879   1.430   1.326   5.928  0.6434  0.1815  0.0820
40329SOL    HW123880   1.416   1.420   5.932  0.7681  0.2011  0.0542
40329SOL    HW223881   1.377   1.291   5.999 -0.7516  0.1103 -0.9541
40330SOL     OW23882   8.716   6.069   2.317  0.1005 -0.7487 -0.2363
40330SOL    HW123883   8.731   5.992   2.372  0.8598 -0.4744 -0.0482
40330SOL    HW223884   8.632   6.052   2.274 -0.8251 -0.6922  1.4646
40331SOL     OW23885   8.682   2.312   9.312 -0.2475 -0.8055  0.0171
40331SOL    HW123886   8.696   2.325   9.405 -3.0493 -1.7424  0.6781
40331SOL    HW223887   8.741   2.241   9.288  1.5361  0.3837  0.6884
40332SOL     OW23888   1.016   7.263   1.097 -0.1269 -0.1937  0.5629
40332SOL    HW123889   0.933   7.280   1.143 -0.6340  1.5580 -0.8577
40332SOL    HW223890   0.991   7.258   1.005  1.1201 -1.6689  0.2788
40333SOL     OW23891   8.133   3.087   4.939  0.3768  0.0186  0.2292
40333SOL    HW123892   8.091   3.122   4.861  0.0003 -2.0099 -0.5472
40333SOL    HW223893   8.224   3.118   4.935  0.3707 -0.1105 -1.0551
40334SOL     OW23894   3.820   8.993   1.893 -0.1274 -0.4521 -0.0935
40334SOL    HW123895   3.828   8.982   1.798 -0.3568 -0.6529 -0.0911
40334SOL    HW223896   3.761   9.068   1.903 -1.7989 -1.7055 -0.1229
40335SOL     OW23897   0.912   3.040   6.068  0.7694 -0.0630  0.8625
40335SOL    HW123898   0.853   2.965   6.064  0.3544  0.2170  1.5663
40335SOL    HW223899   0.911   3.067   6.160  1.4046  0.4139  0.7379
40336SOL     OW23900   3.099   7.173   4.861  0.0082 -0.3079 -0.7166
40336SOL    HW123901   3.072   7.082   4.853  1.9377 -1.0582  0.5416
40336SOL    HW223902   3.108   7.187   4.956 -0.5007  1.2736 -0.8737
40337SOL     OW23903   1.773   9.375   8.372  0.3828 -0.0899 -0.2580
40337SOL    HW123904   1.763   9.442   8.304 -2.1037  0.8790  0.9370
40337SOL    HW223905   1.709   9.308   8.349  0.1032 -0.1427  0.6402
40338SOL     OW23906   4.227   4.419   4.416  0.1251 -0.5150  0.2390
40338SOL    HW123907   4.262   4.498   4.374  0.4914  0.0150  1.4774
40338SOL    HW223908   4.243   4.433   4.510 -0.4371 -1.7565  0.5418
40339SOL     OW23909  10.053   4.546   2.011 -0.5295 -0.3434  0.3643
40339SOL    HW123910  10.125   4.483   2.008 -0.5039 -0.3216  0.5069
40339SOL    HW223911  10.002   4.519   2.088  0.6067  1.0408  1.6572
40340SOL     OW23912   9.692   0.034   5.539 -0.2914 -0.1443 -0.2859
40340SOL    HW123913   9.713   0.045   5.631 -0.8553  1.3432 -0.3068
40340SOL    HW223914   9.596   0.030   5.537 -0.3235  0.6440 -0.8649
40341SOL     OW23915   3.501   2.405   1.258 -0.2069 -0.3225  0.1629
40341SOL    HW123916   3.440   2.335   1.236 -0.4488 -0.4653  1.2428
40341SOL    HW223917   3.569   2.400   1.190  0.0632 -1.9449  0.5203
40342SOL     OW23918   9.777   5.747   4.688  0.1333 -0.1170 -0.2267
40342SOL    HW123919   9.734   5.832   4.677 -1.1411 -0.5391  1.1578
40342SOL    HW223920   9.748   5.695   4.612 -2.5287 -0.6394  1.0381
40343SOL     OW23921   9.823   2.874   8.324 -0.6132  0.2738  0.3720
40343SOL    HW123922   9.803   2.938   8.256 -0.3540  1.9471  1.7981
40343SOL    HW223923   9.861   2.800   8.277 -0.9448  1.1563 -1.3452
40344SOL     OW23924   8.566   4.848   9.645  0.2137 -0.2176  0.8656
40344SOL    HW123925   8.615   4.766   9.654  0.6476 -0.2377 -1.2026
40344SOL    HW223926   8.604   4.890   9.568 -1.7434  0.6731  0.3291
40345SOL     OW23927   0.271   3.909   6.183  0.0560 -0.0797 -0.0725
40345SOL    HW123928   0.198   3.971   6.181 -1.7628 -2.0782 -0.1990
40345SOL    HW223929   0.281   3.881   6.092  0.7844 -0.0451 -0.0061
40346SOL     OW23930   1.066   2.893   5.148  0.1626  0.0334  0.3550
40346SOL    HW123931   0.972   2.911   5.154  0.2726  0.5564  0.6014
40346SOL    HW223932   1.079   2.811   5.195 -0.0273  0.4857  1.2170
40347SOL     OW23933   8.136   6.653   6.521  0.2351  0.0782 -0.4056
40347SOL    HW123934   8.202   6.586   6.501 -1.7241 -1.9555 -0.4267
40347SOL    HW223935   8.120   6.696   6.438 -0.0522 -0.9638 -0.9145
40348SOL     OW23936   1.761  10.440   7.356 -0.2340  0.1870  0.0634
40348SOL    HW123937   1.685  10.479   7.399  0.0272 -0.9228  1.6146
40348SOL    HW223938   1.756  10.347   7.376  0.0142 -0.3978 -2.2299
40349SOL     OW23939   3.194   7.551   6.971 -0.5601 -0.1130  0.4272
40349SOL    HW123940   3.159   7.547   7.060 -1.3138  0.9860  0.1920
40349SOL    HW223941   3.170   7.467   6.933 -0.2911 -0.5710  1.2323
40350SOL     OW23942   4.907   1.015   8.815 -1.0955 -0.4183 -0.2189
40350SOL    HW123943   4.823   0.979   8.841 -0.8647 -1.4864 -0.9278
40350SOL    HW223944   4.939   1.060   8.894 -1.9435 -0.7088  0.3002
40351SOL     OW23945  10.389  10.698  10.769  0.1489  0.2298  0.0055
40351SOL    HW123946  10.421  10.648  10.844 -0.4862 -0.8885 -0.4398
40351SOL    HW223947  10.344  10.772  10.809  3.2053  1.9056  0.6470
40352SOL     OW23948   7.551   2.284   0.337 -0.0264  0.4017 -0.3035
40352SOL    HW123949   7.500   2.272   0.257  1.7897 -0.5644 -1.3960
40352SOL    HW223950   7.540   2.202   0.385  0.8041 -0.0103 -0.7762
40353SOL     OW23951   3.994   4.257   7.605  0.1056  0.9330 -0.7734
40353SOL    HW123952   4.015   4.224   7.518 -1.6895  0.6387 -1.1522
40353SOL    HW223953   4.019   4.187   7.665 -0.8125  0.1499 -1.2873
40354SOL     OW23954   0.891   9.636   3.591  0.1945  0.5395 -0.1366
40354SOL    HW123955   0.953   9.615   3.661  0.9170  1.6040 -0.4284
40354SOL    HW223956   0.942   9.627   3.510 -0.1057  1.1112 -0.3997
40355SOL     OW23957   2.233   7.631   0.261 -0.5069 -0.3438  0.6336
40355SOL    HW123958   2.286   7.552   0.254  0.0140  0.0534 -0.0480
40355SOL    HW223959   2.240   7.672   0.175  0.6180  1.3363  1.4788
40356SOL     OW23960   4.703   9.220   0.681  0.4457  0.0524 -0.0902
40356SOL    HW123961   4.730   9.244   0.592  4.3957  0.3976  1.0485
40356SOL    HW223962   4.627   9.276   0.698  0.7526  1.3747 -2.5217
40357SOL     OW23963   1.555   2.526   7.558 -0.2909  0.2160 -0.5135
40357SOL    HW123964   1.649   2.527   7.542  0.1467  1.5715  1.7350
40357SOL    HW223965   1.517   2.569   7.481  0.9746  0.3676 -1.0744
40358SOL     OW23966   6.949   9.680   8.260 -0.2998  0.0692 -0.1689
40358SOL    HW123967   6.954   9.585   8.259 -0.6583  0.0535 -0.4635
40358SOL    HW223968   6.861   9.700   8.230 -0.3021  0.4878  0.1118
40359SOL     OW23969   6.361   3.957   6.705  0.4090 -0.5325  0.1598
40359SOL    HW123970   6.350   4.023   6.772  0.3616 -0.2147 -0.1594
40359SOL    HW223971   6.299   3.888   6.729  0.8771 -0.7358  0.8236
40360SOL     OW23972   9.662   4.060   9.842  0.1355  0.0853  0.2659
40360SOL    HW123973   9.632   3.978   9.881 -0.8974  0.3682  0.1030
40360SOL    HW223974   9.582   4.100   9.806  1.1275 -0.5621 -2.9589
40361SOL     OW23975   7.979   2.494   1.914 -0.0983  0.0763 -0.3400
40361SOL    HW123976   8.058   2.524   1.959 -0.1353 -2.4385  1.6598
40361SOL    HW223977   8.012   2.438   1.843  0.0084 -1.4404  0.8463
40362SOL     OW23978   0.474   5.117   9.834  0.0097 -0.9235 -0.6285
40362SOL    HW123979   0.505   5.055   9.900 -0.5735 -2.2152 -1.5031
40362SOL    HW223980   0.553   5.157   9.799  0.2847  0.6775  1.6155
40363SOL     OW23981   2.228   3.543   7.192  0.0171  0.2063  0.1944
40363SOL    HW123982   2.295   3.476   7.180  0.0413 -0.1551  2.0489
40363SOL    HW223983   2.267   3.623   7.159  0.7489 -0.3168 -0.2173
40364SOL     OW23984   1.488   3.628   5.661  0.9809  0.1000 -0.4803
40364SOL    HW123985   1.519   3.547   5.700  1.5033  0.8007  0.6040
40364SOL    HW223986   1.529   3.697   5.713  0.2707  1.0614 -1.1595
40365SOL     OW23987   1.022   6.577   8.717  0.6578  0.6264  0.1349
40365SOL    HW123988   0.971   6.658   8.709  1.4240  1.0453 -0.6632
40365SOL    HW223989   0.964   6.508   8.684  0.6268  1.1114 -0.8450
40366SOL     OW23990   0.818   2.186   6.268 -0.1320  0.1760 -0.6949
40366SOL    HW123991   0.746   2.243   6.241  0.5545  0.9132 -1.0171
40366SOL    HW223992   0.892   2.245   6.280  0.7012 -0.6795 -1.4122
40367SOL     OW23993   9.807   9.209   5.005 -0.5950  0.2942 -0.1132
40367SOL    HW123994   9.739   9.143   4.995 -0.2376 -0.2887  1.1630
40367SOL    HW223995   9.875   9.166   5.056 -0.5270  1.7574  1.0815
40368SOL     OW23996   0.107   2.798   8.321 -0.1894  0.3227 -0.0691
40368SOL    HW123997   0.167   2.737   8.365 -1.3284 -0.4929  0.4100
40368SOL    HW223998   0.121   2.781   8.228  0.4824  0.3022  0.0296
40369SOL     OW23999   4.179   7.801   5.492  0.6399  0.2322  0.4307
40369SOL    HW124000   4.149   7.829   5.578 -1.7466  0.8866 -0.5259
40369SOL    HW224001   4.199   7.883   5.446  1.5830 -0.0911  0.2518
40370SOL     OW24002   8.211  10.036   6.158  0.9565 -0.5719 -0.0405
40370SOL    HW124003   8.225   9.946   6.128  0.5745 -0.5039 -0.4447
40370SOL    HW224004   8.127  10.061   6.118  0.8824 -0.1656  0.3676
40371SOL     OW24005   8.545   4.845   1.907 -0.7289 -0.4096  0.1014
40371SOL    HW124006   8.464   4.795   1.917 -1.5899  0.9480  0.1717
40371SOL    HW224007   8.523   4.914   1.844 -0.2939  1.2774  1.7149
40372SOL     OW24008   6.235  10.020   0.977  0.4511 -0.2590  0.1883
40372SOL    HW124009   6.235  10.116   0.973 -0.0538 -0.1279  2.2134
40372SOL    HW224010   6.143   9.995   0.965  0.6083 -0.5167 -0.5281
40373SOL     OW24011   3.348   8.991   2.490 -0.7586 -0.1293 -0.2281
40373SOL    HW124012   3.418   9.024   2.433 -0.4997 -1.4446 -0.7091
40373SOL    HW224013   3.386   8.914   2.532 -1.8633 -0.7826 -0.3893
40374SOL     OW24014   6.323  10.338   6.825  0.7507 -0.0878 -0.1281
40374SOL    HW124015   6.330  10.255   6.871  2.4591  0.0882  0.0083
40374SOL    HW224016   6.272  10.318   6.746 -0.7364 -0.7533  0.9662
40375SOL     OW24017   0.014   8.723   0.949  0.2140 -0.2811 -0.4562
40375SOL    HW124018   0.074   8.660   0.908 -0.0387 -0.9856  0.2265
40375SOL    HW224019   0.018   8.703   1.042 -0.7517 -0.0572 -0.3538
40376SOL     OW24020   8.265   7.840   3.064  0.1720  0.7592 -0.1012
40376SOL    HW124021   8.186   7.880   3.027  0.2010  1.2184  0.3240
40376SOL    HW224022   8.237   7.804   3.148  0.2900  0.4259 -0.2023
40377SOL     OW24023   8.220   4.613   2.132 -0.1046  0.1808 -0.1796
40377SOL    HW124024   8.278   4.606   2.057 -0.8995  0.3264 -0.8159
40377SOL    HW224025   8.171   4.531   2.132  0.5082 -0.2036  0.7149
40378SOL     OW24026   6.949   0.248   9.441 -0.0588 -1.1375 -0.1164
40378SOL    HW124027   6.899   0.170   9.464  0.7825 -1.3127  1.2472
40378SOL    HW224028   6.928   0.312   9.509 -0.9707 -0.0244 -1.3765
40379SOL     OW24029   4.948   8.240   4.055  1.0812 -0.0167  0.4071
40379SOL    HW124030   4.927   8.204   3.969  1.7426 -0.2267  0.3302
40379SOL    HW224031   4.966   8.163   4.110 -0.3808  0.0517  1.0314
40380SOL     OW24032   4.101   7.488   3.758 -0.4687 -0.9119  0.0782
40380SOL    HW124033   4.052   7.409   3.735 -0.1393 -1.0795 -0.0609
40380SOL    HW224034   4.096   7.543   3.680  1.1559 -1.7340 -0.6477
40381SOL     OW24035   4.992   5.701   8.889  0.2168 -0.0045  0.7172
40381SOL    HW124036   4.931   5.696   8.816 -0.4057 -1.8027  1.3119
40381SOL    HW224037   5.078   5.714   8.849  0.2184 -3.1650 -0.5210
40382SOL     OW24038   3.349   4.449   8.292  0.0465  0.9273  0.6486
40382SOL    HW124039   3.356   4.516   8.224  2.3342 -0.7199 -0.9270
40382SOL    HW224040   3.261   4.413   8.282 -0.2312  1.8402 -0.3444
40383SOL     OW24041   0.570   1.093   8.227  0.2483  0.1392  0.1220
40383SOL    HW124042   0.570   1.054   8.140  0.7993  1.2237 -0.3776
40383SOL    HW224043   0.637   1.044   8.275  1.1599  0.6284 -0.5981
40384SOL     OW24044   1.153   0.186   5.927  0.0513  0.6143 -0.0154
40384SOL    HW124045   1.078   0.199   5.985 -1.4854 -1.2550 -1.4424
40384SOL    HW224046   1.153   0.092   5.908  2.1534  0.7267 -0.9106
40385SOL     OW24047   6.679   2.171   3.644  0.0200 -0.0316  0.2516
40385SOL    HW124048   6.711   2.227   3.715  0.0252 -0.3911  0.5371
40385SOL    HW224049   6.727   2.200   3.567  3.2448 -2.3552  1.1221
40386SOL     OW24050   3.025   5.270   0.578 -0.1830  0.3344  0.2884
40386SOL    HW124051   3.023   5.350   0.630  0.0123 -0.9592  2.4205
40386SOL    HW224052   2.949   5.220   0.608 -0.0964 -0.4440 -0.7373
40387SOL     OW24053   5.006   7.725   5.450  0.0018  0.2476  0.5550
40387SOL    HW124054   4.993   7.722   5.355 -0.8420  1.4933  0.6107
40387SOL    HW224055   5.100   7.713   5.462 -0.0378 -1.1543 -0.3551
40388SOL     OW24056   3.705   0.345   3.705 -0.1012 -0.4499 -0.6457
40388SOL    HW124057   3.782   0.294   3.731  0.2575  0.7754  0.8472
40388SOL    HW224058   3.661   0.290   3.640  0.9265 -2.0859 -0.0336
40389SOL     OW24059   1.520   2.448   1.128 -0.4181  0.0235  0.6734
40389SOL    HW124060   1.602   2.450   1.178  1.7883  0.5897 -2.6651
40389SOL    HW224061   1.485   2.537   1.137 -0.1191  0.0917  1.2479
40390SOL     OW24062   4.417   5.366   7.141 -0.1282 -0.3162 -0.2742
40390SOL    HW124063   4.492   5.329   7.094 -0.6341 -0.7817 -0.7344
40390SOL    HW224064   4.453   5.439   7.190  0.6673 -0.6635 -0.3285
40391SOL     OW24065   4.529   2.940   9.845  0.1837  0.1021  0.3783
40391SOL    HW124066   4.495   2.852   9.857  0.2921 -0.0620 -0.4536
40391SOL    HW224067   4.502   2.965   9.757  0.4899  0.7486  0.4552
40392SOL     OW24068   0.890   5.744   7.854 -0.6117  0.4806  0.0516
40392SOL    HW124069   0.976   5.708   7.872 -0.2226  1.8762  1.1498
40392SOL    HW224070   0.854   5.767   7.940 -0.8593  2.5690 -0.5364
40393SOL     OW24071  10.212   9.913   1.011  0.1986  0.1717 -0.1892
40393SOL    HW124072  10.152   9.975   0.970 -1.3104 -0.6437  0.6875
40393SOL    HW224073  10.161   9.833   1.022  2.0307 -1.2186 -1.1400
40394SOL     OW24074   4.162   3.210   0.282 -0.0877 -0.8654 -0.1653
40394SOL    HW124075   4.127   3.241   0.366 -1.0748 -0.9140 -0.5430
40394SOL    HW224076   4.241   3.161   0.306 -1.0808 -2.0345  0.8941
40395SOL     OW24077   1.311   0.825   7.102 -0.7949  0.1716 -0.1860
40395SOL    HW124078   1.359   0.832   7.019 -2.7592 -0.8316 -1.4934
40395SOL    HW224079   1.355   0.754   7.149  0.6302  1.0543 -0.1086
40396SOL     OW24080   5.677   0.486   6.234 -0.5114  0.1110  0.6783
40396SOL    HW124081   5.662   0.444   6.150 -0.7326  1.3795  0.0547
40396SOL    HW224082   5.596   0.473   6.283 -0.9505  0.6382  0.1120
40397SOL     OW24083   9.660   3.053   3.658  0.0781 -0.2264  0.1339
40397SOL    HW124084   9.682   3.143   3.680  0.4577 -0.5131  0.9862
40397SOL    HW224085   9.714   3.000   3.717 -0.8451 -0.9923  0.3227
40398SOL     OW24086   6.672   6.158   8.184  0.1271  0.7892  0.0972
40398SOL    HW124087   6.665   6.086   8.121  0.2240  1.8191 -1.1340
40398SOL    HW224088   6.764   6.158   8.210  0.7395  1.9594 -1.8123
40399SOL     OW24089   7.323   4.342   4.072  0.0077  0.1128  0.0877
40399SOL    HW124090   7.310   4.311   3.982 -0.5300  0.2710  0.1083
40399SOL    HW224091   7.411   4.314   4.094  0.2106  0.2206 -0.5545
40400SOL     OW24092   1.840   3.528   8.723  0.4715 -0.6646  0.6180
40400SOL    HW124093   1.884   3.446   8.703  1.1383 -0.2732  0.4537
40400SOL    HW224094   1.753   3.502   8.753  0.2768 -1.3677 -0.5228
40401SOL     OW24095   1.133   5.054   6.628  0.1144  0.6695  0.6674
40401SOL    HW124096   1.114   5.039   6.535  1.6975  1.2969  0.2155
40401SOL    HW224097   1.135   4.967   6.666  0.0846  0.3634 -0.0111
40402SOL     OW24098   4.096   0.493  10.333 -0.5263 -0.6240 -0.1222
40402SOL    HW124099   4.052   0.516  10.251 -2.7236 -0.1500  1.1152
40402SOL    HW224100   4.173   0.550  10.335 -1.1651  0.3325 -1.2267
40403SOL     OW24101   1.211   2.829   0.540 -0.7084 -0.1129  0.2178
40403SOL    HW124102   1.275   2.894   0.509 -0.4722 -0.3987  0.1075
40403SOL    HW224103   1.142   2.882   0.580 -0.0918  0.1670  0.9257
40404SOL     OW24104   1.702   2.138   0.071  0.4922 -0.2802 -0.0510
40404SOL    HW124105   1.701   2.079  -0.004  0.6483 -0.6847  0.2660
40404SOL    HW224106   1.613   2.132   0.107  0.3811  0.0050 -0.2688
40405SOL     OW24107   6.766   8.405  10.629  0.4230  0.0242 -0.2056
40405SOL    HW124108   6.834   8.443  10.573  0.3440 -0.1694 -0.4348
40405SOL    HW224109   6.719   8.345  10.571  0.3770 -0.2204  0.0887
40406SOL     OW24110   6.718   1.611   9.955  0.8649  0.2878 -0.3832
40406SOL    HW124111   6.629   1.642   9.936 -1.1254 -2.9372  2.4547
40406SOL    HW224112   6.727   1.622  10.050  2.0067 -2.6829 -0.0437
40407SOL     OW24113   6.325   1.164   7.833  0.0459  0.3136 -0.9207
40407SOL    HW124114   6.402   1.155   7.889 -0.2399  0.7488 -0.4450
40407SOL    HW224115   6.355   1.216   7.759  0.2232  0.4424 -0.7600
40408SOL     OW24116   8.405   6.340   6.143  0.3951 -0.2725 -0.0849
40408SOL    HW124117   8.416   6.311   6.053  1.4276 -0.2433  0.0237
40408SOL    HW224118   8.466   6.413   6.153  0.2426 -0.2313  0.6185
40409SOL     OW24119   5.033   3.476   8.583  0.2456  0.6421  0.1234
40409SOL    HW124120   4.972   3.480   8.657  1.7989  0.2771  1.4789
40409SOL    HW224121   5.118   3.458   8.623  1.0260 -0.2727 -1.8303
40410SOL     OW24122   7.668  10.646   9.864  0.1891  0.3139 -0.0354
40410SOL    HW124123   7.580  10.614   9.884  0.5518  0.3543  1.8475
40410SOL    HW224124   7.688  10.610   9.778 -1.2702 -0.5333 -0.0506
40411SOL     OW24125   5.870   1.981  10.588  0.1787  0.2873 -0.2046
40411SOL    HW124126   5.956   1.945  10.566 -0.2080 -0.6137 -0.2749
40411SOL    HW224127   5.836   1.923  10.657 -0.5032  0.4399 -0.3991
40412SOL     OW24128   3.205   0.801  10.747  0.0656 -0.2719  0.3000
40412SOL    HW124129   3.184   0.854  10.823  0.0794 -1.6351  1.2986
40412SOL    HW224130   3.160   0.843  10.674 -0.2685  0.8308  1.1297
40413SOL     OW24131   8.555   4.948   5.640  0.2534  0.1801 -0.0297
40413SOL    HW124132   8.498   4.939   5.564 -1.3042 -3.3513  1.3324
40413SOL    HW224133   8.505   5.002   5.701  0.5631  1.1810 -0.6361
40414SOL     OW24134   6.828   4.460   9.495  0.1507 -0.5836 -0.1401
40414SOL    HW124135   6.846   4.371   9.463 -0.7681 -0.3726 -1.3254
40414SOL    HW224136   6.880   4.517   9.438  1.0552 -0.3689  0.8790
40415SOL     OW24137   8.523   3.428   5.375 -0.4843 -0.1322 -0.2190
40415SOL    HW124138   8.460   3.423   5.303  1.2082 -3.3355 -1.6927
40415SOL    HW224139   8.607   3.404   5.335  0.5882 -1.8574  2.7163
40416SOL     OW24140   2.114  10.772   2.046 -0.0428  0.0076 -0.0746
40416SOL    HW124141   2.038  10.758   1.989 -1.6799 -1.8873  2.3570
40416SOL    HW224142   2.176  10.704   2.019 -0.2539 -0.0446 -0.4416
40417SOL     OW24143   8.143   8.764   3.359 -0.5821 -0.1151  0.0192
40417SOL    HW124144   8.208   8.834   3.361  0.6306 -1.2227  0.2124
40417SOL    HW224145   8.059   8.810   3.360  0.1324  1.4277 -2.3930
40418SOL     OW24146   0.624  10.133   7.185  0.0817 -0.5835 -0.0909
40418SOL    HW124147   0.573  10.078   7.244 -3.0644  1.6585 -0.4570
40418SOL    HW224148   0.713  10.132   7.221 -1.1937 -1.0643  3.4135
40419SOL     OW24149   6.767   7.695   9.262 -0.2804  0.4539  0.1432
40419SOL    HW124150   6.718   7.617   9.237 -0.2881  0.4322  0.2271
40419SOL    HW224151   6.856   7.664   9.277 -0.1961  0.5255 -0.2006
40420SOL     OW24152   5.861   7.433   7.789  0.2864  0.7232 -0.0535
40420SOL    HW124153   5.917   7.422   7.865  0.6877 -0.9825 -0.5535
40420SOL    HW224154   5.913   7.401   7.715 -0.4585  1.3956 -0.9048
40421SOL     OW24155   5.632  10.265   8.065  0.3167  0.1740 -0.0640
40421SOL    HW124156   5.694  10.204   8.106 -0.2860 -1.7710 -1.8833
40421SOL    HW224157   5.546  10.224   8.078 -0.0326  0.2061 -1.9852
40422SOL     OW24158   5.117   7.083   0.840 -0.3176 -0.4531 -0.0282
40422SOL    HW124159   5.197   7.084   0.892 -0.0221  1.5744 -0.4156
40422SOL    HW224160   5.047   7.094   0.904  0.0250  1.7126  0.0690
40423SOL     OW24161   8.129   4.629   6.129  0.6855 -0.4545 -0.0074
40423SOL    HW124162   8.111   4.721   6.149 -2.0199 -1.3491  2.3252
40423SOL    HW224163   8.070   4.607   6.057  1.2668 -0.4312 -0.5036
40424SOL     OW24164   2.644   4.255   7.638 -0.5664  0.5654 -0.0951
40424SOL    HW124165   2.705   4.286   7.570  1.1760  0.5928  1.3992
40424SOL    HW224166   2.598   4.182   7.597  0.9537  0.1062 -1.0916
40425SOL     OW24167   7.031   8.497   8.663 -0.4054 -0.2245  0.1405
40425SOL    HW124168   7.019   8.415   8.710  0.3225 -0.4931 -0.1251
40425SOL    HW224169   6.986   8.484   8.580 -1.8592  0.3205  0.8061
40426SOL     OW24170   9.429   2.371   0.132  0.0620  0.0065  0.6893
40426SOL    HW124171   9.395   2.427   0.062  0.6129 -1.1735 -0.5644
40426SOL    HW224172   9.515   2.409   0.153  0.3493 -0.2269 -0.0214
40427SOL     OW24173   8.292   5.229   4.581 -0.4385 -0.2129  0.1986
40427SOL    HW124174   8.327   5.251   4.667  0.6050  0.6933 -0.4340
40427SOL    HW224175   8.325   5.140   4.564 -1.1026 -0.6175  0.9464
40428SOL     OW24176  10.082   9.647   3.165  0.6698 -0.7600 -0.3866
40428SOL    HW124177  10.085   9.689   3.080 -0.4880  1.0685  0.4212
40428SOL    HW224178  10.157   9.681   3.212  2.3043 -3.0446 -1.1468
40429SOL     OW24179   5.129   1.426  10.105 -0.4632  0.1612  0.0738
40429SOL    HW124180   5.145   1.515  10.073 -0.3147  0.1159  0.0219
40429SOL    HW224181   5.130   1.435  10.201  1.2728 -0.0726  0.1044
40430SOL     OW24182   3.678   1.195   3.169 -0.7480  0.3812 -0.2567
40430SOL    HW124183   3.743   1.128   3.188  0.5263  1.6234 -0.0690
40430SOL    HW224184   3.687   1.258   3.240 -1.1276  1.3213 -1.0168
40431SOL     OW24185   8.448   4.833   7.193  0.2528 -0.0865 -0.1823
40431SOL    HW124186   8.461   4.927   7.178 -1.0176  0.3434  1.2199
40431SOL    HW224187   8.537   4.799   7.207  0.9866  0.4233 -3.0015
40432SOL     OW24188   6.007   4.515   1.574  0.6124  0.4024  0.4570
40432SOL    HW124189   5.945   4.579   1.538  0.3815  0.3813  0.8048
40432SOL    HW224190   6.003   4.441   1.515  2.6338  1.5958 -1.3227
40433SOL     OW24191   8.355   7.446   9.078 -0.3478 -0.1684 -0.3663
40433SOL    HW124192   8.314   7.492   9.005  0.2505  0.2074 -0.4766
40433SOL    HW224193   8.387   7.364   9.039 -2.3565 -1.2012  0.0617
40434SOL     OW24194   7.823   8.606   2.364  0.1064  0.1794  0.0791
40434SOL    HW124195   7.743   8.638   2.406 -0.8768 -0.4699 -1.2542
40434SOL    HW224196   7.793   8.554   2.290  1.7769  0.0898 -0.5802
40435SOL     OW24197   7.900   1.393   8.692 -0.0790 -0.1737  0.6550
40435SOL    HW124198   7.879   1.456   8.622  0.2332 -1.2479 -0.4515
40435SOL    HW224199   7.876   1.438   8.773 -1.1997  0.8228 -0.1905
40436SOL     OW24200   2.331   8.210  10.406 -0.0773 -0.3513 -0.2392
40436SOL    HW124201   2.425   8.197  10.418 -0.2968 -1.5175  0.3345
40436SOL    HW224202   2.307   8.149  10.337 -0.3954  0.0693 -0.5094
40437SOL     OW24203   8.807   2.691   0.677  0.4032  0.4491  0.4943
40437SOL    HW124204   8.830   2.599   0.689  0.5775  0.3402 -0.6075
40437SOL    HW224205   8.843   2.734   0.754 -1.1589 -0.6307  1.9124
40438SOL     OW24206  10.378   8.213   9.038 -0.2583  0.1836  0.6243
40438SOL    HW124207  10.313   8.242   8.974 -0.9262 -2.5879 -0.1106
40438SOL    HW224208  10.329   8.156   9.098  1.1205 -0.4716  1.1816
40439SOL     OW24209   1.633   3.828   5.795  0.0545  0.2069  0.3026
40439SOL    HW124210   1.720   3.867   5.804  0.6323 -0.8981 -0.2542
40439SOL    HW224211   1.577   3.878   5.855  1.1215  0.7835  0.8376
40440SOL     OW24212   2.541   8.794   0.292 -0.1161  0.0399  0.0655
40440SOL    HW124213   2.617   8.851   0.281  0.0414  0.2300  1.7958
40440SOL    HW224214   2.561   8.716   0.241  1.1346  0.2047  0.2732
40441SOL     OW24215   2.086   4.313   7.793 -0.3627 -0.4157 -0.0195
40441SOL    HW124216   2.141   4.327   7.869  0.8377  0.2113 -0.9834
40441SOL    HW224217   2.097   4.220   7.773 -1.2058 -0.7499  0.9242
40442SOL     OW24218   9.036   4.142   9.757  0.2714  0.1597 -0.7761
40442SOL    HW124219   9.034   4.074   9.690  2.1323  0.5094 -1.2599
40442SOL    HW224220   9.042   4.224   9.708 -2.6155  0.8006 -0.2201
40443SOL     OW24221   3.585   1.820   8.807 -0.4276 -0.4215 -0.1381
40443SOL    HW124222   3.573   1.726   8.803 -1.9021 -0.2296 -1.1698
40443SOL    HW224223   3.600   1.839   8.900 -0.2870 -1.6370  0.0958
40444SOL     OW24224   3.474   0.859   3.781 -0.1028  0.4997 -0.2023
40444SOL    HW124225   3.511   0.858   3.692 -1.1510 -1.0453 -0.6511
40444SOL    HW224226   3.390   0.814   3.772  1.3626 -3.1691  2.2475
40445SOL     OW24227   9.455   3.551   7.588  0.0374 -0.3262 -0.1090
40445SOL    HW124228   9.472   3.526   7.679  1.2710 -0.5868 -0.3913
40445SOL    HW224229   9.449   3.468   7.541  3.5462 -0.2505 -0.9426
40446SOL     OW24230   8.334   9.220   5.490  0.3223 -0.3088  0.4866
40446SOL    HW124231   8.285   9.219   5.572  0.8123 -0.5625  0.7734
40446SOL    HW224232   8.371   9.308   5.485  0.1307 -0.2294  0.4357
40447SOL     OW24233   8.554   2.167   9.106 -0.4532  0.6062 -0.3268
40447SOL    HW124234   8.607   2.168   9.026  1.1090  0.1889  0.6575
40447SOL    HW224235   8.613   2.200   9.174 -0.8064 -1.6870  1.1901
40448SOL     OW24236   0.841   8.585  10.071  0.0513  0.3013  0.0498
40448SOL    HW124237   0.806   8.605   9.984  0.1995  1.6463  0.2792
40448SOL    HW224238   0.866   8.670  10.107 -0.3442 -0.1930  1.5637
40449SOL     OW24239   2.248   1.737   1.711 -0.0777 -0.2644 -0.1563
40449SOL    HW124240   2.239   1.831   1.725  2.0922 -0.0599  0.1676
40449SOL    HW224241   2.158   1.706   1.701 -0.7749  2.0719 -1.9955
40450SOL     OW24242   0.434   9.528   7.265 -0.4238 -0.4475  0.3643
40450SOL    HW124243   0.368   9.459   7.263 -1.5350  0.6031 -0.6623
40450SOL    HW224244   0.385   9.608   7.282  1.0373 -0.0567  3.1492
40451SOL     OW24245  10.595   4.707   6.626  0.1557  0.8899 -0.4373
40451SOL    HW124246  10.543   4.788   6.626 -0.4282  0.6207  2.6100
40451SOL    HW224247  10.684   4.736   6.646 -0.2527  0.7846  1.8094
40452SOL     OW24248   0.143   0.037   4.888 -0.0047  0.0145  0.1232
40452SOL    HW124249   0.192   0.116   4.913 -0.5371  0.3059  0.2734
40452SOL    HW224250   0.105   0.059   4.803 -0.0190 -0.1409  0.0897
40453SOL     OW24251   8.331   0.035   0.465  0.3818  0.1451 -0.0872
40453SOL    HW124252   8.339  -0.060   0.471  2.9659  0.1451 -1.8324
40453SOL    HW224253   8.342   0.066   0.554 -0.0094 -1.1581  0.4412
40454SOL     OW24254   7.367  10.259   0.910  0.0456 -0.2647  0.2141
40454SOL    HW124255   7.398  10.306   0.832 -1.4808 -1.1906 -1.0210
40454SOL    HW224256   7.340  10.328   0.970 -1.6785  0.5135 -1.3578
40455SOL     OW24257   1.690   8.237   8.940  0.0290  0.3126  0.3746
40455SOL    HW124258   1.752   8.306   8.963  0.3143 -0.1889  1.1698
40455SOL    HW224259   1.732   8.157   8.972 -0.8629 -0.0798  0.5639
40456SOL     OW24260   1.739   8.463  10.498 -0.3056  0.0641  0.1529
40456SOL    HW124261   1.780   8.543  10.466  0.7486 -0.0764  1.0857
40456SOL    HW224262   1.727   8.477  10.592 -0.3851 -0.7467  0.2764
40457SOL     OW24263   4.482   9.163   1.212 -0.0113  0.0103 -0.1320
40457SOL    HW124264   4.560   9.177   1.266 -1.1505 -0.1747  1.6493
40457SOL    HW224265   4.492   9.225   1.140  1.2441  0.7853  0.6577
40458SOL     OW24266   6.446   7.618   8.167 -0.5430  0.3611 -0.1331
40458SOL    HW124267   6.536   7.600   8.193 -0.5272 -0.2940 -0.6109
40458SOL    HW224268   6.433   7.711   8.185  1.0771  1.1177 -2.5762
40459SOL     OW24269   4.506   5.449   1.084 -0.1548  0.0047  0.2704
40459SOL    HW124270   4.449   5.519   1.054 -0.7432 -0.0336  1.2626
40459SOL    HW224271   4.495   5.379   1.020  1.2264  1.1626 -1.3235
40460SOL     OW24272   1.916   4.161   2.722 -0.3942  0.4813 -0.7002
40460SOL    HW124273   1.911   4.174   2.628 -0.8227 -0.2428 -0.7858
40460SOL    HW224274   1.942   4.070   2.733 -1.6896  0.1542 -0.1299
40461SOL     OW24275   3.281   0.150   9.117  0.1365 -0.2079  0.3669
40461SOL    HW124276   3.306   0.167   9.026  1.1474 -0.1856  0.6300
40461SOL    HW224277   3.191   0.118   9.112  0.0106  0.2550 -0.5944
40462SOL     OW24278   7.542   8.608  10.475  0.0280 -0.1235 -1.0070
40462SOL    HW124279   7.564   8.563  10.393  0.9078 -1.0139 -0.3042
40462SOL    HW224280   7.590   8.691  10.470  1.3564 -0.8485 -0.7207
40463SOL     OW24281   6.460   0.776   6.325 -0.3116  0.1469 -0.2334
40463SOL    HW124282   6.388   0.741   6.273 -1.1436  1.0422  0.2890
40463SOL    HW224283   6.490   0.853   6.276  0.0405 -0.0012 -0.2544
40464SOL     OW24284   5.697   5.759   2.796 -0.3605 -0.2184 -0.2686
40464SOL    HW124285   5.608   5.761   2.832 -0.2674  0.2848 -0.0603
40464SOL    HW224286   5.686   5.783   2.704 -0.5911 -1.4412 -0.5864
40465SOL     OW24287   1.035   4.148   5.179  0.3028 -0.3469  0.1210
40465SOL    HW124288   1.084   4.230   5.177  2.3383 -1.4907 -1.4728
40465SOL    HW224289   0.968   4.158   5.112 -1.0306  0.8233  1.5502
40466SOL     OW24290   0.372   8.037   7.976 -0.4114 -0.1398  0.2968
40466SOL    HW124291   0.315   8.019   7.901 -0.6703 -2.2947  0.9404
40466SOL    HW224292   0.333   8.113   8.019 -1.5761 -0.2817 -0.4655
40467SOL     OW24293   1.696   5.178   7.253  0.3981 -0.6457  0.0345
40467SOL    HW124294   1.605   5.165   7.279 -1.2177  2.1645 -3.3575
40467SOL    HW224295   1.738   5.213   7.331 -1.9087 -0.2509  1.1959
40468SOL     OW24296   3.511  10.652   5.999 -0.4650  0.2894 -0.5759
40468SOL    HW124297   3.572  10.659   6.073 -0.0871 -2.8481 -0.4417
40468SOL    HW224298   3.537  10.722   5.939  1.3173  0.8950  0.8278
40469SOL     OW24299   2.202   8.437   8.399 -0.2644 -0.5023 -0.6929
40469SOL    HW124300   2.188   8.515   8.345 -1.1847 -0.4028 -0.3212
40469SOL    HW224301   2.114   8.403   8.416  0.1731 -2.5157 -2.1216
40470SOL     OW24302   0.195   7.788   2.831  0.3615  0.2299 -0.0473
40470SOL    HW124303   0.101   7.772   2.842  0.4491  0.2605  0.7657
40470SOL    HW224304   0.201   7.881   2.808  0.1200 -0.0259 -1.2386
40471SOL     OW24305   7.674   8.461   5.949 -0.5768  0.1789 -0.1176
40471SOL    HW124306   7.759   8.504   5.952  0.6145 -2.0192 -0.0865
40471SOL    HW224307   7.651   8.447   6.041 -1.0835  0.9629 -0.1230
40472SOL     OW24308   9.098   2.025   7.638  0.2182 -0.5746 -0.1748
40472SOL    HW124309   9.168   2.023   7.703 -1.3434  2.4240  1.8337
40472SOL    HW224310   9.142   2.055   7.558  2.1105 -4.0057 -0.6165
40473SOL     OW24311   3.695   9.563   9.059 -0.2305  0.3734 -0.1512
40473SOL    HW124312   3.694   9.568   8.964  0.1637  1.4010 -0.1120
40473SOL    HW224313   3.733   9.646   9.088  0.9871 -0.4829  0.8566
40474SOL     OW24314   6.507   3.961   2.393 -1.0697  1.0398 -0.4616
40474SOL    HW124315   6.590   3.968   2.347 -1.8626 -0.1124 -2.1894
40474SOL    HW224316   6.528   3.915   2.475  0.4165  3.3712  0.5424
40475SOL     OW24317   3.471   7.661   5.305  0.2082 -0.2758  0.5525
40475SOL    HW124318   3.445   7.577   5.269  0.4151 -0.4743  0.8656
40475SOL    HW224319   3.566   7.665   5.293  0.4853 -0.9189  2.2517
40476SOL     OW24320   6.154   0.817   3.788  0.2890  0.2837  0.1783
40476SOL    HW124321   6.234   0.794   3.740  0.3220  0.2372  0.2546
40476SOL    HW224322   6.092   0.842   3.720  0.9330  2.1052  0.2114
40477SOL     OW24323   3.290   8.406   5.293 -0.2412  1.0195  0.0707
40477SOL    HW124324   3.329   8.480   5.339  1.9554 -1.1526  2.0030
40477SOL    HW224325   3.224   8.372   5.354  0.2961  0.1471  0.1892
40478SOL     OW24326   4.710   2.923   3.342  0.5682 -0.3437  0.2479
40478SOL    HW124327   4.620   2.935   3.314  0.8421  0.6255 -0.2718
40478SOL    HW224328   4.737   2.840   3.304  0.4742  0.2568 -1.1645
40479SOL     OW24329   7.033   5.557   5.205  0.1863 -0.2995 -0.0790
40479SOL    HW124330   7.041   5.467   5.235 -1.0826 -0.0516  1.1130
40479SOL    HW224331   6.940   5.577   5.214  0.4017  1.0393 -0.5891
40480SOL     OW24332   9.805   1.391   5.018  0.1379 -0.8036  0.3611
40480SOL    HW124333   9.712   1.403   5.001 -0.1654 -1.7535  1.2881
40480SOL    HW224334   9.834   1.475   5.054 -0.3792 -0.5603  0.2131
40481SOL     OW24335   1.952   1.180   9.642  0.1061  0.4641  0.1964
40481SOL    HW124336   1.869   1.223   9.660 -0.1017 -0.2601  1.0222
40481SOL    HW224337   1.969   1.127   9.720 -0.0866 -1.6568 -1.1357
40482SOL     OW24338   8.266   1.673   9.003  0.0386  0.4071  0.6671
40482SOL    HW124339   8.202   1.629   8.947  0.8488  0.1242 -0.0508
40482SOL    HW224340   8.245   1.766   8.996  1.4191  0.5937 -1.8009
40483SOL     OW24341   7.041  10.700   5.609 -0.5719 -0.1923  0.1971
40483SOL    HW124342   6.968  10.659   5.655  0.6932 -0.6737  1.9228
40483SOL    HW224343   7.082  10.756   5.675  0.3573  0.3793 -0.8421
40484SOL     OW24344   9.880   4.329   8.866  0.1557 -0.5030  0.3636
40484SOL    HW124345   9.839   4.324   8.952 -0.5793  0.1047  0.0713
40484SOL    HW224346   9.972   4.349   8.883 -0.0428 -0.1087  1.0083
40485SOL     OW24347   9.330   6.125   8.855  0.4431 -0.0246 -0.1109
40485SOL    HW124348   9.395   6.190   8.829  0.0363  1.7786  2.8643
40485SOL    HW224349   9.327   6.063   8.783  1.8444  2.5289 -2.5449
40486SOL     OW24350   4.287   3.734   5.276  0.3129 -0.2883 -0.2292
40486SOL    HW124351   4.300   3.826   5.252 -0.7966 -0.2341 -0.6792
40486SOL    HW224352   4.222   3.702   5.213  0.3187 -1.2475  0.2356
40487SOL     OW24353   8.433   4.373   6.853 -0.1887  0.3828 -0.2682
40487SOL    HW124354   8.502   4.425   6.893  0.3042  0.0021 -0.6112
40487SOL    HW224355   8.352   4.421   6.872  0.2953  1.4871 -0.9365
40488SOL     OW24356   2.670   1.681   3.267  0.3992 -0.4558  0.1527
40488SOL    HW124357   2.709   1.744   3.206  0.3113 -0.1668  0.3908
40488SOL    HW224358   2.743   1.628   3.297  0.8357  0.8437  1.5072
40489SOL     OW24359   4.909   1.241  10.130  0.0796 -0.6029  0.5437
40489SOL    HW124360   4.963   1.162  10.136 -0.4758 -0.9537  0.8934
40489SOL    HW224361   4.972   1.311  10.110  0.7817 -0.8696  1.7279
40490SOL     OW24362  10.749   7.871   7.595  0.2343  0.1623  0.4104
40490SOL    HW124363  10.769   7.933   7.524  2.0901  1.1950  1.7481
40490SOL    HW224364  10.708   7.924   7.663 -0.8334 -0.6770  0.4512
40491SOL     OW24365  10.062   3.151   5.085 -0.2911 -0.7362 -0.1766
40491SOL    HW124366  10.133   3.208   5.054 -0.8858  0.7250  1.0097
40491SOL    HW224367  10.107   3.081   5.132  0.3939 -0.0753  0.1778
40492SOL     OW24368   4.930   2.919   9.151  0.0817  0.1480  0.4967
40492SOL    HW124369   4.968   2.842   9.193 -1.1989 -0.4510  0.6059
40492SOL    HW224370   4.883   2.884   9.075  1.4995  1.1060 -0.8663
40493SOL     OW24371   8.157   4.991   9.541 -0.3463 -0.9461 -0.0336
40493SOL    HW124372   8.069   4.970   9.508 -0.8863 -1.1665  1.4803
40493SOL    HW224373   8.142   5.052   9.613  0.7674 -0.7857  0.0755
40494SOL     OW24374   0.046   1.144   0.901  0.1187  0.0002 -0.1194
40494SOL    HW124375   0.018   1.080   0.967  2.9796 -0.6188  0.6276
40494SOL    HW224376   0.078   1.218   0.951  1.7838 -0.2354 -0.7841
40495SOL     OW24377   3.661   3.637   3.837  0.1069 -0.4287  0.1901
40495SOL    HW124378   3.705   3.704   3.888  0.7698  0.0910 -1.0157
40495SOL    HW224379   3.693   3.650   3.748 -0.4621 -1.7602 -0.2348
40496SOL     OW24380   7.029  10.651   9.637  0.3629  0.1022 -0.1623
40496SOL    HW124381   7.010  10.558   9.650 -0.4261  0.3258  0.3830
40496SOL    HW224382   7.111  10.665   9.682 -0.2014 -0.0508  0.9426
40497SOL     OW24383   3.357  10.098   9.904  0.0154  0.3303  0.0089
40497SOL    HW124384   3.371  10.003   9.905  0.6455  0.4149  1.8652
40497SOL    HW224385   3.422  10.131   9.841  0.9984 -0.3190  0.6558
40498SOL     OW24386   3.539   2.321   2.964 -0.9853  0.5758 -0.0361
40498SOL    HW124387   3.477   2.251   2.985 -1.3016  1.0732  0.7182
40498SOL    HW224388   3.530   2.383   3.036  0.8428  0.3592  0.4158
40499SOL     OW24389   2.664   0.524   7.756  0.2014  0.5132  0.6214
40499SOL    HW124390   2.584   0.477   7.732  1.0604 -0.8567  0.2865
40499SOL    HW224391   2.734   0.472   7.716  1.3081  1.2828  1.5137
40500SOL     OW24392   3.131   3.708   8.619  0.3769 -0.0618 -0.1106
40500SOL    HW124393   3.161   3.712   8.528  2.7943  0.3101  0.6166
40500SOL    HW224394   3.073   3.633   8.621  0.3663 -0.1622 -1.9349
40501SOL     OW24395   2.079   8.864   4.769  0.8097  0.5057 -0.1773
40501SOL    HW124396   2.057   8.851   4.677 -0.7387  1.6050 -0.0068
40501SOL    HW224397   2.031   8.943   4.794  2.3339  1.0422  1.2149
40502SOL     OW24398   2.835   6.386   7.905  0.1189  0.1355  0.8506
40502SOL    HW124399   2.747   6.380   7.943  0.4228 -1.1108  1.3822
40502SOL    HW224400   2.850   6.480   7.896 -1.4731  0.3676  0.2531
40503SOL     OW24401   9.866   6.598   6.179  0.1294  0.2363  0.1995
40503SOL    HW124402   9.887   6.516   6.134 -2.2572 -0.0785 -0.4620
40503SOL    HW224403   9.878   6.666   6.112 -0.0646  0.1742  0.1029
40504SOL     OW24404   2.975   0.901   3.834  0.4969  0.2869  0.0669
40504SOL    HW124405   3.021   0.955   3.899 -0.1935 -0.1927  0.9885
40504SOL    HW224406   2.883   0.927   3.843  0.3550  0.0072 -0.5325
40505SOL     OW24407   2.006   0.296   6.839 -0.7654  0.7621 -0.3668
40505SOL    HW124408   2.032   0.251   6.919 -1.6377  1.1911  0.1865
40505SOL    HW224409   2.086   0.339   6.808 -0.2371 -0.0687 -0.1764
40506SOL     OW24410   8.731   0.750   6.097  0.5496 -0.5225 -0.4590
40506SOL    HW124411   8.670   0.744   6.171  0.1949  0.9753 -0.6059
40506SOL    HW224412   8.787   0.673   6.106  0.0865 -0.7169  0.9769
40507SOL     OW24413   1.285   3.186   6.203 -0.0347  0.1118 -0.5568
40507SOL    HW124414   1.195   3.204   6.232  0.7335  0.8783  1.5427
40507SOL    HW224415   1.339   3.249   6.250  1.4079  1.7271 -4.0160
40508SOL     OW24416   8.193   3.392   6.573  0.1652  0.7879 -0.3285
40508SOL    HW124417   8.259   3.341   6.620 -2.3858  0.0547  2.8141
40508SOL    HW224418   8.178   3.469   6.627 -0.3263  1.8684 -1.9113
40509SOL     OW24419  10.315   9.663   1.065  0.4999  0.1279 -0.1985
40509SOL    HW124420  10.342   9.752   1.043  2.0491 -0.2466  0.0711
40509SOL    HW224421  10.253   9.639   0.996  0.8445  1.0516 -0.8537
40510SOL     OW24422   8.856  10.303   0.874 -0.1558 -0.9408  0.5871
40510SOL    HW124423   8.818  10.384   0.839 -2.0603 -1.6554  0.8599
40510SOL    HW224424   8.947  10.303   0.843 -0.3945  0.8239 -0.2071
40511SOL     OW24425   2.514   2.233   5.362  0.2138  0.1891  0.1213
40511SOL    HW124426   2.603   2.232   5.329 -0.5061  1.4812 -2.0883
40511SOL    HW224427   2.510   2.309   5.419  0.7557 -0.4682  1.0662
40512SOL     OW24428   9.119   2.505   9.118  0.7570  0.0007  0.1660
40512SOL    HW124429   9.034   2.463   9.118  0.2626  0.9661  0.5280
40512SOL    HW224430   9.182   2.433   9.117 -0.0467 -0.7352 -1.1680
40513SOL     OW24431  10.541   3.499   4.500  0.1393 -0.1728 -0.0861
40513SOL    HW124432  10.498   3.538   4.576 -1.1820  0.3955 -1.0893
40513SOL    HW224433  10.490   3.421   4.481  1.8803 -1.6541  0.9978
40514SOL     OW24434   3.916   5.215   3.902 -0.1972 -0.1953  0.1957
40514SOL    HW124435   3.862   5.163   3.961  0.4393 -0.1647  0.8065
40514SOL    HW224436   3.942   5.291   3.954  1.0659 -0.5841  0.1535
40515SOL     OW24437   8.091   9.788   4.566  0.3575 -0.1308  0.1088
40515SOL    HW124438   8.151   9.784   4.640  0.3761  1.2518  0.1903
40515SOL    HW224439   8.032   9.714   4.579  0.7057 -0.2354  1.1887
40516SOL     OW24440  10.432   4.071   7.382 -0.2602 -0.2771  0.2517
40516SOL    HW124441  10.352   4.026   7.357 -0.4362  0.4240 -0.4911
40516SOL    HW224442  10.427   4.156   7.338  0.2735  0.2991  1.2418
40517SOL     OW24443   7.660   0.945   0.388 -0.1729  0.1788  0.2769
40517SOL    HW124444   7.645   0.868   0.333 -0.3322  1.2497 -1.2480
40517SOL    HW224445   7.751   0.970   0.369  0.2518 -0.2803  1.6278
40518SOL     OW24446   2.812   3.241   8.672  0.1334 -0.7762  0.3292
40518SOL    HW124447   2.906   3.257   8.684 -0.0394  0.6027 -0.0004
40518SOL    HW224448   2.793   3.167   8.730  0.7670  0.9859  2.9661
40519SOL     OW24449   6.109   1.122   6.142  0.3145 -0.1006  0.5091
40519SOL    HW124450   6.077   1.183   6.208  0.1219  0.2061  0.1356
40519SOL    HW224451   6.066   1.149   6.061  0.1903 -0.7660  0.3493
40520SOL     OW24452   8.878   3.970   0.162 -0.2869 -0.6239  0.3539
40520SOL    HW124453   8.925   3.893   0.193  1.2090 -0.1242 -0.5356
40520SOL    HW224454   8.946   4.025   0.123 -1.3203  1.1344  0.9299
40521SOL     OW24455   3.073   0.584   6.633  0.0760 -0.5131 -0.5647
40521SOL    HW124456   3.018   0.532   6.575  0.8389  0.1051 -1.8620
40521SOL    HW224457   3.162   0.567   6.603  0.4861 -0.1783  0.4322
40522SOL     OW24458  10.314   4.925   2.732  0.6560 -0.3377  0.0203
40522SOL    HW124459  10.282   4.835   2.725 -0.3532  0.0024  0.0428
40522SOL    HW224460  10.235   4.979   2.722  1.3761  0.5734 -0.8855
40523SOL     OW24461   3.944   8.689   3.631  0.4339 -0.0211 -0.3721
40523SOL    HW124462   3.923   8.715   3.542  0.1250  0.2731 -0.2171
40523SOL    HW224463   3.885   8.615   3.648  1.6064 -1.1283 -0.9589
40524SOL     OW24464   8.395   4.170   1.601 -0.2161  0.2135 -0.1559
40524SOL    HW124465   8.444   4.249   1.625 -0.4972  0.2633  0.2542
40524SOL    HW224466   8.463   4.109   1.569 -0.2828  1.6858 -3.5065
40525SOL     OW24467   7.157   6.892  10.170 -0.5163  0.0941 -0.2856
40525SOL    HW124468   7.113   6.924  10.092  0.8875 -0.9288 -1.5645
40525SOL    HW224469   7.240   6.856  10.138 -0.1254 -0.8434  1.6142
40526SOL     OW24470   7.836   9.937   3.450 -0.2755  0.2735 -0.2276
40526SOL    HW124471   7.910   9.998   3.446 -0.5881  0.6223 -0.9453
40526SOL    HW224472   7.806   9.942   3.540 -0.0993  0.9574 -0.2013
40527SOL     OW24473   3.158  10.277   6.721  0.1868 -0.3191  0.1914
40527SOL    HW124474   3.085  10.327   6.686 -1.0782  0.0765  3.0377
40527SOL    HW224475   3.140  10.186   6.696 -0.7404 -0.0794 -0.0249
40528SOL     OW24476   9.908  10.587   6.938  0.3554  0.2812 -0.3032
40528SOL    HW124477   9.876  10.583   6.848  3.3819 -2.3201 -1.4604
40528SOL    HW224478   9.877  10.505   6.979  0.6950  0.4668  0.3487
40529SOL     OW24479   4.938   1.151   6.817 -0.4273 -0.2888 -0.1942
40529SOL    HW124480   4.920   1.239   6.852 -0.4275 -0.1406 -0.5597
40529SOL    HW224481   5.033   1.148   6.807 -0.5415  0.2455 -1.6443
40530SOL     OW24482   1.411   5.587   5.003  0.1973  0.0752 -0.3321
40530SOL    HW124483   1.451   5.595   4.917  2.9824  0.3696  0.9044
40530SOL    HW224484   1.470   5.634   5.062 -0.3452 -2.0693  2.1063
40531SOL     OW24485   4.592   5.229   5.962 -0.4818 -0.1552  0.8964
40531SOL    HW124486   4.531   5.170   6.007 -1.7651  0.4634  0.0432
40531SOL    HW224487   4.580   5.313   6.006 -1.2454  0.2873 -0.1140
40532SOL     OW24488   6.135   9.065   2.605  0.0024  0.3270 -0.2099
40532SOL    HW124489   6.114   8.976   2.635 -0.0526 -0.2680 -1.9252
40532SOL    HW224490   6.066   9.086   2.542  0.7760  1.0356 -0.8496
40533SOL     OW24491   5.478   4.569   0.751 -0.0563  0.6486 -0.4339
40533SOL    HW124492   5.570   4.562   0.778  0.1907 -1.2939 -1.5657
40533SOL    HW224493   5.471   4.656   0.711  1.0157  1.2268  0.5753
40534SOL     OW24494   8.824   4.593   3.066 -0.5376  0.0588 -0.2064
40534SOL    HW124495   8.871   4.626   2.989 -0.4653 -0.1041 -0.2320
40534SOL    HW224496   8.884   4.530   3.106  0.0671  1.2338  0.8411
40535SOL     OW24497   7.068   0.810  10.006  0.6700  0.3795  0.1464
40535SOL    HW124498   7.032   0.822  10.094  1.7937 -2.3193  1.1012
40535SOL    HW224499   7.035   0.725   9.978  1.6781  0.4381 -1.3267
40536SOL     OW24500   9.941   2.201   7.010 -0.3058 -0.1742 -0.1609
40536SOL    HW124501   9.974   2.224   6.923 -1.0678  1.2415 -0.1150
40536SOL    HW224502  10.006   2.236   7.071 -0.6384  0.4127 -0.1331
40537SOL     OW24503   4.969   7.154   5.131 -0.7220 -0.0849 -0.5089
40537SOL    HW124504   4.930   7.100   5.061 -0.4665 -1.3469  0.2868
40537SOL    HW224505   4.903   7.153   5.201 -0.5198  0.2687 -0.3148
40538SOL     OW24506   0.745   8.935   4.989 -0.1855  0.2482 -0.6714
40538SOL    HW124507   0.818   8.881   5.020 -2.1717 -3.4561 -1.8147
40538SOL    HW224508   0.739   9.005   5.054  2.0243 -1.4409  1.5894
40539SOL     OW24509   7.601   7.789   2.209  0.0113  0.4399  0.2891
40539SOL    HW124510   7.579   7.852   2.140  0.4802 -0.1689 -0.4249
40539SOL    HW224511   7.696   7.781   2.205 -0.1073 -0.9267 -0.1748
40540SOL     OW24512   0.128   4.240   0.282 -0.3542  0.2571  0.4699
40540SOL    HW124513   0.175   4.248   0.199 -1.3626  0.3625 -0.1073
40540SOL    HW224514   0.187   4.280   0.347 -0.3334  1.8909 -0.4961
40541SOL     OW24515   5.394   0.802   2.947  0.5766 -0.0590 -0.5290
40541SOL    HW124516   5.442   0.883   2.929  1.1677  0.0370  1.2953
40541SOL    HW224517   5.423   0.775   3.034 -2.2516 -0.3218  0.4496
40542SOL     OW24518   6.559   3.935   4.038 -0.0194  0.0220  0.3223
40542SOL    HW124519   6.628   3.970   4.093 -0.6833 -0.6698  1.6384
40542SOL    HW224520   6.545   3.846   4.070 -1.8192  0.2928  0.4075
40543SOL     OW24521   7.298   3.273   5.496 -0.1950 -0.4917 -0.2026
40543SOL    HW124522   7.255   3.353   5.466  2.1384  1.1987  0.7226
40543SOL    HW224523   7.230   3.226   5.545 -1.5766  0.9646 -0.6514
40544SOL     OW24524   0.139   3.013   2.563 -0.1963 -0.0677  0.0951
40544SOL    HW124525   0.175   2.947   2.622 -1.5782 -1.2461 -0.3281
40544SOL    HW224526   0.164   3.097   2.602  3.4432 -0.7400 -0.4503
40545SOL     OW24527   0.536  10.245   6.956  0.2112  0.0105  0.1044
40545SOL    HW124528   0.533  10.341   6.963  0.9208 -0.0103  0.8888
40545SOL    HW224529   0.565  10.216   7.042  0.7045 -0.8744 -0.3509
40546SOL     OW24530   6.744   3.187   0.575 -0.3939  0.2770  0.1789
40546SOL    HW124531   6.737   3.139   0.493 -0.4181  0.2795  0.1796
40546SOL    HW224532   6.655   3.217   0.593 -0.8799 -1.7603  1.4335
40547SOL     OW24533   7.753   4.807   1.839 -0.1199 -0.0515  0.1100
40547SOL    HW124534   7.756   4.731   1.898  1.0123 -0.9341 -1.0305
40547SOL    HW224535   7.758   4.883   1.897  0.7427 -0.8834  1.1716
40548SOL     OW24536   1.083  10.673   5.165  0.3504  0.2486  0.1133
40548SOL    HW124537   1.153  10.662   5.230  1.1735  0.5565 -0.6954
40548SOL    HW224538   1.077  10.587   5.123 -0.0115  0.1200  0.4238
40549SOL     OW24539   1.512   7.474  10.323  0.3160 -0.1219 -0.2735
40549SOL    HW124540   1.603   7.494  10.345  0.1597 -0.4231  0.7069
40549SOL    HW224541   1.510   7.472  10.227  1.0345  1.2482 -0.3370
40550SOL     OW24542   0.753   5.269   8.275 -0.5893  0.3809 -0.2028
40550SOL    HW124543   0.786   5.359   8.271 -0.2236  0.2462 -0.1928
40550SOL    HW224544   0.809   5.220   8.215 -1.7922  0.4675 -1.4578
40551SOL     OW24545  10.322   6.675   5.275  0.5144  0.1762 -0.4141
40551SOL    HW124546  10.340   6.652   5.366  1.8860  1.2058 -0.3838
40551SOL    HW224547  10.232   6.648   5.260  0.7806 -1.4949  0.7491
40552SOL     OW24548   5.050   6.469   8.627 -0.1485  0.5129 -0.4837
40552SOL    HW124549   5.052   6.412   8.550  0.6074  1.8017 -1.4543
40552SOL    HW224550   5.136   6.458   8.668 -0.0803  0.8062 -0.5494
40553SOL     OW24551   2.406  10.125   0.826 -0.0522  0.3010 -0.0368
40553SOL    HW124552   2.360  10.059   0.774 -1.6001  0.0132  1.5822
40553SOL    HW224553   2.337  10.186   0.854  0.8084  0.7663  1.1715
40554SOL     OW24554   0.942   2.332   1.241 -0.2031  0.0215 -0.8482
40554SOL    HW124555   1.012   2.388   1.207 -0.1946 -0.4091 -1.5568
40554SOL    HW224556   0.880   2.325   1.169 -0.0921 -1.0636 -0.8651
40555SOL     OW24557   4.855   3.214   1.723  0.0954 -0.1833  0.3995
40555SOL    HW124558   4.918   3.219   1.651 -0.4377 -1.1368 -0.1462
40555SOL    HW224559   4.907   3.181   1.797  0.4615  0.0170  0.2368
40556SOL     OW24560  10.606   9.711   3.968 -0.2162  0.2390  0.2791
40556SOL    HW124561  10.569   9.628   3.997 -3.1202  2.3179  3.2836
40556SOL    HW224562  10.662   9.739   4.041 -1.2568  1.9730  0.4716
40557SOL     OW24563   0.848   3.043   7.077  0.9502  0.5131 -0.0190
40557SOL    HW124564   0.914   3.034   7.146  2.2612 -1.1168 -1.4061
40557SOL    HW224565   0.864   3.130   7.040  2.1527  0.2588 -0.1475
40558SOL     OW24566   9.374   8.075   3.684 -0.8484 -0.1359 -0.3333
40558SOL    HW124567   9.436   8.029   3.741 -0.3370  0.3869 -0.4526
40558SOL    HW224568   9.317   8.007   3.650 -1.4380 -0.4081  1.1424
40559SOL     OW24569   2.559   9.665   4.231  0.2751 -0.1373 -0.3776
40559SOL    HW124570   2.604   9.709   4.159 -1.6269  0.2426 -1.3963
40559SOL    HW224571   2.622   9.600   4.262  3.7873  3.9332  2.0918
40560SOL     OW24572   1.992   5.674   1.136 -0.7137  0.0301  0.0086
40560SOL    HW124573   2.019   5.762   1.109  0.5340 -0.1970  0.4594
40560SOL    HW224574   1.916   5.654   1.081 -0.6258  1.1384 -0.5354
40561SOL     OW24575  10.769   2.182  10.165 -0.3722 -0.0758 -0.6716
40561SOL    HW124576  10.789   2.089  10.168 -0.1439 -0.0062  0.4099
40561SOL    HW224577  10.851   2.224  10.141 -0.1886 -0.0887 -0.1014
40562SOL     OW24578   2.418   9.477   7.004 -0.1977  0.1302 -0.0941
40562SOL    HW124579   2.324   9.492   6.993 -0.6816 -1.2131  1.5994
40562SOL    HW224580   2.424   9.429   7.087  2.0247  0.4886  0.0067
40563SOL     OW24581   8.351   2.106   0.939  0.9083 -0.4667 -0.3981
40563SOL    HW124582   8.422   2.086   0.878  1.3304  1.6695 -0.7086
40563SOL    HW224583   8.386   2.175   0.995 -0.4057 -0.4815  0.4888
40564SOL     OW24584   7.801   1.018   7.641  0.1769  0.1388  0.0451
40564SOL    HW124585   7.787   1.100   7.689  2.3002  0.4761  0.1865
40564SOL    HW224586   7.889   1.026   7.604 -0.2702 -1.3468 -1.4608
40565SOL     OW24587   2.543   1.691   9.418 -0.0429  0.2190  0.3363
40565SOL    HW124588   2.530   1.724   9.507 -0.0951 -1.1867  0.8709
40565SOL    HW224589   2.527   1.597   9.424  2.3812 -0.3384 -0.6436
40566SOL     OW24590   7.413   9.335   0.939  0.7116  0.1170  0.0110
40566SOL    HW124591   7.359   9.376   1.006 -0.1406  1.0121 -1.1994
40566SOL    HW224592   7.468   9.406   0.905 -0.4012  0.1924 -1.7321
40567SOL     OW24593   3.367   7.501   0.043 -0.0331  0.6164 -0.0201
40567SOL    HW124594   3.313   7.427   0.016 -1.6321  1.2677  1.2039
40567SOL    HW224595   3.323   7.536   0.121 -0.5577  4.0594 -1.6360
40568SOL     OW24596  10.056   2.083   7.740  0.5840  0.7317 -0.2610
40568SOL    HW124597  10.059   2.100   7.834 -1.5685  0.2063 -0.0313
40568SOL    HW224598  10.116   2.147   7.702  0.7675  1.5968  1.3865
40569SOL     OW24599   0.294   5.643   7.418 -0.1774  0.5202  0.4484
40569SOL    HW124600   0.277   5.551   7.439  2.1071  0.1027  0.8340
40569SOL    HW224601   0.331   5.641   7.329  2.2791  0.6687  1.3794
40570SOL     OW24602   5.905   1.822   3.689  0.3557 -0.1138 -0.3309
40570SOL    HW124603   5.926   1.729   3.675  0.3144 -0.0738 -0.6830
40570SOL    HW224604   5.849   1.845   3.614 -1.6631 -0.4253  1.0145
40571SOL     OW24605   8.954   4.937   0.210  0.0969 -0.0016  0.3159
40571SOL    HW124606   8.894   4.933   0.136 -0.2045  0.7430  0.5048
40571SOL    HW224607   8.957   5.030   0.233 -1.2156 -0.4141  2.3834
40572SOL     OW24608   8.392   0.735   8.160  0.1302  0.4997  0.4520
40572SOL    HW124609   8.399   0.641   8.176 -0.3446  0.5754  1.1280
40572SOL    HW224610   8.452   0.774   8.223 -0.3780  0.7033  0.8085
40573SOL     OW24611   6.694   7.155   8.567 -0.1606  0.0941 -0.2428
40573SOL    HW124612   6.786   7.150   8.542  0.1800  0.0844  0.9612
40573SOL    HW224613   6.664   7.064   8.566  0.0699  0.0111  0.1578
40574SOL     OW24614   5.182   5.426   7.453 -0.4573  0.5970  0.1208
40574SOL    HW124615   5.169   5.342   7.408 -1.6004  0.2293  1.0685
40574SOL    HW224616   5.173   5.491   7.384 -0.0821 -0.0415 -0.5449
40575SOL     OW24617   6.932   0.129   2.734  0.1020 -0.2191 -0.1515
40575SOL    HW124618   6.871   0.166   2.797 -0.0165 -1.1549  0.2974
40575SOL    HW224619   7.018   0.134   2.777  0.1596 -0.0292 -0.2859
40576SOL     OW24620   9.044   5.803   9.850  0.0489  0.1738  0.2418
40576SOL    HW124621   8.996   5.758   9.780 -2.0588  1.3369  0.8453
40576SOL    HW224622   9.034   5.746   9.926  0.3108  0.0346  0.1718
40577SOL     OW24623   8.815   1.542   9.677 -0.1993 -0.0170  0.6404
40577SOL    HW124624   8.845   1.633   9.682 -0.3726  0.1305 -0.7180
40577SOL    HW224625   8.742   1.544   9.616 -1.1186 -0.8628  1.6729
40578SOL     OW24626   5.807   4.688   8.371 -0.4545 -0.8740  0.0232
40578SOL    HW124627   5.804   4.738   8.453 -1.4715 -1.1592  0.1830
40578SOL    HW224628   5.723   4.642   8.369 -0.7342 -0.3527 -1.5019
40579SOL     OW24629   2.967   3.324   2.964 -0.2921  0.2002  0.0215
40579SOL    HW124630   2.930   3.281   2.887 -2.8963  2.2450 -0.0311
40579SOL    HW224631   3.026   3.390   2.929  0.8320 -0.7881 -0.0303
40580SOL     OW24632   1.103   5.873   7.604 -0.4381  1.3459  0.0235
40580SOL    HW124633   1.035   5.809   7.581  0.0061  0.9562 -0.2229
40580SOL    HW224634   1.055   5.948   7.639 -0.9559  0.7425  0.6518
40581SOL     OW24635   9.307   3.969   7.062 -0.0884  0.7601 -0.0340
40581SOL    HW124636   9.305   3.921   7.145 -2.1073  0.7346 -0.0444
40581SOL    HW224637   9.283   4.059   7.086  1.9383  1.4247 -0.2700
40582SOL     OW24638   7.050  10.019   1.468 -0.3542 -0.2177  0.4016
40582SOL    HW124639   6.964  10.062   1.462  0.1664  1.1848  2.0010
40582SOL    HW224640   7.043   9.961   1.543  0.5458  1.1623  1.6120
40583SOL     OW24641   1.682   2.637   6.875 -0.3174 -0.4120 -0.2913
40583SOL    HW124642   1.741   2.562   6.865  0.1675  0.0526 -1.0818
40583SOL    HW224643   1.645   2.628   6.962  1.0160 -0.6619  0.2659
40584SOL     OW24644   1.121   7.185   1.400  0.0059  0.1580  0.2059
40584SOL    HW124645   1.039   7.233   1.414 -0.0272  0.4814 -0.9393
40584SOL    HW224646   1.099   7.120   1.333  0.2408 -0.9715  1.2139
40585SOL     OW24647   0.535   0.968  10.403 -0.1198  0.7307  0.7257
40585SOL    HW124648   0.485   0.996  10.480 -1.9083 -0.7408  0.1752
40585SOL    HW224649   0.607   0.916  10.438 -1.5508 -0.8681  1.4338
40586SOL     OW24650   9.512   8.397   7.819 -0.2236  0.5257  0.2305
40586SOL    HW124651   9.496   8.324   7.759 -0.1925  0.7006  0.0085
40586SOL    HW224652   9.473   8.369   7.901  0.6177 -0.1440  0.4195
40587SOL     OW24653   4.865   1.968   9.553 -0.0392  0.2363  0.0357
40587SOL    HW124654   4.942   2.025   9.547  0.5980 -0.5340  0.7111
40587SOL    HW224655   4.878   1.920   9.634 -0.9985 -0.2653 -0.1003
40588SOL     OW24656  10.289   5.888   8.531  0.2356  0.2237 -0.2776
40588SOL    HW124657  10.264   5.943   8.457  0.8840  0.6444 -0.1892
40588SOL    HW224658  10.381   5.868   8.516 -0.0382 -1.0011 -0.4020
40589SOL     OW24659  10.644   8.540   7.907 -0.0901 -0.1026  0.2316
40589SOL    HW124660  10.572   8.528   7.969 -0.8689  0.5942 -0.5150
40589SOL    HW224661  10.709   8.590   7.956  0.3663 -1.5967  1.2422
40590SOL     OW24662   5.855   9.542   3.294 -0.2194  0.0040 -0.1821
40590SOL    HW124663   5.938   9.525   3.339 -0.3260 -3.1650 -0.9509
40590SOL    HW224664   5.810   9.458   3.294 -2.2439  0.9856 -2.2006
40591SOL     OW24665   3.387   4.444   1.775  0.6186  0.5896 -0.1749
40591SOL    HW124666   3.296   4.428   1.749  0.8522 -1.6321  0.1582
40591SOL    HW224667   3.390   4.538   1.794 -1.5327  0.7743 -0.4240
40592SOL     OW24668   9.479   6.020  10.016  0.0671 -0.6573  0.3246
40592SOL    HW124669   9.413   5.976   9.963  1.1247 -2.2816  0.2619
40592SOL    HW224670   9.431   6.089  10.062 -1.2585 -0.5181 -1.1886
40593SOL     OW24671   0.314   8.802   5.778 -0.7708  0.6058  0.6987
40593SOL    HW124672   0.395   8.812   5.829  0.0046 -2.8763  0.3988
40593SOL    HW224673   0.257   8.749   5.834 -1.5273  0.1945 -0.4393
40594SOL     OW24674   2.477   9.426   7.530 -0.0087  0.2259 -0.3272
40594SOL    HW124675   2.573   9.429   7.528 -0.0337  1.2712 -2.3044
40594SOL    HW224676   2.451   9.513   7.561 -0.3039  0.4189 -1.0862
40595SOL     OW24677   9.461   8.282   7.357  0.4696  0.2720 -0.1186
40595SOL    HW124678   9.522   8.209   7.373  1.3640  0.6874 -1.5101
40595SOL    HW224679   9.451   8.285   7.262 -1.4740  0.4465  0.0593
40596SOL     OW24680   0.191   4.105   6.610 -0.1580 -0.0944  0.0839
40596SOL    HW124681   0.117   4.125   6.667 -0.2861  1.3358 -0.5498
40596SOL    HW224682   0.261   4.162   6.642  0.7074 -1.4388  0.6860
40597SOL     OW24683   0.984   4.285   4.668 -0.0756 -0.5382  0.2539
40597SOL    HW124684   0.986   4.342   4.745  2.2473  0.6378 -0.6068
40597SOL    HW224685   0.938   4.337   4.601  3.2920  1.1692 -0.9941
40598SOL     OW24686   8.002   3.668   0.743  0.0039  0.7080 -0.0326
40598SOL    HW124687   8.022   3.695   0.653 -1.0668  0.0376 -0.4966
40598SOL    HW224688   7.916   3.705   0.761 -0.0531  0.3288  0.5000
40599SOL     OW24689   2.219   3.644   8.903 -0.2722 -0.4989 -0.1884
40599SOL    HW124690   2.157   3.717   8.911  2.5430  2.2449 -1.3758
40599SOL    HW224691   2.279   3.655   8.976 -1.3751 -3.4979  1.3251
40600SOL     OW24692  10.259   9.518   4.460 -0.5116 -0.1611 -0.8833
40600SOL    HW124693  10.253   9.577   4.384 -1.0576  0.5235 -0.3257
40600SOL    HW224694  10.353   9.515   4.481 -0.6446  2.4999  0.5547
40601SOL     OW24695   6.281   7.282   1.454 -0.5033 -0.2480  0.5928
40601SOL    HW124696   6.350   7.347   1.439  0.7440 -1.0153  2.5139
40601SOL    HW224697   6.252   7.256   1.367  1.7436  0.0372 -0.3016
40602SOL     OW24698   2.317   4.708   7.598  0.0767 -0.0622  0.0895
40602SOL    HW124699   2.404   4.734   7.626 -0.1427  0.1539  0.5862
40602SOL    HW224700   2.305   4.751   7.513 -0.0088  0.8928  0.5754
40603SOL     OW24701   6.777   2.834   9.391  0.0679  0.3782  0.2538
40603SOL    HW124702   6.827   2.754   9.373 -1.8007 -0.8512  0.2267
40603SOL    HW224703   6.843   2.900   9.411  1.7187 -0.9135 -0.7163
40604SOL     OW24704   5.754   2.917   4.304  0.0233  0.3092  0.3491
40604SOL    HW124705   5.793   2.900   4.218 -1.8649 -0.9297 -0.3332
40604SOL    HW224706   5.662   2.893   4.293 -0.4855  1.1128  2.4513
40605SOL     OW24707   4.391   1.997   5.103 -0.0866 -0.5515  0.3551
40605SOL    HW124708   4.331   2.069   5.125  0.5503  0.2788 -0.5254
40605SOL    HW224709   4.376   1.980   5.010  0.6341 -0.7064  0.2553
40606SOL     OW24710   7.769   9.381   7.392 -0.2985 -0.3202  0.0054
40606SOL    HW124711   7.748   9.314   7.456 -0.4953 -1.5193 -1.2603
40606SOL    HW224712   7.759   9.464   7.439  0.3114 -1.1700  1.7102
40607SOL     OW24713   6.964   7.282   4.300  0.3199  0.1021  0.0258
40607SOL    HW124714   7.042   7.333   4.280  0.4472  0.5001  1.4535
40607SOL    HW224715   6.891   7.337   4.271  0.4965  0.6881  0.6630
40608SOL     OW24716   1.472   9.536   6.655 -0.0817 -0.7259  0.0588
40608SOL    HW124717   1.527   9.525   6.732  0.7135  0.7767 -0.2381
40608SOL    HW224718   1.399   9.590   6.685 -0.5011 -1.2870  0.0609
40609SOL     OW24719   4.726   8.309   0.831  0.0820  0.4134  0.2166
40609SOL    HW124720   4.715   8.231   0.886 -2.9267 -0.3261 -1.2180
40609SOL    HW224721   4.785   8.281   0.761  0.0946 -0.1511  0.4435
40610SOL     OW24722   2.204   4.693   0.724  0.1520 -0.3630 -0.2803
40610SOL    HW124723   2.179   4.639   0.649  0.9132 -0.6737 -0.3199
40610SOL    HW224724   2.205   4.783   0.689  1.6738 -0.6216 -0.9788
40611SOL     OW24725   0.680   5.422   0.649 -0.8428  0.1701 -0.0829
40611SOL    HW124726   0.774   5.441   0.647 -0.4769 -1.4984 -0.2909
40611SOL    HW224727   0.675   5.328   0.666 -2.4883  0.2515  0.0418
40612SOL     OW24728  10.423   5.683   6.300 -0.2086 -0.5725  0.2327
40612SOL    HW124729  10.475   5.746   6.251 -0.6993 -0.9862 -0.8535
40612SOL    HW224730  10.473   5.667   6.380 -1.2359  3.0322  1.7880
40613SOL     OW24731  10.113   7.186   3.948  0.0552 -0.5623  0.8625
40613SOL    HW124732  10.160   7.201   4.030  1.3345  0.3545  0.0214
40613SOL    HW224733  10.159   7.112   3.908  1.4112  0.8637 -0.3490
40614SOL     OW24734  10.605   9.758  10.660  0.0218  0.3262 -0.1412
40614SOL    HW124735  10.682   9.702  10.670  0.0593  0.7464  3.0754
40614SOL    HW224736  10.638   9.836  10.615  1.3363  0.1725  0.4999
40615SOL     OW24737   6.249  10.012   8.715  0.3981 -0.0788  0.4389
40615SOL    HW124738   6.323  10.069   8.734  1.3978 -1.0966 -0.3090
40615SOL    HW224739   6.176  10.073   8.702  0.9996  0.9293  1.4912
40616SOL     OW24740  10.422   8.292   2.318 -0.0397 -0.1911 -0.1695
40616SOL    HW124741  10.482   8.218   2.309 -1.0568 -1.2214  1.0034
40616SOL    HW224742  10.353   8.274   2.254  0.5243  0.6165 -1.0207
40617SOL     OW24743   7.328   9.485  10.572  0.1843  0.2567  0.7357
40617SOL    HW124744   7.414   9.444  10.585 -0.8228 -2.1457  0.3054
40617SOL    HW224745   7.331   9.519  10.483  1.3758  2.0726  1.4217
40618SOL     OW24746   2.563   9.218  10.314  0.0682  0.2425  0.4247
40618SOL    HW124747   2.564   9.261  10.399 -0.7894  0.2308  0.4457
40618SOL    HW224748   2.606   9.134  10.329 -0.0301  0.2633  0.8270
40619SOL     OW24749   1.545   3.006   2.278  0.6644  0.0935 -0.2263
40619SOL    HW124750   1.600   2.976   2.206 -1.1271 -0.4020 -1.4761
40619SOL    HW224751   1.544   3.102   2.270  1.3202  0.1078 -0.1831
40620SOL     OW24752   1.612  10.410   8.748  0.1667  0.2903  0.4138
40620SOL    HW124753   1.551  10.341   8.775 -0.4028  0.6740  0.1264
40620SOL    HW224754   1.677  10.414   8.818 -0.4763  0.2876  1.0199
40621SOL     OW24755   3.609   1.195   6.331  0.2826  0.2239  0.0342
40621SOL    HW124756   3.599   1.115   6.280  0.9745 -0.4202  0.8583
40621SOL    HW224757   3.596   1.266   6.268 -1.4391 -0.5123 -0.4874
40622SOL     OW24758   8.157   5.957   2.276 -0.3052 -0.7812  0.1269
40622SOL    HW124759   8.244   5.923   2.298 -0.8224 -1.3280  1.5011
40622SOL    HW224760   8.170   6.050   2.259  0.3399 -0.4946  1.9798
40623SOL     OW24761   7.669  10.173   6.872 -0.6484 -0.1467 -0.1368
40623SOL    HW124762   7.580  10.140   6.886  0.3526 -4.3717 -2.3166
40623SOL    HW224763   7.674  10.189   6.778  1.0803 -0.6790 -0.1692
40624SOL     OW24764   8.292   1.568   0.695  0.4256 -0.2670  0.6736
40624SOL    HW124765   8.330   1.651   0.668 -0.7039  0.5948  1.6238
40624SOL    HW224766   8.265   1.526   0.613  2.5110 -0.5078  0.0533
40625SOL     OW24767   8.908  10.237  10.197 -0.5055 -0.7250 -0.4110
40625SOL    HW124768   8.853  10.306  10.160 -0.1440 -0.7325 -0.9654
40625SOL    HW224769   8.937  10.185  10.122 -0.4865 -1.2714 -0.0304
40626SOL     OW24770   8.913   3.014   5.343 -0.4831 -0.4798  0.7748
40626SOL    HW124771   8.869   2.987   5.263  0.8168 -1.6568  0.4008
40626SOL    HW224772   8.864   2.971   5.413 -1.6386  0.5735  0.6439
40627SOL     OW24773   9.456   6.055   7.206 -0.1921 -0.2343  0.1675
40627SOL    HW124774   9.524   6.070   7.139 -0.5265  0.8985  0.0570
40627SOL    HW224775   9.450   6.138   7.252  0.0861 -1.0262  1.6823
40628SOL     OW24776   3.499   9.239   2.951 -0.0457  0.9490 -0.1400
40628SOL    HW124777   3.425   9.291   2.984 -0.3940  1.1097 -1.1412
40628SOL    HW224778   3.576   9.294   2.967 -0.1472  0.8297  0.8045
40629SOL     OW24779   1.506   3.344  10.653  0.1604  0.9958  0.1703
40629SOL    HW124780   1.578   3.339  10.716  1.8126  0.8587 -1.6149
40629SOL    HW224781   1.484   3.437  10.650 -0.7407  0.8608  1.7546
40630SOL     OW24782   0.742   8.640   4.036 -0.5458  0.3219 -0.1264
40630SOL    HW124783   0.683   8.712   4.014  0.7770  1.3148 -0.6113
40630SOL    HW224784   0.801   8.677   4.102  1.0320  0.1741 -1.3791
40631SOL     OW24785   8.574   9.768   6.398 -0.0945 -0.5501  0.0929
40631SOL    HW124786   8.507   9.734   6.457 -0.1875  1.7000  1.4052
40631SOL    HW224787   8.645   9.797   6.455  0.9788 -0.7188 -1.1103
40632SOL     OW24788   0.828   6.738   9.576 -0.6760 -0.8625 -0.1574
40632SOL    HW124789   0.743   6.730   9.618 -0.7909  0.2178 -0.1378
40632SOL    HW224790   0.835   6.663   9.518 -1.7284 -0.8449 -0.3113
40633SOL     OW24791   2.159   6.470   7.753 -0.3212 -0.2246  0.3606
40633SOL    HW124792   2.121   6.536   7.810  0.5497  0.1328  0.5413
40633SOL    HW224793   2.138   6.500   7.664  1.0897  0.9755  0.3869
40634SOL     OW24794   7.296  10.123   2.829  0.5233 -0.7013 -0.0387
40634SOL    HW124795   7.381  10.121   2.873  1.0207 -0.8281 -0.9988
40634SOL    HW224796   7.311  10.169   2.747 -1.0166  2.1138  1.1302
40635SOL     OW24797   3.333  10.480   3.931 -0.4482  0.8290 -0.4027
40635SOL    HW124798   3.373  10.508   3.849 -0.9139  0.8887 -0.6132
40635SOL    HW224799   3.304  10.390   3.914  3.3203 -0.8681  1.0499
40636SOL     OW24800   9.019  10.565   8.828  0.0120 -0.5867 -0.1914
40636SOL    HW124801   9.036  10.659   8.839 -0.7815 -0.2979 -1.3247
40636SOL    HW224802   9.075  10.539   8.755  2.0151 -1.5557  1.5507
40637SOL     OW24803   2.265   4.332   8.011 -0.0701  0.1237 -0.1318
40637SOL    HW124804   2.302   4.317   8.097 -0.0259  2.8827  0.4404
40637SOL    HW224805   2.304   4.264   7.955 -1.3964 -2.7967  2.2566
40638SOL     OW24806   2.500   1.888   2.564  0.1443  0.7313  0.2375
40638SOL    HW124807   2.526   1.896   2.472  0.7565 -1.5092  0.1536
40638SOL    HW224808   2.412   1.853   2.562  1.4870 -3.1228  0.3391
40639SOL     OW24809  10.486  10.690   1.129  0.0259 -0.3592  0.2887
40639SOL    HW124810  10.410  10.652   1.173  0.5389 -2.2840 -0.3844
40639SOL    HW224811  10.452  10.767   1.084 -1.9230 -1.9707 -1.2135
40640SOL     OW24812   5.116   3.003   7.320 -0.1178 -0.2828  0.3336
40640SOL    HW124813   5.167   3.078   7.291 -0.1335 -0.6928 -0.7750
40640SOL    HW224814   5.072   3.033   7.400  1.5572  0.1961  1.1170
40641SOL     OW24815   3.707   0.151   8.612 -0.3116 -0.3152  0.2866
40641SOL    HW124816   3.614   0.155   8.637 -0.7974  3.1461 -1.5453
40641SOL    HW224817   3.754   0.164   8.695 -1.3043 -2.7434  1.3539
40642SOL     OW24818   1.799   3.135   9.841 -0.2493 -0.0951 -0.0875
40642SOL    HW124819   1.763   3.140   9.930 -0.3825 -0.8546 -0.0973
40642SOL    HW224820   1.856   3.212   9.834 -1.1187  0.6087  0.2600
40643SOL     OW24821   8.570   1.615   9.129  0.6009  0.1531 -0.1187
40643SOL    HW124822   8.531   1.560   9.197  0.7800  0.7785  0.5091
40643SOL    HW224823   8.617   1.554   9.073 -2.2076 -0.8149 -1.6213
40644SOL     OW24824   6.832   4.033   9.701  0.2464 -0.1290  0.3026
40644SOL    HW124825   6.777   4.110   9.688 -0.1657 -0.0382  2.3187
40644SOL    HW224826   6.914   4.055   9.657 -1.0441 -0.0146 -2.2086
40645SOL     OW24827   1.571   4.091   9.768 -0.0085  0.6016 -0.0217
40645SOL    HW124828   1.581   4.028   9.840  1.7411 -0.7991 -1.3865
40645SOL    HW224829   1.556   4.175   9.811  0.4948 -0.2678  1.9688
40646SOL     OW24830   1.479   5.974   5.895 -0.3724 -0.1856  0.2291
40646SOL    HW124831   1.518   6.048   5.849 -0.0314 -0.7610 -0.4128
40646SOL    HW224832   1.402   5.951   5.844 -0.2140 -0.5755  0.1623
40647SOL     OW24833   5.349   0.831   0.354  0.0785 -0.2373  0.0274
40647SOL    HW124834   5.273   0.876   0.390  1.2750  2.1401 -0.2454
40647SOL    HW224835   5.347   0.744   0.396 -2.4336 -0.0794  0.4185
40648SOL     OW24836   2.940   9.660   2.485  0.2275  0.3647  0.2439
40648SOL    HW124837   2.863   9.609   2.510 -0.1399 -0.4592 -2.3127
40648SOL    HW224838   3.001   9.595   2.451  1.7421  1.1212  1.4210
40649SOL     OW24839   2.513   1.386   7.226  0.1087 -0.3757  0.1541
40649SOL    HW124840   2.574   1.329   7.273  1.0465  1.2366  0.9704
40649SOL    HW224841   2.442   1.404   7.288  1.7597  2.4320  1.4219
40650SOL     OW24842   7.386   0.911   2.976 -0.1447 -0.0868 -0.4430
40650SOL    HW124843   7.450   0.887   3.043 -0.3969 -0.2913 -0.2739
40650SOL    HW224844   7.437   0.921   2.896  0.0207 -0.7840 -0.4272
40651SOL     OW24845   5.010   2.618   0.546  0.5477 -0.3048 -0.3593
40651SOL    HW124846   4.953   2.687   0.511 -0.1857 -0.6787  0.0802
40651SOL    HW224847   5.077   2.606   0.479  1.1176  1.3426 -0.1326
40652SOL     OW24848   1.471   4.574   0.147 -0.3380  0.2000 -0.3484
40652SOL    HW124849   1.552   4.552   0.103  0.1494  1.4861 -0.1539
40652SOL    HW224850   1.404   4.571   0.078  0.2276  1.1015 -0.9637
40653SOL     OW24851   5.568   3.363   0.262  0.1135  0.4756  0.2045
40653SOL    HW124852   5.557   3.446   0.216 -2.4042 -0.6680 -1.5335
40653SOL    HW224853   5.638   3.318   0.214  0.2716  0.8868  0.0437
40654SOL     OW24854   0.243   6.055  10.170 -0.2490  0.3100  0.2529
40654SOL    HW124855   0.273   6.102  10.247 -0.3330  0.1341  0.3931
40654SOL    HW224856   0.230   6.123  10.104  1.8476  0.2453 -0.2737
40655SOL     OW24857   2.081  10.755   7.946  0.1703  0.0553 -0.0411
40655SOL    HW124858   2.122  10.841   7.944 -0.1141  0.2036  0.2551
40655SOL    HW224859   2.025  10.753   7.868 -0.4247  0.4507  0.3622
40656SOL     OW24860   2.014   0.324   7.494  0.1065  0.0426 -0.2363
40656SOL    HW124861   2.000   0.328   7.589 -0.6255  0.1278 -0.3437
40656SOL    HW224862   2.090   0.267   7.484 -0.5308 -0.9524  0.3526
40657SOL     OW24863   6.057   6.157   9.213 -0.1254 -0.1740 -0.6567
40657SOL    HW124864   6.143   6.121   9.235  2.1939  3.8231 -2.1209
40657SOL    HW224865   6.050   6.145   9.118 -1.2951 -0.5841 -0.5312
40658SOL     OW24866   3.926   6.405   7.522  0.4503 -0.1524 -0.2581
40658SOL    HW124867   3.961   6.404   7.611  0.4712  0.2619 -0.2609
40658SOL    HW224868   3.973   6.335   7.477 -0.1531 -0.9164  0.2799
40659SOL     OW24869   6.156   2.155   9.959  0.2603  0.0109 -0.3691
40659SOL    HW124870   6.205   2.173   9.879 -0.3864  3.1615 -0.1647
40659SOL    HW224871   6.215   2.181  10.030 -0.2654  0.1320  0.0347
40660SOL     OW24872   4.251   5.502   7.575 -0.8503  0.5458 -0.1712
40660SOL    HW124873   4.261   5.423   7.629  0.3704 -0.0471 -1.2164
40660SOL    HW224874   4.159   5.502   7.550 -0.8862 -0.5045 -0.0935
40661SOL     OW24875   6.942   7.830   8.001  0.1252  0.1039  0.3823
40661SOL    HW124876   6.881   7.794   8.066  0.1471  0.6197  0.6885
40661SOL    HW224877   7.018   7.772   8.005 -0.1344 -0.2444  0.3575
40662SOL     OW24878   4.775   5.229   0.555  0.6329  0.0457 -0.1791
40662SOL    HW124879   4.847   5.210   0.495 -0.8361 -0.9509 -1.6996
40662SOL    HW224880   4.719   5.151   0.552 -0.4696  0.7438  1.0262
40663SOL     OW24881   5.774   6.690   2.725 -0.3387 -0.7166 -0.1225
40663SOL    HW124882   5.800   6.630   2.655 -0.5787 -0.9695  0.0033
40663SOL    HW224883   5.760   6.634   2.801  1.2513 -0.2995  0.5136
40664SOL     OW24884   1.438   0.294   9.325  0.2945 -0.6814 -0.3073
40664SOL    HW124885   1.465   0.379   9.358 -0.5435 -0.8066  0.7565
40664SOL    HW224886   1.458   0.297   9.232  2.7013 -0.3006  0.1629
40665SOL     OW24887   9.275   4.859   3.464  0.0766  0.0786 -0.2390
40665SOL    HW124888   9.364   4.825   3.452 -0.1243 -0.7040  0.4114
40665SOL    HW224889   9.257   4.908   3.384 -0.6979 -3.6972 -2.6164
40666SOL     OW24890   9.140   2.294   3.926 -0.1677  0.3599  0.1125
40666SOL    HW124891   9.199   2.251   3.989 -1.1757 -1.2921 -0.0067
40666SOL    HW224892   9.105   2.369   3.974  1.1538  0.7353  0.5563
40667SOL     OW24893   6.412   4.586   2.206  0.5789 -0.6397 -0.7260
40667SOL    HW124894   6.496   4.574   2.250 -0.9534  0.3179  2.7488
40667SOL    HW224895   6.357   4.514   2.238 -0.3400 -0.4991 -1.9061
40668SOL     OW24896   3.168   2.722   8.136 -0.0148  0.0897 -0.3603
40668SOL    HW124897   3.238   2.701   8.074  1.5963  0.4177  1.2895
40668SOL    HW224898   3.208   2.780   8.200 -2.1264  1.2395  0.0141
40669SOL     OW24899   7.483   3.915   5.777 -0.2872  0.4795 -0.6222
40669SOL    HW124900   7.511   3.983   5.716  2.2248  0.3852  0.2833
40669SOL    HW224901   7.453   3.963   5.854 -0.2356  0.5884 -0.6691
40670SOL     OW24902   3.656   8.632   7.824 -0.7646 -0.1248 -0.1551
40670SOL    HW124903   3.601   8.568   7.781 -0.4664 -0.5177  0.0423
40670SOL    HW224904   3.742   8.624   7.782 -0.8494  0.4797 -0.4597
40671SOL     OW24905   5.844   2.674   3.497 -0.2723  0.0360 -0.3082
40671SOL    HW124906   5.866   2.616   3.424 -0.8899 -0.4202 -0.1340
40671SOL    HW224907   5.929   2.703   3.531  0.0240  0.3503 -1.2810
40672SOL     OW24908  10.287   6.415   9.635  0.1732  0.0233  0.2424
40672SOL    HW124909  10.239   6.338   9.604 -0.9480  1.4115 -1.6668
40672SOL    HW224910  10.240   6.444   9.713 -0.9124  0.2195 -0.4771
40673SOL     OW24911   2.956   2.177   9.834 -0.3659  0.1114 -0.4304
40673SOL    HW124912   2.947   2.087   9.802  0.4610 -0.5999  1.1975
40673SOL    HW224913   3.045   2.181   9.867 -0.8342  1.0863  0.7838
40674SOL     OW24914   6.359   8.210   9.775 -0.3729  0.1372  0.3838
40674SOL    HW124915   6.439   8.181   9.729 -0.2694  1.1210 -0.0723
40674SOL    HW224916   6.298   8.136   9.765  1.3565 -1.8855  3.1673
40675SOL     OW24917   0.794   1.414   8.883  0.1017  0.8601  0.4191
40675SOL    HW124918   0.846   1.334   8.885  0.3509  0.9798 -0.7779
40675SOL    HW224919   0.804   1.451   8.971  0.2591 -0.2368  0.8747
40676SOL     OW24920   7.928   8.596   3.717  0.2191 -0.1057 -0.2324
40676SOL    HW124921   8.013   8.555   3.702  0.3743 -0.0278  0.3949
40676SOL    HW224922   7.941   8.651   3.795 -0.1665  0.5998 -0.6598
40677SOL     OW24923   0.880   9.063   1.512 -0.4449  0.0311 -0.2731
40677SOL    HW124924   0.959   9.017   1.482 -0.7970 -2.7034  2.4593
40677SOL    HW224925   0.824   9.067   1.435  0.5335 -2.2356 -1.2100
40678SOL     OW24926   2.967   6.769   7.552  0.5075  0.0878 -0.2069
40678SOL    HW124927   2.907   6.727   7.614 -0.4575 -0.2180 -1.2993
40678SOL    HW224928   2.956   6.863   7.567 -0.7073  0.0573 -0.7812
40679SOL     OW24929   6.381   0.850  10.063  0.5469 -0.5268 -0.4059
40679SOL    HW124930   6.390   0.761  10.097 -1.0521 -1.1538 -1.4469
40679SOL    HW224931   6.299   0.882  10.102  0.6040  0.1055 -0.7883
40680SOL     OW24932   6.019   8.834   5.922 -0.1549 -0.1642 -0.2386
40680SOL    HW124933   6.020   8.906   5.985  0.3478 -0.5727  0.2301
40680SOL    HW224934   5.989   8.874   5.840 -3.5791 -0.1578  0.8722
40681SOL     OW24935   3.989   8.451   1.336 -0.6488  0.0624 -0.0470
40681SOL    HW124936   4.007   8.375   1.392  1.8857 -1.2768 -2.4174
40681SOL    HW224937   3.908   8.428   1.290  0.0846 -1.2907 -0.7307
40682SOL     OW24938   2.905   9.338   6.867 -0.0446 -0.4921 -0.7246
40682SOL    HW124939   2.835   9.334   6.931  0.1737 -0.0759 -0.4487
40682SOL    HW224940   2.976   9.384   6.912  0.5770 -1.3123 -0.8401
40683SOL     OW24941   0.968   9.796   4.155 -0.5271 -0.0127 -0.1299
40683SOL    HW124942   1.049   9.758   4.121 -0.7826 -1.5316  0.8608
40683SOL    HW224943   0.904   9.782   4.085  0.3903  2.9581 -1.7783
40684SOL     OW24944   7.168   2.012   7.044  0.3828  0.0608 -0.6293
40684SOL    HW124945   7.174   1.924   7.007 -1.4536 -0.4855  0.2803
40684SOL    HW224946   7.228   2.011   7.119 -1.3972 -1.2682  0.8719
40685SOL     OW24947   6.133   5.241   9.931  0.7010  0.1756 -0.5544
40685SOL    HW124948   6.109   5.165   9.878 -0.4587  0.6854 -0.7850
40685SOL    HW224949   6.055   5.259   9.985  0.8801  1.3130 -0.6464
40686SOL     OW24950   4.333   6.629   8.510 -0.0301 -0.0883 -0.0989
40686SOL    HW124951   4.377   6.676   8.439  2.8004  0.0625  1.5683
40686SOL    HW224952   4.404   6.606   8.570 -2.3276  0.5007  3.1015
40687SOL     OW24953   1.724   2.207   0.873 -0.1532  0.0116  0.1693
40687SOL    HW124954   1.790   2.261   0.918 -1.0971  1.7889 -0.4748
40687SOL    HW224955   1.667   2.177   0.943  1.7152 -2.2412  0.8545
40688SOL     OW24956   1.272   7.667   2.865  0.0487 -0.5632  0.2913
40688SOL    HW124957   1.279   7.762   2.851  0.5059 -0.5020  0.9510
40688SOL    HW224958   1.201   7.657   2.928 -1.0834 -0.7675 -0.9539
40689SOL     OW24959   2.275   2.270   3.150  0.2713  0.2065 -0.5373
40689SOL    HW124960   2.317   2.292   3.233 -2.1183 -1.6361  1.2952
40689SOL    HW224961   2.268   2.354   3.105  2.9761  1.0439  0.3707
40690SOL     OW24962   8.654   1.692   6.669 -0.2940 -0.1321 -0.3314
40690SOL    HW124963   8.651   1.661   6.579 -1.1607 -0.1569 -0.3022
40690SOL    HW224964   8.721   1.760   6.669  1.4476 -1.7867 -0.4465
40691SOL     OW24965   9.043  10.176   6.768 -0.0177 -0.1022 -0.4195
40691SOL    HW124966   9.104  10.236   6.810 -0.5090  0.2044 -0.1413
40691SOL    HW224967   8.979  10.233   6.724  0.3356 -0.4155 -1.3575
40692SOL     OW24968   5.546   6.101  10.093 -0.3251 -0.1350  0.0311
40692SOL    HW124969   5.547   6.006  10.096 -2.2420 -0.2027 -0.0062
40692SOL    HW224970   5.633   6.126  10.062 -0.5354 -1.9715 -2.2299
40693SOL     OW24971   7.540   2.025   2.372  0.5902 -0.4397 -0.5961
40693SOL    HW124972   7.497   2.111   2.370 -1.8472 -1.5595  0.4224
40693SOL    HW224973   7.561   2.011   2.464 -0.5224 -1.6170 -0.5089
40694SOL     OW24974  10.257   2.342   9.249  0.1360 -0.1243 -0.1186
40694SOL    HW124975  10.167   2.354   9.217 -0.4176 -0.4562  1.2777
40694SOL    HW224976  10.312   2.370   9.175 -1.1052  0.4043 -0.8745
40695SOL     OW24977  10.479   5.194  10.410 -0.5819  0.1407 -0.5085
40695SOL    HW124978  10.524   5.131  10.354  0.3970  1.6387 -1.5058
40695SOL    HW224979  10.547   5.227  10.468 -1.2790 -0.3284  0.6040
40696SOL     OW24980   5.396   6.971   7.625 -0.0225  0.5534 -0.0751
40696SOL    HW124981   5.455   7.027   7.574 -0.3699  1.2461  0.2648
40696SOL    HW224982   5.452   6.903   7.661  0.4905  0.9316 -0.1488
40697SOL     OW24983   8.207   9.596   2.873 -0.2418  0.0635  0.2312
40697SOL    HW124984   8.189   9.571   2.782 -0.7862  0.8602  0.1065
40697SOL    HW224985   8.128   9.572   2.921 -0.2605  0.3354  0.3437
40698SOL     OW24986   5.209   6.431   7.562  0.5055  0.2554  0.0471
40698SOL    HW124987   5.181   6.483   7.486  1.6021  0.3068 -0.3408
40698SOL    HW224988   5.284   6.381   7.530  0.1208 -0.7898  0.7183
40699SOL     OW24989   1.358   7.566   8.214 -0.1547  0.1847  0.0515
40699SOL    HW124990   1.284   7.600   8.263 -0.3257 -2.7801  2.1369
40699SOL    HW224991   1.318   7.505   8.151  0.3634  0.8405 -0.9425
40700SOL     OW24992   8.054  10.039   1.288  0.5139 -0.2080 -0.2384
40700SOL    HW124993   8.066   9.952   1.250  0.0780  0.3314 -1.6526
40700SOL    HW224994   8.015  10.022   1.374  2.3883 -1.4938  0.4045
40701SOL     OW24995   2.895   1.221   8.696  0.1923 -0.2108  0.2782
40701SOL    HW124996   2.931   1.135   8.719  0.9653  0.1710  0.5296
40701SOL    HW224997   2.821   1.202   8.639  0.9406 -1.0145 -0.4454
40702SOL     OW24998   1.315   4.665   9.224  0.2460 -0.0579 -0.0379
40702SOL    HW124999   1.293   4.576   9.251 -0.5615 -0.1227 -0.8500
40702SOL    HW225000   1.287   4.721   9.296 -0.1431 -0.3787  0.0601
40703SOL     OW25001   6.221   9.608   9.541 -0.6925  0.2227  0.4543
40703SOL    HW125002   6.273   9.595   9.619  0.4652 -0.0407 -0.3343
40703SOL    HW225003   6.185   9.521   9.521  2.6588 -0.8486 -1.7680
40704SOL     OW25004   7.655   0.918   9.596 -0.4597 -0.0798  0.0027
40704SOL    HW125005   7.666   0.833   9.640 -1.5729 -1.2475 -1.8237
40704SOL    HW225006   7.615   0.896   9.511  1.5796  2.0209 -1.6381
40705SOL     OW25007  10.735  10.416   0.252  0.2169  0.3078  0.2967
40705SOL    HW125008  10.806  10.359   0.224 -0.7860 -0.9552  0.2148
40705SOL    HW225009  10.724  10.398   0.345  0.4127  0.9724  0.4536
40706SOL     OW25010   2.729   9.466   3.623 -0.2136 -0.6719 -0.1593
40706SOL    HW125011   2.712   9.512   3.705  2.3959  0.1599  0.0181
40706SOL    HW225012   2.701   9.376   3.640  1.0039 -0.7164  1.9946
40707SOL     OW25013   8.703   2.507   1.871 -0.0841  0.1797 -0.1206
40707SOL    HW125014   8.754   2.528   1.793 -0.8171 -0.0269 -0.6710
40707SOL    HW225015   8.683   2.414   1.862 -0.9600  0.3602 -0.1700
40708SOL     OW25016   1.324   4.644   1.206 -0.4917 -0.0768 -0.8334
40708SOL    HW125017   1.249   4.690   1.167 -0.2961  0.0322 -1.0784
40708SOL    HW225018   1.335   4.686   1.292 -0.3914  0.2478 -1.0045
40709SOL     OW25019   3.449   7.772   0.620 -0.7350 -0.5424 -0.0849
40709SOL    HW125020   3.448   7.867   0.613 -0.9918 -0.5175  0.2879
40709SOL    HW225021   3.357   7.747   0.625 -0.6602 -0.7970  0.0216
40710SOL     OW25022   2.592   6.264   7.289  0.2837 -0.4854  0.5872
40710SOL    HW125023   2.626   6.209   7.218  0.5135 -0.1292  0.4185
40710SOL    HW225024   2.606   6.213   7.368  1.2228 -0.3446  0.5254
40711SOL     OW25025   3.017   4.295   0.629  0.2214 -0.3713  0.5278
40711SOL    HW125026   2.984   4.353   0.698 -0.7787  0.6720 -0.7789
40711SOL    HW225027   2.950   4.227   0.621 -0.0943 -0.0074  0.0137
40712SOL     OW25028   6.350   9.257   2.391 -0.4131 -0.3766 -0.3370
40712SOL    HW125029   6.353   9.211   2.307  1.3628 -0.2538 -0.3748
40712SOL    HW225030   6.290   9.205   2.444  0.4082 -1.9410 -0.8632
40713SOL     OW25031   5.061   3.540   9.375  0.0627  0.4072 -0.2185
40713SOL    HW125032   5.045   3.630   9.404 -0.6317  0.7503 -1.6172
40713SOL    HW225033   4.976   3.497   9.382  0.0468  0.2999 -1.0377
40714SOL     OW25034   1.204   1.721   4.600 -0.2873 -0.3246  0.7340
40714SOL    HW125035   1.267   1.776   4.646  0.4613 -0.1909 -0.4031
40714SOL    HW225036   1.258   1.656   4.555 -0.7718  0.6962 -1.4901
40715SOL     OW25037   6.102   2.047   6.171  0.2440  0.0983 -0.6053
40715SOL    HW125038   6.114   2.002   6.087 -0.6158 -0.7258 -0.3072
40715SOL    HW225039   6.139   2.134   6.157  2.3323 -0.8161 -1.0650
40716SOL     OW25040   8.721   1.913   9.696 -0.3456  0.2559 -0.0484
40716SOL    HW125041   8.778   1.850   9.653 -1.3395 -2.0384  1.7991
40716SOL    HW225042   8.632   1.883   9.676 -0.9399  2.1680 -0.5902
40717SOL     OW25043   0.626   2.377   9.993 -0.0079 -0.1721 -0.7697
40717SOL    HW125044   0.613   2.358  10.086  0.4255  0.2214 -0.6263
40717SOL    HW225045   0.553   2.332   9.949  0.0843 -0.7901 -0.2943
40718SOL     OW25046   1.050   0.233   3.846 -0.5227  0.3420 -0.4713
40718SOL    HW125047   1.079   0.209   3.934 -1.6943 -0.3974 -0.2578
40718SOL    HW225048   1.130   0.235   3.794  0.1720  0.6865  0.5878
40719SOL     OW25049  10.090   7.845   4.639 -0.0277 -0.5341 -1.2425
40719SOL    HW125050  10.183   7.823   4.652 -0.6883 -2.9199  0.1178
40719SOL    HW225051  10.088   7.940   4.634  2.4181 -0.3856 -0.7292
40720SOL     OW25052   5.884   4.495   6.042 -0.0399  0.1071  0.0524
40720SOL    HW125053   5.839   4.426   5.994 -0.3955 -0.4155  1.0864
40720SOL    HW225054   5.813   4.548   6.079  0.0647 -1.2785  2.4981
40721SOL     OW25055   1.744   2.155   9.995 -0.5888  0.2161  0.1260
40721SOL    HW125056   1.657   2.190  10.011 -0.9440 -0.3991 -0.4007
40721SOL    HW225057   1.768   2.110  10.077 -0.1995  1.5067  0.7404
40722SOL     OW25058   5.435   0.556   0.796 -0.1414  0.5630  0.1844
40722SOL    HW125059   5.407   0.515   0.878 -1.1836 -0.0712 -0.4723
40722SOL    HW225060   5.482   0.487   0.750  1.1293  1.1452  0.5577
40723SOL     OW25061   5.052  10.367   8.446  0.2330 -0.3156  0.5235
40723SOL    HW125062   5.028  10.407   8.530 -0.7873 -0.2219  0.2101
40723SOL    HW225063   4.967  10.345   8.406  0.6623  0.3994 -0.8447
40724SOL     OW25064   7.471   3.194  10.665 -0.0192 -0.1442  0.3555
40724SOL    HW125065   7.477   3.289  10.667 -1.4098  0.0084 -0.6195
40724SOL    HW225066   7.417   3.171  10.740 -1.8188  0.1083 -0.7938
40725SOL     OW25067   1.987   1.133   5.355 -0.1475  0.1216  0.2320
40725SOL    HW125068   2.012   1.225   5.366  0.2779  0.2119 -1.2891
40725SOL    HW225069   1.894   1.131   5.376  0.3692  0.3458  3.0082
40726SOL     OW25070   1.764   0.845   3.838 -0.5068 -0.8437  0.3687
40726SOL    HW125071   1.768   0.796   3.920  1.5932 -1.4483 -0.0535
40726SOL    HW225072   1.826   0.917   3.850 -1.6396  0.2325  0.0087
40727SOL     OW25073   7.956   1.255   2.240  0.9025  0.3446 -0.1524
40727SOL    HW125074   8.037   1.292   2.204  0.4406 -0.1087 -1.7067
40727SOL    HW225075   7.893   1.261   2.169 -0.0107 -0.7303  0.5412
40728SOL     OW25076   5.951   8.145  10.074 -0.1101 -0.0724 -0.3067
40728SOL    HW125077   5.999   8.068  10.044 -1.5861 -0.7970 -0.9010
40728SOL    HW225078   5.968   8.212  10.008  2.3430  0.6634  0.9228
40729SOL     OW25079  10.497   5.974   6.888  0.1965 -0.3467 -0.1430
40729SOL    HW125080  10.446   5.905   6.846  1.8473 -1.6414 -0.1350
40729SOL    HW225081  10.535   6.024   6.815  0.4482 -0.5733 -0.1683
40730SOL     OW25082   2.784   9.253   4.053  0.8995  0.1007  0.0283
40730SOL    HW125083   2.709   9.304   4.021  0.3160  1.1779  2.8085
40730SOL    HW225084   2.745   9.190   4.114  2.1810  0.4518  1.2685
40731NA      NA25085   2.555   4.340   7.070 -0.0006 -0.6403 -0.2592
40732NA      NA25086   3.979  10.284   7.666  0.3260 -0.0955  0.0118
40733NA      NA25087   6.654   5.687   9.465  0.6029 -0.3324  0.3304
40734NA      NA25088   1.834   8.759   4.133 -0.2662 -0.1103  0.3117
40735NA      NA25089  10.335   6.914   1.089 -0.1782 -0.2741 -0.3032
40736NA      NA25090   8.724   8.188   7.812  0.2159 -0.1317  0.1446
40737NA      NA25091  10.749   1.917   5.281 -0.4306  0.1822  0.8763
40738NA      NA25092   0.236   9.936   5.360  0.2084 -0.3480  0.1796
40739NA      NA25093   6.236   1.079   1.032 -0.0966 -0.2324  0.3164
40740NA      NA25094   7.501   0.624   3.266  0.2296 -0.1989 -0.1766
40741NA      NA25095   8.260   5.573   7.456 -0.1767  0.0512 -0.4884
40742NA      NA25096   8.898   7.913   0.989 -0.1772  0.2069  0.0058
40743NA      NA25097   0.664   6.040   3.545 -0.1349  0.3925 -0.3139
40744NA      NA25098   2.618   0.997   4.938  0.5661  0.3619 -0.3117
40745NA      NA25099   4.253   8.760   4.489 -0.0488  0.3169 -0.1284
40746NA      NA25100   5.131   5.256   3.522  0.4842 -0.2844 -0.0829
40747NA      NA25101   8.532   9.715   1.187 -0.0772  0.8122 -0.3484
40748NA      NA25102   9.933   5.411   2.600 -0.1100 -0.6519  0.1324
40749NA      NA25103   8.196   0.365  10.271  0.2067  0.2044  0.2394
40750NA      NA25104   5.139   3.788   2.831  0.2602 -0.2874 -0.1782
40751NA      NA25105   4.192   1.965   9.944  0.1139 -0.1943 -0.0095
40752NA      NA25106   3.976   6.719   0.826 -0.5898  0.2340 -0.6992
40753NA      NA25107   6.295   1.975   6.690 -0.6889 -0.1980 -0.3143
40754NA      NA25108   7.179   4.130   7.369 -0.3052  0.1356 -0.0395
40755NA      NA25109   8.020   8.728   0.802 -0.0294 -0.5255  0.2098
40756NA      NA25110   4.156   7.207   9.576 -0.9662  0.1106 -0.0786
40757NA      NA25111   9.641   8.563   9.892 -0.1543 -0.0260 -0.3708
40758NA      NA25112   9.271   6.090   4.967 -0.3565  0.2892 -0.0485
40759NA      NA25113   1.871   1.915   4.176 -0.5728  0.3303 -0.2885
40760NA      NA25114   7.055   8.608   0.979  0.0004 -0.0406 -0.4768
40761NA      NA25115   5.897   0.467   6.334  0.3666 -0.4745 -0.0513
40762NA      NA25116   5.651  10.462   8.013 -0.1199  0.0233  0.1221
40763NA      NA25117   0.938   6.569   3.912  0.5556 -0.3212 -0.4806
40764NA      NA25118   5.883  10.062   2.950  0.6855  0.2031  0.0398
40765NA      NA25119   2.740   1.908   8.333  0.1313  0.0690 -0.2402
40766NA      NA25120   3.741   0.196   0.364 -0.0093  0.1842  0.2423
40767NA      NA25121   8.749   9.859   2.118  0.5552 -0.0862 -0.0474
40768NA      NA25122   4.958   6.040   0.950  0.0442  0.0005 -0.1317
40769NA      NA25123   0.582   4.181   2.128 -0.0494  0.8627  0.3311
40770NA      NA25124   1.849   6.247   8.333 -0.5101  0.3398  0.3300
40771NA      NA25125   4.181   9.603   7.622 -0.6752  0.2179 -0.2915
40772NA      NA25126   4.472   5.729   1.990 -0.4498  0.2420  0.6699
40773NA      NA25127   5.947   6.320   6.612 -0.0812 -0.8553  0.3599
40774NA      NA25128   9.326   5.188   7.616  0.2100  0.9250 -0.1044
40775NA      NA25129   3.695   6.455   3.999  0.1729 -0.3011 -0.4028
40776NA      NA25130   1.224   0.668   0.219  0.2115  0.4143  0.0322
40777NA      NA25131   5.990   7.447   2.817  0.2779  0.3221 -0.3222
40778NA      NA25132   8.368   2.049   9.060 -0.5662  0.0018  0.0015
40779NA      NA25133   1.538   0.201   6.717  0.0847 -0.3749  0.1002
40780NA      NA25134   4.570   1.248   5.580 -0.0202  0.0763  0.0295
40781NA      NA25135   6.379  10.365   7.430 -0.2273  0.0685 -0.2880
40782NA      NA25136   0.973   6.787   9.394 -0.3870 -0.2831  0.2836
40783NA      NA25137   0.161   8.941   5.705  0.1936  0.2166 -0.2897
40784NA      NA25138   4.724   7.681   0.837 -0.0785 -0.5417  0.1038
40785NA      NA25139   1.484   7.453   0.843  0.0828  0.1273  0.1405
40786NA      NA25140   7.949   1.598   0.433 -0.6277  0.6705 -0.2162
40787NA      NA25141   3.337   8.622   0.370 -0.1814  0.2042 -0.1627
40788NA      NA25142  10.477   4.468   0.269 -0.0079 -0.1161 -0.0684
40789NA      NA25143   9.671   8.486   7.704  0.1901 -0.5249  0.1170
40790NA      NA25144   1.434   5.964   1.499  0.6518 -0.2797  0.0747
40791NA      NA25145   8.078   1.205   4.317 -0.3203  0.5508 -0.1782
40792NA      NA25146   4.635   7.445   6.379  0.6296 -0.1097  0.2183
40793NA      NA25147   0.896   1.638   1.288 -0.2635  0.0118 -0.0528
40794NA      NA25148   4.543   7.592   9.925 -0.3193  0.1719  0.0697
40795NA      NA25149   0.015   4.484   8.880  0.0204  0.2990  0.0595
40796NA      NA25150   9.564   6.441   2.689 -0.2817  0.0894 -0.5174
40797NA      NA25151   8.057   2.085   1.902  0.0393 -0.1107  0.5434
40798NA      NA25152   5.213  10.201   8.493  0.0145  0.0786 -0.3157
40799NA      NA25153   8.191   8.570   4.820  0.4815  0.2394  0.0406
40800NA      NA25154   3.607   3.709   2.600 -0.4139 -0.0037 -0.3848
40801NA      NA25155   9.991   6.265   7.855 -0.3417 -0.3826  0.1236
40802NA      NA25156   4.346   8.441   2.702  0.0459 -0.1951 -0.5496
40803NA      NA25157   5.562   5.803   4.338 -0.0666  0.3632  0.0944
40804NA      NA25158   1.071   0.391   9.398 -0.0322  0.0146 -0.3365
40805NA      NA25159   4.477   1.909   7.551  0.2333  0.1728  0.4658
40806NA      NA25160   5.708   5.844  10.394 -0.3396 -0.0928  0.2421
40807NA      NA25161   0.938   1.008   7.019  0.0689 -0.0628 -0.1288
40808NA      NA25162   2.957   9.876   2.478 -0.3821  0.3549 -0.3181
40809NA      NA25163   1.211   4.388   2.715 -0.4999  0.5828 -0.0465
40810NA      NA25164   3.287   9.447   1.989 -0.1611  0.0207  0.4028
40811NA      NA25165   1.866   9.101   7.569  0.2056 -0.1927  0.5276
40812NA      NA25166   2.500   4.852   3.060  0.3336  0.4095 -0.2944
40813NA      NA25167   6.287   5.408   4.093 -0.1087  0.5418 -0.4255
40814NA      NA25168   5.276   2.268   3.527 -0.1323 -0.0541  0.3311
40815NA      NA25169   4.905   9.605   6.945 -0.1118 -0.1533  0.3537
40816NA      NA25170  10.293   3.942   9.527 -0.3377 -0.2131  0.5031
40817NA      NA25171   8.038   2.450   7.205  0.4649 -0.3885  0.2413
40818NA      NA25172   9.251   5.051   5.328 -0.2992  0.1052  0.0014
40819NA      NA25173   7.308  10.061   3.867 -0.1633 -0.0614  0.1878
40820NA      NA25174   9.323   4.861   6.357 -0.4584  0.2707 -0.4610
40821NA      NA25175   7.967  10.354   2.057  0.2161 -0.1586  0.2286
40822NA      NA25176   2.456   4.310   9.447  0.1945 -0.1612  0.6659
40823NA      NA25177   4.504   3.445   1.952  0.6962  0.4043 -0.0884
40824NA      NA25178   3.768   3.821  10.526 -0.2240  0.6526 -0.1454
40825NA      NA25179   6.579   4.782   6.453 -0.1608  0.0460 -0.1881
40826NA      NA25180   3.773   5.268   4.933 -0.3646  0.1057 -0.1228
40827NA      NA25181   9.030   2.076   3.142  0.5885 -0.0489  0.2442
40828NA      NA25182   4.770  10.340   1.806 -0.7286  0.0083  0.3393
40829NA      NA25183   1.018   2.643   8.478 -0.4367 -0.2437  0.1443
40830NA      NA25184   1.342   0.631   3.367 -0.0595 -0.0722  0.7851
40831NA      NA25185   3.588   8.041   3.995 -0.0487 -0.3059 -0.2952
40832NA      NA25186   4.829   3.197   5.397 -0.0435  0.3579  0.2857
40833NA      NA25187   0.703   2.339   8.814 -0.8469  0.2750  0.2674
40834NA      NA25188   8.121   8.044   3.871  0.4910 -0.0305  0.2985
40835NA      NA25189   0.636   6.901   4.237 -0.4073  0.3820  0.0622
40836NA      NA25190  10.608   9.798   6.854  0.0130 -0.0596 -0.3780
40837NA      NA25191   3.610   6.568   9.019  0.1353  0.1869  0.0492
40838NA      NA25192   7.220   4.396   7.157  0.4501 -0.0277  0.2793
40839NA      NA25193   9.951   6.071   9.154  0.0319 -0.0218 -0.1484
40840NA      NA25194   7.255   2.223   1.528  0.0718  0.0301  0.0387
40841NA      NA25195   4.760   4.770   4.460 -0.1448  0.1696 -0.0082
40842NA      NA25196   6.852   9.857   2.727 -0.0007 -0.2853 -0.4942
40843NA      NA25197   9.304   5.020   8.941 -0.1093 -0.0708 -0.1065
40844NA      NA25198   3.306   4.808   0.196 -0.0303  0.0987  0.2404
40845NA      NA25199   2.709   5.144   3.576 -0.6505 -0.4078  0.1214
40846NA      NA25200   5.715   1.103   9.731  0.0537  0.1668  0.0104
40847CL      CL25201   4.646   3.711   6.486  0.2308 -0.1424 -0.1925
40848CL      CL25202   8.524   5.873   6.800 -0.0721  0.0362  0.2211
40849CL      CL25203   7.539  10.574   2.847 -0.0532  0.1520  0.2924
40850CL      CL25204   0.497   2.444   8.847 -0.2118  0.1313 -0.0677
40851CL      CL25205   5.212   2.035   2.187  0.1077 -0.0857  0.3195
40852CL      CL25206   0.057   5.487   3.294 -0.1185 -0.3157 -0.4987
40853CL      CL25207   6.991   7.962   4.307 -0.2108  0.4004 -0.0176
40854CL      CL25208  10.791   1.864  10.126  0.1027 -0.2282  0.2736
40855CL      CL25209   5.757   4.581   0.940 -0.0324 -0.7249  0.4960
40856CL      CL25210   2.568   8.989   3.883  0.2513 -0.0602 -0.3004
40857CL      CL25211   9.246   6.166   7.642 -0.2957  0.0325 -0.0025
40858CL      CL25212   3.135   7.393   1.593  0.0131  0.1665 -0.4395
40859CL      CL25213   6.495   3.931   9.201 -0.0124 -0.2188  0.2004
40860CL      CL25214   1.340   7.167   4.744  0.1228  0.6441  0.0509
40861CL      CL25215   6.226   9.844   3.630  0.5492 -0.1336 -0.5829
40862CL      CL25216   9.633   6.696   0.018  0.1218 -0.3930 -0.2671
40863CL      CL25217  10.371   4.686   0.271  0.3590  0.3477 -0.2275
40864CL      CL25218   3.132   7.838   8.134  0.2766  0.1637  0.3987
40865CL      CL25219   2.407  10.583   4.501 -0.3608 -0.1872  0.4140
40866CL      CL25220   7.071   5.637   8.114  0.2962  0.3134 -0.2131
40867CL      CL25221   4.910  10.742   8.842 -0.0475 -0.1321 -0.0126
40868CL      CL25222   4.784   9.599   8.655 -0.2179  0.2991 -0.3097
40869CL      CL25223   6.268  10.484   8.433 -0.0443  0.0176  0.2511
40870CL      CL25224   8.278   7.541   2.247 -0.0101 -0.1808  0.1483
40871CL      CL25225   3.589   2.540   9.888  0.0700  0.3396  0.1555
40872CL      CL25226   4.085   7.178   9.799 -0.1114 -0.0445  0.3082
40873CL      CL25227   9.503   5.154   3.989 -0.1177  0.2261  0.4872
40874CL      CL25228   5.614   5.097   8.695 -0.0257  0.3168  0.1901
40875CL      CL25229   8.363   3.232   4.609  0.1658  0.0268  0.2880
40876CL      CL25230   5.626   1.769   3.530 -0.2013 -0.1090  0.5922
40877CL      CL25231   5.849  10.553   5.454 -0.2098  0.3574 -0.0743
40878CL      CL25232   3.930  10.691   5.752  0.1559  0.3464  0.2929
40879CL      CL25233   2.410   4.560   5.248 -0.3724 -0.0098 -0.5707
40880CL      CL25234   1.300   4.518   6.452 -0.1275  0.4172  0.0821
40881CL      CL25235  10.071   2.875   1.422 -0.2744  0.2055 -0.4346
40882CL      CL25236   3.079   9.723   0.494 -0.3723  0.0110  0.3308
40883CL      CL25237   9.218   5.240   6.736 -0.1667  0.1831  0.0695
40884CL      CL25238   0.663   2.415   8.328  0.2398 -0.6511 -0.3162
40885CL      CL25239   9.342   3.246   1.962 -0.0145 -0.1493 -0.1392
40886CL      CL25240   6.604   8.109   1.390 -0.4126 -0.0852  0.1306
40887CL      CL25241   8.022   0.942   9.898 -0.0935 -0.1989  0.6246
40888CL      CL25242   6.869  10.348   2.726  0.1141 -0.0936 -0.0484
40889CL      CL25243   6.070   1.260   2.325  0.2727  0.1609  0.1120
40890CL      CL25244   4.970   5.493   4.962  0.1111  0.1692  0.1692
40891CL      CL25245   4.218   0.920   1.851 -0.1747  0.4715 -0.3950
40892CL      CL25246   3.419   6.305   1.338 -0.7684  0.4669 -0.0841
40893CL      CL25247   5.526   7.585   5.475 -0.1663  0.5095  0.0551
40894CL      CL25248   7.268   6.948   6.174 -0.0745  0.0753 -0.1218
40895CL      CL25249   1.439   0.241   3.525  0.2822  0.1954  0.1919
40896CL      CL25250   7.555   7.450   7.339 -0.2037 -0.2104  0.0579
40897CL      CL25251   5.994   5.684   4.301  0.0960  0.1347 -0.4243
40898CL      CL25252   4.673   8.777   9.147  0.1191  0.0364 -0.0272
40899CL      CL25253   5.380   5.379  10.724 -0.2987 -0.0262  0.4162
40900CL      CL25254   2.609   8.139  10.572 -0.0354  0.1043 -0.1071
40901CL      CL25255   8.633   9.652   2.198  0.1389  0.3252 -0.6125
40902CL      CL25256   7.346   1.226   7.401 -0.1202 -0.0901 -0.1703
40903CL      CL25257   1.410  10.753   6.322  0.1853 -0.0849 -0.1402
40904CL      CL25258   4.058   2.180   5.429  0.4733  0.1563 -0.2746
40905CL      CL25259   3.635   8.875   2.802  0.0318 -0.1046  0.2955
40906CL      CL25260   0.793   7.338   1.926 -0.1759 -0.3711 -0.3819
40907CL      CL25261   0.849   7.278   0.822 -0.1636 -0.7192 -0.1595
40908CL      CL25262  10.670   6.984  10.169 -0.0619  0.1874  0.2710
40909CL      CL25263  10.431   0.226   1.051 -0.1429 -0.1706 -0.1479
40910CL      CL25264   6.801   3.537   1.934  0.3182  0.0695 -0.3881
40911CL      CL25265   3.001   3.016   2.377 -0.7238  0.3148 -0.4100
40912CL      CL25266   0.008   6.518   4.398 -0.0407  0.1358  0.0512
40913CL      CL25267   4.383   1.348   0.988  0.2748 -0.3190  0.0438
40914CL      CL25268   5.525   6.098   6.601 -0.1125 -0.2638 -0.0711
40915CL      CL25269  10.641   8.490   6.138 -0.4943 -0.1556  0.1250
40916CL      CL25270   4.077   4.277   9.958  0.1864  0.4139  0.0733
40917CL      CL25271   6.214   1.679   8.535  0.2283  0.6283  0.0569
40918CL      CL25272   1.066   9.253   4.447  0.6521 -0.6056 -0.2715
40919CL      CL25273   4.335   7.613   0.329 -0.5737 -0.2015 -0.3043
40920CL      CL25274   0.325   7.021   3.834 -0.2229 -0.0293  0.0614
40921CL      CL25275   4.659   4.674   5.278  0.2354  0.2379  0.3576
40922CL      CL25276   0.127   9.650   2.406 -0.1732 -0.3102 -0.1085
40923CL      CL25277   5.457   6.696  10.575  0.1974 -0.0001  0.0176
40924CL      CL25278   2.188   9.893   7.931 -0.4694 -0.0322 -0.1883
40925CL      CL25279   2.349   2.121   6.576 -0.2831  0.0964  0.2987
40926CL      CL25280   1.151   6.381   6.589 -0.4937  0.2091 -0.1243
40927CL      CL25281   1.849  10.293   5.421 -0.1516 -0.0792  0.2266
40928CL      CL25282   5.402   8.324   7.250  0.3496  0.3698  0.0060
40929CL      CL25283  10.683   7.812   2.911 -0.0623  0.0390 -0.0175
40930CL      CL25284   9.122   1.361   5.160  0.1537  0.0294 -0.2801
40931CL      CL25285   7.439   0.658   3.487 -0.0974 -0.1854  0.3501
40932CL      CL25286   1.647   5.817   9.527  0.3707  0.3383 -0.5631
40933CL      CL25287   8.674   7.056   8.759  0.3281  0.0349 -0.0602
40934CL      CL25288   8.968   7.513   8.240  0.6003 -0.0812  0.0908
40935CL      CL25289   5.349   7.130   9.518 -0.0509  0.2322  0.2119
40936CL      CL25290   9.662   6.054   5.562  0.7215 -0.0808  0.5482
40937CL      CL25291   3.235   8.217   3.639 -0.3314  0.2726 -0.0579
40938CL      CL25292   7.928   2.219  10.596  0.0817  0.1266 -0.1332
40939CL      CL25293   1.370   0.483   2.944 -0.0105  0.4007  0.3822
40940CL      CL25294  10.297   0.991   7.213 -0.0319 -0.0367 -0.1392
40941CL      CL25295   2.039   4.506   3.750  0.5921 -0.2057 -0.6361
40942CL      CL25296   1.983   3.358   0.051  0.1910  0.1722 -0.0555
40943CL      CL25297   1.253   0.710  10.589 -0.5997 -0.3572 -0.1769
40944CL      CL25298   5.609   5.729   0.524  0.3269 -0.2495 -0.2637
40945CL      CL25299   5.397   2.982   3.114  0.3093  0.5014 -0.1648
40946CL      CL25300   4.016  10.100   2.329  0.5015  0.1228  0.0100
40947CL      CL25301   4.402  10.596   7.270  0.3123 -0.1762  0.2170
40948CL      CL25302   5.778   4.494   4.082  0.0241 -0.1215  0.1083
40949CL      CL25303   0.968   1.930   9.092 -0.3728 -0.0737 -0.0292
40950CL      CL25304   2.039   8.115   1.689  0.0556  0.3072 -0.1301
40951CL      CL25305   0.987   8.459   8.094  0.1261  0.0089  0.1012
40952CL      CL25306   9.574   6.523   4.899  0.1142  0.1935 -0.2499
40953CL      CL25307   2.745   6.139   1.863  0.4119  0.1541 -0.7231
40954CL      CL25308   6.092   8.122   9.306  0.0528  0.1878 -0.0097
40955CL      CL25309   3.612   3.723   3.497 -0.0298  0.0422 -0.3219
40956CL      CL25310   9.155   7.691   3.364  0.1542 -0.4561 -0.2337
40957CL      CL25311  10.781  10.553   5.679 -0.0799  0.1021  0.3121
40958CL      CL25312   9.071   2.473   1.414  0.0689  0.0551  0.1072
40959CL      CL25313   5.495   3.930   1.159 -0.0960  0.2566  0.3203
40960CL      CL25314  10.653   7.046   2.369  0.5179  0.2947  0.0764
40961CL      CL25315   8.109   4.944   5.279  0.3859  0.4125  0.1069
40962CL      CL25316  10.176   2.903   9.152 -0.0524 -0.0242  0.0353
  10.79686  10.79686  10.79686
